
Running Job 1 of 1 202-rad-SM12.in
qchem 202-rad-SM12.in_3086606.0 /expanse/lustre/scratch/selhajj/temp_project/qcscratch/28446398/qchem3086606/ 0
/cm/shared/apps/spack/cpu/opt/spack/linux-centos8-zen2/gcc-10.2.0/qchem-5.4-akfmr7b3t57bfs6qan3padb2wnb2i7cl/exe/qcprog.exe_s 202-rad-SM12.in_3086606.0 /expanse/lustre/scratch/selhajj/temp_project/qcscratch/28446398/qchem3086606/
                  Welcome to Q-Chem
     A Quantum Leap Into The Future Of Chemistry


 Q-Chem 5.4, Q-Chem, Inc., Pleasanton, CA (2021)

 License issued to: University of California, San Diego (site)

 E. Epifanovsky,  A. T. B. Gilbert,  Xintian Feng,  Joonho Lee,  Yuezhi Mao,  
 N. Mardirossian,  P. Pokhilko,  A. White,  M. Wormit,  M. P. Coons,  
 A. L. Dempwolff,  Zhengting Gan,  D. Hait,  P. R. Horn,  L. D. Jacobson,  
 I. Kaliman,  J. Kussmann,  A. W. Lange,  Ka Un Lao,  D. S. Levine,  Jie Liu,  
 S. C. McKenzie,  A. F. Morrison,  K. Nanda,  F. Plasser,  D. R. Rehn,  
 M. L. Vidal,  Zhi-Qiang You,  Ying Zhu,  B. Alam,  B. Albrecht,  
 A. Aldossary,  E. Alguire,  J. H. Andersen,  D. Barton,  K. Begam,  A. Behn,  
 Y. A. Bernard,  E. J. Berquist,  H. Burton,  A. Carreras,  K. Carter-Fenk,  
 R. Chakraborty,  A. D. Chien,  K. D. Closser,  V. Cofer-Shabica,  
 S. Dasgupta,  Jia Deng,  M. de Wergifosse,  M. Diedenhofen,  Hainam Do,  
 S. Ehlert,  Po-Tung Fang,  S. Fatehi,  Qingguo Feng,  J. Gayvert,  
 Qinghui Ge,  G. Gidofalvi,  M. Goldey,  J. Gomes,  C. Gonzalez-Espinoza,  
 S. Gulania,  A. Gunina,  M. W. D. Hanson-Heine,  P. H. P. Harbach,  
 A. W. Hauser,  M. F. Herbst,  M. Hernandez Vera,  M. Hodecker,  
 Z. C. Holden,  S. Houck,  Xunkun Huang,  Kerwin Hui,  B. C. Huynh,  
 M. Ivanov,  Hyunjun Ji,  Hanjie Jiang,  B. Kaduk,  S. Kaehler,  
 K. Khistyaev,  Jaehoon Kim,  P. Klunzinger,  Z. Koczor-Benda,  
 Joong Hoon Koh,  D. Kosenkov,  L. Koulias,  T. Kowalczyk,  C. M. Krauter,  
 K. Kue,  A. Kunitsa,  T. Kus,  A. Landau,  K. V. Lawler,  D. Lefrancois,  
 S. Lehtola,  Rain Li,  Yi-Pei Li,  Jiashu Liang,  M. Liebenthal,  
 Hung-Hsuan Lin,  You-Sheng Lin,  Fenglai Liu,  Kuan-Yu Liu,  
 M. Loipersberger,  A. Luenser,  A. Manjanath,  P. Manohar,  E. Mansoor,  
 S. F. Manzer,  Shan-Ping Mao,  A. V. Marenich,  T. Markovich,  S. Mason,  
 S. A. Maurer,  P. F. McLaughlin,  M. F. S. J. Menger,  J.-M. Mewes,  
 S. A. Mewes,  P. Morgante,  J. W. Mullinax,  T. S. Nguyen-Beck,  
 K. J. Oosterbaan,  G. Paran,  Alexander C. Paul,  Suranjan K. Paul,  
 F. Pavosevic,  Zheng Pei,  S. Prager,  E. I. Proynov,  E. Ramos,  B. Rana,  
 A. E. Rask,  A. Rettig,  R. M. Richard,  F. Rob,  E. Rossomme,  T. Scheele,  
 M. Scheurer,  M. Schneider,  N. Sergueev,  S. M. Sharada,  W. Skomorowski,  
 D. W. Small,  C. J. Stein,  Yu-Chuan Su,  E. J. Sundstrom,  Zhen Tao,  
 J. Thirman,  T. Tsuchimochi,  N. M. Tubman,  S. P. Veccham,  O. Vydrov,  
 J. Wenzel,  J. Witte,  A. Yamada,  Kun Yao,  S. Yeganeh,  S. R. Yost,  
 A. Zech,  Igor Ying Zhang,  Xing Zhang,  Yu Zhang,  D. Zuev,  
 A. Aspuru-Guzik,  A. T. Bell,  N. A. Besley,  K. B. Bravaya,  B. R. Brooks,  
 D. Casanova,  Jeng-Da Chai,  S. Coriani,  C. J. Cramer,  
 A. E. DePrince, III,  R. A. DiStasio Jr.,  A. Dreuw,  B. D. Dunietz,  
 T. R. Furlani,  W. A. Goddard III,  S. Grimme,  S. Hammes-Schiffer,  
 T. Head-Gordon,  W. J. Hehre,  Chao-Ping Hsu,  T.-C. Jagau,  Yousung Jung,  
 A. Klamt,  Jing Kong,  D. S. Lambrecht,  WanZhen Liang,  N. J. Mayhall,  
 C. W. McCurdy,  J. B. Neaton,  C. Ochsenfeld,  J. A. Parkhill,  R. Peverati,  
 V. A. Rassolov,  Yihan Shao,  L. V. Slipchenko,  T. Stauch,  R. P. Steele,  
 J. E. Subotnik,  A. J. W. Thom,  A. Tkatchenko,  D. G. Truhlar,  
 T. Van Voorhis,  T. A. Wesolowski,  K. B. Whaley,  H. L. Woodcock III,  
 P. M. Zimmerman,  S. Faraji,  P. M. W. Gill,  M. Head-Gordon,  
 J. M. Herbert,  A. I. Krylov

 Contributors to earlier versions of Q-Chem not listed above: 
 R. D. Adamson,  B. Austin,  R. Baer,  J. Baker,  G. J. O. Beran,  
 K. Brandhorst,  S. T. Brown,  E. F. C. Byrd,  A. K. Chakraborty,  
 G. K. L. Chan,  Chun-Min Chang,  Yunqing Chen,  C.-L. Cheng,  
 Siu Hung Chien,  D. M. Chipman,  D. L. Crittenden,  H. Dachsel,  
 R. J. Doerksen,  A. D. Dutoi,  R. G. Edgar,  J. Fosso-Tande,  
 L. Fusti-Molnar,  D. Ghosh,  A. Ghysels,  A. Golubeva-Zadorozhnaya,  
 J. Gonthier,  M. S. Gordon,  S. R. Gwaltney,  G. Hawkins,  J. E. Herr,  
 A. Heyden,  S. Hirata,  E. G. Hohenstein,  G. Kedziora,  F. J. Keil,  
 C. Kelley,  Jihan Kim,  R. A. King,  R. Z. Khaliullin,  P. P. Korambath,  
 W. Kurlancheek,  A. Laurent,  A. M. Lee,  M. S. Lee,  S. V. Levchenko,  
 Ching Yeh Lin,  D. Liotard,  E. Livshits,  R. C. Lochan,  I. Lotan,  
 L. A. Martinez-Martinez,  P. E. Maslen,  N. Nair,  D. P. O'Neill,  
 D. Neuhauser,  E. Neuscamman,  C. M. Oana,  R. Olivares-Amaya,  R. Olson,  
 T. M. Perrine,  B. Peters,  P. A. Pieniazek,  A. Prociuk,  Y. M. Rhee,  
 J. Ritchie,  M. A. Rohrdanz,  E. Rosta,  N. J. Russ,  H. F. Schaefer III,  
 M. W. Schmidt,  N. E. Schultz,  S. Sharma,  N. Shenvi,  C. D. Sherrill,  
 A. C. Simmonett,  A. Sodt,  T. Stein,  D. Stuck,  K. S. Thanthiriwatte,  
 V. Vanovschi,  L. Vogt,  Tao Wang,  A. Warshel,  M. A. Watson,  
 C. F. Williams,  Q. Wu,  X. Xu,  Jun Yang,  W. Zhang,  Yan Zhao

 Please cite Q-Chem as follows:
 Y. Shao et al., Mol. Phys. 113, 184-215 (2015)
 DOI: 10.1080/00268976.2014.952696

 Q-Chem 5.4.0 for Intel X86 EM64T Linux

 Parts of Q-Chem use Armadillo 9.800.1 (Horizon Scraper).
 http://arma.sourceforge.net/

 Q-Chem begins on Sat Feb  3 12:51:42 2024  

 Host: 
0

     Scratch files written to /expanse/lustre/scratch/selhajj/temp_project/qcscratch/28446398/qchem3086606//
 May1621 |scratch|qcdevops|jenkins|workspace|build_RNUM    
 Processing $rem in /cm/shared/apps/spack/cpu/opt/spack/linux-centos8-zen2/gcc-10.2.0/qchem-5.4-akfmr7b3t57bfs6qan3padb2wnb2i7cl/config/preferences:
 Processing $rem in /home/selhajj/.qchemrc:
 Symmetry turned off for PCM/SM12/SMD calculation
 Method-specific promolecule density matrix will be built for SM12 calculation

 Checking the input file for inconsistencies... 	...done.

--------------------------------------------------------------
User input:
--------------------------------------------------------------
$molecule
-1 2
O                  4.9764350000      0.6038950000     -0.6554550000
C                  3.6895870000      0.1276030000     -0.4772540000
C                  3.5292690000     -1.2708900000     -0.4187460000
C                  2.2640640000     -1.7956020000     -0.2419740000
C                  1.1299520000     -0.9696700000     -0.1186400000
C                 -0.1932110000     -1.5933500000      0.0682410000
O                 -0.2965180000     -2.8337930000      0.1152260000
C                 -1.3378470000     -0.6749290000      0.1902620000
C                 -2.6625870000     -1.1501680000      0.3732800000
O                 -2.9107880000     -2.5030180000      0.4420810000
C                 -3.7235480000     -0.2609880000      0.4852060000
C                 -3.5284490000      1.1242640000      0.4223630000
C                 -2.2545920000      1.6375740000      0.2449050000
O                 -2.0895100000      2.9780450000      0.1872330000
C                 -1.1366590000      0.7512560000      0.1255940000
C                  0.1764030000      1.3307630000     -0.0586990000
O                  0.3525680000      2.6047790000     -0.1159740000
C                  1.3050270000      0.4342870000     -0.1792490000
C                  2.6028810000      0.9661010000     -0.3604080000
H                  4.9371550000      1.5656010000     -0.6762500000
H                  4.4016870000     -1.9075390000     -0.5136080000
H                  2.1065950000     -2.8666570000     -0.1927390000
H                 -3.8601360000     -2.6071040000      0.5660330000
H                 -4.7287060000     -0.6543390000      0.6250280000
H                 -4.3621100000      1.8114840000      0.5106390000
H                 -1.0928410000      3.1061070000      0.0559050000
H                  2.7058810000      2.0462890000     -0.4030020000
$end

$rem
BASIS  =  6-311++G(d,p)
GUI  =  2
JOB_TYPE  =  SP
METHOD  =  B3LYP
SCF_CONVERGENCE  = 8
SOLVENT_METHOD = sm12
$end

$smx
solvent dimethylformamide
charges CM5
$end





--------------------------------------------------------------
 ----------------------------------------------------------------
             Standard Nuclear Orientation (Angstroms)
    I     Atom           X                Y                Z
 ----------------------------------------------------------------
    1      O       4.9764350000     0.6038950000    -0.6554550000
    2      C       3.6895870000     0.1276030000    -0.4772540000
    3      C       3.5292690000    -1.2708900000    -0.4187460000
    4      C       2.2640640000    -1.7956020000    -0.2419740000
    5      C       1.1299520000    -0.9696700000    -0.1186400000
    6      C      -0.1932110000    -1.5933500000     0.0682410000
    7      O      -0.2965180000    -2.8337930000     0.1152260000
    8      C      -1.3378470000    -0.6749290000     0.1902620000
    9      C      -2.6625870000    -1.1501680000     0.3732800000
   10      O      -2.9107880000    -2.5030180000     0.4420810000
   11      C      -3.7235480000    -0.2609880000     0.4852060000
   12      C      -3.5284490000     1.1242640000     0.4223630000
   13      C      -2.2545920000     1.6375740000     0.2449050000
   14      O      -2.0895100000     2.9780450000     0.1872330000
   15      C      -1.1366590000     0.7512560000     0.1255940000
   16      C       0.1764030000     1.3307630000    -0.0586990000
   17      O       0.3525680000     2.6047790000    -0.1159740000
   18      C       1.3050270000     0.4342870000    -0.1792490000
   19      C       2.6028810000     0.9661010000    -0.3604080000
   20      H       4.9371550000     1.5656010000    -0.6762500000
   21      H       4.4016870000    -1.9075390000    -0.5136080000
   22      H       2.1065950000    -2.8666570000    -0.1927390000
   23      H      -3.8601360000    -2.6071040000     0.5660330000
   24      H      -4.7287060000    -0.6543390000     0.6250280000
   25      H      -4.3621100000     1.8114840000     0.5106390000
   26      H      -1.0928410000     3.1061070000     0.0559050000
   27      H       2.7058810000     2.0462890000    -0.4030020000
 ----------------------------------------------------------------
 Nuclear Repulsion Energy =        1353.63044235 hartrees
 There are       67 alpha and       66 beta electrons
 Requested basis set is 6-311++G(d,p)
 There are 154 shells and 474 basis functions

 Total QAlloc Memory Limit   8000 MB
 Mega-Array Size       188 MB
 MEM_STATIC part       192 MB
 A cutoff of  1.0D-11 yielded   9052 shell pairs
 There are     89240 function pairs (     95898 Cartesian)
 Smallest overlap matrix eigenvalue = 5.98E-08

 Q-Chem warning in module stvman/mkSTV.C, line 323:

 Overlap eigenvalue is smaller than square root of threshold
 Use THRESH >= 12 to get rid of this warning

 Linear dependence detected in AO basis
 Tighter screening thresholds may be required for diffuse basis sets
 Use S2THRESH > 14 and THRESH = 14 in case of SCF convergence issues
 Number of orthogonalized atomic orbitals = 467
 Maximum deviation from orthogonality = 1.879E-10

 Scale SEOQF with 1.000000e-01/1.000000e-01/1.000000e-01

 Standard Electronic Orientation quadrupole field applied
 Nucleus-field energy     =     0.0000000585 hartrees
 ================ Generating on-the-fly Promolecule Density  ================
Attempting to make child job directory: /expanse/lustre/scratch/selhajj/temp_project/qcscratch/28446398/qchem3086606//Frg1/
Attempting to make child job directory: /expanse/lustre/scratch/selhajj/temp_project/qcscratch/28446398/qchem3086606//Frg2/
Attempting to make child job directory: /expanse/lustre/scratch/selhajj/temp_project/qcscratch/28446398/qchem3086606//Frg3/
Creating input file /expanse/lustre/scratch/selhajj/temp_project/qcscratch/28446398/qchem3086606/Frg1.input
using default PutDataFrgm: nothing
calling putenv with: QCSCRATCH=/expanse/lustre/scratch/selhajj/temp_project/qcscratch/28446398/qchem3086606/ 
Spawning Job For Fragment 0
Done Job For Fragment 0
calling putenv with: QCSCRATCH=/expanse/lustre/scratch/selhajj/temp_project/qcscratch/28446398 
calling putenv with: QCTHREADS=8 
Creating input file /expanse/lustre/scratch/selhajj/temp_project/qcscratch/28446398/qchem3086606/Frg2.input
using default PutDataFrgm: nothing
calling putenv with: QCSCRATCH=/expanse/lustre/scratch/selhajj/temp_project/qcscratch/28446398/qchem3086606/ 
Spawning Job For Fragment 1
Done Job For Fragment 1
calling putenv with: QCSCRATCH=/expanse/lustre/scratch/selhajj/temp_project/qcscratch/28446398 
calling putenv with: QCTHREADS=8 
Creating input file /expanse/lustre/scratch/selhajj/temp_project/qcscratch/28446398/qchem3086606/Frg3.input
using default PutDataFrgm: nothing
calling putenv with: QCSCRATCH=/expanse/lustre/scratch/selhajj/temp_project/qcscratch/28446398/qchem3086606/ 
Spawning Job For Fragment 2
Done Job For Fragment 2
calling putenv with: QCSCRATCH=/expanse/lustre/scratch/selhajj/temp_project/qcscratch/28446398 
calling putenv with: QCTHREADS=8 
 Time for running child jobs:  CPU 0.01 s  wall 4.26 s
 ============= Method Specific Promolecule Density Constructed =============
 Guess from superposition of atomic densities
 Warning:  Energy on first SCF cycle will be non-variational
 SAD guess density has 132.000000 electrons

 -----------------------------------------------------------------------
  General SCF calculation program by
  Eric Jon Sundstrom, Paul Horn, Yuezhi Mao, Dmitri Zuev, Alec White,
  David Stuck, Shaama M.S., Shane Yost, Joonho Lee, David Small,
  Daniel Levine, Susi Lehtola, Hugh Burton, Evgeny Epifanovsky,
  Bang C. Huynh
 -----------------------------------------------------------------------
 Exchange:     0.2000 Hartree-Fock + 0.0800 Slater + 0.7200 B88
 Correlation:  0.1900 VWN1RPA + 0.8100 LYP
 Using SG-1 standard quadrature grid
 using 8 threads for integral computing
 -------------------------------------------------------
 OpenMP Integral computing Module                
 Release: version 1.0, May 2013, Q-Chem Inc. Pittsburgh 
 -------------------------------------------------------
 
 SM12 calculation using CM5 charges
 Citation of the SM12 model:
 Marenich, A.V.; Cramer, C.J.; Truhlar, D.G.
 J. Chem. Theory Comput. 2013, 9, 609-612.
 iSolventCode=          91
 Solvent: dimethylformamide                                               
 
Hirshfeld: reading atomic densities from disk.
warning:  vdwdata pointer should have been initialzed before dftman
 Inaccurate integrated density:
   Number of electrons =   133
   Numerical integral  =   131.998832447719
   Relative error      =    -0.7527575581 %

 Charges (in A.U.) from CM5PAC (Nov. 11, 2011)
 -----------------------------------------------
 Center     Atomic      CM5         Hirshfeld
 Number     Number      Charge      Charge
 -----------------------------------------------
    1          8       -0.223993   -0.024897
    2          6        0.016378    0.005782
    3          6       -0.049898    0.000421
    4          6       -0.051461   -0.000298
    5          6       -0.001411    0.000252
    6          6        0.041287    0.008353
    7          8       -0.058615   -0.014839
    8          6        0.005958    0.002612
    9          6        0.021535    0.007044
   10          8       -0.220527   -0.023025
   11          6       -0.051393   -0.000094
   12          6       -0.049575    0.000454
   13          6        0.023357    0.007445
   14          8       -0.201594   -0.021493
   15          6        0.004152    0.002538
   16          6        0.034564    0.007886
   17          8       -0.099935   -0.019849
   18          6       -0.001522    0.000076
   19          6       -0.045409    0.002245
   20          1        0.186058    0.011760
   21          1        0.063259    0.004560
   22          1        0.067066    0.005518
   23          1        0.186551    0.011440
   24          1        0.061680    0.003433
   25          1        0.063448    0.004546
   26          1        0.212182    0.013429
   27          1        0.069023    0.005868
 -----------------------------------------------

 Dipole moment (in Debye)
 -----------------------------------------------
                 X        Y        Z     Total
 -----------------------------------------------
 CM5         -0.8501   0.7409   0.0885   1.1311
 Hirshfeld   -0.0906  -0.0127   0.0119   0.0922
 -----------------------------------------------

 A unrestricted SCF calculation will be
 performed using DIIS
 SCF converges when DIIS error is below 1.0e-08
 ---------------------------------------
  Cycle       Energy         DIIS error
 ---------------------------------------
Hirshfeld: reading atomic densities from disk.

 Charges (in A.U.) from CM5PAC (Nov. 11, 2011)
 -----------------------------------------------
 Center     Atomic      CM5         Hirshfeld
 Number     Number      Charge      Charge
 -----------------------------------------------
    1          8       -0.486552   -0.287457
    2          6        0.193388    0.182792
    3          6       -0.211414   -0.161095
    4          6       -0.172549   -0.121385
    5          6       -0.107420   -0.105756
    6          6        0.250172    0.217238
    7          8       -0.653720   -0.609945
    8          6       -0.100083   -0.103429
    9          6        0.182734    0.168243
   10          8       -0.495941   -0.298438
   11          6       -0.215296   -0.163997
   12          6       -0.237358   -0.187329
   13          6        0.175755    0.159843
   14          8       -0.522154   -0.342054
   15          6       -0.093614   -0.095228
   16          6        0.228405    0.201727
   17          8       -0.575364   -0.495279
   18          6       -0.074181   -0.072582
   19          6       -0.213256   -0.165602
   20          1        0.440707    0.266410
   21          1        0.176680    0.117981
   22          1        0.167137    0.105589
   23          1        0.439350    0.264239
   24          1        0.185985    0.127738
   25          1        0.175951    0.117049
   26          1        0.368318    0.169565
   27          1        0.174740    0.111585
 -----------------------------------------------

 Dipole moment (in Debye)
 -----------------------------------------------
                 X        Y        Z     Total
 -----------------------------------------------
 CM5         -0.3391   1.9790  -0.0117   2.0079
 Hirshfeld    0.4204   1.2254  -0.0883   1.2985
 -----------------------------------------------

    1    -919.3155324826      1.57e-02  
Hirshfeld: reading atomic densities from disk.

 Charges (in A.U.) from CM5PAC (Nov. 11, 2011)
 -----------------------------------------------
 Center     Atomic      CM5         Hirshfeld
 Number     Number      Charge      Charge
 -----------------------------------------------
    1          8       -0.257425   -0.058329
    2          6       -0.129041   -0.139637
    3          6       -0.024619    0.025700
    4          6       -0.011760    0.039403
    5          6       -0.005541   -0.003878
    6          6       -0.209495   -0.242429
    7          8        0.299506    0.343282
    8          6       -0.057951   -0.061297
    9          6       -0.128580   -0.143071
   10          8       -0.210856   -0.013354
   11          6       -0.056969   -0.005671
   12          6       -0.002748    0.047282
   13          6       -0.118434   -0.134347
   14          8       -0.275561   -0.095460
   15          6       -0.089404   -0.091018
   16          6       -0.225773   -0.252451
   17          8       -0.029309    0.050776
   18          6       -0.032473   -0.030875
   19          6       -0.054944   -0.007290
   20          1        0.238707    0.064409
   21          1        0.014809   -0.043889
   22          1       -0.017255   -0.078804
   23          1        0.182940    0.007828
   24          1        0.005153   -0.053094
   25          1        0.017398   -0.041504
   26          1        0.184771   -0.013982
   27          1       -0.003465   -0.066620
 -----------------------------------------------

 Dipole moment (in Debye)
 -----------------------------------------------
                 X        Y        Z     Total
 -----------------------------------------------
 CM5          1.0986  -4.3963  -0.0220   4.5316
 Hirshfeld    1.8581  -5.1499  -0.0986   5.4757
 -----------------------------------------------

    2    -914.3874324466      1.96e-03  
Hirshfeld: reading atomic densities from disk.

 Charges (in A.U.) from CM5PAC (Nov. 11, 2011)
 -----------------------------------------------
 Center     Atomic      CM5         Hirshfeld
 Number     Number      Charge      Charge
 -----------------------------------------------
    1          8       -0.402368   -0.203273
    2          6        0.072186    0.061590
    3          6       -0.095927   -0.045609
    4          6       -0.086762   -0.035598
    5          6       -0.020967   -0.019304
    6          6        0.153659    0.120726
    7          8       -0.608612   -0.564837
    8          6        0.003372    0.000026
    9          6        0.075835    0.061343
   10          8       -0.400210   -0.202707
   11          6       -0.103207   -0.051908
   12          6       -0.109373   -0.059344
   13          6        0.076293    0.060381
   14          8       -0.427387   -0.247286
   15          6        0.005882    0.004268
   16          6        0.134052    0.107374
   17          8       -0.473404   -0.393318
   18          6        0.004079    0.005677
   19          6       -0.088467   -0.040813
   20          1        0.326932    0.152634
   21          1        0.077108    0.018409
   22          1        0.074840    0.013292
   23          1        0.320176    0.145064
   24          1        0.071715    0.013469
   25          1        0.070684    0.011782
   26          1        0.279290    0.080537
   27          1        0.071582    0.008427
 -----------------------------------------------

 Dipole moment (in Debye)
 -----------------------------------------------
                 X        Y        Z     Total
 -----------------------------------------------
 CM5          0.2267   2.3490  -0.0940   2.3618
 Hirshfeld    0.9862   1.5955  -0.1706   1.8834
 -----------------------------------------------

    3    -913.9964211058      2.99e-03  
Hirshfeld: reading atomic densities from disk.

 Charges (in A.U.) from CM5PAC (Nov. 11, 2011)
 -----------------------------------------------
 Center     Atomic      CM5         Hirshfeld
 Number     Number      Charge      Charge
 -----------------------------------------------
    1          8       -0.404068   -0.204973
    2          6        0.088985    0.078388
    3          6       -0.123889   -0.073570
    4          6       -0.099497   -0.048334
    5          6       -0.068640   -0.066977
    6          6        0.103718    0.070784
    7          8       -0.355434   -0.311659
    8          6       -0.072762   -0.076108
    9          6        0.081979    0.067488
   10          8       -0.390831   -0.193329
   11          6       -0.139915   -0.088616
   12          6       -0.140216   -0.090187
   13          6        0.075974    0.060061
   14          8       -0.432791   -0.252690
   15          6       -0.072815   -0.074430
   16          6        0.082566    0.055889
   17          8       -0.393587   -0.313501
   18          6       -0.056174   -0.054576
   19          6       -0.132142   -0.084488
   20          1        0.344466    0.170168
   21          1        0.098962    0.040264
   22          1        0.093751    0.032203
   23          1        0.332713    0.157602
   24          1        0.096383    0.038137
   25          1        0.096076    0.037174
   26          1        0.293306    0.094553
   27          1        0.094771    0.031616
 -----------------------------------------------

 Dipole moment (in Debye)
 -----------------------------------------------
                 X        Y        Z     Total
 -----------------------------------------------
 CM5          0.3845  -0.1553  -0.0462   0.4172
 Hirshfeld    1.1440  -0.9089  -0.1228   1.4662
 -----------------------------------------------

    4    -914.7097385293      7.66e-04  
Hirshfeld: reading atomic densities from disk.

 Charges (in A.U.) from CM5PAC (Nov. 11, 2011)
 -----------------------------------------------
 Center     Atomic      CM5         Hirshfeld
 Number     Number      Charge      Charge
 -----------------------------------------------
    1          8       -0.392847   -0.193752
    2          6        0.060917    0.050321
    3          6       -0.124621   -0.074302
    4          6       -0.096409   -0.045246
    5          6       -0.046260   -0.044597
    6          6        0.099064    0.066130
    7          8       -0.396298   -0.352523
    8          6       -0.053707   -0.057054
    9          6        0.058521    0.044030
   10          8       -0.379323   -0.181821
   11          6       -0.137017   -0.085718
   12          6       -0.133298   -0.083268
   13          6        0.059120    0.043208
   14          8       -0.418566   -0.238465
   15          6       -0.059905   -0.061519
   16          6        0.070367    0.043689
   17          8       -0.382006   -0.301921
   18          6       -0.031874   -0.030275
   19          6       -0.129142   -0.081488
   20          1        0.341906    0.167608
   21          1        0.097940    0.039241
   22          1        0.092420    0.030871
   23          1        0.329886    0.154775
   24          1        0.095438    0.037191
   25          1        0.094169    0.035267
   26          1        0.289510    0.090757
   27          1        0.092914    0.029759
 -----------------------------------------------

 Dipole moment (in Debye)
 -----------------------------------------------
                 X        Y        Z     Total
 -----------------------------------------------
 CM5          0.3902   0.4930  -0.0645   0.6321
 Hirshfeld    1.1497  -0.2605  -0.1412   1.1873
 -----------------------------------------------

    5    -914.7606563369      1.59e-04  
Hirshfeld: reading atomic densities from disk.

 Charges (in A.U.) from CM5PAC (Nov. 11, 2011)
 -----------------------------------------------
 Center     Atomic      CM5         Hirshfeld
 Number     Number      Charge      Charge
 -----------------------------------------------
    1          8       -0.398092   -0.198997
    2          6        0.073849    0.063253
    3          6       -0.117923   -0.067605
    4          6       -0.097331   -0.046168
    5          6       -0.055431   -0.053768
    6          6        0.099833    0.066900
    7          8       -0.382979   -0.339203
    8          6       -0.054591   -0.057937
    9          6        0.069107    0.054616
   10          8       -0.386468   -0.188966
   11          6       -0.133030   -0.081732
   12          6       -0.131701   -0.081671
   13          6        0.065748    0.049836
   14          8       -0.426567   -0.246466
   15          6       -0.057011   -0.058625
   16          6        0.077107    0.050429
   17          8       -0.398985   -0.318899
   18          6       -0.040560   -0.038962
   19          6       -0.125598   -0.077944
   20          1        0.341160    0.166863
   21          1        0.095623    0.036924
   22          1        0.090551    0.029002
   23          1        0.329244    0.154133
   24          1        0.092418    0.034172
   25          1        0.091647    0.032745
   26          1        0.289939    0.091186
   27          1        0.090943    0.027788
 -----------------------------------------------

 Dipole moment (in Debye)
 -----------------------------------------------
                 X        Y        Z     Total
 -----------------------------------------------
 CM5          0.3793   0.1434  -0.0536   0.4090
 Hirshfeld    1.1388  -0.6102  -0.1303   1.2985
 -----------------------------------------------

    6    -914.7630533139      7.44e-05  
Hirshfeld: reading atomic densities from disk.

 Charges (in A.U.) from CM5PAC (Nov. 11, 2011)
 -----------------------------------------------
 Center     Atomic      CM5         Hirshfeld
 Number     Number      Charge      Charge
 -----------------------------------------------
    1          8       -0.398208   -0.199113
    2          6        0.073096    0.062500
    3          6       -0.120882   -0.070564
    4          6       -0.096413   -0.045249
    5          6       -0.054136   -0.052472
    6          6        0.103734    0.070800
    7          8       -0.386807   -0.343032
    8          6       -0.057097   -0.060444
    9          6        0.068810    0.054319
   10          8       -0.385716   -0.188214
   11          6       -0.135456   -0.084158
   12          6       -0.134025   -0.083995
   13          6        0.066169    0.050257
   14          8       -0.426047   -0.245946
   15          6       -0.059966   -0.061581
   16          6        0.078069    0.051391
   17          8       -0.390403   -0.310317
   18          6       -0.040215   -0.038616
   19          6       -0.126699   -0.079045
   20          1        0.341323    0.167025
   21          1        0.096023    0.037325
   22          1        0.090892    0.029343
   23          1        0.329361    0.154250
   24          1        0.092896    0.034650
   25          1        0.092084    0.033182
   26          1        0.289459    0.090707
   27          1        0.091058    0.027903
 -----------------------------------------------

 Dipole moment (in Debye)
 -----------------------------------------------
                 X        Y        Z     Total
 -----------------------------------------------
 CM5          0.4318   0.2570  -0.0635   0.5065
 Hirshfeld    1.1913  -0.4966  -0.1401   1.2982
 -----------------------------------------------

    7    -914.7636736419      2.70e-05  
Hirshfeld: reading atomic densities from disk.

 Charges (in A.U.) from CM5PAC (Nov. 11, 2011)
 -----------------------------------------------
 Center     Atomic      CM5         Hirshfeld
 Number     Number      Charge      Charge
 -----------------------------------------------
    1          8       -0.397520   -0.198425
    2          6        0.072158    0.061562
    3          6       -0.120673   -0.070354
    4          6       -0.096689   -0.045526
    5          6       -0.053642   -0.051979
    6          6        0.102355    0.069422
    7          8       -0.385247   -0.341472
    8          6       -0.056072   -0.059418
    9          6        0.067833    0.053342
   10          8       -0.385464   -0.187962
   11          6       -0.135035   -0.083737
   12          6       -0.133393   -0.083364
   13          6        0.065354    0.049441
   14          8       -0.425197   -0.245096
   15          6       -0.059159   -0.060774
   16          6        0.077105    0.050427
   17          8       -0.393691   -0.313605
   18          6       -0.039338   -0.037740
   19          6       -0.126996   -0.079342
   20          1        0.341293    0.166995
   21          1        0.096225    0.037527
   22          1        0.091106    0.029557
   23          1        0.329426    0.154315
   24          1        0.092974    0.034728
   25          1        0.092136    0.033234
   26          1        0.289709    0.090956
   27          1        0.091346    0.028191
 -----------------------------------------------

 Dipole moment (in Debye)
 -----------------------------------------------
                 X        Y        Z     Total
 -----------------------------------------------
 CM5          0.4134   0.2112  -0.0599   0.4681
 Hirshfeld    1.1729  -0.5424  -0.1365   1.2994
 -----------------------------------------------

    8    -914.7638275630      1.24e-05  
Hirshfeld: reading atomic densities from disk.

 Charges (in A.U.) from CM5PAC (Nov. 11, 2011)
 -----------------------------------------------
 Center     Atomic      CM5         Hirshfeld
 Number     Number      Charge      Charge
 -----------------------------------------------
    1          8       -0.397968   -0.198873
    2          6        0.072607    0.062010
    3          6       -0.119942   -0.069623
    4          6       -0.097033   -0.045869
    5          6       -0.054137   -0.052474
    6          6        0.101794    0.068860
    7          8       -0.385639   -0.341864
    8          6       -0.055468   -0.058814
    9          6        0.068052    0.053560
   10          8       -0.385959   -0.188457
   11          6       -0.134832   -0.083534
   12          6       -0.133334   -0.083305
   13          6        0.065248    0.049336
   14          8       -0.426320   -0.246219
   15          6       -0.058491   -0.060105
   16          6        0.076572    0.049894
   17          8       -0.392177   -0.312091
   18          6       -0.039657   -0.038059
   19          6       -0.126609   -0.078955
   20          1        0.341391    0.167093
   21          1        0.096165    0.037466
   22          1        0.091116    0.029568
   23          1        0.329544    0.154432
   24          1        0.092885    0.034638
   25          1        0.092042    0.033140
   26          1        0.289776    0.091023
   27          1        0.091277    0.028122
 -----------------------------------------------

 Dipole moment (in Debye)
 -----------------------------------------------
                 X        Y        Z     Total
 -----------------------------------------------
 CM5          0.4287   0.2251  -0.0622   0.4882
 Hirshfeld    1.1883  -0.5284  -0.1388   1.3078
 -----------------------------------------------

    9    -914.7638320807      5.43e-06  
Hirshfeld: reading atomic densities from disk.

 Charges (in A.U.) from CM5PAC (Nov. 11, 2011)
 -----------------------------------------------
 Center     Atomic      CM5         Hirshfeld
 Number     Number      Charge      Charge
 -----------------------------------------------
    1          8       -0.397853   -0.198758
    2          6        0.072391    0.061795
    3          6       -0.120489   -0.070171
    4          6       -0.096745   -0.045581
    5          6       -0.053628   -0.051965
    6          6        0.102584    0.069651
    7          8       -0.385407   -0.341632
    8          6       -0.055749   -0.059095
    9          6        0.067953    0.053461
   10          8       -0.385817   -0.188314
   11          6       -0.135154   -0.083855
   12          6       -0.133641   -0.083612
   13          6        0.065318    0.049406
   14          8       -0.425755   -0.245654
   15          6       -0.058818   -0.060432
   16          6        0.077083    0.050405
   17          8       -0.392922   -0.312836
   18          6       -0.039493   -0.037895
   19          6       -0.126863   -0.079209
   20          1        0.341354    0.167057
   21          1        0.096169    0.037470
   22          1        0.091077    0.029529
   23          1        0.329476    0.154365
   24          1        0.092878    0.034631
   25          1        0.092017    0.033115
   26          1        0.289676    0.090924
   27          1        0.091259    0.028104
 -----------------------------------------------

 Dipole moment (in Debye)
 -----------------------------------------------
                 X        Y        Z     Total
 -----------------------------------------------
 CM5          0.4287   0.2129  -0.0619   0.4826
 Hirshfeld    1.1882  -0.5407  -0.1385   1.3128
 -----------------------------------------------

   10    -914.7638392939      4.34e-06  
Hirshfeld: reading atomic densities from disk.

 Charges (in A.U.) from CM5PAC (Nov. 11, 2011)
 -----------------------------------------------
 Center     Atomic      CM5         Hirshfeld
 Number     Number      Charge      Charge
 -----------------------------------------------
    1          8       -0.397735   -0.198640
    2          6        0.072434    0.061838
    3          6       -0.120426   -0.070107
    4          6       -0.096808   -0.045645
    5          6       -0.053835   -0.052172
    6          6        0.102507    0.069574
    7          8       -0.385255   -0.341480
    8          6       -0.055791   -0.059138
    9          6        0.067986    0.053495
   10          8       -0.385832   -0.188329
   11          6       -0.134988   -0.083689
   12          6       -0.133462   -0.083432
   13          6        0.065316    0.049403
   14          8       -0.425851   -0.245750
   15          6       -0.058919   -0.060534
   16          6        0.076993    0.050316
   17          8       -0.392885   -0.312799
   18          6       -0.039515   -0.037916
   19          6       -0.126866   -0.079212
   20          1        0.341307    0.167010
   21          1        0.096181    0.037483
   22          1        0.091102    0.029553
   23          1        0.329471    0.154359
   24          1        0.092852    0.034605
   25          1        0.091991    0.033089
   26          1        0.289670    0.090917
   27          1        0.091260    0.028105
 -----------------------------------------------

 Dipole moment (in Debye)
 -----------------------------------------------
                 X        Y        Z     Total
 -----------------------------------------------
 CM5          0.4275   0.2109  -0.0617   0.4806
 Hirshfeld    1.1870  -0.5427  -0.1383   1.3124
 -----------------------------------------------

   11    -914.7638812479      8.96e-07  
Hirshfeld: reading atomic densities from disk.

 Charges (in A.U.) from CM5PAC (Nov. 11, 2011)
 -----------------------------------------------
 Center     Atomic      CM5         Hirshfeld
 Number     Number      Charge      Charge
 -----------------------------------------------
    1          8       -0.397867   -0.198772
    2          6        0.072409    0.061813
    3          6       -0.120432   -0.070113
    4          6       -0.096768   -0.045604
    5          6       -0.053693   -0.052030
    6          6        0.102506    0.069573
    7          8       -0.385180   -0.341405
    8          6       -0.055699   -0.059045
    9          6        0.067963    0.053472
   10          8       -0.385834   -0.188332
   11          6       -0.135107   -0.083809
   12          6       -0.133610   -0.083581
   13          6        0.065300    0.049387
   14          8       -0.425841   -0.245740
   15          6       -0.058806   -0.060421
   16          6        0.076995    0.050318
   17          8       -0.392914   -0.312828
   18          6       -0.039526   -0.037928
   19          6       -0.126849   -0.079195
   20          1        0.341341    0.167044
   21          1        0.096169    0.037470
   22          1        0.091082    0.029533
   23          1        0.329472    0.154360
   24          1        0.092868    0.034622
   25          1        0.092006    0.033104
   26          1        0.289669    0.090916
   27          1        0.091248    0.028093
 -----------------------------------------------

 Dipole moment (in Debye)
 -----------------------------------------------
                 X        Y        Z     Total
 -----------------------------------------------
 CM5          0.4283   0.2084  -0.0617   0.4803
 Hirshfeld    1.1878  -0.5451  -0.1383   1.3142
 -----------------------------------------------

   12    -914.7638692520      6.57e-07  
Hirshfeld: reading atomic densities from disk.

 Charges (in A.U.) from CM5PAC (Nov. 11, 2011)
 -----------------------------------------------
 Center     Atomic      CM5         Hirshfeld
 Number     Number      Charge      Charge
 -----------------------------------------------
    1          8       -0.397817   -0.198722
    2          6        0.072434    0.061838
    3          6       -0.120423   -0.070104
    4          6       -0.096773   -0.045610
    5          6       -0.053715   -0.052051
    6          6        0.102511    0.069577
    7          8       -0.385193   -0.341417
    8          6       -0.055749   -0.059095
    9          6        0.067980    0.053489
   10          8       -0.385832   -0.188330
   11          6       -0.135062   -0.083764
   12          6       -0.133567   -0.083538
   13          6        0.065303    0.049391
   14          8       -0.425832   -0.245731
   15          6       -0.058870   -0.060484
   16          6        0.076991    0.050313
   17          8       -0.392914   -0.312829
   18          6       -0.039561   -0.037963
   19          6       -0.126857   -0.079203
   20          1        0.341330    0.167032
   21          1        0.096169    0.037470
   22          1        0.091086    0.029537
   23          1        0.329478    0.154366
   24          1        0.092868    0.034622
   25          1        0.092003    0.033101
   26          1        0.289669    0.090916
   27          1        0.091248    0.028093
 -----------------------------------------------

 Dipole moment (in Debye)
 -----------------------------------------------
                 X        Y        Z     Total
 -----------------------------------------------
 CM5          0.4281   0.2086  -0.0617   0.4802
 Hirshfeld    1.1876  -0.5450  -0.1383   1.3140
 -----------------------------------------------

   13    -914.7638805826      3.66e-07  
Hirshfeld: reading atomic densities from disk.

 Charges (in A.U.) from CM5PAC (Nov. 11, 2011)
 -----------------------------------------------
 Center     Atomic      CM5         Hirshfeld
 Number     Number      Charge      Charge
 -----------------------------------------------
    1          8       -0.397823   -0.198728
    2          6        0.072401    0.061805
    3          6       -0.120444   -0.070125
    4          6       -0.096784   -0.045621
    5          6       -0.053728   -0.052065
    6          6        0.102535    0.069602
    7          8       -0.385189   -0.341414
    8          6       -0.055712   -0.059059
    9          6        0.067972    0.053481
   10          8       -0.385826   -0.188324
   11          6       -0.135069   -0.083771
   12          6       -0.133566   -0.083537
   13          6        0.065297    0.049384
   14          8       -0.425859   -0.245758
   15          6       -0.058853   -0.060468
   16          6        0.077000    0.050322
   17          8       -0.392928   -0.312842
   18          6       -0.039526   -0.037927
   19          6       -0.126856   -0.079202
   20          1        0.341334    0.167037
   21          1        0.096175    0.037476
   22          1        0.091091    0.029543
   23          1        0.329475    0.154364
   24          1        0.092867    0.034621
   25          1        0.092001    0.033099
   26          1        0.289668    0.090916
   27          1        0.091251    0.028096
 -----------------------------------------------

 Dipole moment (in Debye)
 -----------------------------------------------
                 X        Y        Z     Total
 -----------------------------------------------
 CM5          0.4276   0.2080  -0.0616   0.4794
 Hirshfeld    1.1871  -0.5456  -0.1382   1.3137
 -----------------------------------------------

   14    -914.7638752353      1.56e-07  
Hirshfeld: reading atomic densities from disk.

 Charges (in A.U.) from CM5PAC (Nov. 11, 2011)
 -----------------------------------------------
 Center     Atomic      CM5         Hirshfeld
 Number     Number      Charge      Charge
 -----------------------------------------------
    1          8       -0.397827   -0.198731
    2          6        0.072420    0.061824
    3          6       -0.120425   -0.070107
    4          6       -0.096775   -0.045611
    5          6       -0.053718   -0.052055
    6          6        0.102526    0.069593
    7          8       -0.385192   -0.341417
    8          6       -0.055725   -0.059072
    9          6        0.067974    0.053483
   10          8       -0.385829   -0.188327
   11          6       -0.135065   -0.083766
   12          6       -0.133569   -0.083540
   13          6        0.065300    0.049387
   14          8       -0.425842   -0.245741
   15          6       -0.058859   -0.060474
   16          6        0.076983    0.050306
   17          8       -0.392930   -0.312844
   18          6       -0.039546   -0.037948
   19          6       -0.126859   -0.079205
   20          1        0.341333    0.167036
   21          1        0.096172    0.037473
   22          1        0.091090    0.029542
   23          1        0.329478    0.154367
   24          1        0.092869    0.034623
   25          1        0.092003    0.033101
   26          1        0.289666    0.090913
   27          1        0.091249    0.028094
 -----------------------------------------------

 Dipole moment (in Debye)
 -----------------------------------------------
                 X        Y        Z     Total
 -----------------------------------------------
 CM5          0.4278   0.2079  -0.0616   0.4796
 Hirshfeld    1.1873  -0.5457  -0.1382   1.3140
 -----------------------------------------------

   15    -914.7638774461      1.13e-07  
Hirshfeld: reading atomic densities from disk.

 Charges (in A.U.) from CM5PAC (Nov. 11, 2011)
 -----------------------------------------------
 Center     Atomic      CM5         Hirshfeld
 Number     Number      Charge      Charge
 -----------------------------------------------
    1          8       -0.397822   -0.198727
    2          6        0.072416    0.061820
    3          6       -0.120432   -0.070113
    4          6       -0.096777   -0.045613
    5          6       -0.053712   -0.052049
    6          6        0.102526    0.069593
    7          8       -0.385186   -0.341411
    8          6       -0.055725   -0.059071
    9          6        0.067979    0.053487
   10          8       -0.385828   -0.188325
   11          6       -0.135067   -0.083768
   12          6       -0.133569   -0.083540
   13          6        0.065295    0.049383
   14          8       -0.425850   -0.245749
   15          6       -0.058859   -0.060473
   16          6        0.076987    0.050309
   17          8       -0.392933   -0.312847
   18          6       -0.039545   -0.037947
   19          6       -0.126855   -0.079201
   20          1        0.341332    0.167034
   21          1        0.096172    0.037473
   22          1        0.091090    0.029541
   23          1        0.329478    0.154367
   24          1        0.092869    0.034623
   25          1        0.092003    0.033101
   26          1        0.289667    0.090915
   27          1        0.091248    0.028093
 -----------------------------------------------

 Dipole moment (in Debye)
 -----------------------------------------------
                 X        Y        Z     Total
 -----------------------------------------------
 CM5          0.4278   0.2077  -0.0616   0.4795
 Hirshfeld    1.1873  -0.5459  -0.1382   1.3141
 -----------------------------------------------

   16    -914.7638762684      3.64e-08  
Hirshfeld: reading atomic densities from disk.

 Charges (in A.U.) from CM5PAC (Nov. 11, 2011)
 -----------------------------------------------
 Center     Atomic      CM5         Hirshfeld
 Number     Number      Charge      Charge
 -----------------------------------------------
    1          8       -0.397824   -0.198729
    2          6        0.072417    0.061821
    3          6       -0.120429   -0.070111
    4          6       -0.096776   -0.045613
    5          6       -0.053718   -0.052055
    6          6        0.102530    0.069596
    7          8       -0.385185   -0.341410
    8          6       -0.055724   -0.059070
    9          6        0.067976    0.053485
   10          8       -0.385828   -0.188326
   11          6       -0.135066   -0.083767
   12          6       -0.133567   -0.083538
   13          6        0.065298    0.049385
   14          8       -0.425847   -0.245746
   15          6       -0.058859   -0.060474
   16          6        0.076984    0.050306
   17          8       -0.392933   -0.312847
   18          6       -0.039545   -0.037947
   19          6       -0.126858   -0.079204
   20          1        0.341333    0.167035
   21          1        0.096172    0.037474
   22          1        0.091090    0.029542
   23          1        0.329478    0.154367
   24          1        0.092869    0.034622
   25          1        0.092003    0.033101
   26          1        0.289666    0.090914
   27          1        0.091249    0.028093
 -----------------------------------------------

 Dipole moment (in Debye)
 -----------------------------------------------
                 X        Y        Z     Total
 -----------------------------------------------
 CM5          0.4277   0.2077  -0.0616   0.4794
 Hirshfeld    1.1872  -0.5459  -0.1382   1.3140
 -----------------------------------------------

   17    -914.7638764575      2.41e-08  
   18    -914.7638764208      7.99e-09  Convergence criterion met
 ---------------------------------------
 SCF time:   CPU 5729.29s  wall 733.00s 
<S^2> =          0.760822165
(1)  E-EN(liq) elect-nuc energy of solute               -914.763876421 a.u.
(2)  G-P(liq) polarization free energy of solvation           -45.5376 kcal/mol
(3)  G-ENP(liq) elect-nuc-pol free energy of system     -914.836445172 a.u.
(4)  G-CDS(liq) cavity-dispersion-solvent structure 
     free energy                                              -14.6382 kcal/mol
(5)  G-P-CDS(liq) = G-P(liq) + G-CDS(liq) = (2) + (4)         -60.1757 kcal/mol
(6)  G-S(liq) free energy of system = (1) + (5)         -914.859772573 a.u.
 SCF   energy in the final basis set =     -914.8597725728
 Total energy in the final basis set =     -914.8597725728
 
 --------------------------------------------------------------
 
                    Orbital Energies (a.u.)
 --------------------------------------------------------------
 
 Alpha MOs
 -- Occupied --
-19.1614 -19.1493 -19.1241 -19.0875 -19.0739 -10.2432 -10.2373 -10.2326
-10.2320 -10.2296 -10.1832 -10.1828 -10.1824 -10.1818 -10.1802 -10.1792
-10.1760 -10.1750 -10.1737  -1.0679  -1.0603  -1.0492  -1.0051  -1.0003
 -0.8662  -0.8506  -0.7922  -0.7608  -0.7471  -0.7384  -0.6762  -0.6555
 -0.6388  -0.6080  -0.5773  -0.5620  -0.5568  -0.5311  -0.5092  -0.4873
 -0.4794  -0.4654  -0.4588  -0.4402  -0.4379  -0.4291  -0.4218  -0.4180
 -0.4098  -0.4054  -0.4008  -0.3907  -0.3897  -0.3741  -0.3692  -0.3616
 -0.3596  -0.3481  -0.3307  -0.3086  -0.2722  -0.2628  -0.2553  -0.2391
 -0.2334  -0.2168  -0.1433
 -- Virtual --
 -0.0516  -0.0270  -0.0255  -0.0235  -0.0163  -0.0113  -0.0017   0.0004
  0.0101   0.0212   0.0258   0.0304   0.0374   0.0410   0.0433   0.0436
  0.0477   0.0539   0.0653   0.0657   0.0703   0.0763   0.0769   0.0772
  0.0834   0.0863   0.0891   0.0907   0.0963   0.1066   0.1100   0.1107
  0.1141   0.1161   0.1203   0.1254   0.1255   0.1286   0.1379   0.1484
  0.1538   0.1573   0.1602   0.1609   0.1656   0.1703   0.1704   0.1742
  0.1830   0.1866   0.1912   0.1935   0.1973   0.2052   0.2110   0.2174
  0.2189   0.2218   0.2283   0.2291   0.2378   0.2408   0.2431   0.2478
  0.2507   0.2576   0.2659   0.2689   0.2699   0.2713   0.2801   0.2808
  0.2817   0.2845   0.2884   0.2943   0.2974   0.2974   0.3050   0.3072
  0.3087   0.3125   0.3184   0.3192   0.3298   0.3311   0.3348   0.3368
  0.3443   0.3508   0.3647   0.3655   0.3676   0.3704   0.3782   0.3862
  0.3887   0.3980   0.4034   0.4137   0.4241   0.4385   0.4473   0.4730
  0.4855   0.4996   0.5060   0.5154   0.5277   0.5328   0.5409   0.5450
  0.5543   0.5614   0.5660   0.5750   0.5858   0.5859   0.5965   0.5981
  0.5992   0.6071   0.6081   0.6251   0.6288   0.6363   0.6408   0.6476
  0.6498   0.6629   0.6674   0.6697   0.6717   0.6724   0.6937   0.7009
  0.7147   0.7266   0.7349   0.7356   0.7526   0.7612   0.7782   0.7908
  0.7963   0.7977   0.8136   0.8285   0.8463   0.8491   0.8669   0.8886
  0.8904   0.8944   0.9009   0.9159   0.9223   0.9316   0.9371   0.9448
  0.9469   0.9541   0.9649   0.9831   0.9843   0.9988   1.0033   1.0098
  1.0321   1.0335   1.0441   1.0555   1.0610   1.0743   1.0790   1.0820
  1.0920   1.0964   1.1148   1.1185   1.1204   1.1292   1.1424   1.1615
  1.1803   1.1811   1.2035   1.2110   1.2128   1.2272   1.2297   1.2323
  1.2476   1.2504   1.2601   1.2633   1.2786   1.2953   1.3243   1.3392
  1.3436   1.3762   1.4075   1.4180   1.4245   1.4451   1.4492   1.4502
  1.4756   1.4923   1.5053   1.5117   1.5236   1.5239   1.5318   1.5326
  1.5585   1.5873   1.5924   1.5978   1.6091   1.6133   1.6254   1.6327
  1.6406   1.6838   1.7013   1.7030   1.7130   1.7326   1.7462   1.7569
  1.7614   1.7823   1.7862   1.7887   1.8252   1.8586   1.8705   1.8754
  1.8838   1.8881   1.8933   1.9110   1.9275   1.9393   1.9434   1.9475
  1.9527   1.9546   1.9721   1.9806   1.9996   2.0101   2.0355   2.0431
  2.0462   2.0721   2.0888   2.0926   2.0962   2.1025   2.1383   2.1428
  2.1501   2.1785   2.1876   2.2264   2.2393   2.3014   2.3152   2.3223
  2.3568   2.3693   2.3891   2.3948   2.4376   2.4618   2.4822   2.5154
  2.5547   2.6126   2.6186   2.6253   2.6344   2.6516   2.6535   2.6651
  2.6894   2.7135   2.7151   2.7376   2.7438   2.7667   2.7682   2.7716
  2.7758   2.7765   2.7842   2.7972   2.8131   2.8259   2.8531   2.8565
  2.8722   2.8766   2.8929   2.9339   2.9519   2.9714   3.0200   3.0208
  3.0345   3.0841   3.0903   3.1039   3.1117   3.1218   3.1320   3.1441
  3.1471   3.1586   3.1694   3.1944   3.2077   3.2098   3.2227   3.2387
  3.2815   3.2865   3.3033   3.3414   3.3632   3.3809   3.4004   3.4204
  3.4513   3.4728   3.4896   3.4986   3.5473   3.5515   3.5661   3.6124
  3.6332   3.6585   3.6785   3.7128   3.8256   3.8413   3.8909   3.9117
  3.9218   3.9535   4.0792   4.0847   4.1152   4.1496   4.2034   4.2289
  4.2942   4.3334   4.4985   4.8180   4.8358   4.8610   4.9942   5.0091
  5.0355   5.0751   5.0977   5.2851   5.3016   5.4487   5.5190   5.5367
  5.7134   5.7427   5.7856   5.8272   5.8635  23.5161  23.6675  23.8723
 23.8865  23.9211  23.9373  23.9558  23.9653  23.9896  24.0468  24.0532
 24.1085  24.1657  24.1788  49.9292  49.9553  50.0126  50.0710  50.1249
 
 Beta MOs
 -- Occupied --
-19.1614 -19.1491 -19.1235 -19.0820 -19.0690 -10.2432 -10.2374 -10.2320
-10.2314 -10.2267 -10.1829 -10.1828 -10.1821 -10.1817 -10.1795 -10.1778
-10.1753 -10.1741 -10.1730  -1.0679  -1.0599  -1.0470  -0.9969  -0.9912
 -0.8639  -0.8490  -0.7883  -0.7586  -0.7455  -0.7358  -0.6693  -0.6543
 -0.6364  -0.6069  -0.5751  -0.5608  -0.5559  -0.5299  -0.5077  -0.4843
 -0.4787  -0.4642  -0.4573  -0.4374  -0.4324  -0.4280  -0.4188  -0.4161
 -0.4077  -0.4019  -0.3935  -0.3900  -0.3811  -0.3732  -0.3608  -0.3583
 -0.3512  -0.3462  -0.3238  -0.3013  -0.2579  -0.2534  -0.2509  -0.2325
 -0.2289  -0.2069
 -- Virtual --
 -0.0873  -0.0425  -0.0255  -0.0235  -0.0170  -0.0164  -0.0113  -0.0016
  0.0046   0.0101   0.0213   0.0260   0.0321   0.0374   0.0419   0.0434
  0.0461   0.0540   0.0543   0.0655   0.0703   0.0713   0.0773   0.0787
  0.0830   0.0835   0.0867   0.0891   0.0909   0.0964   0.1073   0.1103
  0.1141   0.1144   0.1169   0.1204   0.1256   0.1267   0.1288   0.1380
  0.1487   0.1540   0.1575   0.1604   0.1624   0.1689   0.1704   0.1720
  0.1747   0.1832   0.1871   0.1928   0.1940   0.1976   0.2058   0.2116
  0.2181   0.2191   0.2220   0.2290   0.2356   0.2383   0.2411   0.2437
  0.2487   0.2517   0.2586   0.2665   0.2701   0.2704   0.2722   0.2810
  0.2815   0.2840   0.2853   0.2889   0.2954   0.2987   0.3008   0.3054
  0.3079   0.3095   0.3130   0.3193   0.3201   0.3318   0.3326   0.3357
  0.3375   0.3447   0.3516   0.3655   0.3661   0.3684   0.3708   0.3791
  0.3867   0.3892   0.3989   0.4045   0.4161   0.4252   0.4393   0.4490
  0.4740   0.4868   0.5012   0.5081   0.5167   0.5288   0.5351   0.5417
  0.5472   0.5590   0.5622   0.5669   0.5766   0.5867   0.5883   0.5983
  0.5997   0.6013   0.6078   0.6100   0.6261   0.6295   0.6402   0.6415
  0.6501   0.6506   0.6653   0.6684   0.6707   0.6735   0.6742   0.6974
  0.7018   0.7154   0.7274   0.7365   0.7383   0.7532   0.7617   0.7789
  0.7911   0.7984   0.7986   0.8142   0.8297   0.8474   0.8505   0.8680
  0.8896   0.8912   0.8949   0.9027   0.9173   0.9232   0.9330   0.9381
  0.9458   0.9513   0.9557   0.9664   0.9851   0.9859   1.0010   1.0055
  1.0116   1.0327   1.0359   1.0458   1.0593   1.0617   1.0762   1.0816
  1.0833   1.0949   1.0990   1.1190   1.1215   1.1253   1.1305   1.1498
  1.1626   1.1813   1.1845   1.2051   1.2119   1.2139   1.2278   1.2315
  1.2371   1.2489   1.2563   1.2645   1.2648   1.2807   1.2967   1.3257
  1.3420   1.3445   1.3778   1.4079   1.4186   1.4264   1.4472   1.4504
  1.4526   1.4768   1.4960   1.5060   1.5125   1.5245   1.5268   1.5324
  1.5368   1.5594   1.5890   1.5948   1.5992   1.6104   1.6141   1.6261
  1.6347   1.6426   1.6852   1.7026   1.7047   1.7171   1.7337   1.7472
  1.7583   1.7626   1.7830   1.7900   1.7905   1.8271   1.8602   1.8723
  1.8777   1.8869   1.8890   1.8963   1.9137   1.9292   1.9415   1.9443
  1.9503   1.9562   1.9564   1.9733   1.9825   2.0006   2.0119   2.0385
  2.0448   2.0477   2.0734   2.0896   2.0939   2.0987   2.1036   2.1403
  2.1444   2.1532   2.1791   2.1886   2.2295   2.2418   2.3040   2.3181
  2.3257   2.3579   2.3727   2.3911   2.3956   2.4390   2.4632   2.4843
  2.5158   2.5552   2.6133   2.6234   2.6262   2.6374   2.6525   2.6541
  2.6703   2.6899   2.7142   2.7195   2.7378   2.7441   2.7673   2.7713
  2.7719   2.7765   2.7822   2.7845   2.7976   2.8164   2.8306   2.8551
  2.8645   2.8796   2.8836   2.8940   2.9418   2.9609   2.9809   3.0217
  3.0264   3.0349   3.0858   3.0923   3.1062   3.1127   3.1240   3.1356
  3.1467   3.1501   3.1588   3.1700   3.1965   3.2098   3.2112   3.2237
  3.2459   3.2839   3.2880   3.3186   3.3420   3.3754   3.3817   3.4016
  3.4210   3.4522   3.4734   3.4913   3.5000   3.5490   3.5530   3.5672
  3.6138   3.6352   3.6597   3.6800   3.7140   3.8272   3.8459   3.8915
  3.9124   3.9236   3.9548   4.0805   4.0865   4.1156   4.1507   4.2045
  4.2299   4.2963   4.3365   4.5013   4.8216   4.8376   4.8624   4.9944
  5.0102   5.0386   5.0963   5.1182   5.2889   5.3054   5.4488   5.5198
  5.5375   5.7149   5.7428   5.7887   5.8292   5.8666  23.5168  23.6681
 23.8731  23.8875  23.9221  23.9377  23.9573  23.9660  23.9905  24.0476
 24.0541  24.1090  24.1667  24.1791  49.9292  49.9556  50.0135  50.0760
 50.1299
 --------------------------------------------------------------
 
          Ground-State Mulliken Net Atomic Charges

     Atom                 Charge (a.u.)    Spin (a.u.)
  --------------------------------------------------------
      1 O                    -0.147360       0.001515
      2 C                     1.233777      -0.001819
      3 C                     0.920187       0.056485
      4 C                     0.229435      -0.002964
      5 C                    -1.344208       0.046219
      6 C                    -1.969865       0.014689
      7 O                    -0.289060       0.183506
      8 C                    -0.930830       0.060734
      9 C                    -0.057017       0.007276
     10 O                    -0.143439       0.004688
     11 C                     1.733767       0.105015
     12 C                     0.875292       0.048790
     13 C                    -0.655783       0.064460
     14 O                    -0.349183       0.018459
     15 C                    -0.644852      -0.033661
     16 C                    -1.672931       0.162066
     17 O                    -0.341594       0.202566
     18 C                    -0.582379       0.000785
     19 C                     0.803353       0.088176
     20 H                     0.358659      -0.000064
     21 H                     0.320272      -0.004265
     22 H                     0.154908       0.000415
     23 H                     0.352617      -0.000537
     24 H                     0.360095      -0.008764
     25 H                     0.260245      -0.004495
     26 H                     0.335177      -0.004619
     27 H                     0.190717      -0.004657
  --------------------------------------------------------
  Sum of atomic charges =    -1.000000
  Sum of spin   charges =     1.000000

 -----------------------------------------------------------------
                    Cartesian Multipole Moments
 -----------------------------------------------------------------
    Charge (ESU x 10^10)
                -4.8032
    Dipole Moment (Debye)
         X       0.1611      Y       0.2313      Z      -0.0273
       Tot       0.2833
    Quadrupole Moments (Debye-Ang)
        XX    -115.4053     XY      12.7737     YY    -145.1068
        XZ      -0.4070     YZ      -0.8440     ZZ    -115.8772
    Octopole Moments (Debye-Ang^2)
       XXX     -94.3523    XXY     -14.3303    XYY      46.8899
       YYY       6.6199    XXZ      12.9201    XYZ       0.8644
       YYZ      -6.1000    XZZ      -0.0820    YZZ       2.1272
       ZZZ      -0.5879
    Hexadecapole Moments (Debye-Ang^3)
      XXXX   -4548.6749   XXXY     376.8998   XXYY    -957.9533
      XYYY     146.4386   YYYY   -2261.1698   XXXZ     249.7080
      XXYZ     -38.5396   XYYZ      74.8426   YYYZ      13.7405
      XXZZ    -846.7796   XYZZ      32.1613   YYZZ    -365.0814
      XZZZ     303.9235   YZZZ      14.5237   ZZZZ    -211.8856
 -----------------------------------------------------------------
 Total job time:  741.48s(wall), 5736.31s(cpu) 
 Sat Feb  3 13:04:04 2024

        *************************************************************
        *                                                           *
        *  Thank you very much for using Q-Chem.  Have a nice day.  *
        *                                                           *
        *************************************************************


