 Entering Gaussian System, Link 0=g16
 Input=058-an-PCM.com
 Output=058-an-PCM.log
 Initial command:
 /sysapps/ubuntu-applications/gaussian/Gaussian/AVX2/g16/l1.exe "/scratch/selhajj1/4304391/Gau-1117248.inp" -scrdir="/scratch/selhajj1/4304391/"
 Entering Link 1 = /sysapps/ubuntu-applications/gaussian/Gaussian/AVX2/g16/l1.exe PID=   1117256.
  
 Copyright (c) 1988,1990,1992,1993,1995,1998,2003,2009,2016,
            Gaussian, Inc.  All Rights Reserved.
  
 This is part of the Gaussian(R) 16 program.  It is based on
 the Gaussian(R) 09 system (copyright 2009, Gaussian, Inc.),
 the Gaussian(R) 03 system (copyright 2003, Gaussian, Inc.),
 the Gaussian(R) 98 system (copyright 1998, Gaussian, Inc.),
 the Gaussian(R) 94 system (copyright 1995, Gaussian, Inc.),
 the Gaussian 92(TM) system (copyright 1992, Gaussian, Inc.),
 the Gaussian 90(TM) system (copyright 1990, Gaussian, Inc.),
 the Gaussian 88(TM) system (copyright 1988, Gaussian, Inc.),
 the Gaussian 86(TM) system (copyright 1986, Carnegie Mellon
 University), and the Gaussian 82(TM) system (copyright 1983,
 Carnegie Mellon University). Gaussian is a federally registered
 trademark of Gaussian, Inc.
  
 This software contains proprietary and confidential information,
 including trade secrets, belonging to Gaussian, Inc.
  
 This software is provided under written license and may be
 used, copied, transmitted, or stored only in accord with that
 written license.
  
 The following legend is applicable only to US Government
 contracts under FAR:
  
                    RESTRICTED RIGHTS LEGEND
  
 Use, reproduction and disclosure by the US Government is
 subject to restrictions as set forth in subparagraphs (a)
 and (c) of the Commercial Computer Software - Restricted
 Rights clause in FAR 52.227-19.
  
 Gaussian, Inc.
 340 Quinnipiac St., Bldg. 40, Wallingford CT 06492
  
  
 ---------------------------------------------------------------
 Warning -- This program may not be used in any manner that
 competes with the business of Gaussian, Inc. or will provide
 assistance to any competitor of Gaussian, Inc.  The licensee
 of this program is prohibited from giving any competitor of
 Gaussian, Inc. access to this program.  By using this program,
 the user acknowledges that Gaussian, Inc. is engaged in the
 business of creating and licensing software in the field of
 computational chemistry and represents and warrants to the
 licensee that it is not a competitor of Gaussian, Inc. and that
 it will not use this program in any manner prohibited above.
 ---------------------------------------------------------------
  

 Cite this work as:
 Gaussian 16, Revision A.03,
 M. J. Frisch, G. W. Trucks, H. B. Schlegel, G. E. Scuseria, 
 M. A. Robb, J. R. Cheeseman, G. Scalmani, V. Barone, 
 G. A. Petersson, H. Nakatsuji, X. Li, M. Caricato, A. V. Marenich, 
 J. Bloino, B. G. Janesko, R. Gomperts, B. Mennucci, H. P. Hratchian, 
 J. V. Ortiz, A. F. Izmaylov, J. L. Sonnenberg, D. Williams-Young, 
 F. Ding, F. Lipparini, F. Egidi, J. Goings, B. Peng, A. Petrone, 
 T. Henderson, D. Ranasinghe, V. G. Zakrzewski, J. Gao, N. Rega, 
 G. Zheng, W. Liang, M. Hada, M. Ehara, K. Toyota, R. Fukuda, 
 J. Hasegawa, M. Ishida, T. Nakajima, Y. Honda, O. Kitao, H. Nakai, 
 T. Vreven, K. Throssell, J. A. Montgomery, Jr., J. E. Peralta, 
 F. Ogliaro, M. J. Bearpark, J. J. Heyd, E. N. Brothers, K. N. Kudin, 
 V. N. Staroverov, T. A. Keith, R. Kobayashi, J. Normand, 
 K. Raghavachari, A. P. Rendell, J. C. Burant, S. S. Iyengar, 
 J. Tomasi, M. Cossi, J. M. Millam, M. Klene, C. Adamo, R. Cammi, 
 J. W. Ochterski, R. L. Martin, K. Morokuma, O. Farkas, 
 J. B. Foresman, and D. J. Fox, Gaussian, Inc., Wallingford CT, 2016.
 
 ******************************************
 Gaussian 16:  ES64L-G16RevA.03 25-Dec-2016
                21-Jan-2024 
 ******************************************
 %chk=058-an-PCM.chk
 %nproc=8
 Will use up to    8 processors via shared memory.
 %mem=30GB
 ----------------------------------------------------------------
 #P UB3LYP/6-311++G(d,p) SCRF=(PCM,Solvent=n,n-DiMethylFormamide)
 ----------------------------------------------------------------
 1/38=1,172=1/1;
 2/12=2,17=6,18=5,40=1/2;
 3/5=4,6=6,7=1111,11=2,25=1,30=1,70=2201,72=148,74=-5,116=2/1,2,3;
 4//1;
 5/5=2,38=5,53=148/2;
 6/7=2,8=2,9=2,10=2,28=1/1;
 99/5=1,9=1/99;
 Leave Link    1 at Sun Jan 21 07:45:52 2024, MaxMem=  4026531840 cpu:               0.6 elap:               0.1
 (Enter /sysapps/ubuntu-applications/gaussian/Gaussian/AVX2/g16/l101.exe)
 -------
 Reduced
 -------
 Symbolic Z-matrix:
 Charge = -2 Multiplicity = 1
 C                    -0.55172   1.21223  -0.37379 
 C                    -1.43208   0.15067  -0.833 
 C                    -1.2149   -1.19822  -0.6577 
 C                    -0.03395  -1.70354   0.03249 
 C                     0.83238  -0.69544   0.48573 
 C                     0.64275   0.72842   0.3233 
 O                    -0.85969   2.42591  -0.59551 
 O                     0.14775  -2.98658   0.18504 
 C                     1.63456   1.64004   0.85164 
 C                     2.86578   1.02428   1.57299 
 O                     1.62528   2.88676   0.79977 
 H                    -2.32744   0.49417  -1.35472 
 H                     3.44164   0.36588   0.91173 
 H                     2.57359   0.42567   2.44401 
 H                     3.49662   1.85546   1.89803 
 C                    -2.19525  -2.21981  -1.17531 
 H                     1.71657  -1.05613   1.00177 
 H                    -3.04633  -1.73969  -1.67484 
 H                    -2.56457  -2.85385  -0.35825 
 H                    -1.70568  -2.90951  -1.87583 
 
 ITRead=  0  0  0  0  0  0  0  0  0  0  0  0  0  0  0  0  0  0  0  0
 MicOpt= -1 -1 -1 -1 -1 -1 -1 -1 -1 -1 -1 -1 -1 -1 -1 -1 -1 -1 -1 -1
 NAtoms=     20 NQM=       20 NQMF=       0 NMMI=      0 NMMIF=      0
                NMic=       0 NMicF=      0.
                    Isotopes and Nuclear Properties:
 (Nuclear quadrupole moments (NQMom) in fm**2, nuclear magnetic moments (NMagM)
  in nuclear magnetons)

  Atom         1           2           3           4           5           6           7           8           9          10
 IAtWgt=          12          12          12          12          12          12          16          16          12          12
 AtmWgt=  12.0000000  12.0000000  12.0000000  12.0000000  12.0000000  12.0000000  15.9949146  15.9949146  12.0000000  12.0000000
 NucSpn=           0           0           0           0           0           0           0           0           0           0
 AtZEff=  -0.0000000  -0.0000000  -0.0000000  -0.0000000  -0.0000000  -0.0000000  -0.0000000  -0.0000000  -0.0000000  -0.0000000
 NQMom=    0.0000000   0.0000000   0.0000000   0.0000000   0.0000000   0.0000000   0.0000000   0.0000000   0.0000000   0.0000000
 NMagM=    0.0000000   0.0000000   0.0000000   0.0000000   0.0000000   0.0000000   0.0000000   0.0000000   0.0000000   0.0000000
 AtZNuc=   6.0000000   6.0000000   6.0000000   6.0000000   6.0000000   6.0000000   8.0000000   8.0000000   6.0000000   6.0000000

  Atom        11          12          13          14          15          16          17          18          19          20
 IAtWgt=          16           1           1           1           1          12           1           1           1           1
 AtmWgt=  15.9949146   1.0078250   1.0078250   1.0078250   1.0078250  12.0000000   1.0078250   1.0078250   1.0078250   1.0078250
 NucSpn=           0           1           1           1           1           0           1           1           1           1
 AtZEff=  -0.0000000  -0.0000000  -0.0000000  -0.0000000  -0.0000000  -0.0000000  -0.0000000  -0.0000000  -0.0000000  -0.0000000
 NQMom=    0.0000000   0.0000000   0.0000000   0.0000000   0.0000000   0.0000000   0.0000000   0.0000000   0.0000000   0.0000000
 NMagM=    0.0000000   2.7928460   2.7928460   2.7928460   2.7928460   0.0000000   2.7928460   2.7928460   2.7928460   2.7928460
 AtZNuc=   8.0000000   1.0000000   1.0000000   1.0000000   1.0000000   6.0000000   1.0000000   1.0000000   1.0000000   1.0000000
 Leave Link  101 at Sun Jan 21 07:45:52 2024, MaxMem=  4026531840 cpu:               1.1 elap:               0.3
 (Enter /sysapps/ubuntu-applications/gaussian/Gaussian/AVX2/g16/l202.exe)
                          Input orientation:                          
 ---------------------------------------------------------------------
 Center     Atomic      Atomic             Coordinates (Angstroms)
 Number     Number       Type             X           Y           Z
 ---------------------------------------------------------------------
      1          6           0       -0.551718    1.212229   -0.373785
      2          6           0       -1.432075    0.150671   -0.833004
      3          6           0       -1.214901   -1.198222   -0.657699
      4          6           0       -0.033947   -1.703539    0.032493
      5          6           0        0.832379   -0.695440    0.485734
      6          6           0        0.642746    0.728423    0.323302
      7          8           0       -0.859691    2.425914   -0.595514
      8          8           0        0.147748   -2.986575    0.185035
      9          6           0        1.634556    1.640041    0.851638
     10          6           0        2.865781    1.024277    1.572987
     11          8           0        1.625283    2.886756    0.799767
     12          1           0       -2.327435    0.494171   -1.354716
     13          1           0        3.441637    0.365875    0.911731
     14          1           0        2.573585    0.425665    2.444011
     15          1           0        3.496618    1.855462    1.898032
     16          6           0       -2.195255   -2.219805   -1.175308
     17          1           0        1.716569   -1.056132    1.001770
     18          1           0       -3.046334   -1.739690   -1.674838
     19          1           0       -2.564568   -2.853854   -0.358250
     20          1           0       -1.705679   -2.909509   -1.875826
 ---------------------------------------------------------------------
                    Distance matrix (angstroms):
                    1          2          3          4          5
     1  C    0.000000
     2  C    1.453553   0.000000
     3  C    2.516087   1.377465   0.000000
     4  C    2.989122   2.478294   1.458205   0.000000
     5  C    2.508724   2.753675   2.398246   1.404355   0.000000
     6  C    1.465177   2.444529   2.850469   2.541048   1.445590
     7  O    1.271630   2.358125   3.642033   4.257773   3.711475
     8  O    4.293191   3.657124   2.401087   1.304785   2.410070
     9  C    2.542534   3.802692   4.295723   3.825497   2.496366
    10  C    3.937581   5.002354   5.154360   4.268785   2.876503
    11  O    2.986737   4.415828   5.184390   4.940907   3.682315
    12  H    2.151977   1.091717   2.141905   3.466174   3.845368
    13  H    4.279690   5.181070   5.156826   4.139471   2.848875
    14  H    4.280908   5.182640   5.158511   4.141033   2.850180
    15  H    4.686569   5.887010   6.168886   5.348982   3.949665
    16  C    3.888767   2.513717   1.507529   2.529143   3.774827
    17  H    3.490378   3.838845   3.371579   2.103079   1.085442
    18  H    4.077950   2.624496   2.163771   3.462768   4.561024
    19  H    4.537052   3.245782   2.156940   2.807124   4.112215
    20  H    4.536130   3.244540   2.157128   2.809045   4.113491
                    6          7          8          9         10
     6  C    0.000000
     7  O    2.446020   0.000000
     8  O    3.750380   5.560506   0.000000
     9  C    1.447022   2.988831   4.905154   0.000000
    10  C    2.567319   4.532783   5.039945   1.554164   0.000000
    11  O    2.418843   2.886915   6.087448   1.247828   2.367601
    12  H    3.419443   2.542104   4.540149   4.677434   5.985144
    13  H    2.882964   5.001697   4.755703   2.211934   1.096523
    14  H    2.883957   5.002709   4.757209   2.211817   1.096539
    15  H    3.448852   5.051793   6.131444   2.146770   1.092922
    16  C    4.357996   4.868531   2.815694   5.802962   6.609938
    17  H    2.190445   4.616609   2.618180   2.701595   2.444397
    18  H    4.867592   4.826863   3.900770   6.302094   7.289786
    19  H    4.856345   5.553274   2.769374   6.268298   6.946817
    20  H    4.856523   5.551723   2.772775   6.268543   6.947462
                   11         12         13         14         15
    11  O    0.000000
    12  H    5.098062   0.000000
    13  H    3.109103   6.199632   0.000000
    14  H    3.108019   6.201211   1.762093   0.000000
    15  H    2.402425   6.808309   1.787367   1.787289   0.000000
    16  C    6.676406   2.723109   6.543395   6.545213   7.645302
    17  H    3.949114   4.930561   2.237425   2.238361   3.528348
    18  H    7.025075   2.368423   7.295033   7.296381   8.276517
    19  H    7.200726   3.501207   6.932100   6.708840   8.000403
    20  H    7.200750   3.499025   6.707718   6.935162   8.000678
                   16         17         18         19         20
    16  C    0.000000
    17  H    4.625599   0.000000
    18  H    1.097441   5.506063   0.000000
    19  H    1.098178   4.838346   1.790772   0.000000
    20  H    1.098227   4.840180   1.790594   1.744656   0.000000
 Stoichiometry    C9H8O3(2-)
 Framework group  C1[X(C9H8O3)]
 Deg. of freedom    54
 Full point group                 C1      NOp   1
 Largest Abelian subgroup         C1      NOp   1
 Largest concise Abelian subgroup C1      NOp   1
                         Standard orientation:                         
 ---------------------------------------------------------------------
 Center     Atomic      Atomic             Coordinates (Angstroms)
 Number     Number       Type             X           Y           Z
 ---------------------------------------------------------------------
      1          6           0       -0.322867    1.360565    0.000179
      2          6           0        1.129569    1.417521    0.000212
      3          6           0        1.971151    0.327039   -0.000016
      4          6           0        1.460007   -1.038645   -0.000225
      5          6           0        0.057958   -1.119086   -0.000206
      6          6           0       -0.860203   -0.002525   -0.000073
      7          8           0       -0.995471    2.439753    0.000451
      8          8           0        2.279219   -2.054203   -0.000373
      9          6           0       -2.284724   -0.256715   -0.000177
     10          6           0       -2.750881   -1.739322    0.001025
     11          8           0       -3.206869    0.583952   -0.001222
     12          1           0        1.546598    2.426447    0.000328
     13          1           0       -2.388356   -2.282532    0.881855
     14          1           0       -2.390306   -2.283162   -0.880237
     15          1           0       -3.843780   -1.732507    0.002142
     16          6           0        3.468980    0.497777    0.000084
     17          1           0       -0.337870   -2.129781   -0.000328
     18          1           0        3.750273    1.558554   -0.001779
     19          1           0        3.917379    0.001912   -0.871151
     20          1           0        3.917099    0.005401    0.873501
 ---------------------------------------------------------------------
 Rotational constants (GHZ):           1.6224882           0.6849979           0.4845117
 Leave Link  202 at Sun Jan 21 07:45:52 2024, MaxMem=  4026531840 cpu:               0.2 elap:               0.1
 (Enter /sysapps/ubuntu-applications/gaussian/Gaussian/AVX2/g16/l301.exe)
 Standard basis: 6-311++G(d,p) (5D, 7F)
 Ernie: Thresh=  0.10000D-02 Tol=  0.10000D-05 Strict=F.
 There are   332 symmetry adapted cartesian basis functions of A   symmetry.
 There are   320 symmetry adapted basis functions of A   symmetry.
   320 basis functions,   504 primitive gaussians,   332 cartesian basis functions
    44 alpha electrons       44 beta electrons
       nuclear repulsion energy       648.3155242808 Hartrees.
 IExCor=  402 DFT=T Ex+Corr=B3LYP ExCW=0 ScaHFX=  0.200000
 ScaDFX=  0.800000  0.720000  1.000000  0.810000 ScalE2=  1.000000  1.000000
 IRadAn=      5 IRanWt=     -1 IRanGd=            0 ICorTp=0 IEmpDi=  4
 NAtoms=   20 NActive=   20 NUniq=   20 SFac= 1.00D+00 NAtFMM=   60 NAOKFM=F Big=F
 Integral buffers will be    131072 words long.
 Raffenetti 2 integral format.
 Two-electron integral symmetry is turned on.
 ------------------------------------------------------------------------------
 Polarizable Continuum Model (PCM)
 =================================
 Model                : PCM.
 Atomic radii         : UFF (Universal Force Field).
 Polarization charges : Total charges.
 Charge compensation  : None.
 Solution method      : On-the-fly selection.
 Cavity type          : Scaled VdW (van der Waals Surface) (Alpha=1.100).
 Cavity algorithm     : GePol (No added spheres)
                        Default sphere list used, NSphG=   20.
                        Lebedev-Laikov grids with approx.  5.0 points / Ang**2.
                        Smoothing algorithm: York/Karplus (Gamma=1.0000).
                        Polarization charges: spherical gaussians, with
                                              point-specific exponents (IZeta= 3).
                        Self-potential: point-specific (ISelfS= 7).
                        Self-field    : sphere-specific E.n sum rule (ISelfD= 2).
 Solvent              : n,n-DiMethylFormamide, Eps=  37.219000 Eps(inf)=   2.046330
 ------------------------------------------------------------------------------
 Spheres list:
 ISph  on   Nord     Re0    Alpha      Xe            Ye            Ze
    1   C      1    1.9255  1.100     -0.322867      1.360565      0.000179
    2   C      2    1.9255  1.100      1.129569      1.417521      0.000212
    3   C      3    1.9255  1.100      1.971151      0.327039     -0.000016
    4   C      4    1.9255  1.100      1.460007     -1.038645     -0.000225
    5   C      5    1.9255  1.100      0.057958     -1.119086     -0.000206
    6   C      6    1.9255  1.100     -0.860203     -0.002525     -0.000073
    7   O      7    1.7500  1.100     -0.995471      2.439753      0.000451
    8   O      8    1.7500  1.100      2.279219     -2.054203     -0.000373
    9   C      9    1.9255  1.100     -2.284724     -0.256715     -0.000177
   10   C     10    1.9255  1.100     -2.750881     -1.739322      0.001025
   11   O     11    1.7500  1.100     -3.206869      0.583952     -0.001222
   12   H     12    1.4430  1.100      1.546598      2.426447      0.000328
   13   H     13    1.4430  1.100     -2.388356     -2.282532      0.881855
   14   H     14    1.4430  1.100     -2.390306     -2.283162     -0.880237
   15   H     15    1.4430  1.100     -3.843780     -1.732507      0.002142
   16   C     16    1.9255  1.100      3.468980      0.497777      0.000084
   17   H     17    1.4430  1.100     -0.337870     -2.129781     -0.000328
   18   H     18    1.4430  1.100      3.750273      1.558554     -0.001779
   19   H     19    1.4430  1.100      3.917379      0.001912     -0.871151
   20   H     20    1.4430  1.100      3.917099      0.005401      0.873501
 ------------------------------------------------------------------------------
 GePol: Number of generator spheres                  =      20
 GePol: Total number of spheres                      =      20
 GePol: Number of exposed spheres                    =      20 (100.00%)
 GePol: Number of points                             =    1717
 GePol: Average weight of points                     =       0.13
 GePol: Minimum weight of points                     =   0.31D-09
 GePol: Maximum weight of points                     =    0.20405
 GePol: Number of points with low weight             =      86
 GePol: Fraction of low-weight points (<1% of avg)   =       5.01%
 GePol: Cavity surface area                          =    225.457 Ang**2
 GePol: Cavity volume                                =    230.403 Ang**3
 Leave Link  301 at Sun Jan 21 07:45:52 2024, MaxMem=  4026531840 cpu:               0.8 elap:               0.2
 (Enter /sysapps/ubuntu-applications/gaussian/Gaussian/AVX2/g16/l302.exe)
 NPDir=0 NMtPBC=     1 NCelOv=     1 NCel=       1 NClECP=     1 NCelD=      1
         NCelK=      1 NCelE2=     1 NClLst=     1 CellRange=     0.0.
 One-electron integrals computed using PRISM.
 One-electron integral symmetry used in STVInt
 NBasis=   320 RedAO= T EigKep=  1.17D-06  NBF=   320
 NBsUse=   320 1.00D-06 EigRej= -1.00D+00 NBFU=   320
 Precomputing XC quadrature grid using
 IXCGrd= 4 IRadAn=           5 IRanWt=          -1 IRanGd=           0 AccXCQ= 0.00D+00.
 Generated NRdTot=       0 NPtTot=           0 NUsed=           0 NTot=          32
 NSgBfM=   332   332   332   332   332 MxSgAt=    20 MxSgA2=    20.
 Leave Link  302 at Sun Jan 21 07:45:52 2024, MaxMem=  4026531840 cpu:               2.4 elap:               0.4
 (Enter /sysapps/ubuntu-applications/gaussian/Gaussian/AVX2/g16/l303.exe)
 DipDrv:  MaxL=1.
 Leave Link  303 at Sun Jan 21 07:45:53 2024, MaxMem=  4026531840 cpu:               0.7 elap:               0.2
 (Enter /sysapps/ubuntu-applications/gaussian/Gaussian/AVX2/g16/l401.exe)
 ExpMin= 3.60D-02 ExpMax= 8.59D+03 ExpMxC= 1.30D+03 IAcc=3 IRadAn=         5 AccDes= 0.00D+00
 Harris functional with IExCor=  402 and IRadAn=       5 diagonalized for initial guess.
 HarFok:  IExCor=  402 AccDes= 0.00D+00 IRadAn=         5 IDoV= 1 UseB2=F ITyADJ=14
 ICtDFT=  3500011 ScaDFX=  1.000000  1.000000  1.000000  1.000000
 FoFCou: FMM=F IPFlag=           0 FMFlag=      100000 FMFlg1=           0
         NFxFlg=           0 DoJE=T BraDBF=F KetDBF=T FulRan=T
         wScrn=  0.000000 ICntrl=       500 IOpCl=  0 I1Cent=   200000004 NGrid=           0
         NMat0=    1 NMatS0=      1 NMatT0=    0 NMatD0=    1 NMtDS0=    0 NMtDT0=    0
 Petite list used in FoFCou.
 Harris En= -574.103589850361    
 JPrj=0 DoOrth=F DoCkMO=F.
 Initial guess <Sx>= 0.0000 <Sy>= 0.0000 <Sz>= 0.0000 <S**2>= 0.0000 S= 0.0000
 Leave Link  401 at Sun Jan 21 07:45:54 2024, MaxMem=  4026531840 cpu:               7.1 elap:               1.0
 (Enter /sysapps/ubuntu-applications/gaussian/Gaussian/AVX2/g16/l502.exe)
 Integral symmetry usage will be decided dynamically.
 UHF open shell SCF:
 Using DIIS extrapolation, IDIIS=  1040.
 NGot=  4026531840 LenX=  4026305520 LenY=  4026194855
 Requested convergence on RMS density matrix=1.00D-08 within 128 cycles.
 Requested convergence on MAX density matrix=1.00D-06.
 Requested convergence on             energy=1.00D-06.
 No special actions if energy rises.
 Fock matrices will be formed incrementally for  20 cycles.

 Cycle   1  Pass 1  IDiag  1:
 FoFJK:  IHMeth= 1 ICntrl=       0 DoSepK=F KAlg= 0 I1Cent=           0 FoldK=F
 IRaf= 910000000 NMat=       1 IRICut=       1 DoRegI=T DoRafI=F ISym2E= 0 IDoP0=0 IntGTp=1.
 FoFCou: FMM=F IPFlag=           0 FMFlag=      100000 FMFlg1=           0
         NFxFlg=           0 DoJE=F BraDBF=F KetDBF=F FulRan=T
         wScrn=  0.000000 ICntrl=         0 IOpCl=  1 I1Cent=           0 NGrid=           0
         NMat0=    1 NMatS0=      1 NMatT0=    0 NMatD0=    1 NMtDS0=    0 NMtDT0=    0
 Symmetry not used in FoFCou.
 Inv3:  Mode=1 IEnd=     8844267.
 Iteration    1 A*A^-1 deviation from unit magnitude is 2.89D-15 for    448.
 Iteration    1 A*A^-1 deviation from orthogonality  is 2.83D-15 for   1429     42.
 Iteration    1 A^-1*A deviation from unit magnitude is 3.00D-15 for    970.
 Iteration    1 A^-1*A deviation from orthogonality  is 1.81D-15 for   1381    878.
 E= -573.354681795724    
 DIIS: error= 6.46D-02 at cycle   1 NSaved=   1.
 NSaved= 1 IEnMin= 1 EnMin= -573.354681795724     IErMin= 1 ErrMin= 6.46D-02
 ErrMax= 6.46D-02  0.00D+00 EMaxC= 1.00D-01 BMatC= 2.37D+00 BMatP= 2.37D+00
 IDIUse=3 WtCom= 3.54D-01 WtEn= 6.46D-01
 Coeff-Com:  0.100D+01
 Coeff-En:   0.100D+01
 Coeff:      0.100D+01
 Gap=     0.063 Goal=   None    Shift=    0.000
 Gap=     0.063 Goal=   None    Shift=    0.000
 GapD=    0.063 DampG=0.500 DampE=0.500 DampFc=0.2500 IDamp=-1.
 Damping current iteration by 2.50D-01
 RMSDP=1.26D+00 MaxDP=1.55D+02              OVMax= 9.86D-01

 Cycle   2  Pass 1  IDiag  1:
 RMSU=  3.02D-01    CP:  2.28D+00
 E= -573.471871089395     Delta-E=       -0.117189293670 Rises=F Damp=T
 DIIS: error= 1.92D-02 at cycle   2 NSaved=   2.
 NSaved= 2 IEnMin= 2 EnMin= -573.471871089395     IErMin= 2 ErrMin= 1.92D-02
 ErrMax= 1.92D-02  0.00D+00 EMaxC= 1.00D-01 BMatC= 3.58D-01 BMatP= 2.37D+00
 IDIUse=3 WtCom= 8.08D-01 WtEn= 1.92D-01
 Coeff-Com: -0.369D+00 0.137D+01
 Coeff-En:   0.174D+00 0.826D+00
 Coeff:     -0.265D+00 0.126D+01
 Gap=    -0.110 Goal=   None    Shift=    0.000
 Gap=    -0.110 Goal=   None    Shift=    0.000
 RMSDP=3.19D-01 MaxDP=3.90D+01 DE=-1.17D-01 OVMax= 8.97D-01

 Cycle   3  Pass 1  IDiag  1:
 RMSU=  1.41D-02    CP:  7.05D-01  8.16D-03
 E= -573.738681743541     Delta-E=       -0.266810654146 Rises=F Damp=F
 DIIS: error= 3.22D-02 at cycle   3 NSaved=   3.
 NSaved= 3 IEnMin= 3 EnMin= -573.738681743541     IErMin= 2 ErrMin= 1.92D-02
 ErrMax= 3.22D-02  0.00D+00 EMaxC= 1.00D-01 BMatC= 5.42D-01 BMatP= 3.58D-01
 IDIUse=2 WtCom= 0.00D+00 WtEn= 1.00D+00
 Coeff-En:   0.000D+00 0.000D+00 0.100D+01
 Coeff:      0.000D+00 0.000D+00 0.100D+01
 Gap=     0.055 Goal=   None    Shift=    0.000
 Gap=     0.055 Goal=   None    Shift=    0.000
 RMSDP=1.43D-01 MaxDP=9.16D+00 DE=-2.67D-01 OVMax= 5.92D-01

 Cycle   4  Pass 1  IDiag  1:
 RMSU=  1.26D-01    CP:  1.21D+00  1.73D-01  3.00D+00
 E= -573.008139777515     Delta-E=        0.730541966025 Rises=F Damp=F
 DIIS: error= 7.32D-02 at cycle   4 NSaved=   4.
 NSaved= 4 IEnMin= 3 EnMin= -573.738681743541     IErMin= 2 ErrMin= 1.92D-02
 ErrMax= 7.32D-02  0.00D+00 EMaxC= 1.00D-01 BMatC= 3.76D+00 BMatP= 3.58D-01
 IDIUse=2 WtCom= 0.00D+00 WtEn= 1.00D+00
 Coeff-En:   0.000D+00 0.000D+00 0.831D+00 0.169D+00
 Coeff:      0.000D+00 0.000D+00 0.831D+00 0.169D+00
 Gap=     0.095 Goal=   None    Shift=    0.000
 Gap=     0.095 Goal=   None    Shift=    0.000
 RMSDP=1.32D-01 MaxDP=7.54D+00 DE= 7.31D-01 OVMax= 4.38D-01

 Cycle   5  Pass 1  IDiag  1:
 RMSU=  1.13D-02    CP:  7.47D-01  1.84D-02  1.11D+00  9.04D-02
 E= -573.792519897341     Delta-E=       -0.784380119825 Rises=F Damp=F
 DIIS: error= 2.26D-02 at cycle   5 NSaved=   5.
 NSaved= 5 IEnMin= 5 EnMin= -573.792519897341     IErMin= 2 ErrMin= 1.92D-02
 ErrMax= 2.26D-02  0.00D+00 EMaxC= 1.00D-01 BMatC= 3.13D-01 BMatP= 3.58D-01
 IDIUse=3 WtCom= 7.74D-01 WtEn= 2.26D-01
 Coeff-Com: -0.195D-01 0.751D-01 0.417D+00-0.283D-02 0.530D+00
 Coeff-En:   0.000D+00 0.000D+00 0.383D+00 0.000D+00 0.617D+00
 Coeff:     -0.151D-01 0.582D-01 0.409D+00-0.219D-02 0.550D+00
 Gap=     0.106 Goal=   None    Shift=    0.000
 Gap=     0.106 Goal=   None    Shift=    0.000
 RMSDP=1.20D-02 MaxDP=1.35D+00 DE=-7.84D-01 OVMax= 6.61D-02

 Cycle   6  Pass 1  IDiag  1:
 RMSU=  3.12D-03    CP:  6.59D-01  9.98D-03  9.36D-01  2.87D-02  5.53D-01
 E= -573.854318452253     Delta-E=       -0.061798554912 Rises=F Damp=F
 DIIS: error= 3.76D-03 at cycle   6 NSaved=   6.
 NSaved= 6 IEnMin= 6 EnMin= -573.854318452253     IErMin= 6 ErrMin= 3.76D-03
 ErrMax= 3.76D-03  0.00D+00 EMaxC= 1.00D-01 BMatC= 9.18D-03 BMatP= 3.13D-01
 IDIUse=3 WtCom= 9.62D-01 WtEn= 3.76D-02
 Coeff-Com: -0.254D-01 0.575D-01 0.198D+00-0.279D-01 0.339D+00 0.459D+00
 Coeff-En:   0.000D+00 0.000D+00 0.000D+00 0.000D+00 0.000D+00 0.100D+01
 Coeff:     -0.245D-01 0.554D-01 0.190D+00-0.269D-01 0.326D+00 0.479D+00
 Gap=     0.104 Goal=   None    Shift=    0.000
 Gap=     0.104 Goal=   None    Shift=    0.000
 RMSDP=1.48D-03 MaxDP=1.20D-01 DE=-6.18D-02 OVMax= 3.11D-02

 Cycle   7  Pass 1  IDiag  1:
 RMSU=  1.13D-03    CP:  6.68D-01  9.88D-03  9.38D-01  2.67D-02  5.99D-01
                    CP:  8.73D-01
 E= -573.856409816145     Delta-E=       -0.002091363892 Rises=F Damp=F
 DIIS: error= 7.96D-04 at cycle   7 NSaved=   7.
 NSaved= 7 IEnMin= 7 EnMin= -573.856409816145     IErMin= 7 ErrMin= 7.96D-04
 ErrMax= 7.96D-04  0.00D+00 EMaxC= 1.00D-01 BMatC= 5.96D-04 BMatP= 9.18D-03
 IDIUse=3 WtCom= 9.92D-01 WtEn= 7.96D-03
 Coeff-Com: -0.621D-02 0.110D-01 0.612D-01-0.123D-01 0.114D+00 0.241D+00
 Coeff-Com:  0.591D+00
 Coeff-En:   0.000D+00 0.000D+00 0.000D+00 0.000D+00 0.000D+00 0.123D-02
 Coeff-En:   0.999D+00
 Coeff:     -0.616D-02 0.109D-01 0.607D-01-0.122D-01 0.113D+00 0.239D+00
 Coeff:      0.594D+00
 Gap=     0.104 Goal=   None    Shift=    0.000
 Gap=     0.104 Goal=   None    Shift=    0.000
 RMSDP=5.93D-04 MaxDP=5.94D-02 DE=-2.09D-03 OVMax= 7.22D-03

 Cycle   8  Pass 1  IDiag  1:
 RMSU=  2.97D-04    CP:  6.62D-01  9.79D-03  9.37D-01  2.62D-02  6.00D-01
                    CP:  9.49D-01  1.02D+00
 E= -573.856534769143     Delta-E=       -0.000124952998 Rises=F Damp=F
 DIIS: error= 3.56D-04 at cycle   8 NSaved=   8.
 NSaved= 8 IEnMin= 8 EnMin= -573.856534769143     IErMin= 8 ErrMin= 3.56D-04
 ErrMax= 3.56D-04  0.00D+00 EMaxC= 1.00D-01 BMatC= 1.19D-04 BMatP= 5.96D-04
 IDIUse=3 WtCom= 9.96D-01 WtEn= 3.56D-03
 Coeff-Com:  0.763D-03-0.174D-02 0.382D-02-0.126D-02 0.182D-02 0.436D-01
 Coeff-Com:  0.340D+00 0.613D+00
 Coeff-En:   0.000D+00 0.000D+00 0.000D+00 0.000D+00 0.000D+00 0.000D+00
 Coeff-En:   0.114D+00 0.886D+00
 Coeff:      0.760D-03-0.173D-02 0.381D-02-0.126D-02 0.181D-02 0.434D-01
 Coeff:      0.340D+00 0.614D+00
 Gap=     0.105 Goal=   None    Shift=    0.000
 Gap=     0.105 Goal=   None    Shift=    0.000
 RMSDP=2.24D-04 MaxDP=1.62D-02 DE=-1.25D-04 OVMax= 2.16D-03

 Cycle   9  Pass 1  IDiag  1:
 RMSU=  1.39D-04    CP:  6.61D-01  9.64D-03  9.31D-01  2.56D-02  5.96D-01
                    CP:  9.50D-01  1.12D+00  8.43D-01
 E= -573.856558046874     Delta-E=       -0.000023277731 Rises=F Damp=F
 DIIS: error= 1.63D-04 at cycle   9 NSaved=   9.
 NSaved= 9 IEnMin= 9 EnMin= -573.856558046874     IErMin= 9 ErrMin= 1.63D-04
 ErrMax= 1.63D-04  0.00D+00 EMaxC= 1.00D-01 BMatC= 2.32D-05 BMatP= 1.19D-04
 IDIUse=3 WtCom= 9.98D-01 WtEn= 1.63D-03
 Coeff-Com:  0.107D-02-0.169D-02-0.116D-02 0.201D-03-0.730D-02 0.112D-01
 Coeff-Com:  0.193D+00 0.415D+00 0.389D+00
 Coeff-En:   0.000D+00 0.000D+00 0.000D+00 0.000D+00 0.000D+00 0.000D+00
 Coeff-En:   0.000D+00 0.169D-01 0.983D+00
 Coeff:      0.107D-02-0.169D-02-0.115D-02 0.201D-03-0.729D-02 0.112D-01
 Coeff:      0.193D+00 0.415D+00 0.390D+00
 Gap=     0.104 Goal=   None    Shift=    0.000
 Gap=     0.104 Goal=   None    Shift=    0.000
 RMSDP=8.30D-05 MaxDP=5.04D-03 DE=-2.33D-05 OVMax= 7.89D-04

 Cycle  10  Pass 1  IDiag  1:
 RMSU=  4.58D-05    CP:  6.61D-01  9.61D-03  9.31D-01  2.53D-02  5.94D-01
                    CP:  9.54D-01  1.12D+00  8.96D-01  7.43D-01
 E= -573.856562724897     Delta-E=       -0.000004678023 Rises=F Damp=F
 DIIS: error= 2.51D-05 at cycle  10 NSaved=  10.
 NSaved=10 IEnMin=10 EnMin= -573.856562724897     IErMin=10 ErrMin= 2.51D-05
 ErrMax= 2.51D-05  0.00D+00 EMaxC= 1.00D-01 BMatC= 5.57D-07 BMatP= 2.32D-05
 IDIUse=1 WtCom= 1.00D+00 WtEn= 0.00D+00
 Coeff-Com:  0.544D-03-0.693D-03-0.407D-03 0.137D-04-0.167D-02 0.239D-02
 Coeff-Com:  0.459D-01 0.793D-01 0.133D+00 0.741D+00
 Coeff:      0.544D-03-0.693D-03-0.407D-03 0.137D-04-0.167D-02 0.239D-02
 Coeff:      0.459D-01 0.793D-01 0.133D+00 0.741D+00
 Gap=     0.104 Goal=   None    Shift=    0.000
 Gap=     0.104 Goal=   None    Shift=    0.000
 RMSDP=2.75D-05 MaxDP=2.08D-03 DE=-4.68D-06 OVMax= 1.82D-04

 Cycle  11  Pass 1  IDiag  1:
 RMSU=  1.10D-05    CP:  6.61D-01  9.59D-03  9.30D-01  2.52D-02  5.93D-01
                    CP:  9.56D-01  1.13D+00  9.10D-01  8.24D-01  1.09D+00
 E= -573.856562808640     Delta-E=       -0.000000083743 Rises=F Damp=F
 DIIS: error= 1.71D-05 at cycle  11 NSaved=  11.
 NSaved=11 IEnMin=11 EnMin= -573.856562808640     IErMin=11 ErrMin= 1.71D-05
 ErrMax= 1.71D-05  0.00D+00 EMaxC= 1.00D-01 BMatC= 1.96D-07 BMatP= 5.57D-07
 IDIUse=1 WtCom= 1.00D+00 WtEn= 0.00D+00
 Coeff-Com:  0.282D-03-0.335D-03-0.156D-03 0.309D-05-0.362D-03-0.305D-03
 Coeff-Com:  0.742D-02-0.259D-03 0.365D-01 0.463D+00 0.495D+00
 Coeff:      0.282D-03-0.335D-03-0.156D-03 0.309D-05-0.362D-03-0.305D-03
 Coeff:      0.742D-02-0.259D-03 0.365D-01 0.463D+00 0.495D+00
 Gap=     0.104 Goal=   None    Shift=    0.000
 Gap=     0.104 Goal=   None    Shift=    0.000
 RMSDP=9.34D-06 MaxDP=6.67D-04 DE=-8.37D-08 OVMax= 1.05D-04

 Cycle  12  Pass 1  IDiag  1:
 RMSU=  3.36D-06    CP:  6.61D-01  9.58D-03  9.30D-01  2.52D-02  5.93D-01
                    CP:  9.56D-01  1.13D+00  9.15D-01  8.32D-01  1.14D+00
                    CP:  1.01D+00
 E= -573.856562858570     Delta-E=       -0.000000049930 Rises=F Damp=F
 DIIS: error= 4.34D-06 at cycle  12 NSaved=  12.
 NSaved=12 IEnMin=12 EnMin= -573.856562858570     IErMin=12 ErrMin= 4.34D-06
 ErrMax= 4.34D-06  0.00D+00 EMaxC= 1.00D-01 BMatC= 1.56D-08 BMatP= 1.96D-07
 IDIUse=1 WtCom= 1.00D+00 WtEn= 0.00D+00
 Coeff-Com:  0.555D-04-0.773D-04 0.565D-04-0.127D-04 0.858D-04-0.752D-03
 Coeff-Com: -0.160D-02-0.882D-02-0.379D-02 0.551D-01 0.141D+00 0.819D+00
 Coeff:      0.555D-04-0.773D-04 0.565D-04-0.127D-04 0.858D-04-0.752D-03
 Coeff:     -0.160D-02-0.882D-02-0.379D-02 0.551D-01 0.141D+00 0.819D+00
 Gap=     0.104 Goal=   None    Shift=    0.000
 Gap=     0.104 Goal=   None    Shift=    0.000
 RMSDP=4.85D-06 MaxDP=3.63D-04 DE=-4.99D-08 OVMax= 2.50D-05

 Cycle  13  Pass 1  IDiag  1:
 RMSU=  1.20D-06    CP:  6.61D-01  9.58D-03  9.29D-01  2.52D-02  5.93D-01
                    CP:  9.56D-01  1.14D+00  9.17D-01  8.42D-01  1.15D+00
                    CP:  1.10D+00  1.10D+00
 E= -573.856562862015     Delta-E=       -0.000000003445 Rises=F Damp=F
 DIIS: error= 2.67D-06 at cycle  13 NSaved=  13.
 NSaved=13 IEnMin=13 EnMin= -573.856562862015     IErMin=13 ErrMin= 2.67D-06
 ErrMax= 2.67D-06  0.00D+00 EMaxC= 1.00D-01 BMatC= 3.83D-09 BMatP= 1.56D-08
 IDIUse=1 WtCom= 1.00D+00 WtEn= 0.00D+00
 Coeff-Com: -0.182D-05 0.768D-06 0.658D-04-0.837D-05 0.685D-04-0.505D-03
 Coeff-Com: -0.125D-02-0.418D-02-0.583D-02-0.250D-01 0.225D-01 0.515D+00
 Coeff-Com:  0.499D+00
 Coeff:     -0.182D-05 0.768D-06 0.658D-04-0.837D-05 0.685D-04-0.505D-03
 Coeff:     -0.125D-02-0.418D-02-0.583D-02-0.250D-01 0.225D-01 0.515D+00
 Coeff:      0.499D+00
 Gap=     0.104 Goal=   None    Shift=    0.000
 Gap=     0.104 Goal=   None    Shift=    0.000
 RMSDP=1.48D-06 MaxDP=8.91D-05 DE=-3.44D-09 OVMax= 1.54D-05

 Cycle  14  Pass 1  IDiag  1:
 RMSU=  4.46D-07    CP:  6.61D-01  9.58D-03  9.29D-01  2.51D-02  5.93D-01
                    CP:  9.55D-01  1.14D+00  9.18D-01  8.42D-01  1.15D+00
                    CP:  1.10D+00  1.18D+00  1.04D+00
 E= -573.856562862871     Delta-E=       -0.000000000856 Rises=F Damp=F
 DIIS: error= 4.84D-07 at cycle  14 NSaved=  14.
 NSaved=14 IEnMin=14 EnMin= -573.856562862871     IErMin=14 ErrMin= 4.84D-07
 ErrMax= 4.84D-07  0.00D+00 EMaxC= 1.00D-01 BMatC= 2.39D-10 BMatP= 3.83D-09
 IDIUse=1 WtCom= 1.00D+00 WtEn= 0.00D+00
 Coeff-Com: -0.414D-05 0.255D-05 0.211D-04-0.160D-05 0.178D-04-0.186D-03
 Coeff-Com: -0.429D-03-0.102D-02-0.187D-02-0.157D-01-0.420D-02 0.107D+00
 Coeff-Com:  0.233D+00 0.683D+00
 Coeff:     -0.414D-05 0.255D-05 0.211D-04-0.160D-05 0.178D-04-0.186D-03
 Coeff:     -0.429D-03-0.102D-02-0.187D-02-0.157D-01-0.420D-02 0.107D+00
 Coeff:      0.233D+00 0.683D+00
 Gap=     0.104 Goal=   None    Shift=    0.000
 Gap=     0.104 Goal=   None    Shift=    0.000
 RMSDP=3.43D-07 MaxDP=3.06D-05 DE=-8.56D-10 OVMax= 2.68D-06

 Cycle  15  Pass 1  IDiag  1:
 RMSU=  1.78D-07    CP:  6.61D-01  9.58D-03  9.29D-01  2.51D-02  5.93D-01
                    CP:  9.55D-01  1.14D+00  9.18D-01  8.42D-01  1.15D+00
                    CP:  1.11D+00  1.20D+00  1.12D+00  9.16D-01
 E= -573.856562862923     Delta-E=       -0.000000000052 Rises=F Damp=F
 DIIS: error= 2.17D-07 at cycle  15 NSaved=  15.
 NSaved=15 IEnMin=15 EnMin= -573.856562862923     IErMin=15 ErrMin= 2.17D-07
 ErrMax= 2.17D-07  0.00D+00 EMaxC= 1.00D-01 BMatC= 3.86D-11 BMatP= 2.39D-10
 IDIUse=1 WtCom= 1.00D+00 WtEn= 0.00D+00
 Coeff-Com: -0.249D-05 0.342D-05 0.380D-05 0.287D-06-0.181D-05-0.588D-04
 Coeff-Com: -0.771D-04-0.418D-04-0.189D-03-0.504D-02-0.366D-02-0.536D-02
 Coeff-Com:  0.812D-01 0.385D+00 0.548D+00
 Coeff:     -0.249D-05 0.342D-05 0.380D-05 0.287D-06-0.181D-05-0.588D-04
 Coeff:     -0.771D-04-0.418D-04-0.189D-03-0.504D-02-0.366D-02-0.536D-02
 Coeff:      0.812D-01 0.385D+00 0.548D+00
 Gap=     0.104 Goal=   None    Shift=    0.000
 Gap=     0.104 Goal=   None    Shift=    0.000
 RMSDP=1.04D-07 MaxDP=7.22D-06 DE=-5.23D-11 OVMax= 1.95D-06

 Cycle  16  Pass 1  IDiag  1:
 RMSU=  5.08D-08    CP:  6.61D-01  9.58D-03  9.29D-01  2.51D-02  5.93D-01
                    CP:  9.55D-01  1.14D+00  9.18D-01  8.42D-01  1.15D+00
                    CP:  1.11D+00  1.21D+00  1.13D+00  9.78D-01  1.00D+00
 E= -573.856562862936     Delta-E=       -0.000000000013 Rises=F Damp=F
 DIIS: error= 8.12D-08 at cycle  16 NSaved=  16.
 NSaved=16 IEnMin=16 EnMin= -573.856562862936     IErMin=16 ErrMin= 8.12D-08
 ErrMax= 8.12D-08  0.00D+00 EMaxC= 1.00D-01 BMatC= 5.64D-12 BMatP= 3.86D-11
 IDIUse=1 WtCom= 1.00D+00 WtEn= 0.00D+00
 Coeff-Com: -0.686D-06 0.110D-05-0.959D-06 0.338D-06-0.209D-05-0.104D-04
 Coeff-Com: -0.987D-05 0.684D-04 0.130D-03-0.777D-03-0.105D-02-0.185D-01
 Coeff-Com:  0.146D-01 0.927D-01 0.309D+00 0.604D+00
 Coeff:     -0.686D-06 0.110D-05-0.959D-06 0.338D-06-0.209D-05-0.104D-04
 Coeff:     -0.987D-05 0.684D-04 0.130D-03-0.777D-03-0.105D-02-0.185D-01
 Coeff:      0.146D-01 0.927D-01 0.309D+00 0.604D+00
 Gap=     0.104 Goal=   None    Shift=    0.000
 Gap=     0.104 Goal=   None    Shift=    0.000
 RMSDP=5.48D-08 MaxDP=4.05D-06 DE=-1.31D-11 OVMax= 4.58D-07

 Cycle  17  Pass 1  IDiag  1:
 RMSU=  1.82D-08    CP:  6.61D-01  9.58D-03  9.29D-01  2.51D-02  5.93D-01
                    CP:  9.55D-01  1.14D+00  9.18D-01  8.42D-01  1.15D+00
                    CP:  1.11D+00  1.20D+00  1.15D+00  9.90D-01  1.02D+00
                    CP:  9.27D-01
 E= -573.856562862939     Delta-E=       -0.000000000003 Rises=F Damp=F
 DIIS: error= 2.93D-08 at cycle  17 NSaved=  17.
 NSaved=17 IEnMin=17 EnMin= -573.856562862939     IErMin=17 ErrMin= 2.93D-08
 ErrMax= 2.93D-08  0.00D+00 EMaxC= 1.00D-01 BMatC= 7.17D-13 BMatP= 5.64D-12
 IDIUse=1 WtCom= 1.00D+00 WtEn= 0.00D+00
 Coeff-Com: -0.584D-10 0.133D-06-0.771D-06 0.176D-06-0.807D-06-0.534D-06
 Coeff-Com:  0.546D-05 0.433D-04 0.121D-03 0.244D-03 0.146D-03-0.939D-02
 Coeff-Com:  0.135D-03 0.226D-02 0.121D+00 0.341D+00 0.544D+00
 Coeff:     -0.584D-10 0.133D-06-0.771D-06 0.176D-06-0.807D-06-0.534D-06
 Coeff:      0.546D-05 0.433D-04 0.121D-03 0.244D-03 0.146D-03-0.939D-02
 Coeff:      0.135D-03 0.226D-02 0.121D+00 0.341D+00 0.544D+00
 Gap=     0.104 Goal=   None    Shift=    0.000
 Gap=     0.104 Goal=   None    Shift=    0.000
 RMSDP=1.75D-08 MaxDP=1.23D-06 DE=-2.96D-12 OVMax= 2.27D-07

 Cycle  18  Pass 1  IDiag  1:
 RMSU=  5.06D-09    CP:  6.61D-01  9.58D-03  9.29D-01  2.51D-02  5.93D-01
                    CP:  9.55D-01  1.14D+00  9.18D-01  8.42D-01  1.15D+00
                    CP:  1.11D+00  1.20D+00  1.15D+00  9.92D-01  1.03D+00
                    CP:  9.85D-01  1.09D+00
 E= -573.856562862938     Delta-E=        0.000000000001 Rises=F Damp=F
 DIIS: error= 6.03D-09 at cycle  18 NSaved=  18.
 NSaved=18 IEnMin=17 EnMin= -573.856562862939     IErMin=18 ErrMin= 6.03D-09
 ErrMax= 6.03D-09  0.00D+00 EMaxC= 1.00D-01 BMatC= 4.48D-14 BMatP= 7.17D-13
 IDIUse=1 WtCom= 1.00D+00 WtEn= 0.00D+00
 Coeff-Com:  0.481D-07-0.435D-07-0.802D-07 0.129D-07 0.636D-07 0.178D-06
 Coeff-Com:  0.155D-06 0.278D-05 0.184D-04 0.682D-04 0.112D-03-0.983D-03
 Coeff-Com: -0.144D-02-0.114D-01 0.266D-02 0.188D-01 0.169D+00 0.823D+00
 Coeff:      0.481D-07-0.435D-07-0.802D-07 0.129D-07 0.636D-07 0.178D-06
 Coeff:      0.155D-06 0.278D-05 0.184D-04 0.682D-04 0.112D-03-0.983D-03
 Coeff:     -0.144D-02-0.114D-01 0.266D-02 0.188D-01 0.169D+00 0.823D+00
 Gap=     0.104 Goal=   None    Shift=    0.000
 Gap=     0.104 Goal=   None    Shift=    0.000
 RMSDP=5.93D-09 MaxDP=4.37D-07 DE= 1.02D-12 OVMax= 5.59D-08

 Error on total polarization charges =  0.02759
 SCF Done:  E(UB3LYP) =  -573.856562863     A.U. after   18 cycles
            NFock= 18  Conv=0.59D-08     -V/T= 2.0044
 <Sx>= 0.0000 <Sy>= 0.0000 <Sz>= 0.0000 <S**2>=-0.0000 S=-0.0000
 <L.S>=  0.00000000000    
 KE= 5.713576527294D+02 PE=-2.667064731872D+03 EE= 8.735349919986D+02
 Annihilation of the first spin contaminant:
 S**2 before annihilation    -0.0000,   after     0.0000
 Leave Link  502 at Sun Jan 21 07:47:04 2024, MaxMem=  4026531840 cpu:             556.0 elap:              70.1
 (Enter /sysapps/ubuntu-applications/gaussian/Gaussian/AVX2/g16/l601.exe)
 Copying SCF densities to generalized density rwf, IOpCl= 1 IROHF=0.

 **********************************************************************

            Population analysis using the SCF density.

 **********************************************************************

 Orbital symmetries:
 Alpha Orbitals:
       Occupied  (A) (A) (A) (A) (A) (A) (A) (A) (A) (A) (A) (A)
                 (A) (A) (A) (A) (A) (A) (A) (A) (A) (A) (A) (A)
                 (A) (A) (A) (A) (A) (A) (A) (A) (A) (A) (A) (A)
                 (A) (A) (A) (A) (A) (A) (A) (A)
       Virtual   (A) (A) (A) (A) (A) (A) (A) (A) (A) (A) (A) (A)
                 (A) (A) (A) (A) (A) (A) (A) (A) (A) (A) (A) (A)
                 (A) (A) (A) (A) (A) (A) (A) (A) (A) (A) (A) (A)
                 (A) (A) (A) (A) (A) (A) (A) (A) (A) (A) (A) (A)
                 (A) (A) (A) (A) (A) (A) (A) (A) (A) (A) (A) (A)
                 (A) (A) (A) (A) (A) (A) (A) (A) (A) (A) (A) (A)
                 (A) (A) (A) (A) (A) (A) (A) (A) (A) (A) (A) (A)
                 (A) (A) (A) (A) (A) (A) (A) (A) (A) (A) (A) (A)
                 (A) (A) (A) (A) (A) (A) (A) (A) (A) (A) (A) (A)
                 (A) (A) (A) (A) (A) (A) (A) (A) (A) (A) (A) (A)
                 (A) (A) (A) (A) (A) (A) (A) (A) (A) (A) (A) (A)
                 (A) (A) (A) (A) (A) (A) (A) (A) (A) (A) (A) (A)
                 (A) (A) (A) (A) (A) (A) (A) (A) (A) (A) (A) (A)
                 (A) (A) (A) (A) (A) (A) (A) (A) (A) (A) (A) (A)
                 (A) (A) (A) (A) (A) (A) (A) (A) (A) (A) (A) (A)
                 (A) (A) (A) (A) (A) (A) (A) (A) (A) (A) (A) (A)
                 (A) (A) (A) (A) (A) (A) (A) (A) (A) (A) (A) (A)
                 (A) (A) (A) (A) (A) (A) (A) (A) (A) (A) (A) (A)
                 (A) (A) (A) (A) (A) (A) (A) (A) (A) (A) (A) (A)
                 (A) (A) (A) (A) (A) (A) (A) (A) (A) (A) (A) (A)
                 (A) (A) (A) (A) (A) (A) (A) (A) (A) (A) (A) (A)
                 (A) (A) (A) (A) (A) (A) (A) (A) (A) (A) (A) (A)
                 (A) (A) (A) (A) (A) (A) (A) (A) (A) (A) (A) (A)
 Beta  Orbitals:
       Occupied  (A) (A) (A) (A) (A) (A) (A) (A) (A) (A) (A) (A)
                 (A) (A) (A) (A) (A) (A) (A) (A) (A) (A) (A) (A)
                 (A) (A) (A) (A) (A) (A) (A) (A) (A) (A) (A) (A)
                 (A) (A) (A) (A) (A) (A) (A) (A)
       Virtual   (A) (A) (A) (A) (A) (A) (A) (A) (A) (A) (A) (A)
                 (A) (A) (A) (A) (A) (A) (A) (A) (A) (A) (A) (A)
                 (A) (A) (A) (A) (A) (A) (A) (A) (A) (A) (A) (A)
                 (A) (A) (A) (A) (A) (A) (A) (A) (A) (A) (A) (A)
                 (A) (A) (A) (A) (A) (A) (A) (A) (A) (A) (A) (A)
                 (A) (A) (A) (A) (A) (A) (A) (A) (A) (A) (A) (A)
                 (A) (A) (A) (A) (A) (A) (A) (A) (A) (A) (A) (A)
                 (A) (A) (A) (A) (A) (A) (A) (A) (A) (A) (A) (A)
                 (A) (A) (A) (A) (A) (A) (A) (A) (A) (A) (A) (A)
                 (A) (A) (A) (A) (A) (A) (A) (A) (A) (A) (A) (A)
                 (A) (A) (A) (A) (A) (A) (A) (A) (A) (A) (A) (A)
                 (A) (A) (A) (A) (A) (A) (A) (A) (A) (A) (A) (A)
                 (A) (A) (A) (A) (A) (A) (A) (A) (A) (A) (A) (A)
                 (A) (A) (A) (A) (A) (A) (A) (A) (A) (A) (A) (A)
                 (A) (A) (A) (A) (A) (A) (A) (A) (A) (A) (A) (A)
                 (A) (A) (A) (A) (A) (A) (A) (A) (A) (A) (A) (A)
                 (A) (A) (A) (A) (A) (A) (A) (A) (A) (A) (A) (A)
                 (A) (A) (A) (A) (A) (A) (A) (A) (A) (A) (A) (A)
                 (A) (A) (A) (A) (A) (A) (A) (A) (A) (A) (A) (A)
                 (A) (A) (A) (A) (A) (A) (A) (A) (A) (A) (A) (A)
                 (A) (A) (A) (A) (A) (A) (A) (A) (A) (A) (A) (A)
                 (A) (A) (A) (A) (A) (A) (A) (A) (A) (A) (A) (A)
                 (A) (A) (A) (A) (A) (A) (A) (A) (A) (A) (A) (A)
 The electronic state is 1-A.
 Alpha  occ. eigenvalues --  -19.06428 -19.02928 -19.01293 -10.21830 -10.18791
 Alpha  occ. eigenvalues --  -10.16717 -10.14610 -10.14486 -10.14446 -10.13018
 Alpha  occ. eigenvalues --  -10.12608 -10.11756  -0.98879  -0.94818  -0.92237
 Alpha  occ. eigenvalues --   -0.78765  -0.74505  -0.70003  -0.66343  -0.64568
 Alpha  occ. eigenvalues --   -0.56598  -0.54380  -0.48123  -0.44456  -0.43692
 Alpha  occ. eigenvalues --   -0.41136  -0.40872  -0.39706  -0.39616  -0.38591
 Alpha  occ. eigenvalues --   -0.36637  -0.35971  -0.35273  -0.34820  -0.33079
 Alpha  occ. eigenvalues --   -0.32277  -0.31213  -0.31043  -0.23174  -0.22816
 Alpha  occ. eigenvalues --   -0.21558  -0.19463  -0.18574  -0.12515
 Alpha virt. eigenvalues --   -0.02069   0.00135   0.01007   0.02074   0.03218
 Alpha virt. eigenvalues --    0.03417   0.03977   0.04535   0.05418   0.05537
 Alpha virt. eigenvalues --    0.06090   0.06290   0.07773   0.08222   0.09056
 Alpha virt. eigenvalues --    0.09134   0.09764   0.09939   0.10488   0.11168
 Alpha virt. eigenvalues --    0.12228   0.12750   0.13037   0.13104   0.13965
 Alpha virt. eigenvalues --    0.14272   0.14556   0.14874   0.15267   0.15303
 Alpha virt. eigenvalues --    0.16206   0.16926   0.17430   0.17943   0.18378
 Alpha virt. eigenvalues --    0.18970   0.19338   0.19855   0.20140   0.20188
 Alpha virt. eigenvalues --    0.21396   0.22338   0.23016   0.23058   0.23141
 Alpha virt. eigenvalues --    0.24119   0.24800   0.25216   0.26271   0.27503
 Alpha virt. eigenvalues --    0.27931   0.28911   0.29676   0.30008   0.30581
 Alpha virt. eigenvalues --    0.31099   0.31629   0.31720   0.32364   0.32892
 Alpha virt. eigenvalues --    0.33190   0.33833   0.34605   0.35277   0.35457
 Alpha virt. eigenvalues --    0.36347   0.37903   0.38984   0.39268   0.39916
 Alpha virt. eigenvalues --    0.40980   0.42509   0.43073   0.44763   0.46774
 Alpha virt. eigenvalues --    0.46945   0.47603   0.49242   0.50345   0.52873
 Alpha virt. eigenvalues --    0.55199   0.56228   0.58335   0.58888   0.60247
 Alpha virt. eigenvalues --    0.61293   0.62100   0.62589   0.63140   0.63586
 Alpha virt. eigenvalues --    0.65150   0.66246   0.66620   0.67521   0.67986
 Alpha virt. eigenvalues --    0.68495   0.69136   0.69627   0.70864   0.73563
 Alpha virt. eigenvalues --    0.75464   0.75704   0.76761   0.78833   0.79366
 Alpha virt. eigenvalues --    0.80672   0.83703   0.85686   0.88556   0.89515
 Alpha virt. eigenvalues --    0.92288   0.93229   0.94620   0.95624   0.97911
 Alpha virt. eigenvalues --    0.99274   0.99758   1.01751   1.02629   1.03729
 Alpha virt. eigenvalues --    1.05919   1.07277   1.08926   1.11360   1.11694
 Alpha virt. eigenvalues --    1.12667   1.16213   1.16517   1.17861   1.18560
 Alpha virt. eigenvalues --    1.22827   1.23105   1.26327   1.26860   1.27479
 Alpha virt. eigenvalues --    1.29845   1.30320   1.31853   1.34505   1.38231
 Alpha virt. eigenvalues --    1.40577   1.40960   1.44707   1.46336   1.46878
 Alpha virt. eigenvalues --    1.47816   1.50745   1.52325   1.55479   1.56481
 Alpha virt. eigenvalues --    1.58380   1.59158   1.60114   1.61490   1.62487
 Alpha virt. eigenvalues --    1.63461   1.63748   1.66508   1.69679   1.71755
 Alpha virt. eigenvalues --    1.72553   1.74178   1.77086   1.79768   1.80933
 Alpha virt. eigenvalues --    1.81421   1.85591   1.86656   1.88639   1.89272
 Alpha virt. eigenvalues --    1.91150   1.92926   1.93292   1.96234   1.97803
 Alpha virt. eigenvalues --    1.98495   2.02410   2.04309   2.09198   2.09849
 Alpha virt. eigenvalues --    2.11505   2.13943   2.15767   2.16928   2.22891
 Alpha virt. eigenvalues --    2.23217   2.26700   2.28035   2.30578   2.33911
 Alpha virt. eigenvalues --    2.36841   2.37438   2.42634   2.49590   2.49784
 Alpha virt. eigenvalues --    2.54427   2.54908   2.56408   2.57663   2.58574
 Alpha virt. eigenvalues --    2.58899   2.61374   2.68489   2.69287   2.69543
 Alpha virt. eigenvalues --    2.72271   2.75488   2.75554   2.77644   2.81638
 Alpha virt. eigenvalues --    2.82075   2.85657   2.88066   2.90117   2.91922
 Alpha virt. eigenvalues --    2.92546   2.95182   2.95864   2.96650   2.99268
 Alpha virt. eigenvalues --    3.01046   3.03126   3.05826   3.08455   3.11149
 Alpha virt. eigenvalues --    3.16123   3.18189   3.20994   3.23002   3.26380
 Alpha virt. eigenvalues --    3.31557   3.34955   3.36499   3.37145   3.37890
 Alpha virt. eigenvalues --    3.43864   3.46530   3.49812   3.56885   3.61761
 Alpha virt. eigenvalues --    3.67772   3.74279   3.78271   3.78933   3.79658
 Alpha virt. eigenvalues --    3.82821   3.89190   3.92625   4.15347   4.19690
 Alpha virt. eigenvalues --    4.23557   4.30752   4.33541   4.45324   4.81695
 Alpha virt. eigenvalues --    5.09392   5.13000   5.15494   5.23906   5.31247
 Alpha virt. eigenvalues --    5.33495   5.73429   5.78797   5.84651  23.67227
 Alpha virt. eigenvalues --   23.85868  23.90227  23.95077  23.95979  23.99530
 Alpha virt. eigenvalues --   24.02054  24.12125  24.17602  50.03940  50.08626
 Alpha virt. eigenvalues --   50.11183
  Beta  occ. eigenvalues --  -19.06428 -19.02928 -19.01293 -10.21830 -10.18791
  Beta  occ. eigenvalues --  -10.16717 -10.14610 -10.14486 -10.14446 -10.13018
  Beta  occ. eigenvalues --  -10.12608 -10.11756  -0.98879  -0.94818  -0.92237
  Beta  occ. eigenvalues --   -0.78765  -0.74505  -0.70003  -0.66343  -0.64568
  Beta  occ. eigenvalues --   -0.56598  -0.54380  -0.48123  -0.44456  -0.43692
  Beta  occ. eigenvalues --   -0.41136  -0.40872  -0.39706  -0.39616  -0.38591
  Beta  occ. eigenvalues --   -0.36637  -0.35971  -0.35273  -0.34820  -0.33079
  Beta  occ. eigenvalues --   -0.32277  -0.31213  -0.31043  -0.23174  -0.22816
  Beta  occ. eigenvalues --   -0.21558  -0.19463  -0.18574  -0.12515
  Beta virt. eigenvalues --   -0.02069   0.00135   0.01007   0.02074   0.03218
  Beta virt. eigenvalues --    0.03417   0.03977   0.04535   0.05418   0.05537
  Beta virt. eigenvalues --    0.06090   0.06290   0.07773   0.08222   0.09056
  Beta virt. eigenvalues --    0.09134   0.09764   0.09939   0.10488   0.11168
  Beta virt. eigenvalues --    0.12228   0.12750   0.13037   0.13104   0.13965
  Beta virt. eigenvalues --    0.14272   0.14556   0.14874   0.15267   0.15303
  Beta virt. eigenvalues --    0.16206   0.16926   0.17430   0.17943   0.18378
  Beta virt. eigenvalues --    0.18970   0.19338   0.19855   0.20140   0.20188
  Beta virt. eigenvalues --    0.21396   0.22338   0.23016   0.23058   0.23141
  Beta virt. eigenvalues --    0.24119   0.24800   0.25216   0.26271   0.27503
  Beta virt. eigenvalues --    0.27931   0.28911   0.29676   0.30008   0.30581
  Beta virt. eigenvalues --    0.31099   0.31629   0.31720   0.32364   0.32892
  Beta virt. eigenvalues --    0.33190   0.33833   0.34605   0.35277   0.35457
  Beta virt. eigenvalues --    0.36347   0.37903   0.38984   0.39268   0.39916
  Beta virt. eigenvalues --    0.40980   0.42509   0.43073   0.44763   0.46774
  Beta virt. eigenvalues --    0.46945   0.47603   0.49242   0.50345   0.52873
  Beta virt. eigenvalues --    0.55199   0.56228   0.58335   0.58888   0.60247
  Beta virt. eigenvalues --    0.61293   0.62100   0.62589   0.63140   0.63586
  Beta virt. eigenvalues --    0.65150   0.66246   0.66620   0.67521   0.67986
  Beta virt. eigenvalues --    0.68495   0.69136   0.69627   0.70864   0.73563
  Beta virt. eigenvalues --    0.75464   0.75704   0.76761   0.78833   0.79366
  Beta virt. eigenvalues --    0.80672   0.83703   0.85686   0.88556   0.89515
  Beta virt. eigenvalues --    0.92288   0.93229   0.94620   0.95624   0.97911
  Beta virt. eigenvalues --    0.99274   0.99758   1.01751   1.02629   1.03729
  Beta virt. eigenvalues --    1.05919   1.07277   1.08926   1.11360   1.11694
  Beta virt. eigenvalues --    1.12667   1.16213   1.16517   1.17861   1.18560
  Beta virt. eigenvalues --    1.22827   1.23105   1.26327   1.26860   1.27479
  Beta virt. eigenvalues --    1.29845   1.30320   1.31853   1.34505   1.38231
  Beta virt. eigenvalues --    1.40577   1.40960   1.44707   1.46336   1.46878
  Beta virt. eigenvalues --    1.47816   1.50745   1.52325   1.55479   1.56481
  Beta virt. eigenvalues --    1.58380   1.59158   1.60114   1.61490   1.62487
  Beta virt. eigenvalues --    1.63461   1.63748   1.66508   1.69679   1.71755
  Beta virt. eigenvalues --    1.72553   1.74178   1.77086   1.79768   1.80933
  Beta virt. eigenvalues --    1.81421   1.85591   1.86656   1.88639   1.89272
  Beta virt. eigenvalues --    1.91150   1.92926   1.93292   1.96234   1.97803
  Beta virt. eigenvalues --    1.98495   2.02410   2.04309   2.09198   2.09849
  Beta virt. eigenvalues --    2.11505   2.13943   2.15767   2.16928   2.22891
  Beta virt. eigenvalues --    2.23217   2.26700   2.28035   2.30578   2.33911
  Beta virt. eigenvalues --    2.36841   2.37438   2.42634   2.49590   2.49784
  Beta virt. eigenvalues --    2.54427   2.54908   2.56408   2.57663   2.58574
  Beta virt. eigenvalues --    2.58899   2.61374   2.68489   2.69287   2.69543
  Beta virt. eigenvalues --    2.72271   2.75488   2.75554   2.77644   2.81638
  Beta virt. eigenvalues --    2.82075   2.85657   2.88066   2.90117   2.91922
  Beta virt. eigenvalues --    2.92546   2.95182   2.95864   2.96650   2.99268
  Beta virt. eigenvalues --    3.01046   3.03126   3.05826   3.08455   3.11149
  Beta virt. eigenvalues --    3.16123   3.18189   3.20994   3.23002   3.26380
  Beta virt. eigenvalues --    3.31557   3.34955   3.36499   3.37145   3.37890
  Beta virt. eigenvalues --    3.43864   3.46530   3.49812   3.56885   3.61761
  Beta virt. eigenvalues --    3.67772   3.74279   3.78271   3.78933   3.79658
  Beta virt. eigenvalues --    3.82821   3.89190   3.92625   4.15347   4.19690
  Beta virt. eigenvalues --    4.23557   4.30752   4.33541   4.45324   4.81695
  Beta virt. eigenvalues --    5.09392   5.13000   5.15494   5.23906   5.31247
  Beta virt. eigenvalues --    5.33495   5.73429   5.78797   5.84651  23.67227
  Beta virt. eigenvalues --   23.85868  23.90227  23.95077  23.95979  23.99530
  Beta virt. eigenvalues --   24.02054  24.12125  24.17602  50.03940  50.08626
  Beta virt. eigenvalues --   50.11183
          Condensed to atoms (all electrons):
               1          2          3          4          5          6
     1  C   12.884998  -4.268705   2.377609  -1.669903  -1.296444  -2.102832
     2  C   -4.268705  17.558397  -4.481352  -0.688094   1.631760  -2.288436
     3  C    2.377609  -4.481352  13.805827  -2.742606  -2.797160  -0.769423
     4  C   -1.669903  -0.688094  -2.742606  12.790155  -2.605069   1.828689
     5  C   -1.296444   1.631760  -2.797160  -2.605069  15.940323  -2.962935
     6  C   -2.102832  -2.288436  -0.769423   1.828689  -2.962935  15.790201
     7  O    0.391379  -0.213115   0.018057   0.040304  -0.025241  -0.075923
     8  O    0.002658  -0.062444  -0.241754   0.460347  -0.164735  -0.037134
     9  C   -0.590529  -0.639522   0.118274   0.451368  -0.093287  -3.927626
    10  C    0.491089  -0.483040   0.087593  -0.371777  -0.429522  -0.854071
    11  O    0.239951  -0.100212   0.020843  -0.002248  -0.168694  -0.278784
    12  H   -0.089151   0.417638  -0.050321   0.017555   0.047349  -0.003115
    13  H   -0.015644  -0.000443  -0.000284   0.016981  -0.032908   0.053664
    14  H   -0.015460  -0.000538  -0.000204   0.016901  -0.032939   0.053920
    15  H    0.004730   0.002070   0.004032   0.002205   0.027051  -0.072218
    16  C    0.146060   0.336166  -0.308937  -0.656703  -0.590551   0.205455
    17  H   -0.028216   0.054027   0.006107  -0.155029   0.649124  -0.265350
    18  H    0.028319   0.066427  -0.137544  -0.069726   0.033025  -0.003763
    19  H    0.006525  -0.077802   0.008950   0.058788  -0.022031   0.009384
    20  H    0.006962  -0.078210   0.010014   0.056776  -0.020983   0.009378
               7          8          9         10         11         12
     1  C    0.391379   0.002658  -0.590529   0.491089   0.239951  -0.089151
     2  C   -0.213115  -0.062444  -0.639522  -0.483040  -0.100212   0.417638
     3  C    0.018057  -0.241754   0.118274   0.087593   0.020843  -0.050321
     4  C    0.040304   0.460347   0.451368  -0.371777  -0.002248   0.017555
     5  C   -0.025241  -0.164735  -0.093287  -0.429522  -0.168694   0.047349
     6  C   -0.075923  -0.037134  -3.927626  -0.854071  -0.278784  -0.003115
     7  O    8.602690  -0.000118  -0.054033  -0.057500  -0.026206  -0.003809
     8  O   -0.000118   8.756277  -0.005306   0.007935  -0.000068  -0.000463
     9  C   -0.054033  -0.005306  10.779243  -0.324088   0.510292  -0.022418
    10  C   -0.057500   0.007935  -0.324088   7.489157  -0.108911   0.001295
    11  O   -0.026206  -0.000068   0.510292  -0.108911   8.377274   0.001470
    12  H   -0.003809  -0.000463  -0.022418   0.001295   0.001470   0.583588
    13  H    0.000589  -0.000100  -0.011507   0.334761   0.009060  -0.000255
    14  H    0.000590  -0.000100  -0.011834   0.334854   0.009014  -0.000253
    15  H    0.000946   0.000352   0.025792   0.358526  -0.006383  -0.000191
    16  C    0.007863   0.001564  -0.036856  -0.016026  -0.000321  -0.020033
    17  H   -0.002375   0.003065   0.034720   0.010981  -0.002502   0.003811
    18  H    0.000918   0.003568   0.002808  -0.000284  -0.000040   0.002789
    19  H   -0.000077   0.000176  -0.000155   0.000163  -0.000012   0.000295
    20  H   -0.000080   0.000170  -0.000244   0.000189  -0.000012   0.000260
              13         14         15         16         17         18
     1  C   -0.015644  -0.015460   0.004730   0.146060  -0.028216   0.028319
     2  C   -0.000443  -0.000538   0.002070   0.336166   0.054027   0.066427
     3  C   -0.000284  -0.000204   0.004032  -0.308937   0.006107  -0.137544
     4  C    0.016981   0.016901   0.002205  -0.656703  -0.155029  -0.069726
     5  C   -0.032908  -0.032939   0.027051  -0.590551   0.649124   0.033025
     6  C    0.053664   0.053920  -0.072218   0.205455  -0.265350  -0.003763
     7  O    0.000589   0.000590   0.000946   0.007863  -0.002375   0.000918
     8  O   -0.000100  -0.000100   0.000352   0.001564   0.003065   0.003568
     9  C   -0.011507  -0.011834   0.025792  -0.036856   0.034720   0.002808
    10  C    0.334761   0.334854   0.358526  -0.016026   0.010981  -0.000284
    11  O    0.009060   0.009014  -0.006383  -0.000321  -0.002502  -0.000040
    12  H   -0.000255  -0.000253  -0.000191  -0.020033   0.003811   0.002789
    13  H    0.567301  -0.049206  -0.017030   0.000806  -0.008861   0.000018
    14  H   -0.049206   0.567193  -0.017061   0.000810  -0.008868   0.000016
    15  H   -0.017030  -0.017061   0.517436  -0.000226   0.004895   0.000011
    16  C    0.000806   0.000810  -0.000226   6.178660  -0.019289   0.424401
    17  H   -0.008861  -0.008868   0.004895  -0.019289   0.617200   0.000337
    18  H    0.000018   0.000016   0.000011   0.424401   0.000337   0.557828
    19  H   -0.000050   0.000061  -0.000009   0.354982  -0.000092  -0.022177
    20  H    0.000061  -0.000048  -0.000009   0.354806  -0.000091  -0.022152
              19         20
     1  C    0.006525   0.006962
     2  C   -0.077802  -0.078210
     3  C    0.008950   0.010014
     4  C    0.058788   0.056776
     5  C   -0.022031  -0.020983
     6  C    0.009384   0.009378
     7  O   -0.000077  -0.000080
     8  O    0.000176   0.000170
     9  C   -0.000155  -0.000244
    10  C    0.000163   0.000189
    11  O   -0.000012  -0.000012
    12  H    0.000295   0.000260
    13  H   -0.000050   0.000061
    14  H    0.000061  -0.000048
    15  H   -0.000009  -0.000009
    16  C    0.354982   0.354806
    17  H   -0.000092  -0.000091
    18  H   -0.022177  -0.022152
    19  H    0.609806  -0.078818
    20  H   -0.078818   0.609876
          Atomic-Atomic Spin Densities.
               1          2          3          4          5          6
     1  C   -0.000000   0.000000  -0.000000  -0.000000   0.000000   0.000000
     2  C    0.000000  -0.000000   0.000000   0.000000   0.000000  -0.000000
     3  C   -0.000000   0.000000   0.000000  -0.000000   0.000000  -0.000000
     4  C   -0.000000   0.000000  -0.000000   0.000000  -0.000000   0.000000
     5  C    0.000000   0.000000   0.000000  -0.000000   0.000000  -0.000000
     6  C    0.000000  -0.000000  -0.000000   0.000000  -0.000000   0.000000
     7  O    0.000000  -0.000000   0.000000   0.000000  -0.000000  -0.000000
     8  O    0.000000   0.000000   0.000000  -0.000000   0.000000  -0.000000
     9  C   -0.000000   0.000000  -0.000000   0.000000  -0.000000  -0.000000
    10  C   -0.000000   0.000000   0.000000  -0.000000   0.000000   0.000000
    11  O   -0.000000   0.000000  -0.000000  -0.000000   0.000000   0.000000
    12  H    0.000000  -0.000000   0.000000  -0.000000   0.000000  -0.000000
    13  H   -0.000000  -0.000000  -0.000000   0.000000  -0.000000   0.000000
    14  H   -0.000000  -0.000000  -0.000000   0.000000  -0.000000   0.000000
    15  H    0.000000   0.000000   0.000000  -0.000000   0.000000  -0.000000
    16  C    0.000000  -0.000000   0.000000   0.000000  -0.000000   0.000000
    17  H    0.000000   0.000000   0.000000  -0.000000   0.000000  -0.000000
    18  H   -0.000000   0.000000  -0.000000  -0.000000   0.000000   0.000000
    19  H   -0.000000   0.000000  -0.000000   0.000000  -0.000000   0.000000
    20  H   -0.000000   0.000000  -0.000000   0.000000  -0.000000   0.000000
               7          8          9         10         11         12
     1  C    0.000000   0.000000  -0.000000  -0.000000  -0.000000   0.000000
     2  C   -0.000000   0.000000   0.000000   0.000000   0.000000  -0.000000
     3  C    0.000000   0.000000  -0.000000   0.000000  -0.000000   0.000000
     4  C    0.000000  -0.000000   0.000000  -0.000000  -0.000000  -0.000000
     5  C   -0.000000   0.000000  -0.000000   0.000000   0.000000   0.000000
     6  C   -0.000000  -0.000000  -0.000000   0.000000   0.000000  -0.000000
     7  O   -0.000000  -0.000000   0.000000  -0.000000   0.000000  -0.000000
     8  O   -0.000000   0.000000  -0.000000   0.000000  -0.000000   0.000000
     9  C    0.000000  -0.000000   0.000000  -0.000000  -0.000000   0.000000
    10  C   -0.000000   0.000000  -0.000000   0.000000  -0.000000   0.000000
    11  O    0.000000  -0.000000  -0.000000  -0.000000  -0.000000   0.000000
    12  H   -0.000000   0.000000   0.000000   0.000000   0.000000  -0.000000
    13  H   -0.000000  -0.000000  -0.000000  -0.000000   0.000000  -0.000000
    14  H   -0.000000  -0.000000  -0.000000  -0.000000   0.000000  -0.000000
    15  H    0.000000   0.000000   0.000000  -0.000000  -0.000000   0.000000
    16  C    0.000000  -0.000000  -0.000000  -0.000000   0.000000  -0.000000
    17  H    0.000000   0.000000   0.000000   0.000000  -0.000000   0.000000
    18  H    0.000000  -0.000000   0.000000  -0.000000  -0.000000   0.000000
    19  H   -0.000000   0.000000  -0.000000   0.000000   0.000000   0.000000
    20  H   -0.000000   0.000000  -0.000000   0.000000   0.000000   0.000000
              13         14         15         16         17         18
     1  C   -0.000000  -0.000000   0.000000   0.000000   0.000000  -0.000000
     2  C   -0.000000  -0.000000   0.000000  -0.000000   0.000000   0.000000
     3  C   -0.000000  -0.000000   0.000000   0.000000   0.000000  -0.000000
     4  C    0.000000   0.000000  -0.000000   0.000000  -0.000000  -0.000000
     5  C   -0.000000  -0.000000   0.000000  -0.000000   0.000000   0.000000
     6  C    0.000000   0.000000  -0.000000   0.000000  -0.000000   0.000000
     7  O   -0.000000  -0.000000   0.000000   0.000000   0.000000   0.000000
     8  O   -0.000000  -0.000000   0.000000  -0.000000   0.000000  -0.000000
     9  C   -0.000000  -0.000000   0.000000  -0.000000   0.000000   0.000000
    10  C   -0.000000  -0.000000  -0.000000  -0.000000   0.000000  -0.000000
    11  O    0.000000   0.000000  -0.000000   0.000000  -0.000000  -0.000000
    12  H   -0.000000  -0.000000   0.000000  -0.000000   0.000000   0.000000
    13  H    0.000000   0.000000  -0.000000   0.000000  -0.000000   0.000000
    14  H    0.000000   0.000000  -0.000000   0.000000  -0.000000   0.000000
    15  H   -0.000000  -0.000000  -0.000000  -0.000000   0.000000  -0.000000
    16  C    0.000000   0.000000  -0.000000   0.000000  -0.000000  -0.000000
    17  H   -0.000000  -0.000000   0.000000  -0.000000   0.000000  -0.000000
    18  H    0.000000   0.000000  -0.000000  -0.000000  -0.000000  -0.000000
    19  H   -0.000000  -0.000000   0.000000   0.000000   0.000000   0.000000
    20  H   -0.000000  -0.000000   0.000000   0.000000  -0.000000   0.000000
              19         20
     1  C   -0.000000  -0.000000
     2  C    0.000000   0.000000
     3  C   -0.000000  -0.000000
     4  C    0.000000   0.000000
     5  C   -0.000000  -0.000000
     6  C    0.000000   0.000000
     7  O   -0.000000  -0.000000
     8  O    0.000000   0.000000
     9  C   -0.000000  -0.000000
    10  C    0.000000   0.000000
    11  O    0.000000   0.000000
    12  H    0.000000   0.000000
    13  H   -0.000000  -0.000000
    14  H   -0.000000  -0.000000
    15  H    0.000000   0.000000
    16  C    0.000000   0.000000
    17  H    0.000000  -0.000000
    18  H    0.000000   0.000000
    19  H   -0.000000  -0.000000
    20  H   -0.000000  -0.000000
 Mulliken charges and spin densities:
               1          2
     1  C   -0.503397  -0.000000
     2  C   -0.684571  -0.000000
     3  C    1.072278  -0.000000
     4  C   -0.778912   0.000000
     5  C   -1.086132  -0.000000
     6  C    1.690920  -0.000000
     7  O   -0.604859   0.000000
     8  O   -0.723889  -0.000000
     9  C   -0.205091   0.000000
    10  C   -0.471323   0.000000
    11  O   -0.473509   0.000000
    12  H    0.113959   0.000000
    13  H    0.153049  -0.000000
    14  H    0.153152  -0.000000
    15  H    0.165081  -0.000000
    16  C   -0.362629  -0.000000
    17  H    0.106407   0.000000
    18  H    0.135221  -0.000000
    19  H    0.152093  -0.000000
    20  H    0.152153  -0.000000
 Sum of Mulliken charges =  -2.00000  -0.00000
 Mulliken charges and spin densities with hydrogens summed into heavy atoms:
               1          2
     1  C   -0.503397  -0.000000
     2  C   -0.570612  -0.000000
     3  C    1.072278  -0.000000
     4  C   -0.778912   0.000000
     5  C   -0.979725  -0.000000
     6  C    1.690920  -0.000000
     7  O   -0.604859   0.000000
     8  O   -0.723889  -0.000000
     9  C   -0.205091   0.000000
    10  C   -0.000041  -0.000000
    11  O   -0.473509   0.000000
    16  C    0.076837  -0.000000
 Electronic spatial extent (au):  <R**2>=           2290.2461
 Charge=             -2.0000 electrons
 Dipole moment (field-independent basis, Debye):
    X=              1.4430    Y=             -2.0853    Z=              0.0035  Tot=              2.5359
 Quadrupole moment (field-independent basis, Debye-Ang):
   XX=           -126.0365   YY=           -117.6087   ZZ=            -78.5119
   XY=             33.7365   XZ=             -0.0061   YZ=             -0.0037
 Traceless Quadrupole moment (field-independent basis, Debye-Ang):
   XX=            -18.6508   YY=            -10.2230   ZZ=             28.8738
   XY=             33.7365   XZ=             -0.0061   YZ=             -0.0037
 Octapole moment (field-independent basis, Debye-Ang**2):
  XXX=             33.3242  YYY=            -12.5524  ZZZ=              0.0022  XYY=            -18.9875
  XXY=             13.0543  XXZ=              0.0490  XZZ=             -5.3365  YZZ=             -0.0253
  YYZ=             -0.0078  XYZ=             -0.0132
 Hexadecapole moment (field-independent basis, Debye-Ang**3):
 XXXX=          -2629.4347 YYYY=          -1230.3916 ZZZZ=           -110.3202 XXXY=            180.1913
 XXXZ=             -0.1103 YYYX=            157.5754 YYYZ=             -0.0410 ZZZX=              0.0233
 ZZZY=             -0.0037 XXYY=           -666.5467 XXZZ=           -381.5852 YYZZ=           -187.9235
 XXYZ=              0.0168 YYXZ=              0.0238 ZZXY=             -0.5138
 N-N= 6.483155242808D+02 E-N=-2.667064731745D+03  KE= 5.713576527294D+02
                          Isotropic Fermi Contact Couplings
        Atom                 a.u.       MegaHertz       Gauss      10(-4) cm-1
     1  C(13)             -0.00000      -0.00000      -0.00000      -0.00000
     2  C(13)              0.00000       0.00000       0.00000       0.00000
     3  C(13)             -0.00000      -0.00000      -0.00000      -0.00000
     4  C(13)             -0.00000      -0.00000      -0.00000      -0.00000
     5  C(13)             -0.00000      -0.00000      -0.00000      -0.00000
     6  C(13)              0.00000       0.00000       0.00000       0.00000
     7  O(17)             -0.00000       0.00000       0.00000       0.00000
     8  O(17)              0.00000      -0.00000      -0.00000      -0.00000
     9  C(13)              0.00000       0.00000       0.00000       0.00000
    10  C(13)             -0.00000      -0.00000      -0.00000      -0.00000
    11  O(17)              0.00000      -0.00000      -0.00000      -0.00000
    12  H(1)              -0.00000      -0.00000      -0.00000      -0.00000
    13  H(1)              -0.00000      -0.00000      -0.00000      -0.00000
    14  H(1)              -0.00000      -0.00000      -0.00000      -0.00000
    15  H(1)               0.00000       0.00000       0.00000       0.00000
    16  C(13)             -0.00000      -0.00000      -0.00000      -0.00000
    17  H(1)               0.00000       0.00000       0.00000       0.00000
    18  H(1)              -0.00000      -0.00000      -0.00000      -0.00000
    19  H(1)              -0.00000      -0.00000      -0.00000      -0.00000
    20  H(1)              -0.00000      -0.00000      -0.00000      -0.00000
 --------------------------------------------------------
       Center         ----  Spin Dipole Couplings  ----
                      3XX-RR        3YY-RR        3ZZ-RR
 --------------------------------------------------------
     1   Atom        0.000000     -0.000000     -0.000000
     2   Atom        0.000000      0.000000     -0.000000
     3   Atom       -0.000000      0.000000      0.000000
     4   Atom       -0.000000      0.000000      0.000000
     5   Atom       -0.000000      0.000000     -0.000000
     6   Atom       -0.000000     -0.000000      0.000000
     7   Atom       -0.000000     -0.000000      0.000000
     8   Atom        0.000000     -0.000000      0.000000
     9   Atom       -0.000000     -0.000000      0.000000
    10   Atom        0.000000     -0.000000     -0.000000
    11   Atom       -0.000000      0.000000     -0.000000
    12   Atom        0.000000     -0.000000      0.000000
    13   Atom        0.000000      0.000000     -0.000000
    14   Atom        0.000000      0.000000     -0.000000
    15   Atom       -0.000000     -0.000000      0.000000
    16   Atom       -0.000000      0.000000     -0.000000
    17   Atom       -0.000000      0.000000      0.000000
    18   Atom        0.000000     -0.000000      0.000000
    19   Atom        0.000000      0.000000     -0.000000
    20   Atom        0.000000      0.000000     -0.000000
 --------------------------------------------------------
                        XY            XZ            YZ
 --------------------------------------------------------
     1   Atom       -0.000000     -0.000000     -0.000000
     2   Atom        0.000000      0.000000      0.000000
     3   Atom        0.000000      0.000000     -0.000000
     4   Atom       -0.000000     -0.000000      0.000000
     5   Atom       -0.000000     -0.000000      0.000000
     6   Atom        0.000000     -0.000000      0.000000
     7   Atom       -0.000000      0.000000     -0.000000
     8   Atom       -0.000000      0.000000      0.000000
     9   Atom       -0.000000     -0.000000      0.000000
    10   Atom        0.000000     -0.000000      0.000000
    11   Atom        0.000000     -0.000000      0.000000
    12   Atom       -0.000000     -0.000000      0.000000
    13   Atom       -0.000000      0.000000      0.000000
    14   Atom       -0.000000     -0.000000     -0.000000
    15   Atom        0.000000      0.000000     -0.000000
    16   Atom        0.000000      0.000000      0.000000
    17   Atom       -0.000000     -0.000000     -0.000000
    18   Atom       -0.000000      0.000000     -0.000000
    19   Atom        0.000000      0.000000     -0.000000
    20   Atom        0.000000     -0.000000      0.000000
 --------------------------------------------------------


 ---------------------------------------------------------------------------------
              Anisotropic Spin Dipole Couplings in Principal Axis System
 ---------------------------------------------------------------------------------

       Atom             a.u.   MegaHertz   Gauss  10(-4) cm-1        Axes

              Baa    -0.0000    -0.000    -0.000    -0.000  0.0634  0.9977  0.0239
     1 C(13)  Bbb    -0.0000    -0.000    -0.000    -0.000 -0.0010 -0.0238  0.9997
              Bcc     0.0000     0.000     0.000     0.000  0.9980 -0.0634 -0.0005
 
              Baa    -0.0000    -0.000    -0.000    -0.000 -0.0223 -0.0562  0.9982
     2 C(13)  Bbb     0.0000     0.000     0.000     0.000  0.8013 -0.5980 -0.0157
              Bcc     0.0000     0.000     0.000     0.000  0.5978  0.7995  0.0584
 
              Baa    -0.0000    -0.000    -0.000    -0.000  0.8159 -0.5773 -0.0323
     3 C(13)  Bbb     0.0000     0.000     0.000     0.000  0.0107 -0.0408  0.9991
              Bcc     0.0000     0.000     0.000     0.000  0.5781  0.8155  0.0271
 
              Baa    -0.0000    -0.000    -0.000    -0.000  0.7895  0.6132  0.0284
     4 C(13)  Bbb     0.0000     0.000     0.000     0.000  0.0051 -0.0528  0.9986
              Bcc     0.0000     0.000     0.000     0.000 -0.6138  0.7882  0.0448
 
              Baa    -0.0000    -0.000    -0.000    -0.000  0.9469  0.3214  0.0094
     5 C(13)  Bbb    -0.0000    -0.000    -0.000    -0.000 -0.0045 -0.0159  0.9999
              Bcc     0.0000     0.000     0.000     0.000 -0.3215  0.9468  0.0136
 
              Baa    -0.0000    -0.000    -0.000    -0.000  0.7369 -0.6753  0.0304
     6 C(13)  Bbb     0.0000     0.000     0.000     0.000 -0.0240  0.0187  0.9995
              Bcc     0.0000     0.000     0.000     0.000  0.6756  0.7373  0.0024
 
              Baa    -0.0000     0.000     0.000     0.000  0.7162  0.6978 -0.0042
     7 O(17)  Bbb     0.0000    -0.000    -0.000    -0.000 -0.0063  0.0125  0.9999
              Bcc     0.0000    -0.000    -0.000    -0.000 -0.6978  0.7161 -0.0134
 
              Baa    -0.0000     0.000     0.000     0.000  0.0897  0.9960 -0.0039
     8 O(17)  Bbb     0.0000    -0.000    -0.000    -0.000 -0.0003  0.0040  1.0000
              Bcc     0.0000    -0.000    -0.000    -0.000  0.9960 -0.0897  0.0007
 
              Baa    -0.0000    -0.000    -0.000    -0.000  0.6201  0.7845  0.0021
     9 C(13)  Bbb     0.0000     0.000     0.000     0.000  0.7773 -0.6147  0.1337
              Bcc     0.0000     0.000     0.000     0.000 -0.1062  0.0813  0.9910
 
              Baa    -0.0000    -0.000    -0.000    -0.000 -0.4650  0.8507 -0.2452
    10 C(13)  Bbb    -0.0000    -0.000    -0.000    -0.000 -0.1141  0.2170  0.9695
              Bcc     0.0000     0.000     0.000     0.000  0.8779  0.4788 -0.0039
 
              Baa    -0.0000     0.000     0.000     0.000  0.1337 -0.0743  0.9882
    11 O(17)  Bbb    -0.0000     0.000     0.000     0.000  0.8722 -0.4646 -0.1530
              Bcc     0.0000    -0.000    -0.000    -0.000  0.4705  0.8824  0.0027
 
              Baa    -0.0000    -0.000    -0.000    -0.000  0.5677  0.8232 -0.0047
    12 H(1)   Bbb     0.0000     0.000     0.000     0.000  0.0270 -0.0129  0.9996
              Bcc     0.0000     0.000     0.000     0.000  0.8228 -0.5676 -0.0296
 
              Baa    -0.0000    -0.000    -0.000    -0.000 -0.0921 -0.1631  0.9823
    13 H(1)   Bbb     0.0000     0.000     0.000     0.000  0.0795  0.9821  0.1705
              Bcc     0.0000     0.000     0.000     0.000  0.9926 -0.0938  0.0775
 
              Baa    -0.0000    -0.000    -0.000    -0.000  0.1441  0.1562  0.9771
    14 H(1)   Bbb     0.0000     0.000     0.000     0.000  0.1645  0.9699 -0.1793
              Bcc     0.0000     0.000     0.000     0.000  0.9758 -0.1866 -0.1141
 
              Baa    -0.0000    -0.000    -0.000    -0.000  0.9923 -0.1237 -0.0028
    15 H(1)   Bbb    -0.0000    -0.000    -0.000    -0.000  0.1237  0.9923  0.0005
              Bcc     0.0000     0.000     0.000     0.000  0.0027 -0.0008  1.0000
 
              Baa    -0.0000    -0.000    -0.000    -0.000  0.8682 -0.4957 -0.0247
    16 C(13)  Bbb    -0.0000    -0.000    -0.000    -0.000  0.0136 -0.0259  0.9996
              Bcc     0.0000     0.000     0.000     0.000  0.4961  0.8681  0.0157
 
              Baa    -0.0000    -0.000    -0.000    -0.000  0.9989  0.0328  0.0347
    17 H(1)   Bbb     0.0000     0.000     0.000     0.000 -0.0330  0.9994  0.0065
              Bcc     0.0000     0.000     0.000     0.000 -0.0345 -0.0076  0.9994
 
              Baa    -0.0000    -0.000    -0.000    -0.000  0.2941  0.9558  0.0023
    18 H(1)   Bbb     0.0000     0.000     0.000     0.000 -0.0030 -0.0015  1.0000
              Bcc     0.0000     0.000     0.000     0.000  0.9558 -0.2942  0.0024
 
              Baa    -0.0000    -0.000    -0.000    -0.000 -0.3441  0.1400  0.9285
    19 H(1)   Bbb     0.0000     0.000     0.000     0.000  0.0072  0.9892 -0.1465
              Bcc     0.0000     0.000     0.000     0.000  0.9389  0.0437  0.3414
 
              Baa    -0.0000    -0.000    -0.000    -0.000  0.2896 -0.1974  0.9366
    20 H(1)   Bbb     0.0000     0.000     0.000     0.000  0.1246  0.9780  0.1676
              Bcc     0.0000     0.000     0.000     0.000  0.9490 -0.0681 -0.3078
 

 ---------------------------------------------------------------------------------

 No NMR shielding tensors so no spin-rotation constants.
 Leave Link  601 at Sun Jan 21 07:47:04 2024, MaxMem=  4026531840 cpu:               1.7 elap:               0.3
 (Enter /sysapps/ubuntu-applications/gaussian/Gaussian/AVX2/g16/l9999.exe)
 1\1\GINC-ACIDSCN028\SP\UB3LYP\6-311++G(d,p)\C9H8O3(2-)\SELHAJJ1\21-Jan
 -2024\0\\#P UB3LYP/6-311++G(d,p) SCRF=(PCM,Solvent=n,n-DiMethylFormami
 de)\\Reduced\\-2,1\C,0,-0.551718,1.212229,-0.373785\C,0,-1.432075,0.15
 0671,-0.833004\C,0,-1.214901,-1.198222,-0.657699\C,0,-0.033947,-1.7035
 39,0.032493\C,0,0.832379,-0.69544,0.485734\C,0,0.642746,0.728423,0.323
 302\O,0,-0.859691,2.425914,-0.595514\O,0,0.147748,-2.986575,0.185035\C
 ,0,1.634556,1.640041,0.851638\C,0,2.865781,1.024277,1.572987\O,0,1.625
 283,2.886756,0.799767\H,0,-2.327435,0.494171,-1.354716\H,0,3.441637,0.
 365875,0.911731\H,0,2.573585,0.425665,2.444011\H,0,3.496618,1.855462,1
 .898032\C,0,-2.195255,-2.219805,-1.175308\H,0,1.716569,-1.056132,1.001
 77\H,0,-3.046334,-1.73969,-1.674838\H,0,-2.564568,-2.853854,-0.35825\H
 ,0,-1.705679,-2.909509,-1.875826\\Version=ES64L-G16RevA.03\State=1-A\H
 F=-573.8565629\S2=0.\S2-1=0.\S2A=0.\RMSD=5.927e-09\Dipole=0.202161,-0.
 9653931,0.1502052\Quadrupole=16.2317595,-35.9407564,19.7089969,-0.4592
 505,-2.9600995,1.9387763\PG=C01 [X(C9H8O3)]\\@


 A COMPUTER IS LIKE A HORSE, IT WILL SENSE WEAKNESS.
     -- GREG WETTSTEIN
 Job cpu time:       0 days  0 hours  9 minutes 31.0 seconds.
 Elapsed time:       0 days  0 hours  1 minutes 12.7 seconds.
 File lengths (MBytes):  RWF=    154 Int=      0 D2E=      0 Chk=      9 Scr=      1
 Normal termination of Gaussian 16 at Sun Jan 21 07:47:04 2024.
