
Running Job 1 of 1 128-an-SM12.in
qchem 128-an-SM12.in_1674962.0 /expanse/lustre/scratch/selhajj/temp_project/qcscratch/28445629/qchem1674962/ 0
/cm/shared/apps/spack/cpu/opt/spack/linux-centos8-zen2/gcc-10.2.0/qchem-5.4-akfmr7b3t57bfs6qan3padb2wnb2i7cl/exe/qcprog.exe_s 128-an-SM12.in_1674962.0 /expanse/lustre/scratch/selhajj/temp_project/qcscratch/28445629/qchem1674962/
                  Welcome to Q-Chem
     A Quantum Leap Into The Future Of Chemistry


 Q-Chem 5.4, Q-Chem, Inc., Pleasanton, CA (2021)

 License issued to: University of California, San Diego (site)

 E. Epifanovsky,  A. T. B. Gilbert,  Xintian Feng,  Joonho Lee,  Yuezhi Mao,  
 N. Mardirossian,  P. Pokhilko,  A. White,  M. Wormit,  M. P. Coons,  
 A. L. Dempwolff,  Zhengting Gan,  D. Hait,  P. R. Horn,  L. D. Jacobson,  
 I. Kaliman,  J. Kussmann,  A. W. Lange,  Ka Un Lao,  D. S. Levine,  Jie Liu,  
 S. C. McKenzie,  A. F. Morrison,  K. Nanda,  F. Plasser,  D. R. Rehn,  
 M. L. Vidal,  Zhi-Qiang You,  Ying Zhu,  B. Alam,  B. Albrecht,  
 A. Aldossary,  E. Alguire,  J. H. Andersen,  D. Barton,  K. Begam,  A. Behn,  
 Y. A. Bernard,  E. J. Berquist,  H. Burton,  A. Carreras,  K. Carter-Fenk,  
 R. Chakraborty,  A. D. Chien,  K. D. Closser,  V. Cofer-Shabica,  
 S. Dasgupta,  Jia Deng,  M. de Wergifosse,  M. Diedenhofen,  Hainam Do,  
 S. Ehlert,  Po-Tung Fang,  S. Fatehi,  Qingguo Feng,  J. Gayvert,  
 Qinghui Ge,  G. Gidofalvi,  M. Goldey,  J. Gomes,  C. Gonzalez-Espinoza,  
 S. Gulania,  A. Gunina,  M. W. D. Hanson-Heine,  P. H. P. Harbach,  
 A. W. Hauser,  M. F. Herbst,  M. Hernandez Vera,  M. Hodecker,  
 Z. C. Holden,  S. Houck,  Xunkun Huang,  Kerwin Hui,  B. C. Huynh,  
 M. Ivanov,  Hyunjun Ji,  Hanjie Jiang,  B. Kaduk,  S. Kaehler,  
 K. Khistyaev,  Jaehoon Kim,  P. Klunzinger,  Z. Koczor-Benda,  
 Joong Hoon Koh,  D. Kosenkov,  L. Koulias,  T. Kowalczyk,  C. M. Krauter,  
 K. Kue,  A. Kunitsa,  T. Kus,  A. Landau,  K. V. Lawler,  D. Lefrancois,  
 S. Lehtola,  Rain Li,  Yi-Pei Li,  Jiashu Liang,  M. Liebenthal,  
 Hung-Hsuan Lin,  You-Sheng Lin,  Fenglai Liu,  Kuan-Yu Liu,  
 M. Loipersberger,  A. Luenser,  A. Manjanath,  P. Manohar,  E. Mansoor,  
 S. F. Manzer,  Shan-Ping Mao,  A. V. Marenich,  T. Markovich,  S. Mason,  
 S. A. Maurer,  P. F. McLaughlin,  M. F. S. J. Menger,  J.-M. Mewes,  
 S. A. Mewes,  P. Morgante,  J. W. Mullinax,  T. S. Nguyen-Beck,  
 K. J. Oosterbaan,  G. Paran,  Alexander C. Paul,  Suranjan K. Paul,  
 F. Pavosevic,  Zheng Pei,  S. Prager,  E. I. Proynov,  E. Ramos,  B. Rana,  
 A. E. Rask,  A. Rettig,  R. M. Richard,  F. Rob,  E. Rossomme,  T. Scheele,  
 M. Scheurer,  M. Schneider,  N. Sergueev,  S. M. Sharada,  W. Skomorowski,  
 D. W. Small,  C. J. Stein,  Yu-Chuan Su,  E. J. Sundstrom,  Zhen Tao,  
 J. Thirman,  T. Tsuchimochi,  N. M. Tubman,  S. P. Veccham,  O. Vydrov,  
 J. Wenzel,  J. Witte,  A. Yamada,  Kun Yao,  S. Yeganeh,  S. R. Yost,  
 A. Zech,  Igor Ying Zhang,  Xing Zhang,  Yu Zhang,  D. Zuev,  
 A. Aspuru-Guzik,  A. T. Bell,  N. A. Besley,  K. B. Bravaya,  B. R. Brooks,  
 D. Casanova,  Jeng-Da Chai,  S. Coriani,  C. J. Cramer,  
 A. E. DePrince, III,  R. A. DiStasio Jr.,  A. Dreuw,  B. D. Dunietz,  
 T. R. Furlani,  W. A. Goddard III,  S. Grimme,  S. Hammes-Schiffer,  
 T. Head-Gordon,  W. J. Hehre,  Chao-Ping Hsu,  T.-C. Jagau,  Yousung Jung,  
 A. Klamt,  Jing Kong,  D. S. Lambrecht,  WanZhen Liang,  N. J. Mayhall,  
 C. W. McCurdy,  J. B. Neaton,  C. Ochsenfeld,  J. A. Parkhill,  R. Peverati,  
 V. A. Rassolov,  Yihan Shao,  L. V. Slipchenko,  T. Stauch,  R. P. Steele,  
 J. E. Subotnik,  A. J. W. Thom,  A. Tkatchenko,  D. G. Truhlar,  
 T. Van Voorhis,  T. A. Wesolowski,  K. B. Whaley,  H. L. Woodcock III,  
 P. M. Zimmerman,  S. Faraji,  P. M. W. Gill,  M. Head-Gordon,  
 J. M. Herbert,  A. I. Krylov

 Contributors to earlier versions of Q-Chem not listed above: 
 R. D. Adamson,  B. Austin,  R. Baer,  J. Baker,  G. J. O. Beran,  
 K. Brandhorst,  S. T. Brown,  E. F. C. Byrd,  A. K. Chakraborty,  
 G. K. L. Chan,  Chun-Min Chang,  Yunqing Chen,  C.-L. Cheng,  
 Siu Hung Chien,  D. M. Chipman,  D. L. Crittenden,  H. Dachsel,  
 R. J. Doerksen,  A. D. Dutoi,  R. G. Edgar,  J. Fosso-Tande,  
 L. Fusti-Molnar,  D. Ghosh,  A. Ghysels,  A. Golubeva-Zadorozhnaya,  
 J. Gonthier,  M. S. Gordon,  S. R. Gwaltney,  G. Hawkins,  J. E. Herr,  
 A. Heyden,  S. Hirata,  E. G. Hohenstein,  G. Kedziora,  F. J. Keil,  
 C. Kelley,  Jihan Kim,  R. A. King,  R. Z. Khaliullin,  P. P. Korambath,  
 W. Kurlancheek,  A. Laurent,  A. M. Lee,  M. S. Lee,  S. V. Levchenko,  
 Ching Yeh Lin,  D. Liotard,  E. Livshits,  R. C. Lochan,  I. Lotan,  
 L. A. Martinez-Martinez,  P. E. Maslen,  N. Nair,  D. P. O'Neill,  
 D. Neuhauser,  E. Neuscamman,  C. M. Oana,  R. Olivares-Amaya,  R. Olson,  
 T. M. Perrine,  B. Peters,  P. A. Pieniazek,  A. Prociuk,  Y. M. Rhee,  
 J. Ritchie,  M. A. Rohrdanz,  E. Rosta,  N. J. Russ,  H. F. Schaefer III,  
 M. W. Schmidt,  N. E. Schultz,  S. Sharma,  N. Shenvi,  C. D. Sherrill,  
 A. C. Simmonett,  A. Sodt,  T. Stein,  D. Stuck,  K. S. Thanthiriwatte,  
 V. Vanovschi,  L. Vogt,  Tao Wang,  A. Warshel,  M. A. Watson,  
 C. F. Williams,  Q. Wu,  X. Xu,  Jun Yang,  W. Zhang,  Yan Zhao

 Please cite Q-Chem as follows:
 Y. Shao et al., Mol. Phys. 113, 184-215 (2015)
 DOI: 10.1080/00268976.2014.952696

 Q-Chem 5.4.0 for Intel X86 EM64T Linux

 Parts of Q-Chem use Armadillo 9.800.1 (Horizon Scraper).
 http://arma.sourceforge.net/

 Q-Chem begins on Sat Feb  3 11:23:27 2024  

 Host: 
0

     Scratch files written to /expanse/lustre/scratch/selhajj/temp_project/qcscratch/28445629/qchem1674962//
 May1621 |scratch|qcdevops|jenkins|workspace|build_RNUM    
 Processing $rem in /cm/shared/apps/spack/cpu/opt/spack/linux-centos8-zen2/gcc-10.2.0/qchem-5.4-akfmr7b3t57bfs6qan3padb2wnb2i7cl/config/preferences:
 Processing $rem in /home/selhajj/.qchemrc:
 Symmetry turned off for PCM/SM12/SMD calculation
 Method-specific promolecule density matrix will be built for SM12 calculation

 Checking the input file for inconsistencies... 	...done.

--------------------------------------------------------------
User input:
--------------------------------------------------------------
$molecule
-2 1
C                 -3.4184800000      3.5951710000      0.0760600000
C                 -4.5958930000      2.8636620000      0.1078860000
C                 -4.5930180000      1.4418530000      0.1242770000
C                 -2.1403700000      2.9262670000      0.0583820000
C                 -2.1511310000      1.4673270000      0.0753890000
C                 -3.3924310000      0.7768380000      0.1080920000
C                 -0.8911530000      3.6703010000      0.0250470000
C                  0.3279010000      2.8772590000      0.0089510000
C                  0.2814140000      1.4190260000      0.0268410000
C                 -0.9500070000      0.6706580000      0.0606000000
C                  1.6312350000      3.4948560000     -0.0252220000
C                  2.7790240000      2.7171740000     -0.0396400000
C                  2.7203790000      1.2965950000     -0.0216540000
C                  1.4946520000      0.6797820000      0.0106910000
O                 -0.8658160000      4.9619040000      0.0105780000
O                 -0.9753550000     -0.6219560000      0.0763470000
C                 -3.5555510000      5.1062350000      0.0613330000
H                 -5.5449990000      3.3984300000      0.1204940000
H                 -5.5349830000      0.8951120000      0.1493030000
H                 -3.3318140000     -0.3067750000      0.1193880000
C                  1.8275190000      4.9992930000     -0.0474930000
H                  1.3915680000     -0.4005770000      0.0254450000
H                  3.7483410000      3.2138570000     -0.0656300000
H                  3.6401520000      0.7128790000     -0.0336320000
H                 -4.6226690000      5.3754680000      0.0784390000
H                 -3.0799460000      5.5460140000     -0.8175610000
H                 -3.0473270000      5.5658040000      0.9114010000
H                  1.3351700000      5.4577190000     -0.9074490000
H                  2.9043240000      5.2258680000     -0.0732960000
H                  1.3721780000      5.4786470000      0.8214020000
$end

$rem
BASIS  =  6-311++G(d,p)
GUI  =  2
JOB_TYPE  =  SP
METHOD  =  B3LYP
SCF_CONVERGENCE  = 8
SOLVENT_METHOD = sm12
$end

$smx
solvent dimethylformamide
charges CM5
$end





--------------------------------------------------------------
 ----------------------------------------------------------------
             Standard Nuclear Orientation (Angstroms)
    I     Atom           X                Y                Z
 ----------------------------------------------------------------
    1      C      -3.4184800000     3.5951710000     0.0760600000
    2      C      -4.5958930000     2.8636620000     0.1078860000
    3      C      -4.5930180000     1.4418530000     0.1242770000
    4      C      -2.1403700000     2.9262670000     0.0583820000
    5      C      -2.1511310000     1.4673270000     0.0753890000
    6      C      -3.3924310000     0.7768380000     0.1080920000
    7      C      -0.8911530000     3.6703010000     0.0250470000
    8      C       0.3279010000     2.8772590000     0.0089510000
    9      C       0.2814140000     1.4190260000     0.0268410000
   10      C      -0.9500070000     0.6706580000     0.0606000000
   11      C       1.6312350000     3.4948560000    -0.0252220000
   12      C       2.7790240000     2.7171740000    -0.0396400000
   13      C       2.7203790000     1.2965950000    -0.0216540000
   14      C       1.4946520000     0.6797820000     0.0106910000
   15      O      -0.8658160000     4.9619040000     0.0105780000
   16      O      -0.9753550000    -0.6219560000     0.0763470000
   17      C      -3.5555510000     5.1062350000     0.0613330000
   18      H      -5.5449990000     3.3984300000     0.1204940000
   19      H      -5.5349830000     0.8951120000     0.1493030000
   20      H      -3.3318140000    -0.3067750000     0.1193880000
   21      C       1.8275190000     4.9992930000    -0.0474930000
   22      H       1.3915680000    -0.4005770000     0.0254450000
   23      H       3.7483410000     3.2138570000    -0.0656300000
   24      H       3.6401520000     0.7128790000    -0.0336320000
   25      H      -4.6226690000     5.3754680000     0.0784390000
   26      H      -3.0799460000     5.5460140000    -0.8175610000
   27      H      -3.0473270000     5.5658040000     0.9114010000
   28      H       1.3351700000     5.4577190000    -0.9074490000
   29      H       2.9043240000     5.2258680000    -0.0732960000
   30      H       1.3721780000     5.4786470000     0.8214020000
 ----------------------------------------------------------------
 Nuclear Repulsion Energy =        1219.68118077 hartrees
 There are       63 alpha and       63 beta electrons
 Requested basis set is 6-311++G(d,p)
 There are 168 shells and 480 basis functions

 Total QAlloc Memory Limit   8000 MB
 Mega-Array Size       188 MB
 MEM_STATIC part       192 MB
 A cutoff of  1.0D-11 yielded  11024 shell pairs
 There are     93358 function pairs (    100005 Cartesian)
 Smallest overlap matrix eigenvalue = 3.11E-08

 Q-Chem warning in module stvman/mkSTV.C, line 323:

 Overlap eigenvalue is smaller than square root of threshold
 Use THRESH >= 12 to get rid of this warning

 Linear dependence detected in AO basis
 Tighter screening thresholds may be required for diffuse basis sets
 Use S2THRESH > 14 and THRESH = 14 in case of SCF convergence issues
 Number of orthogonalized atomic orbitals = 472
 Maximum deviation from orthogonality = 1.200E-10

 Scale SEOQF with 1.000000e-02/1.000000e-02/1.000000e-01

 Standard Electronic Orientation quadrupole field applied
 Nucleus-field energy     =     0.0000000111 hartrees
 ================ Generating on-the-fly Promolecule Density  ================
Attempting to make child job directory: /expanse/lustre/scratch/selhajj/temp_project/qcscratch/28445629/qchem1674962//Frg1/
Attempting to make child job directory: /expanse/lustre/scratch/selhajj/temp_project/qcscratch/28445629/qchem1674962//Frg2/
Attempting to make child job directory: /expanse/lustre/scratch/selhajj/temp_project/qcscratch/28445629/qchem1674962//Frg3/
Creating input file /expanse/lustre/scratch/selhajj/temp_project/qcscratch/28445629/qchem1674962/Frg1.input
using default PutDataFrgm: nothing
calling putenv with: QCSCRATCH=/expanse/lustre/scratch/selhajj/temp_project/qcscratch/28445629/qchem1674962/ 
Spawning Job For Fragment 0
Done Job For Fragment 0
calling putenv with: QCSCRATCH=/expanse/lustre/scratch/selhajj/temp_project/qcscratch/28445629 
calling putenv with: QCTHREADS=8 
Creating input file /expanse/lustre/scratch/selhajj/temp_project/qcscratch/28445629/qchem1674962/Frg2.input
using default PutDataFrgm: nothing
calling putenv with: QCSCRATCH=/expanse/lustre/scratch/selhajj/temp_project/qcscratch/28445629/qchem1674962/ 
Spawning Job For Fragment 1
Done Job For Fragment 1
calling putenv with: QCSCRATCH=/expanse/lustre/scratch/selhajj/temp_project/qcscratch/28445629 
calling putenv with: QCTHREADS=8 
Creating input file /expanse/lustre/scratch/selhajj/temp_project/qcscratch/28445629/qchem1674962/Frg3.input
using default PutDataFrgm: nothing
calling putenv with: QCSCRATCH=/expanse/lustre/scratch/selhajj/temp_project/qcscratch/28445629/qchem1674962/ 
Spawning Job For Fragment 2
Done Job For Fragment 2
calling putenv with: QCSCRATCH=/expanse/lustre/scratch/selhajj/temp_project/qcscratch/28445629 
calling putenv with: QCTHREADS=8 
 Time for running child jobs:  CPU 0.01 s  wall 2.50 s
 ============= Method Specific Promolecule Density Constructed =============
 Guess from superposition of atomic densities
 Warning:  Energy on first SCF cycle will be non-variational
 SAD guess density has 124.000000 electrons

 -----------------------------------------------------------------------
  General SCF calculation program by
  Eric Jon Sundstrom, Paul Horn, Yuezhi Mao, Dmitri Zuev, Alec White,
  David Stuck, Shaama M.S., Shane Yost, Joonho Lee, David Small,
  Daniel Levine, Susi Lehtola, Hugh Burton, Evgeny Epifanovsky,
  Bang C. Huynh
 -----------------------------------------------------------------------
 Exchange:     0.2000 Hartree-Fock + 0.0800 Slater + 0.7200 B88
 Correlation:  0.1900 VWN1RPA + 0.8100 LYP
 Using SG-1 standard quadrature grid
 using 8 threads for integral computing
 -------------------------------------------------------
 OpenMP Integral computing Module                
 Release: version 1.0, May 2013, Q-Chem Inc. Pittsburgh 
 -------------------------------------------------------
 
 SM12 calculation using CM5 charges
 Citation of the SM12 model:
 Marenich, A.V.; Cramer, C.J.; Truhlar, D.G.
 J. Chem. Theory Comput. 2013, 9, 609-612.
 iSolventCode=          91
 Solvent: dimethylformamide                                               
 
Hirshfeld: reading atomic densities from disk.
warning:  vdwdata pointer should have been initialzed before dftman
 Inaccurate integrated density:
   Number of electrons =   126
   Numerical integral  =   124.002416367326
   Relative error      =    -1.5853838355 %

 Charges (in A.U.) from CM5PAC (Nov. 11, 2011)
 -----------------------------------------------
 Center     Atomic      CM5         Hirshfeld
 Number     Number      Charge      Charge
 -----------------------------------------------
    1          6       -0.015964   -0.002703
    2          6       -0.055301   -0.002208
    3          6       -0.057434   -0.002879
    4          6        0.000834    0.000370
    5          6       -0.002205   -0.000309
    6          6       -0.051960   -0.000684
    7          6        0.034453    0.006373
    8          6        0.001014    0.000550
    9          6       -0.002092   -0.000196
   10          6        0.033962    0.006642
   11          6       -0.015585   -0.002324
   12          6       -0.055117   -0.002024
   13          6       -0.057277   -0.002722
   14          6       -0.051827   -0.000551
   15          8       -0.076430   -0.021893
   16          8       -0.062838   -0.017498
   17          6       -0.145781   -0.003967
   18          1        0.059090    0.002959
   19          1        0.057972    0.003054
   20          1        0.067583    0.005595
   21          6       -0.145669   -0.003854
   22          1        0.067589    0.005601
   23          1        0.059081    0.002951
   24          1        0.057971    0.003054
   25          1        0.054106    0.002317
   26          1        0.061333    0.004899
   27          1        0.061320    0.004904
   28          1        0.061326    0.004902
   29          1        0.054099    0.002310
   30          1        0.061333    0.004912
 -----------------------------------------------

 Dipole moment (in Debye)
 -----------------------------------------------
                 X        Y        Z     Total
 -----------------------------------------------
 CM5          0.0306   0.2150  -0.0051   0.2172
 Hirshfeld    0.0271   0.0356  -0.0017   0.0448
 -----------------------------------------------

 A restricted SCF calculation will be
 performed using DIIS
 SCF converges when DIIS error is below 1.0e-08
 ---------------------------------------
  Cycle       Energy         DIIS error
 ---------------------------------------
Hirshfeld: reading atomic densities from disk.

 Charges (in A.U.) from CM5PAC (Nov. 11, 2011)
 -----------------------------------------------
 Center     Atomic      CM5         Hirshfeld
 Number     Number      Charge      Charge
 -----------------------------------------------
    1          6       -0.037483   -0.024222
    2          6       -0.233128   -0.180035
    3          6       -0.209346   -0.154791
    4          6       -0.098617   -0.099080
    5          6       -0.120722   -0.118826
    6          6       -0.224419   -0.173143
    7          6        0.137283    0.109203
    8          6       -0.098359   -0.098823
    9          6       -0.120502   -0.118606
   10          6        0.100820    0.073500
   11          6       -0.037173   -0.023912
   12          6       -0.232753   -0.179660
   13          6       -0.209047   -0.154492
   14          6       -0.224326   -0.173050
   15          8       -0.710849   -0.656312
   16          8       -0.750184   -0.704844
   17          6       -0.430039   -0.288224
   18          1        0.171837    0.115706
   19          1        0.177895    0.122978
   20          1        0.161130    0.099142
   21          6       -0.429960   -0.288145
   22          1        0.161128    0.099140
   23          1        0.171864    0.115734
   24          1        0.177917    0.123000
   25          1        0.157974    0.106185
   26          1        0.147528    0.091095
   27          1        0.147563    0.091147
   28          1        0.147541    0.091117
   29          1        0.157983    0.106193
   30          1        0.147543    0.091122
 -----------------------------------------------

 Dipole moment (in Debye)
 -----------------------------------------------
                 X        Y        Z     Total
 -----------------------------------------------
 CM5          8.9032 -19.1282  -0.4363  21.1032
 Hirshfeld    8.8998 -19.3076  -0.4329  21.2644
 -----------------------------------------------

    1    -771.6178633151      2.98e-02  
Hirshfeld: reading atomic densities from disk.

 Charges (in A.U.) from CM5PAC (Nov. 11, 2011)
 -----------------------------------------------
 Center     Atomic      CM5         Hirshfeld
 Number     Number      Charge      Charge
 -----------------------------------------------
    1          6       -0.011411    0.001850
    2          6       -0.178598   -0.125505
    3          6       -0.354468   -0.299913
    4          6        0.092772    0.092308
    5          6        0.098663    0.100559
    6          6       -0.286907   -0.235631
    7          6        0.067405    0.039325
    8          6        0.092740    0.092277
    9          6        0.098740    0.100636
   10          6       -0.014155   -0.041475
   11          6       -0.010303    0.002958
   12          6       -0.174915   -0.121822
   13          6       -0.352380   -0.297825
   14          6       -0.285439   -0.234163
   15          8        1.906886    1.961423
   16          8        1.614339    1.659679
   17          6       -0.173495   -0.031680
   18          1       -0.310949   -0.367080
   19          1       -0.533827   -0.588744
   20          1       -0.608207   -0.670195
   21          6       -0.166415   -0.024600
   22          1       -0.604949   -0.666937
   23          1       -0.302491   -0.358622
   24          1       -0.530108   -0.585025
   25          1       -0.299636   -0.351425
   26          1       -0.122592   -0.179025
   27          1       -0.122863   -0.179279
   28          1       -0.119134   -0.175558
   29          1       -0.289134   -0.340924
   30          1       -0.118784   -0.175204
 -----------------------------------------------

 Dipole moment (in Debye)
 -----------------------------------------------
                 X        Y        Z     Total
 -----------------------------------------------
 CM5          9.7811 -13.8802  -0.4640  16.9867
 Hirshfeld    9.7776 -14.0596  -0.4606  17.1315
 -----------------------------------------------

    2    -767.0424757849      4.13e-03  
Hirshfeld: reading atomic densities from disk.

 Charges (in A.U.) from CM5PAC (Nov. 11, 2011)
 -----------------------------------------------
 Center     Atomic      CM5         Hirshfeld
 Number     Number      Charge      Charge
 -----------------------------------------------
    1          6       -0.023828   -0.010566
    2          6       -0.022075    0.031018
    3          6       -0.032564    0.021991
    4          6       -0.059223   -0.059686
    5          6       -0.057087   -0.055191
    6          6       -0.068820   -0.017544
    7          6       -0.084552   -0.112632
    8          6       -0.058730   -0.059194
    9          6       -0.056776   -0.054881
   10          6       -0.068526   -0.095845
   11          6       -0.023059   -0.009798
   12          6       -0.021170    0.031923
   13          6       -0.031798    0.022758
   14          6       -0.068744   -0.017468
   15          8       -0.829800   -0.775263
   16          8       -0.822656   -0.777316
   17          6       -0.127817    0.013998
   18          1        0.049227   -0.006904
   19          1        0.049055   -0.005862
   20          1        0.049223   -0.012765
   21          6       -0.127641    0.014174
   22          1        0.049208   -0.012781
   23          1        0.049443   -0.006688
   24          1        0.049205   -0.005712
   25          1        0.052356    0.000567
   26          1        0.045882   -0.010551
   27          1        0.045893   -0.010523
   28          1        0.045960   -0.010464
   29          1        0.052501    0.000711
   30          1        0.045979   -0.010442
 -----------------------------------------------

 Dipole moment (in Debye)
 -----------------------------------------------
                 X        Y        Z     Total
 -----------------------------------------------
 CM5          8.9111 -20.6346  -0.4209  22.4805
 Hirshfeld    8.9076 -20.8140  -0.4176  22.6438
 -----------------------------------------------

    3    -761.6322175457      1.08e-02  
Hirshfeld: reading atomic densities from disk.

 Charges (in A.U.) from CM5PAC (Nov. 11, 2011)
 -----------------------------------------------
 Center     Atomic      CM5         Hirshfeld
 Number     Number      Charge      Charge
 -----------------------------------------------
    1          6       -0.029030   -0.015768
    2          6       -0.161198   -0.108105
    3          6       -0.149510   -0.094955
    4          6       -0.081006   -0.081469
    5          6       -0.096109   -0.094213
    6          6       -0.136920   -0.085644
    7          6        0.055327    0.027248
    8          6       -0.080646   -0.081110
    9          6       -0.095760   -0.093864
   10          6        0.021584   -0.005735
   11          6       -0.028556   -0.015295
   12          6       -0.160528   -0.107435
   13          6       -0.148954   -0.094399
   14          6       -0.136733   -0.085457
   15          8       -0.606333   -0.551795
   16          8       -0.654860   -0.609519
   17          6       -0.232355   -0.090541
   18          1        0.082664    0.026533
   19          1        0.086694    0.031777
   20          1        0.078197    0.016209
   21          6       -0.232201   -0.090386
   22          1        0.078247    0.016259
   23          1        0.082936    0.026806
   24          1        0.086900    0.031983
   25          1        0.073714    0.021926
   26          1        0.077356    0.020922
   27          1        0.077361    0.020945
   28          1        0.077458    0.021034
   29          1        0.073874    0.022085
   30          1        0.077477    0.021057
 -----------------------------------------------

 Dipole moment (in Debye)
 -----------------------------------------------
                 X        Y        Z     Total
 -----------------------------------------------
 CM5          8.9258 -19.5309  -0.4299  21.4782
 Hirshfeld    8.9223 -19.7103  -0.4265  21.6399
 -----------------------------------------------

    4    -767.2064264259      3.53e-03  
Hirshfeld: reading atomic densities from disk.

 Charges (in A.U.) from CM5PAC (Nov. 11, 2011)
 -----------------------------------------------
 Center     Atomic      CM5         Hirshfeld
 Number     Number      Charge      Charge
 -----------------------------------------------
    1          6       -0.038859   -0.025597
    2          6       -0.122295   -0.069202
    3          6       -0.131656   -0.077101
    4          6       -0.077409   -0.077873
    5          6       -0.067318   -0.065422
    6          6       -0.145686   -0.094410
    7          6       -0.032442   -0.060522
    8          6       -0.077421   -0.077884
    9          6       -0.067420   -0.065524
   10          6       -0.005823   -0.033143
   11          6       -0.038552   -0.025291
   12          6       -0.122136   -0.069043
   13          6       -0.131492   -0.076936
   14          6       -0.145678   -0.094402
   15          8       -0.496778   -0.442241
   16          8       -0.533307   -0.487966
   17          6       -0.264842   -0.123028
   18          1        0.056638    0.000507
   19          1        0.057447    0.002530
   20          1        0.056317   -0.005671
   21          6       -0.264742   -0.122927
   22          1        0.056414   -0.005574
   23          1        0.056837    0.000706
   24          1        0.057647    0.002730
   25          1        0.061866    0.010077
   26          1        0.074448    0.018015
   27          1        0.074432    0.018016
   28          1        0.074500    0.018076
   29          1        0.061961    0.010172
   30          1        0.074523    0.018102
 -----------------------------------------------

 Dipole moment (in Debye)
 -----------------------------------------------
                 X        Y        Z     Total
 -----------------------------------------------
 CM5          8.8672 -21.0319  -0.4096  22.8284
 Hirshfeld    8.8637 -21.2113  -0.4063  22.9924
 -----------------------------------------------

    5    -767.5056628396      1.23e-03  
Hirshfeld: reading atomic densities from disk.

 Charges (in A.U.) from CM5PAC (Nov. 11, 2011)
 -----------------------------------------------
 Center     Atomic      CM5         Hirshfeld
 Number     Number      Charge      Charge
 -----------------------------------------------
    1          6       -0.025456   -0.012195
    2          6       -0.179187   -0.126094
    3          6       -0.164215   -0.109660
    4          6       -0.066787   -0.067251
    5          6       -0.083563   -0.081667
    6          6       -0.141226   -0.089950
    7          6        0.065167    0.037088
    8          6       -0.066515   -0.066979
    9          6       -0.083259   -0.081363
   10          6        0.009397   -0.017923
   11          6       -0.025167   -0.011905
   12          6       -0.178815   -0.125722
   13          6       -0.163932   -0.109377
   14          6       -0.141082   -0.089806
   15          8       -0.454289   -0.399752
   16          8       -0.559094   -0.513753
   17          6       -0.228465   -0.086651
   18          1        0.056978    0.000847
   19          1        0.061138    0.006221
   20          1        0.056997   -0.004991
   21          6       -0.228388   -0.086573
   22          1        0.057014   -0.004974
   23          1        0.057059    0.000929
   24          1        0.061212    0.006295
   25          1        0.049955   -0.001834
   26          1        0.065920    0.009486
   27          1        0.065893    0.009477
   28          1        0.065922    0.009498
   29          1        0.049994   -0.001795
   30          1        0.065946    0.009526
 -----------------------------------------------

 Dipole moment (in Debye)
 -----------------------------------------------
                 X        Y        Z     Total
 -----------------------------------------------
 CM5          8.9046 -19.2707  -0.4297  21.2329
 Hirshfeld    8.9011 -19.4501  -0.4263  21.3943
 -----------------------------------------------

    6    -767.5445129670      5.79e-04  
Hirshfeld: reading atomic densities from disk.

 Charges (in A.U.) from CM5PAC (Nov. 11, 2011)
 -----------------------------------------------
 Center     Atomic      CM5         Hirshfeld
 Number     Number      Charge      Charge
 -----------------------------------------------
    1          6       -0.036216   -0.022954
    2          6       -0.163873   -0.110780
    3          6       -0.161186   -0.106631
    4          6       -0.080843   -0.081307
    5          6       -0.085423   -0.083527
    6          6       -0.140952   -0.089676
    7          6        0.033775    0.005695
    8          6       -0.080805   -0.081268
    9          6       -0.085372   -0.083476
   10          6        0.023358   -0.003962
   11          6       -0.035987   -0.022726
   12          6       -0.163677   -0.110584
   13          6       -0.161029   -0.106474
   14          6       -0.140871   -0.089595
   15          8       -0.464355   -0.409818
   16          8       -0.514858   -0.469518
   17          6       -0.238455   -0.096640
   18          1        0.058380    0.002249
   19          1        0.061022    0.006105
   20          1        0.056699   -0.005288
   21          6       -0.238366   -0.096551
   22          1        0.056738   -0.005250
   23          1        0.058456    0.002325
   24          1        0.061097    0.006180
   25          1        0.054172    0.002383
   26          1        0.068375    0.011942
   27          1        0.068352    0.011936
   28          1        0.068372    0.011948
   29          1        0.054200    0.002411
   30          1        0.068401    0.011980
 -----------------------------------------------

 Dipole moment (in Debye)
 -----------------------------------------------
                 X        Y        Z     Total
 -----------------------------------------------
 CM5          8.8717 -20.4579  -0.4154  22.3026
 Hirshfeld    8.8682 -20.6373  -0.4121  22.4658
 -----------------------------------------------

    7    -767.5558784992      2.72e-04  
Hirshfeld: reading atomic densities from disk.

 Charges (in A.U.) from CM5PAC (Nov. 11, 2011)
 -----------------------------------------------
 Center     Atomic      CM5         Hirshfeld
 Number     Number      Charge      Charge
 -----------------------------------------------
    1          6       -0.032832   -0.019570
    2          6       -0.165308   -0.112215
    3          6       -0.158703   -0.104147
    4          6       -0.075275   -0.075739
    5          6       -0.082432   -0.080536
    6          6       -0.145221   -0.093945
    7          6        0.036308    0.008228
    8          6       -0.075192   -0.075656
    9          6       -0.082350   -0.080454
   10          6        0.012504   -0.014816
   11          6       -0.032591   -0.019330
   12          6       -0.165125   -0.112032
   13          6       -0.158569   -0.104014
   14          6       -0.145148   -0.093872
   15          8       -0.448817   -0.394280
   16          8       -0.529450   -0.484110
   17          6       -0.243398   -0.101583
   18          1        0.057487    0.001356
   19          1        0.060892    0.005975
   20          1        0.056721   -0.005267
   21          6       -0.243322   -0.101507
   22          1        0.056750   -0.005238
   23          1        0.057546    0.001415
   24          1        0.060949    0.006032
   25          1        0.054181    0.002393
   26          1        0.068836    0.012403
   27          1        0.068812    0.012396
   28          1        0.068827    0.012403
   29          1        0.054204    0.002414
   30          1        0.068856    0.012435
 -----------------------------------------------

 Dipole moment (in Debye)
 -----------------------------------------------
                 X        Y        Z     Total
 -----------------------------------------------
 CM5          8.8797 -19.9786  -0.4210  21.8671
 Hirshfeld    8.8762 -20.1579  -0.4177  22.0296
 -----------------------------------------------

    8    -767.5564484026      1.24e-04  
Hirshfeld: reading atomic densities from disk.

 Charges (in A.U.) from CM5PAC (Nov. 11, 2011)
 -----------------------------------------------
 Center     Atomic      CM5         Hirshfeld
 Number     Number      Charge      Charge
 -----------------------------------------------
    1          6       -0.031885   -0.018624
    2          6       -0.166962   -0.113869
    3          6       -0.160685   -0.106130
    4          6       -0.073911   -0.074375
    5          6       -0.081646   -0.079750
    6          6       -0.144467   -0.093191
    7          6        0.038356    0.010277
    8          6       -0.073811   -0.074274
    9          6       -0.081540   -0.079644
   10          6        0.013710   -0.013610
   11          6       -0.031649   -0.018387
   12          6       -0.166772   -0.113679
   13          6       -0.160550   -0.105995
   14          6       -0.144392   -0.093116
   15          8       -0.454270   -0.399732
   16          8       -0.527592   -0.482252
   17          6       -0.242761   -0.100946
   18          1        0.057455    0.001324
   19          1        0.060803    0.005886
   20          1        0.056405   -0.005583
   21          6       -0.242692   -0.100877
   22          1        0.056424   -0.005565
   23          1        0.057498    0.001367
   24          1        0.060842    0.005925
   25          1        0.053922    0.002133
   26          1        0.068847    0.012414
   27          1        0.068822    0.012407
   28          1        0.068833    0.012409
   29          1        0.053940    0.002151
   30          1        0.068861    0.012440
 -----------------------------------------------

 Dipole moment (in Debye)
 -----------------------------------------------
                 X        Y        Z     Total
 -----------------------------------------------
 CM5          8.8777 -20.0402  -0.4202  21.9226
 Hirshfeld    8.8742 -20.2196  -0.4169  22.0852
 -----------------------------------------------

    9    -767.5570008616      3.26e-05  
Hirshfeld: reading atomic densities from disk.

 Charges (in A.U.) from CM5PAC (Nov. 11, 2011)
 -----------------------------------------------
 Center     Atomic      CM5         Hirshfeld
 Number     Number      Charge      Charge
 -----------------------------------------------
    1          6       -0.032544   -0.019282
    2          6       -0.166230   -0.113137
    3          6       -0.159870   -0.105315
    4          6       -0.075300   -0.075763
    5          6       -0.082514   -0.080618
    6          6       -0.144304   -0.093028
    7          6        0.037853    0.009773
    8          6       -0.075220   -0.075684
    9          6       -0.082431   -0.080535
   10          6        0.014024   -0.013296
   11          6       -0.032311   -0.019049
   12          6       -0.166053   -0.112960
   13          6       -0.159746   -0.105191
   14          6       -0.144234   -0.092958
   15          8       -0.452444   -0.397907
   16          8       -0.527934   -0.482593
   17          6       -0.242270   -0.100455
   18          1        0.057522    0.001391
   19          1        0.060847    0.005930
   20          1        0.056523   -0.005465
   21          6       -0.242199   -0.100384
   22          1        0.056541   -0.005447
   23          1        0.057562    0.001431
   24          1        0.060882    0.005965
   25          1        0.053914    0.002125
   26          1        0.068792    0.012359
   27          1        0.068767    0.012351
   28          1        0.068776    0.012352
   29          1        0.053931    0.002141
   30          1        0.068804    0.012384
 -----------------------------------------------

 Dipole moment (in Debye)
 -----------------------------------------------
                 X        Y        Z     Total
 -----------------------------------------------
 CM5          8.8770 -20.0265  -0.4204  21.9098
 Hirshfeld    8.8735 -20.2059  -0.4171  22.0724
 -----------------------------------------------

   10    -767.5573367745      1.49e-05  
Hirshfeld: reading atomic densities from disk.

 Charges (in A.U.) from CM5PAC (Nov. 11, 2011)
 -----------------------------------------------
 Center     Atomic      CM5         Hirshfeld
 Number     Number      Charge      Charge
 -----------------------------------------------
    1          6       -0.032613   -0.019351
    2          6       -0.166242   -0.113149
    3          6       -0.159929   -0.105373
    4          6       -0.074969   -0.075432
    5          6       -0.082367   -0.080471
    6          6       -0.144517   -0.093241
    7          6        0.037774    0.009694
    8          6       -0.074886   -0.075350
    9          6       -0.082282   -0.080386
   10          6        0.014027   -0.013293
   11          6       -0.032379   -0.019118
   12          6       -0.166070   -0.112977
   13          6       -0.159811   -0.105256
   14          6       -0.144448   -0.093172
   15          8       -0.452654   -0.398117
   16          8       -0.527899   -0.482559
   17          6       -0.242299   -0.100484
   18          1        0.057524    0.001393
   19          1        0.060870    0.005953
   20          1        0.056509   -0.005479
   21          6       -0.242228   -0.100413
   22          1        0.056525   -0.005463
   23          1        0.057560    0.001429
   24          1        0.060901    0.005984
   25          1        0.053957    0.002168
   26          1        0.068785    0.012352
   27          1        0.068760    0.012344
   28          1        0.068768    0.012344
   29          1        0.053972    0.002182
   30          1        0.068796    0.012376
 -----------------------------------------------

 Dipole moment (in Debye)
 -----------------------------------------------
                 X        Y        Z     Total
 -----------------------------------------------
 CM5          8.8765 -20.0265  -0.4204  21.9096
 Hirshfeld    8.8730 -20.2059  -0.4171  22.0722
 -----------------------------------------------

   11    -767.5571648207      3.28e-06  
Hirshfeld: reading atomic densities from disk.

 Charges (in A.U.) from CM5PAC (Nov. 11, 2011)
 -----------------------------------------------
 Center     Atomic      CM5         Hirshfeld
 Number     Number      Charge      Charge
 -----------------------------------------------
    1          6       -0.032509   -0.019248
    2          6       -0.166266   -0.113173
    3          6       -0.159912   -0.105357
    4          6       -0.075074   -0.075538
    5          6       -0.082399   -0.080503
    6          6       -0.144411   -0.093135
    7          6        0.037803    0.009723
    8          6       -0.074996   -0.075460
    9          6       -0.082317   -0.080421
   10          6        0.013948   -0.013372
   11          6       -0.032278   -0.019016
   12          6       -0.166095   -0.113002
   13          6       -0.159796   -0.105241
   14          6       -0.144344   -0.093068
   15          8       -0.452667   -0.398130
   16          8       -0.527898   -0.482557
   17          6       -0.242346   -0.100531
   18          1        0.057521    0.001391
   19          1        0.060870    0.005953
   20          1        0.056494   -0.005494
   21          6       -0.242276   -0.100461
   22          1        0.056509   -0.005479
   23          1        0.057555    0.001424
   24          1        0.060899    0.005982
   25          1        0.053972    0.002183
   26          1        0.068798    0.012365
   27          1        0.068773    0.012357
   28          1        0.068780    0.012356
   29          1        0.053987    0.002197
   30          1        0.068809    0.012388
 -----------------------------------------------

 Dipole moment (in Debye)
 -----------------------------------------------
                 X        Y        Z     Total
 -----------------------------------------------
 CM5          8.8763 -20.0266  -0.4204  21.9095
 Hirshfeld    8.8728 -20.2059  -0.4170  22.0722
 -----------------------------------------------

   12    -767.5571797330      1.39e-06  
Hirshfeld: reading atomic densities from disk.

 Charges (in A.U.) from CM5PAC (Nov. 11, 2011)
 -----------------------------------------------
 Center     Atomic      CM5         Hirshfeld
 Number     Number      Charge      Charge
 -----------------------------------------------
    1          6       -0.032545   -0.019284
    2          6       -0.166241   -0.113147
    3          6       -0.159898   -0.105343
    4          6       -0.075067   -0.075531
    5          6       -0.082385   -0.080489
    6          6       -0.144445   -0.093168
    7          6        0.037797    0.009717
    8          6       -0.074988   -0.075451
    9          6       -0.082303   -0.080407
   10          6        0.013992   -0.013328
   11          6       -0.032313   -0.019052
   12          6       -0.166072   -0.112979
   13          6       -0.159784   -0.105229
   14          6       -0.144377   -0.093101
   15          8       -0.452706   -0.398169
   16          8       -0.527926   -0.482586
   17          6       -0.242336   -0.100521
   18          1        0.057521    0.001391
   19          1        0.060876    0.005959
   20          1        0.056492   -0.005496
   21          6       -0.242266   -0.100451
   22          1        0.056506   -0.005482
   23          1        0.057554    0.001423
   24          1        0.060903    0.005986
   25          1        0.053975    0.002187
   26          1        0.068803    0.012370
   27          1        0.068778    0.012362
   28          1        0.068785    0.012360
   29          1        0.053990    0.002200
   30          1        0.068813    0.012393
 -----------------------------------------------

 Dipole moment (in Debye)
 -----------------------------------------------
                 X        Y        Z     Total
 -----------------------------------------------
 CM5          8.8761 -20.0264  -0.4204  21.9093
 Hirshfeld    8.8726 -20.2058  -0.4170  22.0719
 -----------------------------------------------

   13    -767.5571740068      6.57e-07  
Hirshfeld: reading atomic densities from disk.

 Charges (in A.U.) from CM5PAC (Nov. 11, 2011)
 -----------------------------------------------
 Center     Atomic      CM5         Hirshfeld
 Number     Number      Charge      Charge
 -----------------------------------------------
    1          6       -0.032537   -0.019275
    2          6       -0.166243   -0.113149
    3          6       -0.159896   -0.105340
    4          6       -0.075059   -0.075522
    5          6       -0.082395   -0.080499
    6          6       -0.144444   -0.093168
    7          6        0.037786    0.009706
    8          6       -0.074981   -0.075445
    9          6       -0.082315   -0.080419
   10          6        0.013966   -0.013354
   11          6       -0.032306   -0.019044
   12          6       -0.166074   -0.112981
   13          6       -0.159782   -0.105227
   14          6       -0.144378   -0.093102
   15          8       -0.452716   -0.398179
   16          8       -0.527916   -0.482576
   17          6       -0.242329   -0.100515
   18          1        0.057523    0.001392
   19          1        0.060880    0.005963
   20          1        0.056492   -0.005496
   21          6       -0.242260   -0.100445
   22          1        0.056506   -0.005483
   23          1        0.057555    0.001424
   24          1        0.060906    0.005989
   25          1        0.053978    0.002189
   26          1        0.068803    0.012370
   27          1        0.068778    0.012362
   28          1        0.068785    0.012360
   29          1        0.053992    0.002203
   30          1        0.068813    0.012393
 -----------------------------------------------

 Dipole moment (in Debye)
 -----------------------------------------------
                 X        Y        Z     Total
 -----------------------------------------------
 CM5          8.8761 -20.0261  -0.4204  21.9091
 Hirshfeld    8.8726 -20.2055  -0.4170  22.0717
 -----------------------------------------------

   14    -767.5571725206      2.00e-07  
Hirshfeld: reading atomic densities from disk.

 Charges (in A.U.) from CM5PAC (Nov. 11, 2011)
 -----------------------------------------------
 Center     Atomic      CM5         Hirshfeld
 Number     Number      Charge      Charge
 -----------------------------------------------
    1          6       -0.032540   -0.019279
    2          6       -0.166242   -0.113149
    3          6       -0.159896   -0.105341
    4          6       -0.075064   -0.075528
    5          6       -0.082389   -0.080493
    6          6       -0.144441   -0.093165
    7          6        0.037786    0.009706
    8          6       -0.074986   -0.075449
    9          6       -0.082307   -0.080411
   10          6        0.013977   -0.013343
   11          6       -0.032309   -0.019047
   12          6       -0.166074   -0.112981
   13          6       -0.159783   -0.105228
   14          6       -0.144374   -0.093098
   15          8       -0.452720   -0.398183
   16          8       -0.527921   -0.482581
   17          6       -0.242332   -0.100517
   18          1        0.057523    0.001392
   19          1        0.060879    0.005962
   20          1        0.056490   -0.005498
   21          6       -0.242263   -0.100448
   22          1        0.056504   -0.005484
   23          1        0.057554    0.001424
   24          1        0.060905    0.005988
   25          1        0.053979    0.002191
   26          1        0.068804    0.012370
   27          1        0.068778    0.012363
   28          1        0.068785    0.012361
   29          1        0.053994    0.002204
   30          1        0.068813    0.012393
 -----------------------------------------------

 Dipole moment (in Debye)
 -----------------------------------------------
                 X        Y        Z     Total
 -----------------------------------------------
 CM5          8.8760 -20.0263  -0.4204  21.9092
 Hirshfeld    8.8726 -20.2057  -0.4170  22.0718
 -----------------------------------------------

   15    -767.5571706070      9.41e-08  
Hirshfeld: reading atomic densities from disk.

 Charges (in A.U.) from CM5PAC (Nov. 11, 2011)
 -----------------------------------------------
 Center     Atomic      CM5         Hirshfeld
 Number     Number      Charge      Charge
 -----------------------------------------------
    1          6       -0.032539   -0.019278
    2          6       -0.166241   -0.113148
    3          6       -0.159894   -0.105339
    4          6       -0.075064   -0.075527
    5          6       -0.082391   -0.080495
    6          6       -0.144444   -0.093168
    7          6        0.037789    0.009709
    8          6       -0.074986   -0.075450
    9          6       -0.082310   -0.080414
   10          6        0.013976   -0.013344
   11          6       -0.032308   -0.019046
   12          6       -0.166072   -0.112979
   13          6       -0.159781   -0.105226
   14          6       -0.144377   -0.093101
   15          8       -0.452720   -0.398183
   16          8       -0.527920   -0.482579
   17          6       -0.242332   -0.100518
   18          1        0.057522    0.001391
   19          1        0.060879    0.005962
   20          1        0.056490   -0.005498
   21          6       -0.242263   -0.100448
   22          1        0.056504   -0.005484
   23          1        0.057554    0.001423
   24          1        0.060905    0.005988
   25          1        0.053979    0.002191
   26          1        0.068804    0.012370
   27          1        0.068778    0.012363
   28          1        0.068785    0.012361
   29          1        0.053994    0.002204
   30          1        0.068813    0.012393
 -----------------------------------------------

 Dipole moment (in Debye)
 -----------------------------------------------
                 X        Y        Z     Total
 -----------------------------------------------
 CM5          8.8760 -20.0263  -0.4204  21.9092
 Hirshfeld    8.8726 -20.2056  -0.4170  22.0718
 -----------------------------------------------

   16    -767.5571710186      2.68e-08  
Hirshfeld: reading atomic densities from disk.

 Charges (in A.U.) from CM5PAC (Nov. 11, 2011)
 -----------------------------------------------
 Center     Atomic      CM5         Hirshfeld
 Number     Number      Charge      Charge
 -----------------------------------------------
    1          6       -0.032540   -0.019278
    2          6       -0.166241   -0.113148
    3          6       -0.159895   -0.105340
    4          6       -0.075064   -0.075528
    5          6       -0.082390   -0.080494
    6          6       -0.144443   -0.093167
    7          6        0.037787    0.009708
    8          6       -0.074986   -0.075449
    9          6       -0.082309   -0.080413
   10          6        0.013976   -0.013343
   11          6       -0.032308   -0.019047
   12          6       -0.166073   -0.112980
   13          6       -0.159782   -0.105227
   14          6       -0.144376   -0.093100
   15          8       -0.452719   -0.398182
   16          8       -0.527919   -0.482579
   17          6       -0.242332   -0.100517
   18          1        0.057522    0.001392
   19          1        0.060879    0.005962
   20          1        0.056490   -0.005498
   21          6       -0.242263   -0.100447
   22          1        0.056504   -0.005484
   23          1        0.057554    0.001423
   24          1        0.060906    0.005988
   25          1        0.053979    0.002191
   26          1        0.068804    0.012370
   27          1        0.068778    0.012363
   28          1        0.068785    0.012361
   29          1        0.053994    0.002204
   30          1        0.068814    0.012393
 -----------------------------------------------

 Dipole moment (in Debye)
 -----------------------------------------------
                 X        Y        Z     Total
 -----------------------------------------------
 CM5          8.8760 -20.0263  -0.4204  21.9092
 Hirshfeld    8.8725 -20.2057  -0.4170  22.0718
 -----------------------------------------------

   17    -767.5571708214      1.67e-08  
   18    -767.5571708396      2.78e-09  Convergence criterion met
 ---------------------------------------
 SCF time:   CPU 7119.12s  wall 899.00s 
(1)  E-EN(liq) elect-nuc energy of solute               -767.557170840 a.u.
(2)  G-P(liq) polarization free energy of solvation          -168.1690 kcal/mol
(3)  G-ENP(liq) elect-nuc-pol free energy of system     -767.825165211 a.u.
(4)  G-CDS(liq) cavity-dispersion-solvent structure 
     free energy                                               -8.1424 kcal/mol
(5)  G-P-CDS(liq) = G-P(liq) + G-CDS(liq) = (2) + (4)        -176.3115 kcal/mol
(6)  G-S(liq) free energy of system = (1) + (5)         -767.838141025 a.u.
 SCF   energy in the final basis set =     -767.8381410248
 Total energy in the final basis set =     -767.8381410248
 
 --------------------------------------------------------------
 
                    Orbital Energies (a.u.)
 --------------------------------------------------------------
 
 Alpha MOs
 -- Occupied --
-19.0246 -19.0240 -10.1945 -10.1824 -10.1822 -10.1821 -10.1706 -10.1705
-10.1647 -10.1647 -10.1626 -10.1625 -10.1621 -10.1620 -10.1591 -10.1590
-10.1519 -10.1519  -0.9466  -0.9391  -0.8441  -0.8422  -0.7722  -0.7667
 -0.7611  -0.7224  -0.6868  -0.6763  -0.6472  -0.6147  -0.6085  -0.5576
 -0.5357  -0.5165  -0.5060  -0.4594  -0.4547  -0.4541  -0.4506  -0.4197
 -0.4109  -0.4109  -0.4032  -0.3942  -0.3936  -0.3788  -0.3777  -0.3765
 -0.3632  -0.3523  -0.3458  -0.3377  -0.3307  -0.3285  -0.3142  -0.3133
 -0.2436  -0.2395  -0.2349  -0.2291  -0.2033  -0.1970  -0.1164
 -- Virtual --
 -0.0665  -0.0645  -0.0607  -0.0549  -0.0522  -0.0439  -0.0425  -0.0333
 -0.0249  -0.0247  -0.0222  -0.0151  -0.0140  -0.0007   0.0014   0.0053
  0.0127   0.0203   0.0206   0.0304   0.0306   0.0375   0.0387   0.0392
  0.0431   0.0491   0.0519   0.0535   0.0567   0.0576   0.0610   0.0673
  0.0700   0.0733   0.0797   0.0831   0.0841   0.0883   0.0905   0.0913
  0.0939   0.0960   0.1015   0.1056   0.1057   0.1175   0.1235   0.1252
  0.1271   0.1303   0.1373   0.1392   0.1461   0.1489   0.1546   0.1632
  0.1644   0.1664   0.1789   0.1794   0.1847   0.1884   0.1903   0.1939
  0.2022   0.2045   0.2155   0.2160   0.2240   0.2272   0.2296   0.2431
  0.2446   0.2460   0.2466   0.2500   0.2527   0.2532   0.2684   0.2691
  0.2760   0.2799   0.2878   0.2886   0.2918   0.2924   0.3010   0.3029
  0.3082   0.3102   0.3163   0.3292   0.3296   0.3330   0.3412   0.3415
  0.3442   0.3489   0.3514   0.3649   0.3691   0.3805   0.3863   0.4151
  0.4195   0.4341   0.4395   0.4470   0.4506   0.4527   0.4769   0.4994
  0.5022   0.5163   0.5268   0.5392   0.5419   0.5475   0.5588   0.5601
  0.5670   0.5761   0.5879   0.5913   0.5978   0.5981   0.6039   0.6093
  0.6133   0.6266   0.6332   0.6333   0.6398   0.6517   0.6540   0.6550
  0.6582   0.6662   0.6693   0.6698   0.6868   0.6903   0.6912   0.6967
  0.7075   0.7077   0.7159   0.7276   0.7361   0.7540   0.7566   0.7657
  0.7745   0.7798   0.7896   0.7933   0.8039   0.8106   0.8168   0.8171
  0.8390   0.8448   0.8479   0.8715   0.8827   0.9004   0.9177   0.9204
  0.9264   0.9377   0.9475   0.9495   0.9496   0.9627   0.9666   0.9767
  0.9838   0.9870   1.0014   1.0142   1.0168   1.0344   1.0431   1.0490
  1.0518   1.0656   1.0720   1.0725   1.1111   1.1177   1.1312   1.1352
  1.1388   1.1572   1.1783   1.1946   1.2028   1.2067   1.2190   1.2632
  1.2723   1.2878   1.3073   1.3336   1.3447   1.3566   1.3634   1.3710
  1.3862   1.4314   1.4365   1.4642   1.4740   1.4755   1.4873   1.4918
  1.4953   1.4966   1.5103   1.5180   1.5262   1.5287   1.5495   1.5582
  1.5602   1.5732   1.5752   1.5800   1.5927   1.6079   1.6099   1.6139
  1.6411   1.6569   1.6703   1.6912   1.6950   1.7094   1.7103   1.7182
  1.7319   1.7327   1.7556   1.7565   1.7800   1.7823   1.8093   1.8097
  1.8209   1.8322   1.8625   1.8725   1.8827   1.8840   1.8945   1.8990
  1.9125   1.9205   1.9240   1.9463   1.9488   1.9645   1.9645   1.9892
  2.0006   2.0130   2.0186   2.0241   2.0419   2.0499   2.0653   2.0758
  2.1061   2.1308   2.1516   2.1519   2.1751   2.2006   2.2042   2.2067
  2.2397   2.2562   2.2921   2.2959   2.3016   2.3140   2.3288   2.3395
  2.3609   2.3913   2.4292   2.4296   2.4397   2.4743   2.4891   2.5002
  2.5064   2.5437   2.5674   2.5718   2.5798   2.5876   2.5931   2.6014
  2.6168   2.6209   2.6688   2.6777   2.6818   2.7171   2.7217   2.7238
  2.7291   2.7496   2.7500   2.7645   2.7744   2.7823   2.7934   2.8033
  2.8098   2.8218   2.8243   2.8408   2.8423   2.8461   2.8616   2.8802
  2.9004   2.9053   2.9147   2.9355   2.9399   2.9513   2.9887   3.0011
  3.0283   3.0582   3.1090   3.1126   3.1142   3.1332   3.1729   3.1793
  3.1991   3.2089   3.2688   3.2927   3.2932   3.3044   3.3508   3.3567
  3.3584   3.3695   3.3865   3.4367   3.4558   3.4999   3.5184   3.5240
  3.5640   3.5796   3.5940   3.6611   3.6840   3.6983   3.7739   3.7787
  3.8055   3.8614   3.8869   3.9306   3.9761   4.0607   4.0656   4.1335
  4.1517   4.3044   4.3481   4.3483   4.3807   4.5623   4.8288   4.8476
  4.8504   5.1391   5.1608   5.3348   5.4266   5.8028   5.8788  23.5410
 23.6978  23.8808  23.8945  23.9107  23.9510  23.9513  23.9683  23.9856
 23.9874  23.9978  24.0393  24.1105  24.1162  24.1906  24.1921  50.1014
 50.1613
 --------------------------------------------------------------
 
          Ground-State Mulliken Net Atomic Charges

     Atom                 Charge (a.u.)
  ----------------------------------------
      1 C                    -0.456679
      2 C                     1.635457
      3 C                     1.352978
      4 C                    -1.301781
      5 C                    -1.487069
      6 C                    -0.060556
      7 C                    -2.804014
      8 C                    -1.299831
      9 C                    -1.485950
     10 C                    -3.655219
     11 C                    -0.453041
     12 C                     1.642624
     13 C                     1.355555
     14 C                    -0.053172
     15 O                    -0.194734
     16 O                    -0.336797
     17 C                     1.474428
     18 H                     0.259099
     19 H                     0.407572
     20 H                     0.092186
     21 C                     1.475838
     22 H                     0.092355
     23 H                     0.259408
     24 H                     0.407752
     25 H                     0.314857
     26 H                     0.125912
     27 H                     0.125814
     28 H                     0.126031
     29 H                     0.315023
     30 H                     0.125953
  ----------------------------------------
  Sum of atomic charges =    -2.000000

 -----------------------------------------------------------------
                    Cartesian Multipole Moments
 -----------------------------------------------------------------
    Charge (ESU x 10^10)
                -9.6064
    Dipole Moment (Debye)
         X       8.8792      Y     -19.3598      Z      -0.4284
       Tot      21.3032
    Quadrupole Moments (Debye-Ang)
        XX    -161.6517     XY      17.6369     YY    -206.1179
        XZ       1.0589     YZ      -0.3340     ZZ    -120.8403
    Octopole Moments (Debye-Ang^2)
       XXX     428.5261    XXY    -399.1120    XYY     188.5274
       YYY   -1280.8816    XXZ      -7.4448    XYZ       2.0507
       YYZ      -6.0078    XZZ     110.6276    YZZ    -296.4608
       ZZZ     -14.0372
    Hexadecapole Moments (Debye-Ang^3)
      XXXX   -5431.0071   XXXY    1089.3820   XXYY   -2282.2906
      XYYY    1188.7106   YYYY   -8671.2920   XXXZ      61.7903
      XXYZ     -14.4944   XYYZ      24.9483   YYYZ     -26.4549
      XXZZ    -929.6611   XYZZ     279.5939   YYZZ   -1149.0546
      XZZZ      59.1999   YZZZ     -22.3574   ZZZZ    -183.5250
 -----------------------------------------------------------------
 Total job time:  931.80s(wall), 7125.63s(cpu) 
 Sat Feb  3 11:38:59 2024

        *************************************************************
        *                                                           *
        *  Thank you very much for using Q-Chem.  Have a nice day.  *
        *                                                           *
        *************************************************************


