 Entering Gaussian System, Link 0=g16
 Input=189.com
 Output=189.log
 Initial command:
 /sysapps/ubuntu-applications/gaussian/Gaussian/AVX2/g16/l1.exe "/scratch/selhajj1/4222336/Gau-1388110.inp" -scrdir="/scratch/selhajj1/4222336/"
 Entering Link 1 = /sysapps/ubuntu-applications/gaussian/Gaussian/AVX2/g16/l1.exe PID=   1388114.
  
 Copyright (c) 1988,1990,1992,1993,1995,1998,2003,2009,2016,
            Gaussian, Inc.  All Rights Reserved.
  
 This is part of the Gaussian(R) 16 program.  It is based on
 the Gaussian(R) 09 system (copyright 2009, Gaussian, Inc.),
 the Gaussian(R) 03 system (copyright 2003, Gaussian, Inc.),
 the Gaussian(R) 98 system (copyright 1998, Gaussian, Inc.),
 the Gaussian(R) 94 system (copyright 1995, Gaussian, Inc.),
 the Gaussian 92(TM) system (copyright 1992, Gaussian, Inc.),
 the Gaussian 90(TM) system (copyright 1990, Gaussian, Inc.),
 the Gaussian 88(TM) system (copyright 1988, Gaussian, Inc.),
 the Gaussian 86(TM) system (copyright 1986, Carnegie Mellon
 University), and the Gaussian 82(TM) system (copyright 1983,
 Carnegie Mellon University). Gaussian is a federally registered
 trademark of Gaussian, Inc.
  
 This software contains proprietary and confidential information,
 including trade secrets, belonging to Gaussian, Inc.
  
 This software is provided under written license and may be
 used, copied, transmitted, or stored only in accord with that
 written license.
  
 The following legend is applicable only to US Government
 contracts under FAR:
  
                    RESTRICTED RIGHTS LEGEND
  
 Use, reproduction and disclosure by the US Government is
 subject to restrictions as set forth in subparagraphs (a)
 and (c) of the Commercial Computer Software - Restricted
 Rights clause in FAR 52.227-19.
  
 Gaussian, Inc.
 340 Quinnipiac St., Bldg. 40, Wallingford CT 06492
  
  
 ---------------------------------------------------------------
 Warning -- This program may not be used in any manner that
 competes with the business of Gaussian, Inc. or will provide
 assistance to any competitor of Gaussian, Inc.  The licensee
 of this program is prohibited from giving any competitor of
 Gaussian, Inc. access to this program.  By using this program,
 the user acknowledges that Gaussian, Inc. is engaged in the
 business of creating and licensing software in the field of
 computational chemistry and represents and warrants to the
 licensee that it is not a competitor of Gaussian, Inc. and that
 it will not use this program in any manner prohibited above.
 ---------------------------------------------------------------
  

 Cite this work as:
 Gaussian 16, Revision A.03,
 M. J. Frisch, G. W. Trucks, H. B. Schlegel, G. E. Scuseria, 
 M. A. Robb, J. R. Cheeseman, G. Scalmani, V. Barone, 
 G. A. Petersson, H. Nakatsuji, X. Li, M. Caricato, A. V. Marenich, 
 J. Bloino, B. G. Janesko, R. Gomperts, B. Mennucci, H. P. Hratchian, 
 J. V. Ortiz, A. F. Izmaylov, J. L. Sonnenberg, D. Williams-Young, 
 F. Ding, F. Lipparini, F. Egidi, J. Goings, B. Peng, A. Petrone, 
 T. Henderson, D. Ranasinghe, V. G. Zakrzewski, J. Gao, N. Rega, 
 G. Zheng, W. Liang, M. Hada, M. Ehara, K. Toyota, R. Fukuda, 
 J. Hasegawa, M. Ishida, T. Nakajima, Y. Honda, O. Kitao, H. Nakai, 
 T. Vreven, K. Throssell, J. A. Montgomery, Jr., J. E. Peralta, 
 F. Ogliaro, M. J. Bearpark, J. J. Heyd, E. N. Brothers, K. N. Kudin, 
 V. N. Staroverov, T. A. Keith, R. Kobayashi, J. Normand, 
 K. Raghavachari, A. P. Rendell, J. C. Burant, S. S. Iyengar, 
 J. Tomasi, M. Cossi, J. M. Millam, M. Klene, C. Adamo, R. Cammi, 
 J. W. Ochterski, R. L. Martin, K. Morokuma, O. Farkas, 
 J. B. Foresman, and D. J. Fox, Gaussian, Inc., Wallingford CT, 2016.
 
 ******************************************
 Gaussian 16:  ES64L-G16RevA.03 25-Dec-2016
                21-Dec-2023 
 ******************************************
 %chk=189.chk
 %nproc=8
 Will use up to    8 processors via shared memory.
 %mem=30GB
 --------------------------------------
 #P UB3LYP/6-311++G(d,p) nosym opt freq
 --------------------------------------
 1/18=20,19=15,26=3,38=1/1,3;
 2/9=110,12=2,15=1,17=6,18=5,40=1/2;
 3/5=4,6=6,7=1111,11=2,25=1,30=1,71=1,74=-5,116=2/1,2,3;
 4//1;
 5/5=2,38=5/2;
 6/7=2,8=2,9=2,10=2,28=1/1;
 7/30=1/1,2,3,16;
 1/18=20,19=15,26=3/3(2);
 2/9=110,15=1/2;
 99//99;
 2/9=110,15=1/2;
 3/5=4,6=6,7=1111,11=2,25=1,30=1,71=1,74=-5,116=2/1,2,3;
 4/5=5,16=3,69=1/1;
 5/5=2,38=5/2;
 7/30=1/1,2,3,16;
 1/18=20,19=15,26=3/3(-5);
 2/9=110,15=1/2;
 6/7=2,8=2,9=2,10=2,19=2,28=1/1;
 99/9=1/99;
 Leave Link    1 at Thu Dec 21 18:53:12 2023, MaxMem=  4026531840 cpu:               1.8 elap:               0.4
 (Enter /sysapps/ubuntu-applications/gaussian/Gaussian/AVX2/g16/l101.exe)
 --------
 Oxidized
 --------
 Symbolic Z-matrix:
 Charge =  0 Multiplicity = 1
 O                    -4.92809   1.0874    0.35406 
 C                    -3.70878   0.42225   0.24017 
 C                    -3.63676  -0.95505   0.14245 
 C                    -2.42679  -1.56913   0.03256 
 C                    -1.23439  -0.87129   0.01287 
 C                     0.05234  -1.5516   -0.10582 
 O                     0.1124   -2.80692  -0.19456 
 C                     1.30391  -0.80002  -0.12517 
 C                     2.53245  -1.40699  -0.23561 
 C                     3.71569  -0.67289  -0.25231 
 C                     3.64965   0.70326  -0.15502 
 O                     4.83571   1.41093  -0.17367 
 C                     2.41275   1.2981   -0.04492 
 C                     1.21494   0.5725   -0.02683 
 C                    -0.06839   1.25462   0.0918 
 O                    -0.1417    2.50423   0.1809 
 C                    -1.30977   0.5006    0.11041 
 C                    -2.53415   1.13527   0.22251 
 H                    -5.38024   1.36766  -0.50979 
 H                    -4.57916  -1.51971   0.15712 
 H                    -2.348    -2.64708  -0.0452 
 H                     2.60525  -2.4806   -0.3127 
 H                     4.67457  -1.18221  -0.34092 
 H                     5.37111   1.64573   0.65186 
 H                     2.32994   2.35313   0.03148 
 H                    -2.5145    2.20777   0.29433 
 
 ITRead=  0  0  0  0  0  0  0  0  0  0  0  0  0  0  0  0  0  0  0  0
 ITRead=  0  0  0  0  0  0
 MicOpt= -1 -1 -1 -1 -1 -1 -1 -1 -1 -1 -1 -1 -1 -1 -1 -1 -1 -1 -1 -1
 MicOpt= -1 -1 -1 -1 -1 -1
 NAtoms=     26 NQM=       26 NQMF=       0 NMMI=      0 NMMIF=      0
                NMic=       0 NMicF=      0.
                    Isotopes and Nuclear Properties:
 (Nuclear quadrupole moments (NQMom) in fm**2, nuclear magnetic moments (NMagM)
  in nuclear magnetons)

  Atom         1           2           3           4           5           6           7           8           9          10
 IAtWgt=          16          12          12          12          12          12          16          12          12          12
 AtmWgt=  15.9949146  12.0000000  12.0000000  12.0000000  12.0000000  12.0000000  15.9949146  12.0000000  12.0000000  12.0000000
 NucSpn=           0           0           0           0           0           0           0           0           0           0
 AtZEff=  -0.0000000  -0.0000000  -0.0000000  -0.0000000  -0.0000000  -0.0000000  -0.0000000  -0.0000000  -0.0000000  -0.0000000
 NQMom=    0.0000000   0.0000000   0.0000000   0.0000000   0.0000000   0.0000000   0.0000000   0.0000000   0.0000000   0.0000000
 NMagM=    0.0000000   0.0000000   0.0000000   0.0000000   0.0000000   0.0000000   0.0000000   0.0000000   0.0000000   0.0000000
 AtZNuc=   8.0000000   6.0000000   6.0000000   6.0000000   6.0000000   6.0000000   8.0000000   6.0000000   6.0000000   6.0000000

  Atom        11          12          13          14          15          16          17          18          19          20
 IAtWgt=          12          16          12          12          12          16          12          12           1           1
 AtmWgt=  12.0000000  15.9949146  12.0000000  12.0000000  12.0000000  15.9949146  12.0000000  12.0000000   1.0078250   1.0078250
 NucSpn=           0           0           0           0           0           0           0           0           1           1
 AtZEff=  -0.0000000  -0.0000000  -0.0000000  -0.0000000  -0.0000000  -0.0000000  -0.0000000  -0.0000000  -0.0000000  -0.0000000
 NQMom=    0.0000000   0.0000000   0.0000000   0.0000000   0.0000000   0.0000000   0.0000000   0.0000000   0.0000000   0.0000000
 NMagM=    0.0000000   0.0000000   0.0000000   0.0000000   0.0000000   0.0000000   0.0000000   0.0000000   2.7928460   2.7928460
 AtZNuc=   6.0000000   8.0000000   6.0000000   6.0000000   6.0000000   8.0000000   6.0000000   6.0000000   1.0000000   1.0000000

  Atom        21          22          23          24          25          26
 IAtWgt=           1           1           1           1           1           1
 AtmWgt=   1.0078250   1.0078250   1.0078250   1.0078250   1.0078250   1.0078250
 NucSpn=           1           1           1           1           1           1
 AtZEff=  -0.0000000  -0.0000000  -0.0000000  -0.0000000  -0.0000000  -0.0000000
 NQMom=    0.0000000   0.0000000   0.0000000   0.0000000   0.0000000   0.0000000
 NMagM=    2.7928460   2.7928460   2.7928460   2.7928460   2.7928460   2.7928460
 AtZNuc=   1.0000000   1.0000000   1.0000000   1.0000000   1.0000000   1.0000000
 Leave Link  101 at Thu Dec 21 18:53:13 2023, MaxMem=  4026531840 cpu:               4.1 elap:               1.0
 (Enter /sysapps/ubuntu-applications/gaussian/Gaussian/AVX2/g16/l103.exe)

 GradGradGradGradGradGradGradGradGradGradGradGradGradGradGradGradGradGrad
 Berny optimization.
 Initialization pass.
                           ----------------------------
                           !    Initial Parameters    !
                           ! (Angstroms and Degrees)  !
 --------------------------                            --------------------------
 ! Name  Definition              Value          Derivative Info.                !
 --------------------------------------------------------------------------------
 ! R1    R(1,2)                  1.3936         estimate D2E/DX2                !
 ! R2    R(1,19)                 1.0145         estimate D2E/DX2                !
 ! R3    R(2,3)                  1.3826         estimate D2E/DX2                !
 ! R4    R(2,18)                 1.3742         estimate D2E/DX2                !
 ! R5    R(3,4)                  1.3613         estimate D2E/DX2                !
 ! R6    R(3,20)                 1.0987         estimate D2E/DX2                !
 ! R7    R(4,5)                  1.3817         estimate D2E/DX2                !
 ! R8    R(4,21)                 1.0836         estimate D2E/DX2                !
 ! R9    R(5,6)                  1.4603         estimate D2E/DX2                !
 ! R10   R(5,17)                 1.3774         estimate D2E/DX2                !
 ! R11   R(6,7)                  1.2599         estimate D2E/DX2                !
 ! R12   R(6,8)                  1.46           estimate D2E/DX2                !
 ! R13   R(8,9)                  1.3747         estimate D2E/DX2                !
 ! R14   R(8,14)                 1.3789         estimate D2E/DX2                !
 ! R15   R(9,10)                 1.3926         estimate D2E/DX2                !
 ! R16   R(9,22)                 1.0788         estimate D2E/DX2                !
 ! R17   R(10,11)                1.3812         estimate D2E/DX2                !
 ! R18   R(10,23)                1.0894         estimate D2E/DX2                !
 ! R19   R(11,12)                1.3813         estimate D2E/DX2                !
 ! R20   R(11,13)                1.3769         estimate D2E/DX2                !
 ! R21   R(12,24)                1.0116         estimate D2E/DX2                !
 ! R22   R(13,14)                1.4006         estimate D2E/DX2                !
 ! R23   R(13,25)                1.061          estimate D2E/DX2                !
 ! R24   R(14,15)                1.4582         estimate D2E/DX2                !
 ! R25   R(15,16)                1.2549         estimate D2E/DX2                !
 ! R26   R(15,17)                1.4526         estimate D2E/DX2                !
 ! R27   R(17,18)                1.3836         estimate D2E/DX2                !
 ! R28   R(18,26)                1.0751         estimate D2E/DX2                !
 ! A1    A(2,1,19)             116.8857         estimate D2E/DX2                !
 ! A2    A(1,2,3)              121.7896         estimate D2E/DX2                !
 ! A3    A(1,2,18)             120.0844         estimate D2E/DX2                !
 ! A4    A(3,2,18)             118.126          estimate D2E/DX2                !
 ! A5    A(2,3,4)              120.0899         estimate D2E/DX2                !
 ! A6    A(2,3,20)             117.7954         estimate D2E/DX2                !
 ! A7    A(4,3,20)             122.1147         estimate D2E/DX2                !
 ! A8    A(3,4,5)              122.7077         estimate D2E/DX2                !
 ! A9    A(3,4,21)             121.2753         estimate D2E/DX2                !
 ! A10   A(5,4,21)             116.017          estimate D2E/DX2                !
 ! A11   A(4,5,6)              121.753          estimate D2E/DX2                !
 ! A12   A(4,5,17)             117.0511         estimate D2E/DX2                !
 ! A13   A(6,5,17)             121.1959         estimate D2E/DX2                !
 ! A14   A(5,6,7)              120.7904         estimate D2E/DX2                !
 ! A15   A(5,6,8)              121.1035         estimate D2E/DX2                !
 ! A16   A(7,6,8)              118.1061         estimate D2E/DX2                !
 ! A17   A(6,8,9)              122.6732         estimate D2E/DX2                !
 ! A18   A(6,8,14)             117.1377         estimate D2E/DX2                !
 ! A19   A(9,8,14)             120.1891         estimate D2E/DX2                !
 ! A20   A(8,9,10)             121.8391         estimate D2E/DX2                !
 ! A21   A(8,9,22)             120.3595         estimate D2E/DX2                !
 ! A22   A(10,9,22)            117.8013         estimate D2E/DX2                !
 ! A23   A(9,10,11)            118.9317         estimate D2E/DX2                !
 ! A24   A(9,10,23)            120.1606         estimate D2E/DX2                !
 ! A25   A(11,10,23)           120.9077         estimate D2E/DX2                !
 ! A26   A(10,11,12)           117.9347         estimate D2E/DX2                !
 ! A27   A(10,11,13)           118.622          estimate D2E/DX2                !
 ! A28   A(12,11,13)           123.4432         estimate D2E/DX2                !
 ! A29   A(11,12,24)           124.2197         estimate D2E/DX2                !
 ! A30   A(11,13,14)           123.058          estimate D2E/DX2                !
 ! A31   A(11,13,25)           120.36           estimate D2E/DX2                !
 ! A32   A(14,13,25)           116.582          estimate D2E/DX2                !
 ! A33   A(8,14,13)            117.36           estimate D2E/DX2                !
 ! A34   A(8,14,15)            121.8841         estimate D2E/DX2                !
 ! A35   A(13,14,15)           120.7559         estimate D2E/DX2                !
 ! A36   A(14,15,16)           121.5337         estimate D2E/DX2                !
 ! A37   A(14,15,17)           120.6876         estimate D2E/DX2                !
 ! A38   A(16,15,17)           117.7787         estimate D2E/DX2                !
 ! A39   A(5,17,15)            117.9911         estimate D2E/DX2                !
 ! A40   A(5,17,18)            120.7317         estimate D2E/DX2                !
 ! A41   A(15,17,18)           121.2772         estimate D2E/DX2                !
 ! A42   A(2,18,17)            121.2936         estimate D2E/DX2                !
 ! A43   A(2,18,26)            122.1659         estimate D2E/DX2                !
 ! A44   A(17,18,26)           116.5405         estimate D2E/DX2                !
 ! D1    D(19,1,2,3)           -90.0001         estimate D2E/DX2                !
 ! D2    D(19,1,2,18)           90.0            estimate D2E/DX2                !
 ! D3    D(1,2,3,4)           -179.9999         estimate D2E/DX2                !
 ! D4    D(1,2,3,20)             0.0001         estimate D2E/DX2                !
 ! D5    D(18,2,3,4)             0.0            estimate D2E/DX2                !
 ! D6    D(18,2,3,20)          180.0            estimate D2E/DX2                !
 ! D7    D(1,2,18,17)          179.9998         estimate D2E/DX2                !
 ! D8    D(1,2,18,26)           -0.0004         estimate D2E/DX2                !
 ! D9    D(3,2,18,17)           -0.0001         estimate D2E/DX2                !
 ! D10   D(3,2,18,26)          179.9997         estimate D2E/DX2                !
 ! D11   D(2,3,4,5)              0.0002         estimate D2E/DX2                !
 ! D12   D(2,3,4,21)          -179.999          estimate D2E/DX2                !
 ! D13   D(20,3,4,5)          -179.9999         estimate D2E/DX2                !
 ! D14   D(20,3,4,21)            0.001          estimate D2E/DX2                !
 ! D15   D(3,4,5,6)            179.9989         estimate D2E/DX2                !
 ! D16   D(3,4,5,17)            -0.0001         estimate D2E/DX2                !
 ! D17   D(21,4,5,6)            -0.0019         estimate D2E/DX2                !
 ! D18   D(21,4,5,17)          179.9991         estimate D2E/DX2                !
 ! D19   D(4,5,6,7)              0.0007         estimate D2E/DX2                !
 ! D20   D(4,5,6,8)           -179.9991         estimate D2E/DX2                !
 ! D21   D(17,5,6,7)           179.9997         estimate D2E/DX2                !
 ! D22   D(17,5,6,8)            -0.0001         estimate D2E/DX2                !
 ! D23   D(4,5,17,15)          179.9992         estimate D2E/DX2                !
 ! D24   D(4,5,17,18)           -0.0001         estimate D2E/DX2                !
 ! D25   D(6,5,17,15)            0.0002         estimate D2E/DX2                !
 ! D26   D(6,5,17,18)         -179.9991         estimate D2E/DX2                !
 ! D27   D(5,6,8,9)           -179.9995         estimate D2E/DX2                !
 ! D28   D(5,6,8,14)             0.0            estimate D2E/DX2                !
 ! D29   D(7,6,8,9)              0.0006         estimate D2E/DX2                !
 ! D30   D(7,6,8,14)          -179.9999         estimate D2E/DX2                !
 ! D31   D(6,8,9,10)           179.9993         estimate D2E/DX2                !
 ! D32   D(6,8,9,22)            -0.0009         estimate D2E/DX2                !
 ! D33   D(14,8,9,10)           -0.0002         estimate D2E/DX2                !
 ! D34   D(14,8,9,22)          179.9996         estimate D2E/DX2                !
 ! D35   D(6,8,14,13)         -179.9993         estimate D2E/DX2                !
 ! D36   D(6,8,14,15)            0.0001         estimate D2E/DX2                !
 ! D37   D(9,8,14,13)            0.0002         estimate D2E/DX2                !
 ! D38   D(9,8,14,15)          179.9996         estimate D2E/DX2                !
 ! D39   D(8,9,10,11)            0.0            estimate D2E/DX2                !
 ! D40   D(8,9,10,23)          179.9997         estimate D2E/DX2                !
 ! D41   D(22,9,10,11)        -179.9998         estimate D2E/DX2                !
 ! D42   D(22,9,10,23)           0.0            estimate D2E/DX2                !
 ! D43   D(9,10,11,12)        -179.9999         estimate D2E/DX2                !
 ! D44   D(9,10,11,13)           0.0002         estimate D2E/DX2                !
 ! D45   D(23,10,11,12)          0.0003         estimate D2E/DX2                !
 ! D46   D(23,10,11,13)       -179.9996         estimate D2E/DX2                !
 ! D47   D(10,11,12,24)        -89.9997         estimate D2E/DX2                !
 ! D48   D(13,11,12,24)         90.0002         estimate D2E/DX2                !
 ! D49   D(10,11,13,14)         -0.0002         estimate D2E/DX2                !
 ! D50   D(10,11,13,25)        179.9999         estimate D2E/DX2                !
 ! D51   D(12,11,13,14)        179.9999         estimate D2E/DX2                !
 ! D52   D(12,11,13,25)          0.0            estimate D2E/DX2                !
 ! D53   D(11,13,14,8)           0.0            estimate D2E/DX2                !
 ! D54   D(11,13,14,15)       -179.9995         estimate D2E/DX2                !
 ! D55   D(25,13,14,8)         179.9999         estimate D2E/DX2                !
 ! D56   D(25,13,14,15)          0.0004         estimate D2E/DX2                !
 ! D57   D(8,14,15,16)        -179.9999         estimate D2E/DX2                !
 ! D58   D(8,14,15,17)           0.0            estimate D2E/DX2                !
 ! D59   D(13,14,15,16)         -0.0005         estimate D2E/DX2                !
 ! D60   D(13,14,15,17)        179.9994         estimate D2E/DX2                !
 ! D61   D(14,15,17,5)          -0.0001         estimate D2E/DX2                !
 ! D62   D(14,15,17,18)        179.9992         estimate D2E/DX2                !
 ! D63   D(16,15,17,5)         179.9997         estimate D2E/DX2                !
 ! D64   D(16,15,17,18)         -0.0009         estimate D2E/DX2                !
 ! D65   D(5,17,18,2)            0.0002         estimate D2E/DX2                !
 ! D66   D(5,17,18,26)        -179.9997         estimate D2E/DX2                !
 ! D67   D(15,17,18,2)        -179.9991         estimate D2E/DX2                !
 ! D68   D(15,17,18,26)          0.001          estimate D2E/DX2                !
 --------------------------------------------------------------------------------
 Trust Radius=3.00D-01 FncErr=1.00D-07 GrdErr=1.00D-06 EigMax=2.50D+02 EigMin=1.00D-04
 Number of steps in this run=    150 maximum allowed number of steps=    156.
 GradGradGradGradGradGradGradGradGradGradGradGradGradGradGradGradGradGrad

 Leave Link  103 at Thu Dec 21 18:53:14 2023, MaxMem=  4026531840 cpu:               0.5 elap:               0.2
 (Enter /sysapps/ubuntu-applications/gaussian/Gaussian/AVX2/g16/l202.exe)
                          Input orientation:                          
 ---------------------------------------------------------------------
 Center     Atomic      Atomic             Coordinates (Angstroms)
 Number     Number       Type             X           Y           Z
 ---------------------------------------------------------------------
      1          8           0       -4.928085    1.087398    0.354056
      2          6           0       -3.708785    0.422255    0.240165
      3          6           0       -3.636756   -0.955046    0.142452
      4          6           0       -2.426787   -1.569128    0.032560
      5          6           0       -1.234391   -0.871286    0.012874
      6          6           0        0.052337   -1.551595   -0.105820
      7          8           0        0.112397   -2.806916   -0.194561
      8          6           0        1.303909   -0.800021   -0.125165
      9          6           0        2.532447   -1.406992   -0.235606
     10          6           0        3.715692   -0.672893   -0.252308
     11          6           0        3.649649    0.703261   -0.155015
     12          8           0        4.835711    1.410932   -0.173675
     13          6           0        2.412745    1.298104   -0.044925
     14          6           0        1.214944    0.572504   -0.026825
     15          6           0       -0.068385    1.254623    0.091802
     16          8           0       -0.141703    2.504231    0.180902
     17          6           0       -1.309773    0.500604    0.110410
     18          6           0       -2.534148    1.135272    0.222509
     19          1           0       -5.380237    1.367660   -0.509794
     20          1           0       -4.579162   -1.519707    0.157120
     21          1           0       -2.347998   -2.647081   -0.045195
     22          1           0        2.605249   -2.480597   -0.312704
     23          1           0        4.674574   -1.182207   -0.340922
     24          1           0        5.371110    1.645729    0.651860
     25          1           0        2.329943    2.353127    0.031477
     26          1           0       -2.514498    2.207768    0.294329
 ---------------------------------------------------------------------
                    Distance matrix (angstroms):
                    1          2          3          4          5
     1  O    0.000000
     2  C    1.393586   0.000000
     3  C    2.425672   1.382639   0.000000
     4  C    3.662920   2.377440   1.361322   0.000000
     5  C    4.194786   2.801345   2.407315   1.381731   0.000000
     6  C    5.655120   4.261670   3.745254   2.483046   1.460335
     7  O    6.393210   5.021749   4.195135   2.833930   2.367178
     8  C    6.529147   5.172478   4.950336   3.812414   2.543050
     9  C    7.888551   6.521156   6.197278   4.969126   3.812846
    10  C    8.842012   7.520953   7.368442   6.214052   4.961149
    11  C    8.601410   7.374394   7.478648   6.490148   5.134319
    12  O    9.783398   8.611455   8.802300   7.852845   6.487639
    13  C    7.354684   6.190437   6.458193   5.625664   4.243960
    14  C    6.176325   4.933251   5.089308   4.225201   2.843474
    15  C    4.869643   3.737293   4.197437   3.679557   2.425961
    16  O    4.994682   4.130643   4.917670   4.672887   3.551946
    17  C    3.673673   2.403795   2.744958   2.353204   1.377417
    18  C    2.398027   1.374219   2.364653   2.713187   2.399915
    19  H    1.014507   2.061549   2.976594   4.200207   4.740686
    20  H    2.637713   2.129711   1.098720   2.156542   3.410095
    21  H    4.556599   3.369569   2.135204   1.083623   2.096889
    22  H    8.362193   6.971315   6.441824   5.125560   4.175969
    23  H    9.891671   8.555271   8.328473   7.121694   5.927707
    24  H   10.318616   9.171198   9.389632   8.457307   7.097627
    25  H    7.374625   6.343347   6.823330   6.165271   4.806419
    26  H    2.661616   2.148794   3.359453   3.786972   3.346411
                    6          7          8          9         10
     6  C    0.000000
     7  O    1.259886   0.000000
     8  C    1.460024   2.334983   0.000000
     9  C    2.487710   2.796089   1.374743   0.000000
    10  C    3.770112   4.188212   2.418475   1.392569   0.000000
    11  C    4.245874   4.983478   2.786260   2.389101   1.381168
    12  O    5.626885   6.332485   4.167048   3.639994   2.367056
    13  C    3.700813   4.707991   2.374465   2.714449   2.371815
    14  C    2.422745   3.558683   1.378916   2.387009   2.802783
    15  C    2.815757   4.075633   2.480288   3.735736   4.260630
    16  O    4.070576   5.330462   3.619607   4.756283   5.016102
    17  C    2.472574   3.613207   2.928900   4.303639   5.173389
    18  C    3.743924   4.766445   4.312415   5.687123   6.523451
    19  H    6.180462   6.906192   7.037371   8.389544   9.325561
    20  H    4.639067   4.877634   5.933646   7.123336   8.348013
    21  H    2.639200   2.470101   4.093220   5.039129   6.380333
    22  H    2.724555   2.516893   2.133774   1.078829   2.122387
    23  H    4.642929   4.845055   3.399117   2.156462   1.089361
    24  H    6.251904   6.942372   4.809114   4.262007   2.988969
    25  H    4.522521   5.620912   3.319582   3.775029   3.340304
    26  H    4.569636   5.682134   4.878832   6.230488   6.885657
                   11         12         13         14         15
    11  C    0.000000
    12  O    1.381263   0.000000
    13  C    1.376913   2.429006   0.000000
    14  C    2.441582   3.719473   1.400553   0.000000
    15  C    3.766789   4.913763   2.485275   1.458181   0.000000
    16  O    4.210782   5.108393   2.833892   2.369644   1.254925
    17  C    4.970653   6.219033   3.810154   2.529466   1.452561
    18  C    6.210355   7.385646   4.956792   3.799285   2.472107
    19  H    9.061244  10.221568   7.807145   6.660477   5.347005
    20  H    8.529499   9.865997   7.541064   6.163022   5.296062
    21  H    6.870853   8.251645   6.182973   4.802148   4.520918
    22  H    3.354488   4.487571   3.793065   3.366913   4.611270
    23  H    2.154070   2.603518   3.369781   3.891877   5.349865
    24  H    2.121961   1.011577   3.059130   4.345819   5.482220
    25  H    2.120958   2.684901   1.061022   2.101723   2.638623
    26  H    6.360987   7.408073   5.021982   4.084846   2.633053
                   16         17         18         19         20
    16  O    0.000000
    17  C    2.320319   0.000000
    18  C    2.756732   1.383642   0.000000
    19  H    5.404729   4.207745   2.947965   0.000000
    20  H    5.990299   3.843532   3.351906   3.069754   0.000000
    21  H    5.608465   3.318139   3.796382   5.052571   2.507987
    22  H    5.712959   4.939026   6.306692   8.866561   7.263594
    23  H    6.087581   6.232813   7.593012  10.374467   9.273272
    24  H    5.599101   6.799903   7.933348  10.817496  10.453356
    25  H    2.480765   4.084802   5.017873   7.791726   7.921512
    26  H    2.393932   2.097521   1.075077   3.092710   4.263301
                   21         22         23         24         25
    21  H    0.000000
    22  H    4.963258   0.000000
    23  H    7.179821   2.443097   0.000000
    24  H    8.859951   5.060330   3.077011   0.000000
    25  H    6.847707   4.853777   4.258470   3.183392   0.000000
    26  H    4.869555   6.968576   7.973595   7.913692   4.853743
                   26
    26  H    0.000000
 Symmetry turned off by external request.
 Stoichiometry    C14H8O4
 Framework group  C1[X(C14H8O4)]
 Deg. of freedom    72
 Full point group                 C1      NOp   1
 Rotational constants (GHZ):           1.0187606           0.2636266           0.2096896
 Leave Link  202 at Thu Dec 21 18:53:14 2023, MaxMem=  4026531840 cpu:               0.7 elap:               0.3
 (Enter /sysapps/ubuntu-applications/gaussian/Gaussian/AVX2/g16/l301.exe)
 Standard basis: 6-311++G(d,p) (5D, 7F)
 Ernie: Thresh=  0.10000D-02 Tol=  0.10000D-05 Strict=F.
   452 basis functions,   720 primitive gaussians,   470 cartesian basis functions
    62 alpha electrons       62 beta electrons
       nuclear repulsion energy      1206.1766860726 Hartrees.
 IExCor=  402 DFT=T Ex+Corr=B3LYP ExCW=0 ScaHFX=  0.200000
 ScaDFX=  0.800000  0.720000  1.000000  0.810000 ScalE2=  1.000000  1.000000
 IRadAn=      5 IRanWt=     -1 IRanGd=            0 ICorTp=0 IEmpDi=  4
 NAtoms=   26 NActive=   26 NUniq=   26 SFac= 1.00D+00 NAtFMM=   60 NAOKFM=F Big=F
 Integral buffers will be    131072 words long.
 Raffenetti 2 integral format.
 Two-electron integral symmetry is turned off.
 Leave Link  301 at Thu Dec 21 18:53:14 2023, MaxMem=  4026531840 cpu:               1.2 elap:               0.3
 (Enter /sysapps/ubuntu-applications/gaussian/Gaussian/AVX2/g16/l302.exe)
 NPDir=0 NMtPBC=     1 NCelOv=     1 NCel=       1 NClECP=     1 NCelD=      1
         NCelK=      1 NCelE2=     1 NClLst=     1 CellRange=     0.0.
 One-electron integrals computed using PRISM.
 NBasis=   452 RedAO= T EigKep=  1.45D-06  NBF=   452
 NBsUse=   445 1.00D-06 EigRej=  8.10D-07 NBFU=   445
 Precomputing XC quadrature grid using
 IXCGrd= 4 IRadAn=           5 IRanWt=          -1 IRanGd=           0 AccXCQ= 0.00D+00.
 Generated NRdTot=       0 NPtTot=           0 NUsed=           0 NTot=          32
 NSgBfM=   467   467   467   467   467 MxSgAt=    26 MxSgA2=    26.
 Leave Link  302 at Thu Dec 21 18:53:15 2023, MaxMem=  4026531840 cpu:               5.7 elap:               0.9
 (Enter /sysapps/ubuntu-applications/gaussian/Gaussian/AVX2/g16/l303.exe)
 DipDrv:  MaxL=1.
 Leave Link  303 at Thu Dec 21 18:53:16 2023, MaxMem=  4026531840 cpu:               1.2 elap:               0.3
 (Enter /sysapps/ubuntu-applications/gaussian/Gaussian/AVX2/g16/l401.exe)
 ExpMin= 3.60D-02 ExpMax= 8.59D+03 ExpMxC= 1.30D+03 IAcc=3 IRadAn=         5 AccDes= 0.00D+00
 Harris functional with IExCor=  402 and IRadAn=       5 diagonalized for initial guess.
 HarFok:  IExCor=  402 AccDes= 0.00D+00 IRadAn=         5 IDoV= 1 UseB2=F ITyADJ=14
 ICtDFT=  3500011 ScaDFX=  1.000000  1.000000  1.000000  1.000000
 FoFCou: FMM=F IPFlag=           0 FMFlag=      100000 FMFlg1=           0
         NFxFlg=           0 DoJE=T BraDBF=F KetDBF=T FulRan=T
         wScrn=  0.000000 ICntrl=       500 IOpCl=  0 I1Cent=   200000004 NGrid=           0
         NMat0=    1 NMatS0=      1 NMatT0=    0 NMatD0=    1 NMtDS0=    0 NMtDT0=    0
 Symmetry not used in FoFCou.
 Harris En= -839.453679559782    
 JPrj=0 DoOrth=F DoCkMO=F.
 Initial guess <Sx>= 0.0000 <Sy>= 0.0000 <Sz>= 0.0000 <S**2>=-0.0000 S=-0.0000
 Leave Link  401 at Thu Dec 21 18:53:20 2023, MaxMem=  4026531840 cpu:              28.7 elap:               3.7
 (Enter /sysapps/ubuntu-applications/gaussian/Gaussian/AVX2/g16/l502.exe)
 Two-electron integral symmetry not used.
 UHF open shell SCF:
 Using DIIS extrapolation, IDIIS=  1040.
 NGot=  4026531840 LenX=  4026083004 LenY=  4025861634
 Requested convergence on RMS density matrix=1.00D-08 within 128 cycles.
 Requested convergence on MAX density matrix=1.00D-06.
 Requested convergence on             energy=1.00D-06.
 No special actions if energy rises.
 Fock matrices will be formed incrementally for  20 cycles.

 Cycle   1  Pass 1  IDiag  1:
 FoFJK:  IHMeth= 1 ICntrl=       0 DoSepK=F KAlg= 0 I1Cent=           0 FoldK=F
 IRaf= 850000000 NMat=       1 IRICut=       1 DoRegI=T DoRafI=F ISym2E= 0 IDoP0=0 IntGTp=1.
 FoFCou: FMM=F IPFlag=           0 FMFlag=      100000 FMFlg1=           0
         NFxFlg=           0 DoJE=F BraDBF=F KetDBF=F FulRan=T
         wScrn=  0.000000 ICntrl=         0 IOpCl=  1 I1Cent=           0 NGrid=           0
         NMat0=    1 NMatS0=      1 NMatT0=    0 NMatD0=    1 NMtDS0=    0 NMtDT0=    0
 Symmetry not used in FoFCou.
 E= -839.005097227922    
 DIIS: error= 2.56D-02 at cycle   1 NSaved=   1.
 NSaved= 1 IEnMin= 1 EnMin= -839.005097227922     IErMin= 1 ErrMin= 2.56D-02
 ErrMax= 2.56D-02  0.00D+00 EMaxC= 1.00D-01 BMatC= 2.13D+00 BMatP= 2.13D+00
 IDIUse=3 WtCom= 7.44D-01 WtEn= 2.56D-01
 Coeff-Com:  0.100D+01
 Coeff-En:   0.100D+01
 Coeff:      0.100D+01
 Gap=     0.146 Goal=   None    Shift=    0.000
 Gap=     0.146 Goal=   None    Shift=    0.000
 GapD=    0.146 DampG=1.000 DampE=0.500 DampFc=0.5000 IDamp=-1.
 Damping current iteration by 5.00D-01
 RMSDP=1.91D-02 MaxDP=1.43D+00              OVMax= 2.64D-01

 Cycle   2  Pass 1  IDiag  1:
 RMSU=  9.04D-03    CP:  1.06D+00
 E= -839.120256662592     Delta-E=       -0.115159434670 Rises=F Damp=T
 DIIS: error= 1.73D-02 at cycle   2 NSaved=   2.
 NSaved= 2 IEnMin= 2 EnMin= -839.120256662592     IErMin= 2 ErrMin= 1.73D-02
 ErrMax= 1.73D-02  0.00D+00 EMaxC= 1.00D-01 BMatC= 3.44D-01 BMatP= 2.13D+00
 IDIUse=3 WtCom= 8.27D-01 WtEn= 1.73D-01
 Coeff-Com:  0.200D+00 0.800D+00
 Coeff-En:   0.328D+00 0.672D+00
 Coeff:      0.222D+00 0.778D+00
 Gap=     0.169 Goal=   None    Shift=    0.000
 Gap=     0.169 Goal=   None    Shift=    0.000
 RMSDP=1.10D-02 MaxDP=7.20D-01 DE=-1.15D-01 OVMax= 3.08D-01

 Cycle   3  Pass 1  IDiag  1:
 RMSU=  9.85D-03    CP:  1.04D+00  4.80D-01
 E= -839.324222081918     Delta-E=       -0.203965419326 Rises=F Damp=F
 DIIS: error= 2.31D-02 at cycle   3 NSaved=   3.
 NSaved= 3 IEnMin= 3 EnMin= -839.324222081918     IErMin= 2 ErrMin= 1.73D-02
 ErrMax= 2.31D-02  0.00D+00 EMaxC= 1.00D-01 BMatC= 4.10D-01 BMatP= 3.44D-01
 IDIUse=2 WtCom= 0.00D+00 WtEn= 1.00D+00
 Coeff-En:   0.000D+00 0.000D+00 0.100D+01
 Coeff:      0.000D+00 0.000D+00 0.100D+01
 Gap=     0.175 Goal=   None    Shift=    0.000
 Gap=     0.175 Goal=   None    Shift=    0.000
 RMSDP=1.43D-02 MaxDP=8.40D-01 DE=-2.04D-01 OVMax= 3.09D-01

 Cycle   4  Pass 1  IDiag  1:
 RMSU=  6.45D-03    CP:  1.05D+00  1.37D+00 -4.70D-03
 E= -838.770580900261     Delta-E=        0.553641181656 Rises=F Damp=F
 DIIS: error= 6.46D-02 at cycle   4 NSaved=   4.
 NSaved= 4 IEnMin= 3 EnMin= -839.324222081918     IErMin= 2 ErrMin= 1.73D-02
 ErrMax= 6.46D-02  0.00D+00 EMaxC= 1.00D-01 BMatC= 3.14D+00 BMatP= 3.44D-01
 IDIUse=2 WtCom= 0.00D+00 WtEn= 1.00D+00
 Coeff-En:   0.000D+00 0.000D+00 0.821D+00 0.179D+00
 Coeff:      0.000D+00 0.000D+00 0.821D+00 0.179D+00
 Gap=     0.123 Goal=   None    Shift=    0.000
 Gap=     0.123 Goal=   None    Shift=    0.000
 RMSDP=8.14D-03 MaxDP=3.97D-01 DE= 5.54D-01 OVMax= 1.56D-01

 Cycle   5  Pass 1  IDiag  1:
 RMSU=  9.10D-04    CP:  1.03D+00  8.12D-01  5.18D-01  4.80D-01
 E= -839.354634937047     Delta-E=       -0.584054036786 Rises=F Damp=F
 DIIS: error= 1.99D-02 at cycle   5 NSaved=   5.
 NSaved= 5 IEnMin= 5 EnMin= -839.354634937047     IErMin= 2 ErrMin= 1.73D-02
 ErrMax= 1.99D-02  0.00D+00 EMaxC= 1.00D-01 BMatC= 2.77D-01 BMatP= 3.44D-01
 IDIUse=3 WtCom= 8.01D-01 WtEn= 1.99D-01
 Coeff-Com:  0.395D-02 0.329D-01 0.341D+00-0.102D+00 0.724D+00
 Coeff-En:   0.000D+00 0.000D+00 0.424D+00 0.000D+00 0.576D+00
 Coeff:      0.316D-02 0.264D-01 0.357D+00-0.816D-01 0.695D+00
 Gap=     0.151 Goal=   None    Shift=    0.000
 Gap=     0.151 Goal=   None    Shift=    0.000
 RMSDP=3.18D-03 MaxDP=1.76D-01 DE=-5.84D-01 OVMax= 7.23D-02

 Cycle   6  Pass 1  IDiag  1:
 RMSU=  3.85D-04    CP:  1.01D+00  6.17D-01  7.06D-01  2.47D-01  7.37D-01
 E= -839.411225050376     Delta-E=       -0.056590113329 Rises=F Damp=F
 DIIS: error= 6.90D-04 at cycle   6 NSaved=   6.
 NSaved= 6 IEnMin= 6 EnMin= -839.411225050376     IErMin= 6 ErrMin= 6.90D-04
 ErrMax= 6.90D-04  0.00D+00 EMaxC= 1.00D-01 BMatC= 5.18D-04 BMatP= 2.77D-01
 IDIUse=3 WtCom= 9.93D-01 WtEn= 6.90D-03
 Coeff-Com: -0.883D-03 0.133D-01 0.151D+00-0.554D-01 0.361D+00 0.531D+00
 Coeff-En:   0.000D+00 0.000D+00 0.000D+00 0.000D+00 0.000D+00 0.100D+01
 Coeff:     -0.877D-03 0.132D-01 0.150D+00-0.550D-01 0.358D+00 0.535D+00
 Gap=     0.149 Goal=   None    Shift=    0.000
 Gap=     0.149 Goal=   None    Shift=    0.000
 RMSDP=2.07D-04 MaxDP=1.97D-02 DE=-5.66D-02 OVMax= 3.91D-03

 Cycle   7  Pass 1  IDiag  1:
 RMSU=  1.22D-04    CP:  1.01D+00  6.30D-01  7.02D-01  2.52D-01  7.99D-01
                    CP:  7.80D-01
 E= -839.411295925194     Delta-E=       -0.000070874817 Rises=F Damp=F
 DIIS: error= 4.87D-04 at cycle   7 NSaved=   7.
 NSaved= 7 IEnMin= 7 EnMin= -839.411295925194     IErMin= 7 ErrMin= 4.87D-04
 ErrMax= 4.87D-04  0.00D+00 EMaxC= 1.00D-01 BMatC= 1.63D-04 BMatP= 5.18D-04
 IDIUse=3 WtCom= 9.95D-01 WtEn= 4.87D-03
 Coeff-Com: -0.364D-03 0.124D-02 0.414D-01-0.162D-01 0.101D+00 0.340D+00
 Coeff-Com:  0.533D+00
 Coeff-En:   0.000D+00 0.000D+00 0.000D+00 0.000D+00 0.000D+00 0.267D+00
 Coeff-En:   0.733D+00
 Coeff:     -0.362D-03 0.123D-02 0.412D-01-0.161D-01 0.100D+00 0.340D+00
 Coeff:      0.534D+00
 Gap=     0.149 Goal=   None    Shift=    0.000
 Gap=     0.149 Goal=   None    Shift=    0.000
 RMSDP=8.83D-05 MaxDP=6.05D-03 DE=-7.09D-05 OVMax= 2.30D-03

 Cycle   8  Pass 1  IDiag  1:
 RMSU=  4.48D-05    CP:  1.01D+00  6.27D-01  7.07D-01  2.52D-01  7.84D-01
                    CP:  7.96D-01  6.70D-01
 E= -839.411321411289     Delta-E=       -0.000025486095 Rises=F Damp=F
 DIIS: error= 1.70D-04 at cycle   8 NSaved=   8.
 NSaved= 8 IEnMin= 8 EnMin= -839.411321411289     IErMin= 8 ErrMin= 1.70D-04
 ErrMax= 1.70D-04  0.00D+00 EMaxC= 1.00D-01 BMatC= 3.00D-05 BMatP= 1.63D-04
 IDIUse=3 WtCom= 9.98D-01 WtEn= 1.70D-03
 Coeff-Com:  0.817D-04-0.128D-02 0.114D-01-0.384D-02 0.241D-01 0.179D+00
 Coeff-Com:  0.385D+00 0.406D+00
 Coeff-En:   0.000D+00 0.000D+00 0.000D+00 0.000D+00 0.000D+00 0.000D+00
 Coeff-En:   0.925D-01 0.908D+00
 Coeff:      0.816D-04-0.127D-02 0.114D-01-0.384D-02 0.241D-01 0.178D+00
 Coeff:      0.385D+00 0.406D+00
 Gap=     0.149 Goal=   None    Shift=    0.000
 Gap=     0.149 Goal=   None    Shift=    0.000
 RMSDP=2.58D-05 MaxDP=1.51D-03 DE=-2.55D-05 OVMax= 8.01D-04

 Cycle   9  Pass 1  IDiag  1:
 RMSU=  1.10D-05    CP:  1.01D+00  6.26D-01  7.08D-01  2.52D-01  7.81D-01
                    CP:  7.96D-01  6.68D-01  5.39D-01
 E= -839.411327303911     Delta-E=       -0.000005892623 Rises=F Damp=F
 DIIS: error= 2.61D-05 at cycle   9 NSaved=   9.
 NSaved= 9 IEnMin= 9 EnMin= -839.411327303911     IErMin= 9 ErrMin= 2.61D-05
 ErrMax= 2.61D-05  0.00D+00 EMaxC= 1.00D-01 BMatC= 6.96D-07 BMatP= 3.00D-05
 IDIUse=1 WtCom= 1.00D+00 WtEn= 0.00D+00
 Coeff-Com:  0.117D-03-0.717D-03 0.197D-02-0.494D-03 0.296D-02 0.507D-01
 Coeff-Com:  0.123D+00 0.188D+00 0.634D+00
 Coeff:      0.117D-03-0.717D-03 0.197D-02-0.494D-03 0.296D-02 0.507D-01
 Coeff:      0.123D+00 0.188D+00 0.634D+00
 Gap=     0.149 Goal=   None    Shift=    0.000
 Gap=     0.149 Goal=   None    Shift=    0.000
 RMSDP=9.02D-06 MaxDP=6.42D-04 DE=-5.89D-06 OVMax= 1.73D-04

 Cycle  10  Pass 1  IDiag  1:
 RMSU=  3.76D-06    CP:  1.01D+00  6.26D-01  7.08D-01  2.52D-01  7.80D-01
                    CP:  8.04D-01  6.67D-01  5.06D-01  7.16D-01
 E= -839.411327433832     Delta-E=       -0.000000129921 Rises=F Damp=F
 DIIS: error= 9.69D-06 at cycle  10 NSaved=  10.
 NSaved=10 IEnMin=10 EnMin= -839.411327433832     IErMin=10 ErrMin= 9.69D-06
 ErrMax= 9.69D-06  0.00D+00 EMaxC= 1.00D-01 BMatC= 1.53D-07 BMatP= 6.96D-07
 IDIUse=1 WtCom= 1.00D+00 WtEn= 0.00D+00
 Coeff-Com:  0.657D-04-0.275D-03-0.191D-03 0.142D-03-0.118D-02 0.126D-01
 Coeff-Com:  0.382D-01 0.773D-01 0.393D+00 0.480D+00
 Coeff:      0.657D-04-0.275D-03-0.191D-03 0.142D-03-0.118D-02 0.126D-01
 Coeff:      0.382D-01 0.773D-01 0.393D+00 0.480D+00
 Gap=     0.149 Goal=   None    Shift=    0.000
 Gap=     0.149 Goal=   None    Shift=    0.000
 RMSDP=2.55D-06 MaxDP=1.68D-04 DE=-1.30D-07 OVMax= 8.17D-05

 Cycle  11  Pass 1  IDiag  1:
 RMSU=  1.62D-06    CP:  1.01D+00  6.26D-01  7.08D-01  2.52D-01  7.80D-01
                    CP:  8.03D-01  6.65D-01  5.18D-01  7.35D-01  8.28D-01
 E= -839.411327470055     Delta-E=       -0.000000036223 Rises=F Damp=F
 DIIS: error= 2.41D-06 at cycle  11 NSaved=  11.
 NSaved=11 IEnMin=11 EnMin= -839.411327470055     IErMin=11 ErrMin= 2.41D-06
 ErrMax= 2.41D-06  0.00D+00 EMaxC= 1.00D-01 BMatC= 1.14D-08 BMatP= 1.53D-07
 IDIUse=1 WtCom= 1.00D+00 WtEn= 0.00D+00
 Coeff-Com:  0.193D-04-0.492D-04-0.302D-03 0.100D-03-0.842D-03 0.166D-02
 Coeff-Com:  0.789D-02 0.239D-01 0.153D+00 0.268D+00 0.547D+00
 Coeff:      0.193D-04-0.492D-04-0.302D-03 0.100D-03-0.842D-03 0.166D-02
 Coeff:      0.789D-02 0.239D-01 0.153D+00 0.268D+00 0.547D+00
 Gap=     0.149 Goal=   None    Shift=    0.000
 Gap=     0.149 Goal=   None    Shift=    0.000
 RMSDP=8.48D-07 MaxDP=3.49D-05 DE=-3.62D-08 OVMax= 2.08D-05

 Cycle  12  Pass 1  IDiag  1:
 RMSU=  3.54D-07    CP:  1.01D+00  6.26D-01  7.08D-01  2.52D-01  7.81D-01
                    CP:  8.02D-01  6.67D-01  5.22D-01  7.46D-01  8.09D-01
                    CP:  7.18D-01
 E= -839.411327472729     Delta-E=       -0.000000002674 Rises=F Damp=F
 DIIS: error= 1.15D-06 at cycle  12 NSaved=  12.
 NSaved=12 IEnMin=12 EnMin= -839.411327472729     IErMin=12 ErrMin= 1.15D-06
 ErrMax= 1.15D-06  0.00D+00 EMaxC= 1.00D-01 BMatC= 1.65D-09 BMatP= 1.14D-08
 IDIUse=1 WtCom= 1.00D+00 WtEn= 0.00D+00
 Coeff-Com:  0.183D-05-0.330D-05-0.156D-03 0.506D-04-0.359D-03-0.285D-03
 Coeff-Com:  0.472D-03 0.528D-02 0.419D-01 0.990D-01 0.321D+00 0.533D+00
 Coeff:      0.183D-05-0.330D-05-0.156D-03 0.506D-04-0.359D-03-0.285D-03
 Coeff:      0.472D-03 0.528D-02 0.419D-01 0.990D-01 0.321D+00 0.533D+00
 Gap=     0.149 Goal=   None    Shift=    0.000
 Gap=     0.149 Goal=   None    Shift=    0.000
 RMSDP=2.01D-07 MaxDP=8.26D-06 DE=-2.67D-09 OVMax= 5.27D-06

 Cycle  13  Pass 1  IDiag  1:
 RMSU=  1.01D-07    CP:  1.01D+00  6.26D-01  7.08D-01  2.52D-01  7.81D-01
                    CP:  8.02D-01  6.67D-01  5.23D-01  7.50D-01  8.05D-01
                    CP:  7.05D-01  6.83D-01
 E= -839.411327473105     Delta-E=       -0.000000000376 Rises=F Damp=F
 DIIS: error= 3.59D-07 at cycle  13 NSaved=  13.
 NSaved=13 IEnMin=13 EnMin= -839.411327473105     IErMin=13 ErrMin= 3.59D-07
 ErrMax= 3.59D-07  0.00D+00 EMaxC= 1.00D-01 BMatC= 1.72D-10 BMatP= 1.65D-09
 IDIUse=1 WtCom= 1.00D+00 WtEn= 0.00D+00
 Coeff-Com: -0.233D-05 0.447D-05-0.419D-04 0.124D-04-0.670D-04-0.296D-03
 Coeff-Com: -0.663D-03 0.695D-04 0.454D-02 0.217D-01 0.105D+00 0.240D+00
 Coeff-Com:  0.630D+00
 Coeff:     -0.233D-05 0.447D-05-0.419D-04 0.124D-04-0.670D-04-0.296D-03
 Coeff:     -0.663D-03 0.695D-04 0.454D-02 0.217D-01 0.105D+00 0.240D+00
 Coeff:      0.630D+00
 Gap=     0.149 Goal=   None    Shift=    0.000
 Gap=     0.149 Goal=   None    Shift=    0.000
 RMSDP=7.89D-08 MaxDP=5.55D-06 DE=-3.76D-10 OVMax= 1.97D-06

 Cycle  14  Pass 1  IDiag  1:
 RMSU=  4.23D-08    CP:  1.01D+00  6.26D-01  7.08D-01  2.52D-01  7.81D-01
                    CP:  8.02D-01  6.67D-01  5.23D-01  7.49D-01  8.06D-01
                    CP:  7.16D-01  6.99D-01  9.17D-01
 E= -839.411327473113     Delta-E=       -0.000000000008 Rises=F Damp=F
 DIIS: error= 1.73D-07 at cycle  14 NSaved=  14.
 NSaved=14 IEnMin=14 EnMin= -839.411327473113     IErMin=14 ErrMin= 1.73D-07
 ErrMax= 1.73D-07  0.00D+00 EMaxC= 1.00D-01 BMatC= 3.04D-11 BMatP= 1.72D-10
 IDIUse=1 WtCom= 1.00D+00 WtEn= 0.00D+00
 Coeff-Com: -0.179D-05 0.314D-05-0.137D-04 0.440D-05-0.135D-04-0.157D-03
 Coeff-Com: -0.450D-03-0.527D-03-0.226D-02 0.102D-02 0.240D-01 0.750D-01
 Coeff-Com:  0.390D+00 0.514D+00
 Coeff:     -0.179D-05 0.314D-05-0.137D-04 0.440D-05-0.135D-04-0.157D-03
 Coeff:     -0.450D-03-0.527D-03-0.226D-02 0.102D-02 0.240D-01 0.750D-01
 Coeff:      0.390D+00 0.514D+00
 Gap=     0.149 Goal=   None    Shift=    0.000
 Gap=     0.149 Goal=   None    Shift=    0.000
 RMSDP=4.51D-08 MaxDP=2.76D-06 DE=-7.73D-12 OVMax= 1.20D-06

 Cycle  15  Pass 1  IDiag  1:
 RMSU=  1.26D-08    CP:  1.01D+00  6.26D-01  7.08D-01  2.52D-01  7.81D-01
                    CP:  8.02D-01  6.67D-01  5.23D-01  7.49D-01  8.10D-01
                    CP:  7.21D-01  7.08D-01  9.20D-01  6.90D-01
 E= -839.411327473119     Delta-E=       -0.000000000006 Rises=F Damp=F
 DIIS: error= 5.23D-08 at cycle  15 NSaved=  15.
 NSaved=15 IEnMin=15 EnMin= -839.411327473119     IErMin=15 ErrMin= 5.23D-08
 ErrMax= 5.23D-08  0.00D+00 EMaxC= 1.00D-01 BMatC= 3.59D-12 BMatP= 3.04D-11
 IDIUse=1 WtCom= 1.00D+00 WtEn= 0.00D+00
 Coeff-Com: -0.911D-06 0.206D-05-0.261D-05 0.203D-06 0.401D-05-0.716D-04
 Coeff-Com: -0.228D-03-0.381D-03-0.214D-02-0.239D-02 0.145D-03 0.120D-01
 Coeff-Com:  0.144D+00 0.316D+00 0.533D+00
 Coeff:     -0.911D-06 0.206D-05-0.261D-05 0.203D-06 0.401D-05-0.716D-04
 Coeff:     -0.228D-03-0.381D-03-0.214D-02-0.239D-02 0.145D-03 0.120D-01
 Coeff:      0.144D+00 0.316D+00 0.533D+00
 Gap=     0.149 Goal=   None    Shift=    0.000
 Gap=     0.149 Goal=   None    Shift=    0.000
 RMSDP=1.27D-08 MaxDP=8.35D-07 DE=-6.14D-12 OVMax= 3.34D-07

 Cycle  16  Pass 1  IDiag  1:
 RMSU=  3.67D-09    CP:  1.01D+00  6.26D-01  7.08D-01  2.52D-01  7.81D-01
                    CP:  8.02D-01  6.67D-01  5.23D-01  7.49D-01  8.09D-01
                    CP:  7.21D-01  7.14D-01  9.22D-01  7.56D-01  8.44D-01
 E= -839.411327473120     Delta-E=       -0.000000000001 Rises=F Damp=F
 DIIS: error= 5.86D-09 at cycle  16 NSaved=  16.
 NSaved=16 IEnMin=16 EnMin= -839.411327473120     IErMin=16 ErrMin= 5.86D-09
 ErrMax= 5.86D-09  0.00D+00 EMaxC= 1.00D-01 BMatC= 7.54D-14 BMatP= 3.59D-12
 IDIUse=1 WtCom= 1.00D+00 WtEn= 0.00D+00
 Coeff-Com: -0.152D-06 0.363D-06 0.194D-06-0.176D-06 0.227D-05-0.116D-04
 Coeff-Com: -0.409D-04-0.902D-04-0.596D-03-0.106D-02-0.236D-02-0.276D-02
 Coeff-Com:  0.161D-01 0.710D-01 0.199D+00 0.721D+00
 Coeff:     -0.152D-06 0.363D-06 0.194D-06-0.176D-06 0.227D-05-0.116D-04
 Coeff:     -0.409D-04-0.902D-04-0.596D-03-0.106D-02-0.236D-02-0.276D-02
 Coeff:      0.161D-01 0.710D-01 0.199D+00 0.721D+00
 Gap=     0.149 Goal=   None    Shift=    0.000
 Gap=     0.149 Goal=   None    Shift=    0.000
 RMSDP=3.35D-09 MaxDP=2.20D-07 DE=-6.82D-13 OVMax= 4.37D-08

 SCF Done:  E(UB3LYP) =  -839.411327473     A.U. after   16 cycles
            NFock= 16  Conv=0.34D-08     -V/T= 2.0035
 <Sx>= 0.0000 <Sy>= 0.0000 <Sz>= 0.0000 <S**2>=-0.0000 S=-0.0000
 <L.S>=  0.00000000000    
 KE= 8.364682888046D+02 PE=-4.373353203848D+03 EE= 1.491296901497D+03
 Annihilation of the first spin contaminant:
 S**2 before annihilation    -0.0000,   after     0.0000
 Leave Link  502 at Thu Dec 21 18:58:24 2023, MaxMem=  4026531840 cpu:            2373.4 elap:             304.1
 (Enter /sysapps/ubuntu-applications/gaussian/Gaussian/AVX2/g16/l601.exe)
 Copying SCF densities to generalized density rwf, IOpCl= 1 IROHF=0.

 **********************************************************************

            Population analysis using the SCF density.

 **********************************************************************

 Alpha  occ. eigenvalues --  -19.16502 -19.16283 -19.12519 -19.12175 -10.27931
 Alpha  occ. eigenvalues --  -10.27730 -10.26358 -10.26146 -10.21203 -10.20793
 Alpha  occ. eigenvalues --  -10.20595 -10.20558 -10.20355 -10.20248 -10.20186
 Alpha  occ. eigenvalues --  -10.19936 -10.19802 -10.19584  -1.05985  -1.05841
 Alpha  occ. eigenvalues --   -1.04588  -1.03873  -0.90809  -0.89511  -0.82524
 Alpha  occ. eigenvalues --   -0.78775  -0.78517  -0.77939  -0.69978  -0.68546
 Alpha  occ. eigenvalues --   -0.65698  -0.63654  -0.60038  -0.59207  -0.58593
 Alpha  occ. eigenvalues --   -0.54263  -0.53784  -0.51721  -0.50048  -0.47757
 Alpha  occ. eigenvalues --   -0.46993  -0.46403  -0.45408  -0.45110  -0.44338
 Alpha  occ. eigenvalues --   -0.43998  -0.43656  -0.42564  -0.40720  -0.40350
 Alpha  occ. eigenvalues --   -0.39181  -0.38518  -0.37096  -0.35420  -0.32664
 Alpha  occ. eigenvalues --   -0.32567  -0.28866  -0.28731  -0.28089  -0.27630
 Alpha  occ. eigenvalues --   -0.27495  -0.27216
 Alpha virt. eigenvalues --   -0.12274  -0.08082  -0.04213  -0.03296  -0.02603
 Alpha virt. eigenvalues --   -0.01878   0.00116   0.00670   0.01320   0.02890
 Alpha virt. eigenvalues --    0.03134   0.03474   0.03919   0.04093   0.04966
 Alpha virt. eigenvalues --    0.05340   0.05601   0.05662   0.06715   0.07669
 Alpha virt. eigenvalues --    0.08161   0.08296   0.08976   0.09315   0.09530
 Alpha virt. eigenvalues --    0.10068   0.10620   0.11116   0.11471   0.11611
 Alpha virt. eigenvalues --    0.12001   0.12389   0.12483   0.12804   0.13136
 Alpha virt. eigenvalues --    0.13621   0.14050   0.14410   0.14946   0.15151
 Alpha virt. eigenvalues --    0.15543   0.15871   0.16034   0.16431   0.17066
 Alpha virt. eigenvalues --    0.17493   0.18118   0.18270   0.18797   0.18958
 Alpha virt. eigenvalues --    0.19417   0.19755   0.20506   0.20960   0.21185
 Alpha virt. eigenvalues --    0.21591   0.22089   0.22234   0.22903   0.23340
 Alpha virt. eigenvalues --    0.23365   0.24178   0.24831   0.25093   0.25459
 Alpha virt. eigenvalues --    0.25720   0.26198   0.26312   0.27412   0.28160
 Alpha virt. eigenvalues --    0.28232   0.28798   0.29606   0.29920   0.30287
 Alpha virt. eigenvalues --    0.30820   0.31108   0.31451   0.31674   0.31736
 Alpha virt. eigenvalues --    0.32188   0.32649   0.33063   0.33286   0.34233
 Alpha virt. eigenvalues --    0.34405   0.34632   0.34788   0.35422   0.36063
 Alpha virt. eigenvalues --    0.36442   0.37225   0.37860   0.38209   0.39286
 Alpha virt. eigenvalues --    0.39437   0.40569   0.42036   0.42498   0.43025
 Alpha virt. eigenvalues --    0.44251   0.46860   0.47718   0.49332   0.50232
 Alpha virt. eigenvalues --    0.50348   0.50639   0.52117   0.53117   0.53793
 Alpha virt. eigenvalues --    0.54005   0.55038   0.56524   0.57114   0.57171
 Alpha virt. eigenvalues --    0.57714   0.58069   0.59413   0.60220   0.60735
 Alpha virt. eigenvalues --    0.61691   0.62043   0.63122   0.63554   0.64079
 Alpha virt. eigenvalues --    0.64791   0.65246   0.65672   0.66141   0.66438
 Alpha virt. eigenvalues --    0.67423   0.69645   0.70962   0.71386   0.72057
 Alpha virt. eigenvalues --    0.72544   0.73693   0.73997   0.76028   0.76801
 Alpha virt. eigenvalues --    0.78055   0.78678   0.79073   0.80507   0.82459
 Alpha virt. eigenvalues --    0.84898   0.85637   0.85978   0.87123   0.88173
 Alpha virt. eigenvalues --    0.89151   0.90406   0.90772   0.91470   0.91509
 Alpha virt. eigenvalues --    0.91746   0.93012   0.93217   0.94165   0.96242
 Alpha virt. eigenvalues --    0.96341   0.97072   0.98651   0.99111   1.00732
 Alpha virt. eigenvalues --    1.01735   1.01993   1.02172   1.03937   1.04673
 Alpha virt. eigenvalues --    1.04749   1.05162   1.07451   1.09048   1.10117
 Alpha virt. eigenvalues --    1.11023   1.11380   1.13245   1.14141   1.15827
 Alpha virt. eigenvalues --    1.16003   1.17477   1.18090   1.21005   1.21756
 Alpha virt. eigenvalues --    1.22551   1.23144   1.24117   1.25309   1.27843
 Alpha virt. eigenvalues --    1.29976   1.31540   1.33125   1.33913   1.34543
 Alpha virt. eigenvalues --    1.34783   1.35250   1.39400   1.41606   1.42447
 Alpha virt. eigenvalues --    1.46024   1.47979   1.48249   1.48760   1.50341
 Alpha virt. eigenvalues --    1.50563   1.51178   1.51613   1.52400   1.54078
 Alpha virt. eigenvalues --    1.55141   1.55734   1.56035   1.59216   1.60791
 Alpha virt. eigenvalues --    1.61237   1.62831   1.63237   1.64516   1.65838
 Alpha virt. eigenvalues --    1.69959   1.71479   1.71986   1.72820   1.73154
 Alpha virt. eigenvalues --    1.75037   1.75969   1.77824   1.77998   1.80200
 Alpha virt. eigenvalues --    1.81005   1.83541   1.87401   1.88073   1.88517
 Alpha virt. eigenvalues --    1.89656   1.91055   1.91828   1.92956   1.93311
 Alpha virt. eigenvalues --    1.94025   1.94602   1.95700   1.98001   1.98745
 Alpha virt. eigenvalues --    2.00151   2.00915   2.01432   2.03507   2.03790
 Alpha virt. eigenvalues --    2.05062   2.05651   2.08008   2.08336   2.13229
 Alpha virt. eigenvalues --    2.14817   2.15134   2.20333   2.20864   2.24112
 Alpha virt. eigenvalues --    2.25675   2.26636   2.31343   2.33311   2.34718
 Alpha virt. eigenvalues --    2.37086   2.38502   2.40341   2.45648   2.49054
 Alpha virt. eigenvalues --    2.52995   2.56328   2.57738   2.59624   2.60805
 Alpha virt. eigenvalues --    2.60976   2.64357   2.66580   2.67391   2.68647
 Alpha virt. eigenvalues --    2.70361   2.72634   2.73012   2.73821   2.74523
 Alpha virt. eigenvalues --    2.75617   2.76376   2.76603   2.76866   2.78289
 Alpha virt. eigenvalues --    2.79809   2.80599   2.82536   2.83306   2.85108
 Alpha virt. eigenvalues --    2.85525   2.86130   2.87378   2.91062   2.93247
 Alpha virt. eigenvalues --    2.93528   2.94314   2.96390   2.99557   3.00381
 Alpha virt. eigenvalues --    3.01821   3.02510   3.04112   3.08585   3.10045
 Alpha virt. eigenvalues --    3.12498   3.14529   3.19391   3.22079   3.23042
 Alpha virt. eigenvalues --    3.24465   3.24611   3.26508   3.29953   3.30492
 Alpha virt. eigenvalues --    3.32455   3.33647   3.36392   3.38114   3.40111
 Alpha virt. eigenvalues --    3.43149   3.45214   3.51508   3.53008   3.55251
 Alpha virt. eigenvalues --    3.55910   3.59062   3.62661   3.64249   3.65411
 Alpha virt. eigenvalues --    3.71468   3.75528   3.76544   3.80916   3.83565
 Alpha virt. eigenvalues --    3.86830   4.04223   4.07372   4.11655   4.13986
 Alpha virt. eigenvalues --    4.16541   4.20416   4.25323   4.28332   4.47118
 Alpha virt. eigenvalues --    4.80104   4.84916   4.86265   5.04627   5.05945
 Alpha virt. eigenvalues --    5.12400   5.13198   5.22653   5.24446   5.26369
 Alpha virt. eigenvalues --    5.27192   5.68744   5.72361   5.74415   5.80463
 Alpha virt. eigenvalues --   23.47912  23.62968  23.86850  23.90311  23.92639
 Alpha virt. eigenvalues --   23.94612  23.97216  23.99334  24.08051  24.10661
 Alpha virt. eigenvalues --   24.12592  24.14690  24.20055  24.23625  49.91377
 Alpha virt. eigenvalues --   49.92315  50.01722  50.06249
  Beta  occ. eigenvalues --  -19.16502 -19.16283 -19.12519 -19.12175 -10.27931
  Beta  occ. eigenvalues --  -10.27730 -10.26358 -10.26146 -10.21203 -10.20793
  Beta  occ. eigenvalues --  -10.20595 -10.20558 -10.20355 -10.20248 -10.20186
  Beta  occ. eigenvalues --  -10.19936 -10.19802 -10.19584  -1.05985  -1.05841
  Beta  occ. eigenvalues --   -1.04588  -1.03873  -0.90809  -0.89511  -0.82524
  Beta  occ. eigenvalues --   -0.78775  -0.78517  -0.77939  -0.69978  -0.68546
  Beta  occ. eigenvalues --   -0.65698  -0.63654  -0.60038  -0.59207  -0.58593
  Beta  occ. eigenvalues --   -0.54263  -0.53784  -0.51721  -0.50048  -0.47757
  Beta  occ. eigenvalues --   -0.46993  -0.46403  -0.45408  -0.45110  -0.44338
  Beta  occ. eigenvalues --   -0.43998  -0.43656  -0.42564  -0.40720  -0.40350
  Beta  occ. eigenvalues --   -0.39181  -0.38518  -0.37096  -0.35420  -0.32664
  Beta  occ. eigenvalues --   -0.32567  -0.28866  -0.28731  -0.28089  -0.27630
  Beta  occ. eigenvalues --   -0.27495  -0.27216
  Beta virt. eigenvalues --   -0.12274  -0.08082  -0.04213  -0.03296  -0.02603
  Beta virt. eigenvalues --   -0.01878   0.00116   0.00670   0.01320   0.02890
  Beta virt. eigenvalues --    0.03134   0.03474   0.03919   0.04093   0.04966
  Beta virt. eigenvalues --    0.05340   0.05601   0.05662   0.06715   0.07669
  Beta virt. eigenvalues --    0.08161   0.08296   0.08976   0.09315   0.09530
  Beta virt. eigenvalues --    0.10068   0.10620   0.11116   0.11471   0.11611
  Beta virt. eigenvalues --    0.12001   0.12389   0.12483   0.12804   0.13136
  Beta virt. eigenvalues --    0.13621   0.14050   0.14410   0.14946   0.15151
  Beta virt. eigenvalues --    0.15543   0.15871   0.16034   0.16431   0.17066
  Beta virt. eigenvalues --    0.17493   0.18118   0.18270   0.18797   0.18958
  Beta virt. eigenvalues --    0.19417   0.19755   0.20506   0.20960   0.21185
  Beta virt. eigenvalues --    0.21591   0.22089   0.22234   0.22903   0.23340
  Beta virt. eigenvalues --    0.23365   0.24178   0.24831   0.25093   0.25459
  Beta virt. eigenvalues --    0.25720   0.26198   0.26312   0.27412   0.28160
  Beta virt. eigenvalues --    0.28232   0.28798   0.29606   0.29920   0.30287
  Beta virt. eigenvalues --    0.30820   0.31108   0.31451   0.31674   0.31736
  Beta virt. eigenvalues --    0.32188   0.32649   0.33063   0.33286   0.34233
  Beta virt. eigenvalues --    0.34405   0.34632   0.34788   0.35422   0.36063
  Beta virt. eigenvalues --    0.36442   0.37225   0.37860   0.38209   0.39286
  Beta virt. eigenvalues --    0.39437   0.40569   0.42036   0.42498   0.43025
  Beta virt. eigenvalues --    0.44251   0.46860   0.47718   0.49332   0.50232
  Beta virt. eigenvalues --    0.50348   0.50639   0.52117   0.53117   0.53793
  Beta virt. eigenvalues --    0.54005   0.55038   0.56524   0.57114   0.57171
  Beta virt. eigenvalues --    0.57714   0.58069   0.59413   0.60220   0.60735
  Beta virt. eigenvalues --    0.61691   0.62043   0.63122   0.63554   0.64079
  Beta virt. eigenvalues --    0.64791   0.65246   0.65672   0.66141   0.66438
  Beta virt. eigenvalues --    0.67423   0.69645   0.70962   0.71386   0.72057
  Beta virt. eigenvalues --    0.72544   0.73693   0.73997   0.76028   0.76801
  Beta virt. eigenvalues --    0.78055   0.78678   0.79073   0.80507   0.82459
  Beta virt. eigenvalues --    0.84898   0.85637   0.85978   0.87123   0.88173
  Beta virt. eigenvalues --    0.89151   0.90406   0.90772   0.91470   0.91509
  Beta virt. eigenvalues --    0.91746   0.93012   0.93217   0.94165   0.96242
  Beta virt. eigenvalues --    0.96341   0.97072   0.98651   0.99111   1.00732
  Beta virt. eigenvalues --    1.01735   1.01993   1.02172   1.03937   1.04673
  Beta virt. eigenvalues --    1.04749   1.05162   1.07451   1.09048   1.10117
  Beta virt. eigenvalues --    1.11023   1.11380   1.13245   1.14141   1.15827
  Beta virt. eigenvalues --    1.16003   1.17477   1.18090   1.21005   1.21756
  Beta virt. eigenvalues --    1.22551   1.23144   1.24117   1.25309   1.27843
  Beta virt. eigenvalues --    1.29976   1.31540   1.33125   1.33913   1.34543
  Beta virt. eigenvalues --    1.34783   1.35250   1.39400   1.41606   1.42447
  Beta virt. eigenvalues --    1.46024   1.47979   1.48249   1.48760   1.50341
  Beta virt. eigenvalues --    1.50563   1.51178   1.51613   1.52400   1.54078
  Beta virt. eigenvalues --    1.55141   1.55734   1.56035   1.59216   1.60791
  Beta virt. eigenvalues --    1.61237   1.62831   1.63237   1.64516   1.65838
  Beta virt. eigenvalues --    1.69959   1.71479   1.71986   1.72820   1.73154
  Beta virt. eigenvalues --    1.75037   1.75969   1.77824   1.77998   1.80200
  Beta virt. eigenvalues --    1.81005   1.83541   1.87401   1.88073   1.88517
  Beta virt. eigenvalues --    1.89656   1.91055   1.91828   1.92956   1.93311
  Beta virt. eigenvalues --    1.94025   1.94602   1.95700   1.98001   1.98745
  Beta virt. eigenvalues --    2.00151   2.00915   2.01432   2.03507   2.03790
  Beta virt. eigenvalues --    2.05062   2.05651   2.08008   2.08336   2.13229
  Beta virt. eigenvalues --    2.14817   2.15134   2.20333   2.20864   2.24112
  Beta virt. eigenvalues --    2.25675   2.26636   2.31343   2.33311   2.34718
  Beta virt. eigenvalues --    2.37086   2.38502   2.40341   2.45648   2.49054
  Beta virt. eigenvalues --    2.52995   2.56328   2.57738   2.59624   2.60805
  Beta virt. eigenvalues --    2.60976   2.64357   2.66580   2.67391   2.68647
  Beta virt. eigenvalues --    2.70361   2.72634   2.73012   2.73821   2.74523
  Beta virt. eigenvalues --    2.75617   2.76376   2.76603   2.76866   2.78289
  Beta virt. eigenvalues --    2.79809   2.80599   2.82536   2.83306   2.85108
  Beta virt. eigenvalues --    2.85525   2.86130   2.87378   2.91062   2.93247
  Beta virt. eigenvalues --    2.93528   2.94314   2.96390   2.99557   3.00381
  Beta virt. eigenvalues --    3.01821   3.02510   3.04112   3.08585   3.10045
  Beta virt. eigenvalues --    3.12498   3.14529   3.19391   3.22079   3.23042
  Beta virt. eigenvalues --    3.24465   3.24611   3.26508   3.29953   3.30492
  Beta virt. eigenvalues --    3.32455   3.33647   3.36392   3.38114   3.40111
  Beta virt. eigenvalues --    3.43149   3.45214   3.51508   3.53008   3.55251
  Beta virt. eigenvalues --    3.55910   3.59062   3.62661   3.64249   3.65411
  Beta virt. eigenvalues --    3.71468   3.75528   3.76544   3.80916   3.83565
  Beta virt. eigenvalues --    3.86830   4.04223   4.07372   4.11655   4.13986
  Beta virt. eigenvalues --    4.16541   4.20416   4.25323   4.28332   4.47118
  Beta virt. eigenvalues --    4.80104   4.84916   4.86265   5.04627   5.05945
  Beta virt. eigenvalues --    5.12400   5.13198   5.22653   5.24446   5.26369
  Beta virt. eigenvalues --    5.27192   5.68744   5.72361   5.74415   5.80463
  Beta virt. eigenvalues --   23.47912  23.62968  23.86850  23.90311  23.92639
  Beta virt. eigenvalues --   23.94612  23.97216  23.99334  24.08051  24.10661
  Beta virt. eigenvalues --   24.12592  24.14690  24.20055  24.23625  49.91377
  Beta virt. eigenvalues --   49.92315  50.01722  50.06249
          Condensed to atoms (all electrons):
               1          2          3          4          5          6
     1  O    8.021135   0.467849  -0.234106  -0.038977  -0.016383  -0.003461
     2  C    0.467849  10.800019  -0.042328  -0.885580   0.073018  -0.442522
     3  C   -0.234106  -0.042328  10.355662  -0.033203  -1.997016   0.404584
     4  C   -0.038977  -0.885580  -0.033203  10.401173   1.604398  -2.147781
     5  C   -0.016383   0.073018  -1.997016   1.604398  15.527584   0.051118
     6  C   -0.003461  -0.442522   0.404584  -2.147781   0.051118   9.693683
     7  O    0.000008   0.006434   0.105703   0.238253  -0.210031   0.699665
     8  C   -0.001638  -0.026958   0.198300  -0.239613   1.974608   0.088640
     9  C   -0.000225  -0.009240  -0.168875  -0.339204  -0.027311  -2.128495
    10  C   -0.000047   0.002171  -0.048244  -0.155180   0.124738   0.538485
    11  C   -0.000033  -0.031312  -0.004403  -0.031989  -0.153456  -0.421365
    12  O   -0.000000   0.000023  -0.000077  -0.000440  -0.001901  -0.004959
    13  C   -0.000919  -0.086233  -0.065239  -0.409770  -1.908757  -1.564852
    14  C    0.001501   0.307330  -0.053095  -2.313407  -5.249427   0.871675
    15  C    0.009941   0.614115  -0.058156  -1.073159   1.389227   1.574200
    16  O   -0.000307   0.107346   0.003776  -0.043788  -0.386722  -0.025274
    17  C   -0.023941  -3.000257  -0.333437  -1.431370  -2.811795   0.891961
    18  C   -0.079178  -0.945650  -2.488364   2.399884  -2.212845  -1.580852
    19  H    0.272738   0.086658   0.013720  -0.012671   0.002699  -0.000711
    20  H   -0.021194  -0.157992   0.571775  -0.066686   0.009548   0.033039
    21  H    0.000611   0.002977  -0.185179   0.380340   0.028965   0.021857
    22  H    0.000004  -0.000933   0.002178  -0.013611  -0.050341   0.016315
    23  H   -0.000000   0.000044  -0.000297   0.001425   0.008311   0.034286
    24  H    0.000000  -0.000014  -0.000001   0.000012  -0.000267  -0.001259
    25  H   -0.000025   0.001053  -0.000877  -0.006155   0.007182  -0.013018
    26  H   -0.018611  -0.231838  -0.121788   0.063000   0.096335  -0.014738
               7          8          9         10         11         12
     1  O    0.000008  -0.001638  -0.000225  -0.000047  -0.000033  -0.000000
     2  C    0.006434  -0.026958  -0.009240   0.002171  -0.031312   0.000023
     3  C    0.105703   0.198300  -0.168875  -0.048244  -0.004403  -0.000077
     4  C    0.238253  -0.239613  -0.339204  -0.155180  -0.031989  -0.000440
     5  C   -0.210031   1.974608  -0.027311   0.124738  -0.153456  -0.001901
     6  C    0.699665   0.088640  -2.128495   0.538485  -0.421365  -0.004959
     7  O    8.167159  -0.238745   0.213526   0.095883   0.001497  -0.000002
     8  C   -0.238745  16.172560   2.059224  -1.912137  -0.111665  -0.012913
     9  C    0.213526   2.059224  10.878800  -0.346477  -0.731713  -0.038184
    10  C    0.095883  -1.912137  -0.346477  10.496706   0.177350  -0.264514
    11  C    0.001497  -0.111665  -0.731713   0.177350  11.012393   0.485534
    12  O   -0.000002  -0.012913  -0.038184  -0.264514   0.485534   8.052071
    13  C   -0.036623  -1.463729   2.725513  -2.975902  -1.118788  -0.063598
    14  C   -0.378248  -2.783326  -2.106123  -0.226498  -3.035802  -0.029526
    15  C   -0.010034   1.110119  -1.126176  -0.033517   0.483494   0.004806
    16  O    0.000034  -0.401610  -0.039267   0.004945   0.096215  -0.000322
    17  C   -0.359043  -6.172628  -2.750632   0.115319   0.412910   0.001161
    18  C   -0.034183  -2.430581  -0.521589  -0.040535  -0.098947  -0.001004
    19  H   -0.000010  -0.000179   0.000065   0.000009  -0.000019   0.000000
    20  H    0.001695   0.009827   0.001674  -0.000273  -0.000011  -0.000000
    21  H   -0.008370  -0.054714  -0.019350   0.001384  -0.000614   0.000001
    22  H   -0.011054   0.064314   0.386538  -0.226760  -0.002010   0.000130
    23  H    0.001815   0.005578  -0.087431   0.609642  -0.157168  -0.026018
    24  H   -0.000010   0.002496  -0.012825   0.005265   0.094751   0.280990
    25  H    0.000241   0.112539   0.078644  -0.123072  -0.265812  -0.018857
    26  H    0.000256   0.002924  -0.006136  -0.000919   0.000455  -0.000024
              13         14         15         16         17         18
     1  O   -0.000919   0.001501   0.009941  -0.000307  -0.023941  -0.079178
     2  C   -0.086233   0.307330   0.614115   0.107346  -3.000257  -0.945650
     3  C   -0.065239  -0.053095  -0.058156   0.003776  -0.333437  -2.488364
     4  C   -0.409770  -2.313407  -1.073159  -0.043788  -1.431370   2.399884
     5  C   -1.908757  -5.249427   1.389227  -0.386722  -2.811795  -2.212845
     6  C   -1.564852   0.871675   1.574200  -0.025274   0.891961  -1.580852
     7  O   -0.036623  -0.378248  -0.010034   0.000034  -0.359043  -0.034183
     8  C   -1.463729  -2.783326   1.110119  -0.401610  -6.172628  -2.430581
     9  C    2.725513  -2.106123  -1.126176  -0.039267  -2.750632  -0.521589
    10  C   -2.975902  -0.226498  -0.033517   0.004945   0.115319  -0.040535
    11  C   -1.118788  -3.035802   0.483494   0.096215   0.412910  -0.098947
    12  O   -0.063598  -0.029526   0.004806  -0.000322   0.001161  -0.001004
    13  C   13.406430   1.757811  -2.487377   0.226597  -0.244312  -0.177422
    14  C    1.757811  17.040153  -0.425255  -0.165329   2.163771  -0.017008
    15  C   -2.487377  -0.425255   9.526639   0.673591  -0.646434  -2.715733
    16  O    0.226597  -0.165329   0.673591   8.152940  -0.176675   0.217267
    17  C   -0.244312   2.163771  -0.646434  -0.176675  17.174480   2.599389
    18  C   -0.177422  -0.017008  -2.715733   0.217267   2.599389  13.648250
    19  H   -0.000101  -0.000204  -0.002179  -0.000100  -0.013321  -0.077284
    20  H    0.000843   0.003389   0.004442  -0.000011   0.002018  -0.094306
    21  H   -0.003760   0.002623  -0.001778   0.000275   0.087567   0.079594
    22  H    0.079574   0.086474   0.001856   0.000355   0.001370  -0.002421
    23  H   -0.112636   0.007784   0.002807  -0.000019   0.005167   0.000700
    24  H   -0.075639  -0.016300  -0.003924  -0.000032  -0.000378  -0.000156
    25  H    0.555109   0.108011  -0.005950  -0.007395  -0.091444  -0.023059
    26  H   -0.018339  -0.069218  -0.003143  -0.003452   0.095655   0.538699
              19         20         21         22         23         24
     1  O    0.272738  -0.021194   0.000611   0.000004  -0.000000   0.000000
     2  C    0.086658  -0.157992   0.002977  -0.000933   0.000044  -0.000014
     3  C    0.013720   0.571775  -0.185179   0.002178  -0.000297  -0.000001
     4  C   -0.012671  -0.066686   0.380340  -0.013611   0.001425   0.000012
     5  C    0.002699   0.009548   0.028965  -0.050341   0.008311  -0.000267
     6  C   -0.000711   0.033039   0.021857   0.016315   0.034286  -0.001259
     7  O   -0.000010   0.001695  -0.008370  -0.011054   0.001815  -0.000010
     8  C   -0.000179   0.009827  -0.054714   0.064314   0.005578   0.002496
     9  C    0.000065   0.001674  -0.019350   0.386538  -0.087431  -0.012825
    10  C    0.000009  -0.000273   0.001384  -0.226760   0.609642   0.005265
    11  C   -0.000019  -0.000011  -0.000614  -0.002010  -0.157168   0.094751
    12  O    0.000000  -0.000000   0.000001   0.000130  -0.026018   0.280990
    13  C   -0.000101   0.000843  -0.003760   0.079574  -0.112636  -0.075639
    14  C   -0.000204   0.003389   0.002623   0.086474   0.007784  -0.016300
    15  C   -0.002179   0.004442  -0.001778   0.001856   0.002807  -0.003924
    16  O   -0.000100  -0.000011   0.000275   0.000355  -0.000019  -0.000032
    17  C   -0.013321   0.002018   0.087567   0.001370   0.005167  -0.000378
    18  C   -0.077284  -0.094306   0.079594  -0.002421   0.000700  -0.000156
    19  H    0.435662   0.000403  -0.000256  -0.000003  -0.000000  -0.000000
    20  H    0.000403   0.517260  -0.019285   0.000012  -0.000008  -0.000000
    21  H   -0.000256  -0.019285   0.493297   0.000019  -0.000001  -0.000003
    22  H   -0.000003   0.000012   0.000019   0.494004  -0.020804  -0.000268
    23  H   -0.000000  -0.000008  -0.000001  -0.020804   0.522622   0.000533
    24  H   -0.000000  -0.000000  -0.000003  -0.000268   0.000533   0.419804
    25  H   -0.000005  -0.000016  -0.000164   0.003318  -0.004011  -0.000787
    26  H   -0.001337  -0.003779   0.003413  -0.000139  -0.000015  -0.000005
              25         26
     1  O   -0.000025  -0.018611
     2  C    0.001053  -0.231838
     3  C   -0.000877  -0.121788
     4  C   -0.006155   0.063000
     5  C    0.007182   0.096335
     6  C   -0.013018  -0.014738
     7  O    0.000241   0.000256
     8  C    0.112539   0.002924
     9  C    0.078644  -0.006136
    10  C   -0.123072  -0.000919
    11  C   -0.265812   0.000455
    12  O   -0.018857  -0.000024
    13  C    0.555109  -0.018339
    14  C    0.108011  -0.069218
    15  C   -0.005950  -0.003143
    16  O   -0.007395  -0.003452
    17  C   -0.091444   0.095655
    18  C   -0.023059   0.538699
    19  H   -0.000005  -0.001337
    20  H   -0.000016  -0.003779
    21  H   -0.000164   0.003413
    22  H    0.003318  -0.000139
    23  H   -0.004011  -0.000015
    24  H   -0.000787  -0.000005
    25  H    0.493663  -0.000127
    26  H   -0.000127   0.490768
          Atomic-Atomic Spin Densities.
               1          2          3          4          5          6
     1  O    0.000000   0.000000  -0.000000  -0.000000   0.000000   0.000000
     2  C    0.000000  -0.000000   0.000000  -0.000000  -0.000000   0.000000
     3  C   -0.000000   0.000000  -0.000000  -0.000000   0.000000  -0.000000
     4  C   -0.000000  -0.000000  -0.000000  -0.000000  -0.000000  -0.000000
     5  C    0.000000  -0.000000   0.000000  -0.000000  -0.000000  -0.000000
     6  C    0.000000   0.000000  -0.000000  -0.000000  -0.000000  -0.000000
     7  O   -0.000000  -0.000000  -0.000000  -0.000000  -0.000000  -0.000000
     8  C   -0.000000  -0.000000   0.000000  -0.000000  -0.000000  -0.000000
     9  C   -0.000000  -0.000000  -0.000000   0.000000   0.000000  -0.000000
    10  C    0.000000  -0.000000  -0.000000   0.000000   0.000000   0.000000
    11  C    0.000000  -0.000000   0.000000  -0.000000  -0.000000  -0.000000
    12  O    0.000000  -0.000000   0.000000   0.000000   0.000000   0.000000
    13  C   -0.000000  -0.000000  -0.000000   0.000000   0.000000   0.000000
    14  C    0.000000   0.000000  -0.000000   0.000000   0.000000   0.000000
    15  C   -0.000000  -0.000000  -0.000000   0.000000  -0.000000  -0.000000
    16  O    0.000000   0.000000  -0.000000   0.000000   0.000000   0.000000
    17  C    0.000000   0.000000  -0.000000   0.000000   0.000000   0.000000
    18  C   -0.000000   0.000000  -0.000000  -0.000000   0.000000   0.000000
    19  H   -0.000000  -0.000000   0.000000  -0.000000  -0.000000   0.000000
    20  H   -0.000000   0.000000  -0.000000   0.000000   0.000000  -0.000000
    21  H    0.000000   0.000000  -0.000000   0.000000   0.000000  -0.000000
    22  H    0.000000   0.000000   0.000000   0.000000   0.000000   0.000000
    23  H   -0.000000  -0.000000   0.000000   0.000000   0.000000  -0.000000
    24  H    0.000000  -0.000000   0.000000  -0.000000  -0.000000  -0.000000
    25  H   -0.000000  -0.000000  -0.000000  -0.000000   0.000000  -0.000000
    26  H    0.000000  -0.000000   0.000000  -0.000000  -0.000000   0.000000
               7          8          9         10         11         12
     1  O   -0.000000  -0.000000  -0.000000   0.000000   0.000000   0.000000
     2  C   -0.000000  -0.000000  -0.000000  -0.000000  -0.000000  -0.000000
     3  C   -0.000000   0.000000  -0.000000  -0.000000   0.000000   0.000000
     4  C   -0.000000  -0.000000   0.000000   0.000000  -0.000000   0.000000
     5  C   -0.000000  -0.000000   0.000000   0.000000  -0.000000   0.000000
     6  C   -0.000000  -0.000000  -0.000000   0.000000  -0.000000   0.000000
     7  O    0.000000  -0.000000   0.000000   0.000000  -0.000000   0.000000
     8  C   -0.000000  -0.000000   0.000000   0.000000  -0.000000   0.000000
     9  C    0.000000   0.000000   0.000000   0.000000  -0.000000   0.000000
    10  C    0.000000   0.000000   0.000000   0.000000  -0.000000   0.000000
    11  C   -0.000000  -0.000000  -0.000000  -0.000000  -0.000000  -0.000000
    12  O    0.000000   0.000000   0.000000   0.000000  -0.000000  -0.000000
    13  C    0.000000   0.000000  -0.000000   0.000000   0.000000  -0.000000
    14  C    0.000000   0.000000  -0.000000  -0.000000   0.000000  -0.000000
    15  C   -0.000000  -0.000000  -0.000000  -0.000000   0.000000   0.000000
    16  O    0.000000   0.000000  -0.000000  -0.000000   0.000000  -0.000000
    17  C    0.000000   0.000000  -0.000000  -0.000000   0.000000  -0.000000
    18  C   -0.000000  -0.000000  -0.000000  -0.000000   0.000000  -0.000000
    19  H   -0.000000  -0.000000  -0.000000   0.000000  -0.000000  -0.000000
    20  H    0.000000   0.000000   0.000000  -0.000000   0.000000   0.000000
    21  H    0.000000   0.000000  -0.000000  -0.000000   0.000000   0.000000
    22  H    0.000000   0.000000  -0.000000  -0.000000   0.000000  -0.000000
    23  H    0.000000  -0.000000   0.000000   0.000000   0.000000   0.000000
    24  H   -0.000000  -0.000000  -0.000000  -0.000000  -0.000000  -0.000000
    25  H    0.000000  -0.000000   0.000000   0.000000   0.000000   0.000000
    26  H   -0.000000  -0.000000   0.000000   0.000000  -0.000000   0.000000
              13         14         15         16         17         18
     1  O   -0.000000   0.000000  -0.000000   0.000000   0.000000  -0.000000
     2  C   -0.000000   0.000000  -0.000000   0.000000   0.000000   0.000000
     3  C   -0.000000  -0.000000  -0.000000  -0.000000  -0.000000  -0.000000
     4  C    0.000000   0.000000   0.000000   0.000000   0.000000  -0.000000
     5  C    0.000000   0.000000  -0.000000   0.000000   0.000000   0.000000
     6  C    0.000000   0.000000  -0.000000   0.000000   0.000000   0.000000
     7  O    0.000000   0.000000  -0.000000   0.000000   0.000000  -0.000000
     8  C    0.000000   0.000000  -0.000000   0.000000   0.000000  -0.000000
     9  C   -0.000000  -0.000000  -0.000000  -0.000000  -0.000000  -0.000000
    10  C    0.000000  -0.000000  -0.000000  -0.000000  -0.000000  -0.000000
    11  C    0.000000   0.000000   0.000000   0.000000   0.000000   0.000000
    12  O   -0.000000  -0.000000   0.000000  -0.000000  -0.000000  -0.000000
    13  C   -0.000000  -0.000000   0.000000  -0.000000  -0.000000  -0.000000
    14  C   -0.000000  -0.000000   0.000000  -0.000000  -0.000000  -0.000000
    15  C    0.000000   0.000000  -0.000000   0.000000   0.000000   0.000000
    16  O   -0.000000  -0.000000   0.000000  -0.000000  -0.000000  -0.000000
    17  C   -0.000000  -0.000000   0.000000  -0.000000  -0.000000   0.000000
    18  C   -0.000000  -0.000000   0.000000  -0.000000   0.000000  -0.000000
    19  H   -0.000000   0.000000  -0.000000   0.000000   0.000000   0.000000
    20  H   -0.000000  -0.000000   0.000000  -0.000000  -0.000000  -0.000000
    21  H   -0.000000  -0.000000  -0.000000  -0.000000  -0.000000   0.000000
    22  H   -0.000000  -0.000000   0.000000  -0.000000  -0.000000  -0.000000
    23  H    0.000000  -0.000000  -0.000000  -0.000000  -0.000000  -0.000000
    24  H    0.000000   0.000000   0.000000   0.000000   0.000000   0.000000
    25  H    0.000000  -0.000000  -0.000000   0.000000  -0.000000  -0.000000
    26  H    0.000000   0.000000   0.000000   0.000000  -0.000000  -0.000000
              19         20         21         22         23         24
     1  O   -0.000000  -0.000000   0.000000   0.000000  -0.000000   0.000000
     2  C   -0.000000   0.000000   0.000000   0.000000  -0.000000  -0.000000
     3  C    0.000000  -0.000000  -0.000000   0.000000   0.000000   0.000000
     4  C   -0.000000   0.000000   0.000000   0.000000   0.000000  -0.000000
     5  C   -0.000000   0.000000   0.000000   0.000000   0.000000  -0.000000
     6  C    0.000000  -0.000000  -0.000000   0.000000  -0.000000  -0.000000
     7  O   -0.000000   0.000000   0.000000   0.000000   0.000000  -0.000000
     8  C   -0.000000   0.000000   0.000000   0.000000  -0.000000  -0.000000
     9  C   -0.000000   0.000000  -0.000000  -0.000000   0.000000  -0.000000
    10  C    0.000000  -0.000000  -0.000000  -0.000000   0.000000  -0.000000
    11  C   -0.000000   0.000000   0.000000   0.000000   0.000000  -0.000000
    12  O   -0.000000   0.000000   0.000000  -0.000000   0.000000  -0.000000
    13  C   -0.000000  -0.000000  -0.000000  -0.000000   0.000000   0.000000
    14  C    0.000000  -0.000000  -0.000000  -0.000000  -0.000000   0.000000
    15  C   -0.000000   0.000000  -0.000000   0.000000  -0.000000   0.000000
    16  O    0.000000  -0.000000  -0.000000  -0.000000  -0.000000   0.000000
    17  C    0.000000  -0.000000  -0.000000  -0.000000  -0.000000   0.000000
    18  C    0.000000  -0.000000   0.000000  -0.000000  -0.000000   0.000000
    19  H    0.000000   0.000000   0.000000   0.000000  -0.000000  -0.000000
    20  H    0.000000   0.000000  -0.000000  -0.000000  -0.000000   0.000000
    21  H    0.000000  -0.000000  -0.000000  -0.000000  -0.000000   0.000000
    22  H    0.000000  -0.000000  -0.000000   0.000000  -0.000000   0.000000
    23  H   -0.000000  -0.000000  -0.000000  -0.000000  -0.000000   0.000000
    24  H   -0.000000   0.000000   0.000000   0.000000   0.000000   0.000000
[...]
 ,0.00001357,0.00016348,-0.00031669,-0.00002559,0.00004587,0.00005868,0
 .00000749,0.00003374,0.00001341,-0.00000298,0.00001956,0.00000431,0.00
 000098,-0.00021262,-0.00008550,0.00000004,0.00020976,0.00011252,0.0000
 0168,0.00010620,-0.00010783,-0.00001169,0.00022124,0.00001213,-0.00000
 304,-0.00065184,-0.00000110,0.00001858,0.00050436,0.00001478,-0.000015
 18,-0.00047421,0.00033156,0.00000259,0.00183455,0.00238482,0.00011671,
 0.05669304,-0.03202797,-0.50392297,-0.03269504,-0.00076032,-0.02308722
 ,-0.00133819,0.00311632,0.00221920,-0.00009540,-0.00009639,-0.00108328
 ,-0.00019989,-0.00129762,0.00087472,0.00008953,0.00141105,-0.00064878,
 -0.00007278,-0.00035030,0.00055540,0.00004657,-0.00027549,-0.00010308,
 -0.00001317,0.00013565,-0.00004773,0.00000185,-0.00005733,-0.00013123,
 -0.00001066,0.00022518,0.00013966,0.00000235,-0.00025989,-0.00017030,-
 0.00000309,-0.00014414,0.00006225,0.00001270,-0.00008360,-0.00000653,-
 0.00000263,0.00014341,0.00079374,0.00004321,-0.00004923,-0.00052230,-0
 .00002395,0.00003710,-0.00156152,-0.00001706,-0.00489485,0.00510253,0.
 00046843,0.03421856,0.52127978,-0.00095660,-0.03140623,-0.00637798,-0.
 00011555,-0.00250568,-0.00311562,0.00043731,-0.00006636,0.00248379,0.0
 0000505,-0.00023928,0.00190037,-0.00008907,0.00007627,0.00003459,0.000
 10342,-0.00004009,-0.00009313,-0.00002791,0.00004585,-0.00000199,-0.00
 001506,-0.00002149,0.00019234,0.00000526,0.00000494,-0.00012554,-0.000
 00320,-0.00001233,0.00004766,0.00002106,0.00001010,0.00002237,-0.00002
 353,-0.00001235,-0.00002980,-0.00001422,0.00001182,-0.00007260,-0.0000
 0941,-0.00000505,0.00006460,0.00002812,0.00004676,0.00010301,-0.000019
 52,-0.00002562,-0.00015006,-0.00001828,-0.00002310,-0.00134288,-0.0003
 8325,0.00029201,-0.00004360,0.00098413,0.03378572,0.00691731,0.0007815
 6,-0.00019702,-0.00010315,0.00282332,0.00248621,0.00021819,-0.26369522
 ,-0.12563831,-0.00282441,-0.01780301,-0.01520650,-0.00050681,-0.002633
 02,0.00368455,0.00050680,-0.00025141,-0.00158818,-0.00008996,0.0000186
 0,0.00040977,0.00002959,-0.00036341,0.00032174,0.00002444,-0.00004574,
 -0.00013945,-0.00001205,-0.00003760,0.00000342,0.00000138,0.00010525,0
 .00002923,-0.00000120,-0.00009778,-0.00006333,-0.00000195,-0.00007837,
 -0.00001454,0.00000100,0.00007936,0.00006691,0.00000649,-0.00017631,-0
 .00000214,-0.00001930,0.00004925,-0.00007082,-0.00000150,0.00030395,0.
 00070463,0.00002077,0.00096770,0.00086436,0.00016735,0.00009012,-0.000
 05859,-0.00002006,0.27866275,-0.00008753,0.00231099,0.00034891,-0.0292
 9168,-0.01077926,-0.00032897,-0.12383020,-0.13415232,-0.00355163,0.014
 42162,0.01230294,0.00026280,0.00322971,-0.00075269,-0.00065435,0.00057
 226,0.00086520,0.00001429,-0.00015530,-0.00012215,-0.00001069,0.000245
 92,-0.00020067,-0.00000256,0.00001404,0.00007316,0.00001483,0.00002975
 ,0.00001267,-0.00000044,0.00001730,-0.00002938,-0.00000090,-0.00000214
 ,0.00000789,0.00000084,-0.00003176,0.00002611,0.00000243,-0.00006058,-
 0.00004368,-0.00001214,0.00001261,-0.00023163,0.00004793,-0.00022735,0
 .00015690,0.00000404,0.00117596,-0.00081016,-0.00003220,0.00131990,-0.
 00566782,-0.00077755,0.00019217,0.00038112,0.00006060,0.13416238,0.136
 39164,-0.00009548,0.00035255,-0.00281291,-0.00192589,-0.00112078,0.004
 83900,-0.00270463,-0.00350476,-0.03613663,0.00149524,0.00099822,0.0031
 3838,0.00047527,-0.00066654,0.00769596,0.00005578,0.00006787,0.0004451
 3,-0.00000846,-0.00002471,0.00009207,0.00001926,-0.00000451,-0.0002531
 9,-0.00000165,0.00001861,-0.00015053,0.00000312,0.00000018,0.00000848,
 -0.00000198,-0.00000113,-0.00002273,0.00000216,0.00000233,-0.00000363,
 -0.00000014,0.00000203,0.00000202,-0.00000218,-0.00001526,0.00015716,-
 0.00001824,0.00004835,-0.00094187,-0.00001198,0.00000008,0.00018101,0.
 00005232,-0.00002016,-0.00076996,0.00019919,-0.00076517,0.00531781,-0.
 00000375,0.00006618,-0.00057509,0.00274121,0.00422543,0.02464019,0.000
 00035,0.00150295,0.00009862,-0.00408758,0.00144207,0.00041112,0.002648
 00,0.02798347,0.00193315,-0.05834073,0.01093171,0.00117965,0.00670993,
 -0.02675455,-0.00187062,-0.00003024,-0.00267675,-0.00026639,0.00013782
 ,0.00212555,0.00013218,0.00050410,0.00051326,0.00002720,-0.00002732,0.
 00011536,0.00000948,-0.00005473,0.00006056,0.00000510,-0.00027430,0.00
 004943,0.00001054,0.00020214,0.00013978,0.00000394,0.00029420,0.000149
 64,0.00000329,-0.00023623,-0.00016682,-0.00000676,0.00174965,-0.001020
 00,-0.00009285,-0.00081074,-0.00062404,-0.00003322,-0.00517676,-0.0022
 0295,0.00013221,-0.00105315,0.00010734,0.00000238,-0.00033633,0.000251
 10,0.00001682,0.00105964,-0.00051810,-0.00017569,0.05707906,-0.0000207
 4,-0.00053145,-0.00002898,0.00150380,0.00115275,-0.00053495,-0.0013288
 1,-0.00771747,-0.00078689,0.01036110,-0.33858546,-0.02036353,-0.000327
 36,-0.01309016,-0.00114073,0.00131118,-0.00241764,0.00005073,0.0021748
 1,0.00140571,0.00006064,-0.00017396,-0.00005894,-0.00001288,0.00001794
 ,-0.00002708,-0.00000479,-0.00002635,0.00001594,0.00000249,0.00000941,
 0.00002867,0.00000055,-0.00002397,-0.00001057,0.00000122,0.00003174,0.
 00003393,0.00000030,-0.00011900,-0.00000244,0.00000657,0.00068374,-0.0
 0020250,-0.00008353,-0.00025771,-0.00036449,0.00001271,-0.00278941,0.0
 0025057,-0.00032737,0.00012840,0.00064730,0.00012433,0.00010164,-0.000
 01138,0.00001964,0.00007568,0.00074050,0.00035782,-0.01137284,0.358811
 66,-0.00000348,-0.00006752,-0.00009696,0.00041471,-0.00053305,0.008480
 92,-0.00004445,-0.00151733,0.00434066,0.00114381,-0.02037317,-0.041997
 07,-0.00009333,-0.00049206,0.00393304,-0.00000556,0.00014791,-0.003643
 66,0.00014620,0.00006925,-0.00026371,-0.00001985,-0.00003034,0.0001929
 7,0.00000284,-0.00000726,0.00003704,-0.00000073,0.00000026,-0.00001107
 ,0.00000792,-0.00000043,0.00001670,-0.00000718,-0.00000287,-0.00001991
 ,-0.00000478,-0.00000262,0.00001754,-0.00000345,0.00000774,-0.00005436
 ,0.00002201,-0.00004108,0.00077962,-0.00000859,0.00002165,-0.00045534,
 0.00009271,-0.00034138,0.00609724,0.00000420,0.00012561,-0.00123930,0.
 00000692,0.00001588,-0.00033950,-0.00013508,0.00037232,-0.00455684,-0.
 00150609,0.02262390,0.02919955,0.00020889,-0.00012425,-0.00001405,-0.0
 0026890,-0.00007037,0.00000231,-0.00005209,-0.00006532,-0.00000335,-0.
 00001842,-0.00011480,-0.00000631,0.00052480,-0.00047285,-0.00004011,-0
 .00012790,0.00283808,0.00010664,0.00042464,-0.00217496,-0.00016475,0.0
 0479802,0.02795941,0.00186668,-0.05818317,0.00797512,0.00096987,0.0043
 9276,-0.02716718,-0.00183176,-0.00386318,-0.00181920,0.00018264,0.0000
 9750,-0.00145994,-0.00010310,-0.00102961,-0.00021971,-0.00002010,-0.00
 548502,0.00177884,0.00040700,0.00171828,0.00115269,0.00005475,-0.00086
 791,0.00058883,0.00004983,-0.00025445,0.00014919,0.00001506,0.00030511
 ,-0.00013045,-0.00001592,-0.00000528,0.00003132,0.00000243,0.00001620,
 -0.00000069,-0.00000054,-0.00009563,-0.00000378,0.00000318,0.05692166,
 0.00003956,-0.00001769,-0.00000083,-0.00003048,0.00002303,0.00000116,0
 .00002173,0.00001312,0.00000111,-0.00001741,-0.00003648,-0.00000459,0.
 00021258,-0.00007956,-0.00002390,-0.00114622,-0.00230508,0.00011889,-0
 .00223186,0.00109452,0.00014839,0.00153862,-0.01109046,-0.00105452,0.0
 0854290,-0.33875016,-0.02032396,0.00214670,-0.00954233,-0.00099667,-0.
 00188055,0.00091827,-0.00046708,0.00006371,-0.00063303,-0.00003803,-0.
 00024139,0.00062242,0.00013173,0.00236675,0.00057215,-0.00043307,-0.00
 055134,-0.00016932,-0.00005074,0.00022245,-0.00030477,0.00000481,0.000
 10104,0.00001677,0.00000233,-0.00001254,0.00002255,0.00000063,-0.00000
 704,0.00000457,0.00000003,0.00000611,-0.00000140,0.00000002,-0.0000049
 0,0.00002688,-0.00000076,-0.00895144,0.35897660,-0.00000299,0.00000322
 ,-0.00001960,0.00000500,0.00000215,0.00001695,0.00000248,0.00000322,-0
 .00001098,0.00000010,-0.00000221,0.00003756,0.00000615,-0.00000691,0.0
 0019406,-0.00016545,0.00001894,-0.00364876,-0.00016507,0.00014265,-0.0
 0025108,0.00008846,-0.00170382,0.00384400,0.00100646,-0.02030507,-0.04
 198755,0.00014540,-0.00027504,0.00442108,0.00017847,-0.00046852,0.0084
 9051,-0.00000042,-0.00000073,-0.00009243,-0.00002188,0.00013187,-0.001
 23816,0.00044621,-0.00041851,0.00608382,-0.00006025,-0.00009243,0.0007
 7827,0.00002512,-0.00000424,-0.00045800,0.00001167,0.00000127,-0.00005
 512,-0.00000796,0.00000357,0.00001798,-0.00000018,-0.00000091,0.000006
 60,-0.00000009,0.00000018,-0.00000385,0.00000292,-0.00000079,0.0000397
 2,-0.00132775,0.02257336,0.02919136,-0.00010168,0.00005563,0.00000618,
 0.00010774,-0.00001956,-0.00000453,-0.00003514,-0.00000677,0.00000061,
 -0.00005365,0.00013117,0.00000646,-0.00032438,-0.00033027,-0.00002043,
 -0.00031426,0.00150638,0.00012036,0.00003500,-0.00039941,-0.00002561,-
 0.00215797,-0.00381013,-0.00001322,-0.01771598,0.01311652,0.00139767,-
 0.27980983,0.11505621,0.01376457,0.00095938,-0.00170771,-0.00001859,0.
 00076955,0.00010472,-0.00008209,0.00108509,-0.00042109,0.00007746,0.00
 042508,-0.00061658,-0.00007107,-0.00017597,0.00000818,-0.00001827,0.00
 002972,0.00006174,0.00000787,0.00007928,-0.00005881,-0.00000206,-0.000
 08100,0.00000706,0.00000255,0.00000937,-0.00001334,-0.00000101,-0.0000
 1773,0.00000702,0.00000195,0.00001649,-0.00000484,-0.00000083,0.001027
 28,-0.00003918,-0.00014111,0.29598292,-0.00000556,0.00001197,0.0000012
 0,-0.00000764,-0.00003198,-0.00000044,-0.00003310,0.00001009,0.0000009
 3,-0.00002231,0.00008142,0.00001630,-0.00025452,-0.00024135,0.00000711
 ,-0.00065409,0.00093120,0.00004918,0.00016561,-0.00013940,-0.00001982,
 -0.00335459,-0.00125036,-0.00052445,-0.01651191,0.01221062,0.00102148,
 0.11325165,-0.11729693,-0.00827454,0.03007017,-0.00883362,-0.00166473,
 -0.00000673,0.00232741,0.00034824,-0.00087722,-0.00579053,-0.00073196,
 -0.00108876,-0.00093727,0.00001549,-0.00000652,-0.00023198,0.00004832,
 0.00021838,0.00017735,-0.00000560,0.00006872,-0.00004353,-0.00001532,0
 .00002425,0.00002887,0.00000122,-0.00000369,-0.00000092,-0.00000031,-0
 .00000882,0.00000614,-0.00000222,0.00000197,-0.00000169,0.00000010,0.0
 0055449,0.00077432,0.00034747,-0.12255512,0.11827764,0.00000205,-0.000
 00033,-0.00000380,-0.00000372,-0.00000010,-0.00002265,-0.00000114,0.00
 000025,0.00000859,-0.00000399,0.00001250,-0.00015087,-0.00001545,0.000
 00885,-0.00025140,-0.00002549,-0.00000421,0.00044231,0.00001257,-0.000
 00596,0.00009276,0.00001900,-0.00051377,0.00771635,-0.00060288,0.00029
 041,0.00314299,0.01364154,-0.00831675,-0.03686597,0.00212607,-0.000885
 21,0.00475386,-0.00008968,0.00034715,-0.00281352,0.00004639,-0.0007426
 8,0.00532294,-0.00010199,0.00000373,-0.00076454,-0.00001964,0.00004824
 ,-0.00094173,0.00001835,-0.00000180,0.00018008,0.00000660,-0.00001217,
 0.00015708,0.00000365,0.00000166,0.00000193,-0.00000035,-0.00000008,0.
 00000509,0.00000089,-0.00000261,0.00004208,-0.00000037,0.00000027,-0.0
 0000383,-0.00010034,0.00036294,-0.00455804,-0.01495286,0.00934857,0.02
 542562,0.00019807,-0.00008694,-0.00001150,-0.00020159,0.00006174,0.000
 00971,0.00001532,0.00000549,0.00000119,0.00004333,-0.00000674,-0.00000
 465,0.00003065,-0.00005017,0.00000068,-0.00030114,-0.00006451,0.000000
 94,0.00012039,0.00028766,0.00001633,-0.00007900,0.00069938,0.00004971,
 0.00156049,-0.00129311,-0.00007857,-0.00624464,-0.00248833,0.00004791,
 0.00302066,-0.04461578,-0.00315967,-0.06169945,0.11369926,0.00908151,0
 .00167850,-0.00261101,-0.00021928,-0.00045477,-0.00025383,-0.00003959,
 -0.00063556,-0.00009807,0.00001168,0.00049734,0.00005633,-0.00001218,0
 .00021526,0.00000337,-0.00000351,0.00008904,0.00011015,0.00000334,-0.0
 0003638,0.00002488,0.00000319,0.00000818,0.00000432,0.00000022,-0.0000
 0361,0.00000646,0.00000069,-0.00031117,-0.00012180,-0.00000902,0.00010
 021,-0.00020923,-0.00003085,0.06338559,0.00028548,-0.00015810,-0.00001
 575,-0.00024894,0.00012812,0.00001328,0.00006714,-0.00012679,-0.000013
 46,-0.00012899,-0.00005776,0.00000777,0.00028402,-0.00008719,-0.000026
 01,-0.00138812,-0.00075276,-0.00001052,0.00032136,0.00060029,0.0000329
 8,0.00123265,0.00101570,0.00003629,0.00027399,-0.00116762,-0.00021486,
 -0.00371457,0.00182273,0.00004598,0.00254404,-0.02618317,-0.00163234,0
 .06172287,-0.49360161,-0.03449996,0.00466724,0.00526283,0.00024410,0.0
 0004023,-0.00158191,-0.00001760,-0.00024226,0.00077673,0.00005161,0.00
 011999,-0.00051495,-0.00002762,0.00009905,-0.00000034,-0.00000682,0.00
 014646,0.00008021,0.00000672,-0.00003055,0.00004477,0.00000215,0.00001
 396,0.00000032,-0.00000066,-0.00003191,0.00000281,0.00000054,-0.000271
 25,-0.00003772,0.00002709,0.00004181,0.00037030,0.00006294,-0.06496910
 ,0.51424194,0.00001364,-0.00000655,-0.00003032,-0.00001126,0.00000562,
 0.00002289,0.00000537,-0.00001198,0.00004745,-0.00001290,0.00000476,-0
 .00012507,0.00002326,-0.00001772,0.00019172,-0.00008847,-0.00004320,-0
 .00008871,0.00001857,0.00003378,-0.00000394,0.00008588,0.00004955,0.00
 002843,0.00002731,-0.00017603,0.00190428,-0.00003527,0.00001530,0.0025
 0053,0.00002342,-0.00045835,-0.00298281,0.00557041,-0.03579379,-0.0068
 4064,0.00027277,0.00042610,-0.00004929,-0.00001938,-0.00001025,-0.0013
 4160,0.00000189,0.00004805,0.00010370,-0.00000779,-0.00002606,-0.00015
 036,0.00000297,-0.00000448,0.00006429,0.00000586,0.00000766,-0.0000733
 6,-0.00000056,0.00000077,0.00002441,0.00000087,-0.00000043,0.00000503,
 -0.00000190,-0.00000042,0.00000668,-0.00001898,0.00002344,-0.00033825,
 -0.00001401,0.00006935,-0.00057478,-0.00582106,0.03595004,0.00723664,0
 .00000625,0.00003321,0.00000153,-0.00007122,-0.00000734,0.00000180,-0.
 00003043,0.00014709,0.00001025,0.00017499,0.00013960,0.00000565,-0.000
 19713,-0.00001077,0.00000114,0.00201230,-0.00091470,-0.00007949,-0.000
 87438,-0.00066253,-0.00003826,-0.00514237,-0.00215760,0.00014508,-0.00
 131018,-0.00030601,-0.00001392,-0.00459882,0.00204783,0.00038904,0.001
 47200,0.02647927,0.00186001,0.00336725,0.00072256,-0.00012664,-0.05833
 438,0.01665037,0.00171756,0.00748197,-0.02661264,-0.00192327,0.0000263
 5,-0.00270852,-0.00027367,-0.00005209,0.00210464,0.00013463,0.00053928
 ,0.00036851,0.00001798,-0.00005506,0.00018031,0.00001379,-0.00003071,-
 0.00000524,0.00000078,-0.00001090,0.00001322,0.00000103,0.00005687,0.0
 0001156,-0.00000063,0.00006972,-0.00001938,-0.00001443,0.00017087,0.00
 125854,0.00007246,-0.00096560,-0.00083846,-0.00002204,0.05639968,-0.00
 009654,0.00004274,0.00000681,0.00007395,-0.00002303,-0.00000480,-0.000
 02966,0.00002452,0.00000350,0.00003566,0.00002198,-0.00000093,-0.00014
 638,0.00001815,0.00001320,0.00068851,-0.00027687,-0.00012374,-0.000271
 57,-0.00037214,0.00002289,-0.00288681,0.00111633,-0.00030112,0.0003426
 3,0.00053469,0.00009771,0.00214596,0.00073125,-0.00037914,-0.00423385,
 -0.01035578,-0.00089293,-0.00000986,0.00277226,0.00043682,0.01569874,-
 0.33035530,-0.02036242,-0.00067185,-0.01466215,-0.00112046,0.00159237,
 -0.00243607,0.00005865,0.00205652,0.00141562,0.00006998,-0.00022887,-0
 .00008993,-0.00001842,-0.00001197,-0.00006515,-0.00000475,0.00001240,-
 0.00001161,-0.00000214,-0.00000650,0.00000043,0.00000057,0.00000864,-0
 .00001244,-0.00000108,0.00002190,-0.00008367,0.00002505,-0.00011939,-0
 .00040766,-0.00000209,0.00192338,-0.00006462,-0.00008365,-0.01589563,0
 .35250526,-0.00000722,0.00000359,-0.00002236,0.00000724,-0.00000279,0.
 00002053,-0.00000165,-0.00000084,-0.00001643,-0.00000130,-0.00000347,0
 .00002220,-0.00000802,0.00000974,-0.00012205,0.00002903,-0.00008416,0.
 00129757,-0.00001182,0.00003269,-0.00061017,0.00009548,-0.00031845,0.0
 0660792,0.00003024,0.00011422,-0.00103534,0.00039573,-0.00037771,0.005
 53009,-0.00021201,-0.00165166,0.00434025,-0.00017435,0.00041823,-0.003
 66361,0.00165686,-0.02038253,-0.03580121,-0.00017693,-0.00049078,0.002
 19583,0.00000638,0.00016274,-0.00387152,0.00014096,0.00007784,-0.00035
 785,-0.00002227,-0.00003342,0.00026540,0.00000082,-0.00000950,0.000009
 25,0.00000198,-0.00000170,0.00001544,-0.00000031,0.00000009,-0.0000056
 8,-0.00000082,-0.00000114,0.00000023,-0.00001167,0.00002605,-0.0004603
 5,-0.00002050,-0.00003628,-0.00033492,0.00016259,-0.00001391,0.0004476
 2,-0.00188287,0.02256379,0.02550013,0.00341182,-0.00065558,-0.00022026
 ,0.00291391,-0.02558757,-0.00168776,-0.00429054,-0.00241725,0.00008167
 ,-0.00129928,0.00018155,0.00001864,-0.00545036,0.00167604,0.00041363,0
 .00198671,0.00106973,0.00005550,-0.00093480,0.00062366,0.00005018,-0.0
 0020688,-0.00000450,0.00000186,0.00018604,-0.00012801,-0.00001265,-0.0
 0002231,-0.00015021,-0.00000998,-0.00006647,0.00000412,0.00000241,0.00
 000210,-0.00003589,-0.00000303,-0.00004390,-0.00017889,-0.00001060,0.0
 0054604,-0.00032477,-0.00002856,-0.00005991,0.00287840,0.00010140,0.00
 022695,-0.00217221,-0.00016188,0.00554599,0.02798483,0.00180575,-0.057
 39443,0.00171674,0.00068174,-0.00088993,0.00077974,0.00008911,0.000244
 62,-0.00121285,-0.00009617,0.00006909,0.00003130,-0.00001113,0.0000579
 0,-0.00000662,-0.00000187,-0.00001040,-0.00001397,-0.00000083,-0.00003
 013,0.00000385,0.00000140,-0.00010427,0.00000819,0.00000443,0.05561246
 ,0.00007197,0.00272699,0.00043136,0.00512600,-0.01186818,-0.00122333,-
 0.00251469,0.00041002,-0.00028507,-0.00046751,0.00052304,0.00011673,0.
 00240671,0.00143680,-0.00040960,-0.00053361,-0.00024994,-0.00009158,0.
 00023253,-0.00030896,0.00001459,0.00013098,0.00002808,0.00000692,-0.00
 002409,0.00001050,-0.00000023,0.00002647,0.00001597,0.00000153,-0.0000
 7707,-0.00002806,-0.00000139,0.00009390,0.00004703,0.00000239,0.000013
 24,-0.00007697,-0.00000619,0.00027135,-0.00009618,-0.00003127,-0.00142
 167,-0.00233946,0.00013828,-0.00212928,0.00111455,0.00015380,0.0020463
 3,-0.01264013,-0.00105371,0.00267026,-0.33133331,-0.02007384,-0.001977
 65,-0.00014889,0.00000414,0.00016524,-0.00048485,-0.00001431,-0.000009
 96,-0.00008300,0.00002580,-0.00000369,-0.00001352,-0.00000083,0.000005
 75,-0.00000010,0.00000024,-0.00001380,-0.00001222,-0.00000153,-0.00001
 791,0.00003319,-0.00000063,-0.00406982,0.35333760,-0.00016978,0.000446
 50,-0.00366251,0.00038172,-0.00046427,0.00440817,0.00007505,-0.0002886
 0,0.00554454,-0.00002590,0.00010106,-0.00103486,0.00046300,-0.00039158
 ,0.00659344,-0.00005282,-0.00013117,0.00129653,0.00002349,0.00000524,-
 0.00061298,0.00001079,0.00001035,-0.00012240,-0.00000576,0.00000239,0.
 00002264,0.00000191,0.00000595,-0.00001605,-0.00000299,-0.00000338,0.0
 0002071,0.00000566,0.00000557,-0.00002255,0.00000211,-0.00000140,0.000
 00985,0.00001104,-0.00001639,0.00026577,-0.00019290,0.00003182,-0.0038
 7401,-0.00015163,0.00014758,-0.00034592,0.00006122,-0.00169636,0.00210
 514,0.00074476,-0.02004377,-0.03575103,-0.00010048,-0.00005864,0.00045
 021,-0.00000311,0.00001978,-0.00033141,-0.00001389,0.00002487,-0.00046
 036,-0.00000167,-0.00000075,0.00000027,0.00000050,0.00000073,-0.000005
 65,0.00000020,-0.00000196,0.00001547,0.00000249,-0.00000130,0.00004902
 ,-0.00106300,0.02229776,0.02545796\\-0.00000636,0.00000922,-0.00000194
 ,0.00000806,-0.00000055,0.00000825,0.00000267,-0.00000542,-0.00000176,
 -0.00000875,-0.00000375,0.00000010,0.00000893,-0.00000678,-0.00000135,
 -0.00001426,0.00000655,0.00000237,0.00000115,-0.00000608,-0.00000221,0
 .00002538,-0.00001877,-0.00000216,-0.00002609,-0.00000268,0.00000339,0
 .00000818,0.00001560,-0.00000321,-0.00001477,-0.00001896,0.00000214,0.
 00001981,0.00001873,-0.00000198,-0.00000196,0.00000104,-0.00000081,-0.
 00000965,0.00001870,-0.00000031,0.00001006,-0.00002306,0.00000304,-0.0
 0000115,0.00001898,-0.00000191,-0.00000314,0.00000628,-0.00000198,-0.0
 0000133,0.00000080,-0.00000074,-0.00000155,-0.00000466,-0.00000109,-0.
 00000015,0.00000171,0.00000051,0.00000162,0.00000009,0.00000045,0.0000
 0061,0.00000099,-0.00000120,-0.00000012,-0.00000127,0.00000312,0.00000
 032,-0.00000514,-0.00000089,0.00000231,-0.00000090,0.00000117,0.000000
 18,-0.00000068,-0.00000099\\\@


 MEMORIES ARE LIKE AN ENGLISH GRAMMER LESSON -
 PRESENT TENSE, AND PAST PERFECT.
 Job cpu time:       0 days  6 hours 40 minutes 18.4 seconds.
 Elapsed time:       0 days  1 hours 11 minutes  1.8 seconds.
 File lengths (MBytes):  RWF=    982 Int=      0 D2E=      0 Chk=     25 Scr=      1
 Normal termination of Gaussian 16 at Thu Dec 21 22:01:27 2023.
