
Running Job 1 of 1 136-an-COSMO.in
qchem 136-an-COSMO.in_3008312.0 /expanse/lustre/scratch/selhajj/temp_project/qcscratch/28916125/qchem3008312/ 0
/cm/shared/apps/spack/cpu/opt/spack/linux-centos8-zen2/gcc-10.2.0/qchem-5.4-akfmr7b3t57bfs6qan3padb2wnb2i7cl/exe/qcprog.exe_s 136-an-COSMO.in_3008312.0 /expanse/lustre/scratch/selhajj/temp_project/qcscratch/28916125/qchem3008312/
                  Welcome to Q-Chem
     A Quantum Leap Into The Future Of Chemistry


 Q-Chem 5.4, Q-Chem, Inc., Pleasanton, CA (2021)

 License issued to: University of California, San Diego (site)

 E. Epifanovsky,  A. T. B. Gilbert,  Xintian Feng,  Joonho Lee,  Yuezhi Mao,  
 N. Mardirossian,  P. Pokhilko,  A. White,  M. Wormit,  M. P. Coons,  
 A. L. Dempwolff,  Zhengting Gan,  D. Hait,  P. R. Horn,  L. D. Jacobson,  
 I. Kaliman,  J. Kussmann,  A. W. Lange,  Ka Un Lao,  D. S. Levine,  Jie Liu,  
 S. C. McKenzie,  A. F. Morrison,  K. Nanda,  F. Plasser,  D. R. Rehn,  
 M. L. Vidal,  Zhi-Qiang You,  Ying Zhu,  B. Alam,  B. Albrecht,  
 A. Aldossary,  E. Alguire,  J. H. Andersen,  D. Barton,  K. Begam,  A. Behn,  
 Y. A. Bernard,  E. J. Berquist,  H. Burton,  A. Carreras,  K. Carter-Fenk,  
 R. Chakraborty,  A. D. Chien,  K. D. Closser,  V. Cofer-Shabica,  
 S. Dasgupta,  Jia Deng,  M. de Wergifosse,  M. Diedenhofen,  Hainam Do,  
 S. Ehlert,  Po-Tung Fang,  S. Fatehi,  Qingguo Feng,  J. Gayvert,  
 Qinghui Ge,  G. Gidofalvi,  M. Goldey,  J. Gomes,  C. Gonzalez-Espinoza,  
 S. Gulania,  A. Gunina,  M. W. D. Hanson-Heine,  P. H. P. Harbach,  
 A. W. Hauser,  M. F. Herbst,  M. Hernandez Vera,  M. Hodecker,  
 Z. C. Holden,  S. Houck,  Xunkun Huang,  Kerwin Hui,  B. C. Huynh,  
 M. Ivanov,  Hyunjun Ji,  Hanjie Jiang,  B. Kaduk,  S. Kaehler,  
 K. Khistyaev,  Jaehoon Kim,  P. Klunzinger,  Z. Koczor-Benda,  
 Joong Hoon Koh,  D. Kosenkov,  L. Koulias,  T. Kowalczyk,  C. M. Krauter,  
 K. Kue,  A. Kunitsa,  T. Kus,  A. Landau,  K. V. Lawler,  D. Lefrancois,  
 S. Lehtola,  Rain Li,  Yi-Pei Li,  Jiashu Liang,  M. Liebenthal,  
 Hung-Hsuan Lin,  You-Sheng Lin,  Fenglai Liu,  Kuan-Yu Liu,  
 M. Loipersberger,  A. Luenser,  A. Manjanath,  P. Manohar,  E. Mansoor,  
 S. F. Manzer,  Shan-Ping Mao,  A. V. Marenich,  T. Markovich,  S. Mason,  
 S. A. Maurer,  P. F. McLaughlin,  M. F. S. J. Menger,  J.-M. Mewes,  
 S. A. Mewes,  P. Morgante,  J. W. Mullinax,  T. S. Nguyen-Beck,  
 K. J. Oosterbaan,  G. Paran,  Alexander C. Paul,  Suranjan K. Paul,  
 F. Pavosevic,  Zheng Pei,  S. Prager,  E. I. Proynov,  E. Ramos,  B. Rana,  
 A. E. Rask,  A. Rettig,  R. M. Richard,  F. Rob,  E. Rossomme,  T. Scheele,  
 M. Scheurer,  M. Schneider,  N. Sergueev,  S. M. Sharada,  W. Skomorowski,  
 D. W. Small,  C. J. Stein,  Yu-Chuan Su,  E. J. Sundstrom,  Zhen Tao,  
 J. Thirman,  T. Tsuchimochi,  N. M. Tubman,  S. P. Veccham,  O. Vydrov,  
 J. Wenzel,  J. Witte,  A. Yamada,  Kun Yao,  S. Yeganeh,  S. R. Yost,  
 A. Zech,  Igor Ying Zhang,  Xing Zhang,  Yu Zhang,  D. Zuev,  
 A. Aspuru-Guzik,  A. T. Bell,  N. A. Besley,  K. B. Bravaya,  B. R. Brooks,  
 D. Casanova,  Jeng-Da Chai,  S. Coriani,  C. J. Cramer,  
 A. E. DePrince, III,  R. A. DiStasio Jr.,  A. Dreuw,  B. D. Dunietz,  
 T. R. Furlani,  W. A. Goddard III,  S. Grimme,  S. Hammes-Schiffer,  
 T. Head-Gordon,  W. J. Hehre,  Chao-Ping Hsu,  T.-C. Jagau,  Yousung Jung,  
 A. Klamt,  Jing Kong,  D. S. Lambrecht,  WanZhen Liang,  N. J. Mayhall,  
 C. W. McCurdy,  J. B. Neaton,  C. Ochsenfeld,  J. A. Parkhill,  R. Peverati,  
 V. A. Rassolov,  Yihan Shao,  L. V. Slipchenko,  T. Stauch,  R. P. Steele,  
 J. E. Subotnik,  A. J. W. Thom,  A. Tkatchenko,  D. G. Truhlar,  
 T. Van Voorhis,  T. A. Wesolowski,  K. B. Whaley,  H. L. Woodcock III,  
 P. M. Zimmerman,  S. Faraji,  P. M. W. Gill,  M. Head-Gordon,  
 J. M. Herbert,  A. I. Krylov

 Contributors to earlier versions of Q-Chem not listed above: 
 R. D. Adamson,  B. Austin,  R. Baer,  J. Baker,  G. J. O. Beran,  
 K. Brandhorst,  S. T. Brown,  E. F. C. Byrd,  A. K. Chakraborty,  
 G. K. L. Chan,  Chun-Min Chang,  Yunqing Chen,  C.-L. Cheng,  
 Siu Hung Chien,  D. M. Chipman,  D. L. Crittenden,  H. Dachsel,  
 R. J. Doerksen,  A. D. Dutoi,  R. G. Edgar,  J. Fosso-Tande,  
 L. Fusti-Molnar,  D. Ghosh,  A. Ghysels,  A. Golubeva-Zadorozhnaya,  
 J. Gonthier,  M. S. Gordon,  S. R. Gwaltney,  G. Hawkins,  J. E. Herr,  
 A. Heyden,  S. Hirata,  E. G. Hohenstein,  G. Kedziora,  F. J. Keil,  
 C. Kelley,  Jihan Kim,  R. A. King,  R. Z. Khaliullin,  P. P. Korambath,  
 W. Kurlancheek,  A. Laurent,  A. M. Lee,  M. S. Lee,  S. V. Levchenko,  
 Ching Yeh Lin,  D. Liotard,  E. Livshits,  R. C. Lochan,  I. Lotan,  
 L. A. Martinez-Martinez,  P. E. Maslen,  N. Nair,  D. P. O'Neill,  
 D. Neuhauser,  E. Neuscamman,  C. M. Oana,  R. Olivares-Amaya,  R. Olson,  
 T. M. Perrine,  B. Peters,  P. A. Pieniazek,  A. Prociuk,  Y. M. Rhee,  
 J. Ritchie,  M. A. Rohrdanz,  E. Rosta,  N. J. Russ,  H. F. Schaefer III,  
 M. W. Schmidt,  N. E. Schultz,  S. Sharma,  N. Shenvi,  C. D. Sherrill,  
 A. C. Simmonett,  A. Sodt,  T. Stein,  D. Stuck,  K. S. Thanthiriwatte,  
 V. Vanovschi,  L. Vogt,  Tao Wang,  A. Warshel,  M. A. Watson,  
 C. F. Williams,  Q. Wu,  X. Xu,  Jun Yang,  W. Zhang,  Yan Zhao

 Please cite Q-Chem as follows:
 Y. Shao et al., Mol. Phys. 113, 184-215 (2015)
 DOI: 10.1080/00268976.2014.952696

 Q-Chem 5.4.0 for Intel X86 EM64T Linux

 Parts of Q-Chem use Armadillo 9.800.1 (Horizon Scraper).
 http://arma.sourceforge.net/

 Q-Chem begins on Sat Feb 24 17:35:31 2024  

 Host: 
0

     Scratch files written to /expanse/lustre/scratch/selhajj/temp_project/qcscratch/28916125/qchem3008312//
 May1621 |scratch|qcdevops|jenkins|workspace|build_RNUM    
 Processing $rem in /cm/shared/apps/spack/cpu/opt/spack/linux-centos8-zen2/gcc-10.2.0/qchem-5.4-akfmr7b3t57bfs6qan3padb2wnb2i7cl/config/preferences:
 Processing $rem in /home/selhajj/.qchemrc:

 Checking the input file for inconsistencies... 
 Q-Chem warning in module libgen/CheckREMs.C, line 172:

 Found a $solvent section, which is only used for PCM and Kirkwood-Onsager solvation models

	...done.

--------------------------------------------------------------
User input:
--------------------------------------------------------------
$molecule
-2 1
O                 -0.0509080000     -1.5602180000     -2.3937620000
C                 -0.0275170000     -0.8456580000     -1.3298680000
C                  1.2062980000     -0.4614150000     -0.6723400000
C                  2.4280500000     -0.8836960000     -1.2144810000
C                  3.6652980000     -0.5625890000     -0.6510710000
C                  4.9116990000     -0.9912530000     -1.2015410000
C                  6.1131980000     -0.6599110000     -0.6255140000
C                  6.1392510000      0.1403470000      0.5660080000
C                  4.9629080000      0.5726880000      1.1265320000
C                  3.6917540000      0.2509630000      0.5595490000
C                  2.4789830000      0.6759960000      1.1067750000
C                  1.2328740000      0.3584590000      0.5483190000
C                  0.0276040000      0.8461110000      1.1895200000
O                  0.0507270000      1.5605250000      2.2538300000
C                 -1.2061640000      0.4616150000      0.5322250000
C                 -2.4281460000      0.8832270000      1.0748890000
C                 -3.6652500000      0.5622070000      0.5113630000
C                 -4.9119540000      0.9906480000      1.0618960000
C                 -6.1131620000      0.6593650000      0.4855310000
C                 -6.1392500000     -0.1407180000     -0.7061430000
C                 -4.9626300000     -0.5724070000     -1.2668360000
C                 -3.6918010000     -0.2503750000     -0.6997060000
C                 -2.4787980000     -0.6750480000     -1.2472570000
C                 -1.2330690000     -0.3578400000     -0.6884190000
H                  2.3768940000     -1.4878790000     -2.1161130000
H                  4.8884940000     -1.5977750000     -2.1045640000
H                  7.0464610000     -1.0006950000     -1.0665510000
H                  7.0922070000      0.4011070000      1.0194370000
H                  4.9794210000      1.1794840000      2.0295150000
H                  2.4671530000      1.2828050000      2.0080180000
H                 -2.3769000000      1.4871050000      1.9767000000
H                 -4.8889130000      1.5967520000      1.9651820000
H                 -7.0466130000      0.9993160000      0.9269100000
H                 -7.0921900000     -0.4009360000     -1.1598410000
H                 -4.9789490000     -1.1787620000     -2.1701040000
H                 -2.4670620000     -1.2815450000     -2.1486880000
$end
$rem
MAX_SCF_CYCLES=200
SCF_Guess=core
BASIS  =  6-311++G(d,p)
GUI  =  2
JOB_TYPE  =  SP
METHOD  =  B3LYP
THRESH = 14
SCF_CONVERGENCE = 8
SOLVENT_METHOD = COSMO
$end
$solvent
dielectric 37.219
opticaldielectric 1.43
$end






--------------------------------------------------------------
 ----------------------------------------------------------------
             Standard Nuclear Orientation (Angstroms)
    I     Atom           X                Y                Z
 ----------------------------------------------------------------
    1      O      -0.0000838497     2.7994226003     0.0000832161
    2      C       0.0000297665     1.5176217027     0.0002301866
    3      C       1.2207681725     0.7352644184     0.0000517784
    4      C       2.4557111506     1.3984625138    -0.0003765330
    5      C       3.6819334526     0.7293571367    -0.0002898043
    6      C       4.9417182625     1.4025790295    -0.0004098784
    7      C       6.1318740449     0.7179450663    -0.0002591875
    8      C       6.1318583326    -0.7176092803    -0.0001190956
    9      C       4.9419776371    -1.4024980304     0.0001617356
   10      C       3.6818831381    -0.7294668001     0.0002394214
   11      C       2.4558298404    -1.3985827138     0.0004625522
   12      C       1.2206361095    -0.7354184179     0.0002296855
   13      C       0.0000438240    -1.5175778900     0.0002629778
   14      O      -0.0001013994    -2.7996378514     0.0000465146
   15      C      -1.2206353841    -0.7352738479     0.0001034986
   16      C      -2.4557763945    -1.3985290069    -0.0003234777
   17      C      -3.6818592738    -0.7293784485    -0.0002677951
   18      C      -4.9419369517    -1.4025228397    -0.0003795157
   19      C      -6.1318067202    -0.7176464836    -0.0002815146
   20      C      -6.1318343826     0.7179371274    -0.0001930979
   21      C      -4.9417056519     1.4025977211     0.0001716846
   22      C      -3.6819478840     0.7292792581     0.0002539756
   23      C      -2.4556801743     1.3984600753     0.0005195820
   24      C      -1.2208496572     0.7351689707     0.0002518887
   25      H       2.4242520721     2.4845585453    -0.0005605935
   26      H       4.9382743959     2.4906259116    -0.0006732182
   27      H       7.0758074753     1.2570338306    -0.0006839449
   28      H       7.0758813389    -1.2566261790     0.0002272048
   29      H       4.9387237852    -2.4905429337     0.0004149239
   30      H       2.4242470207    -2.4846759712     0.0005970773
   31      H      -2.4242133112    -2.4846052545    -0.0004886415
   32      H      -4.9386375118    -2.4905520682    -0.0006157941
   33      H      -7.0758904687    -1.2565514233    -0.0007454698
   34      H      -7.0758661149     1.2568749257     0.0000606417
   35      H      -4.9382785190     2.4906298679     0.0004506176
   36      H      -2.4242057111     2.4845371904     0.0007449490
 ----------------------------------------------------------------
 Molecular Point Group                 C1    NOp =  1
 Largest Abelian Subgroup              C1    NOp =  1
 Nuclear Repulsion Energy =        1759.29526032 hartrees
 There are       81 alpha and       81 beta electrons
 Requested basis set is 6-311++G(d,p)
 There are 204 shells and 612 basis functions

 Total QAlloc Memory Limit   8000 MB
 Mega-Array Size       188 MB
 MEM_STATIC part       192 MB
 A cutoff of  1.0D-14 yielded  15309 shell pairs
 There are    142583 function pairs (    152964 Cartesian)
 Smallest overlap matrix eigenvalue = 3.50E-09
 Linear dependence detected in AO basis
 Tighter screening thresholds may be required for diffuse basis sets
 Use S2THRESH > 14 and THRESH = 14 in case of SCF convergence issues
 Number of orthogonalized atomic orbitals = 599
 Maximum deviation from orthogonality = 2.325E-10

 Scale SEOQF with 1.000000e-02/1.000000e-01/1.000000e-01

 Standard Electronic Orientation quadrupole field applied
 Nucleus-field energy     =     0.0000000326 hartrees
 Guess MOs from core Hamiltonian diagonalization

 -----------------------------------------------------------------------
  General SCF calculation program by
  Eric Jon Sundstrom, Paul Horn, Yuezhi Mao, Dmitri Zuev, Alec White,
  David Stuck, Shaama M.S., Shane Yost, Joonho Lee, David Small,
  Daniel Levine, Susi Lehtola, Hugh Burton, Evgeny Epifanovsky,
  Bang C. Huynh
 -----------------------------------------------------------------------
 Exchange:     0.2000 Hartree-Fock + 0.0800 Slater + 0.7200 B88
 Correlation:  0.1900 VWN1RPA + 0.8100 LYP
 Using SG-1 standard quadrature grid
 using 8 threads for integral computing
 -------------------------------------------------------
 OpenMP Integral computing Module                
 Release: version 1.0, May 2013, Q-Chem Inc. Pittsburgh 
 -------------------------------------------------------
 A restricted SCF calculation will be
 performed using DIIS
 SCF converges when DIIS error is below 1.0e-08
 ---------------------------------------
  Cycle       Energy         DIIS error
 ---------------------------------------
    1    -535.7658575677      7.91e-02  
    2     167.9265760362      9.73e-02  
    3    -821.9761783761      3.86e-02  
    4    -781.5924380193      4.77e-02  
    5    -770.6217508756      5.10e-02  
    6    -546.3787839194      6.18e-02  
    7    -968.8333009703      1.91e-02  
    8    -951.0160236630      2.72e-02  
    9    -980.4721790038      1.13e-02  
   10    -809.1470103825      4.06e-02  
   11    -960.7772691768      1.82e-02  
   12    -991.5797545898      7.88e-03  
   13    -987.2317406677      1.02e-02  
   14    -995.6405255933      3.83e-03  
   15    -993.1374416462      6.31e-03  
   16    -996.1505124596      1.58e-03  
   17    -996.1844340473      1.42e-03  
   18    -996.2821879289      4.34e-04  
   19    -996.2916499107      1.72e-04  
   20    -996.2925430080      1.05e-04  
   21    -996.2930790397      4.89e-05  
   22    -996.2931470108      2.61e-05  
   23    -996.2931800802      1.00e-05  
   24    -996.2931835267      7.06e-06  
   25    -996.2931859493      3.00e-06  
   26    -996.2931863680      1.46e-06  
   27    -996.2931864524      9.11e-07  
   28    -996.2931864998      3.30e-07  
   29    -996.2931865056      1.50e-07  
   30    -996.2931865069      2.27e-08  
   31    -996.2931865070      1.12e-08  
   32    -996.2931865070      5.99e-09  Convergence criterion met
 ---------------------------------------
 SCF time:   CPU 3222.94s  wall 413.00s 
 SCF   energy in the final basis set =     -996.2931865070
 Total energy in the final basis set =     -996.2931865070
 Exchange:     0.2000 Hartree-Fock + 0.0800 Slater + 0.7200 B88
 Correlation:  0.1900 VWN1RPA + 0.8100 LYP
 Using SG-1 standard quadrature grid
 in get_qchem_info
 IBasis=      401111
 IBasis=      401111
 USING 1082 GRID
 MICHARGE=          -2
 Set epsilon to    37.2190017700195     
==== cosmo data ====
outfile: 136-an-COSMO.out.cosmo.0
phsran:    0.00000D+00
ampran:    0.10000D-04
volume:   2383.9242563
area:   1130.5693820
routf:      0.8500000
rsolv [a.u]:      2.4566438
disex:     10.0000000
disex2:   4727.3441970
fepsi:      0.9731320
eps :    37.2190018
lcavity:     1
nppa:  1082
nspa:    92
nsph:    32
maxnps:  2592
natoms:    36
Atom   Radius [a.u.] nuc. charge
    1      3.2503287    8
    2      3.7794520    6
    3      3.7794520    6
    4      3.7794520    6
    5      3.7794520    6
    6      3.7794520    6
    7      3.7794520    6
    8      3.7794520    6
    9      3.7794520    6
   10      3.7794520    6
   11      3.7794520    6
   12      3.7794520    6
   13      3.7794520    6
   14      3.2503287    8
   15      3.7794520    6
   16      3.7794520    6
   17      3.7794520    6
   18      3.7794520    6
   19      3.7794520    6
   20      3.7794520    6
   21      3.7794520    6
   22      3.7794520    6
   23      3.7794520    6
   24      3.7794520    6
   25      2.4566438    1
   26      2.4566438    1
   27      2.4566438    1
   28      2.4566438    1
   29      2.4566438    1
   30      2.4566438    1
   31      2.4566438    1
   32      2.4566438    1
   33      2.4566438    1
   34      2.4566438    1
   35      2.4566438    1
   36      2.4566438    1
=== end cosmo data ===
 number of segments:         1395
 f_epsilon=  0.973132003749614     
Ediel:   -0.2357669
 A restricted SCF calculation will be
 performed using Roothaan-Hall, DIIS
 SCF converges when DIIS error is below 1.0e-08
 ---------------------------------------
  Cycle       Energy         DIIS error
 ---------------------------------------
 number of segments:         1395
 f_epsilon=  0.973132003749614     
Ediel:   -0.2925891
    1    -996.5289534480      2.94e-04  Roothaan Step
 ---------------------------------------
  Cycle       Energy         DIIS error
 ---------------------------------------
 number of segments:         1395
 f_epsilon=  0.973132003749614     
Ediel:   -0.2630227
    1    -996.5414480295      3.46e-04  
 number of segments:         1395
 f_epsilon=  0.973132003749614     
Ediel:   -0.2812746
    2    -996.5292724036      6.20e-04  
 number of segments:         1395
 f_epsilon=  0.973132003749614     
Ediel:   -0.2823876
    3    -996.5479395210      5.10e-05  
 number of segments:         1395
 f_epsilon=  0.973132003749614     
Ediel:   -0.2825062
    4    -996.5480541948      1.74e-05  
 number of segments:         1395
 f_epsilon=  0.973132003749614     
Ediel:   -0.2826927
    5    -996.5480643525      1.10e-05  
 number of segments:         1395
 f_epsilon=  0.973132003749614     
Ediel:   -0.2826695
    6    -996.5480692002      2.72e-06  
 number of segments:         1395
 f_epsilon=  0.973132003749614     
Ediel:   -0.2826703
    7    -996.5480695080      1.33e-06  
 number of segments:         1395
 f_epsilon=  0.973132003749614     
Ediel:   -0.2826689
    8    -996.5480695730      4.23e-07  
 number of segments:         1395
 f_epsilon=  0.973132003749614     
Ediel:   -0.2826681
    9    -996.5480695804      1.86e-07  
 number of segments:         1395
 f_epsilon=  0.973132003749614     
Ediel:   -0.2826685
   10    -996.5480695818      6.77e-08  
 number of segments:         1395
 f_epsilon=  0.973132003749614     
Ediel:   -0.2826685
   11    -996.5480695820      2.15e-08  
   12    -996.5480695820      6.69e-09  Convergence criterion met
 ---------------------------------------
 SCF time:   CPU 1299.50s  wall 167.00s 
before final oc correction, ETot:      -996.5480695820
 number of outlayer segments:          573
SCF energy after oc correction:      -996.5614795582
 SCF   energy in the final basis set =     -996.5614795582
 Total energy in the final basis set =     -996.5480695820
 
 --------------------------------------------------------------
 
                    Orbital Energies (a.u.)
 --------------------------------------------------------------
 
 Alpha MOs
 -- Occupied --
-19.0330 -19.0329 -10.1840 -10.1838 -10.1656 -10.1656 -10.1653 -10.1653
-10.1649 -10.1649 -10.1648 -10.1648 -10.1634 -10.1634 -10.1630 -10.1630
-10.1520 -10.1520 -10.1519 -10.1519 -10.1471 -10.1471 -10.1468 -10.1468
 -0.9535  -0.9505  -0.8566  -0.8557  -0.8113  -0.7988  -0.7600  -0.7597
 -0.7482  -0.7154  -0.7109  -0.7061  -0.6425  -0.6395  -0.6028  -0.5989
 -0.5794  -0.5713  -0.5499  -0.5263  -0.5053  -0.4996  -0.4957  -0.4594
 -0.4488  -0.4479  -0.4334  -0.4296  -0.4177  -0.4166  -0.4024  -0.3993
 -0.3955  -0.3930  -0.3843  -0.3783  -0.3781  -0.3751  -0.3577  -0.3577
 -0.3456  -0.3394  -0.3379  -0.3220  -0.3118  -0.3100  -0.3028  -0.2868
 -0.2794  -0.2738  -0.2326  -0.2225  -0.2152  -0.2082  -0.2081  -0.2066
 -0.1068
 -- Virtual --
 -0.0641  -0.0282  -0.0120   0.0009   0.0053   0.0121   0.0133   0.0157
  0.0205   0.0267   0.0319   0.0322   0.0345   0.0458   0.0490   0.0521
  0.0532   0.0574   0.0656   0.0659   0.0698   0.0736   0.0751   0.0756
  0.0792   0.0941   0.0955   0.0956   0.0986   0.1011   0.1068   0.1095
  0.1100   0.1140   0.1162   0.1174   0.1192   0.1266   0.1281   0.1293
  0.1304   0.1318   0.1375   0.1378   0.1402   0.1421   0.1428   0.1444
  0.1512   0.1519   0.1521   0.1589   0.1620   0.1734   0.1758   0.1767
  0.1786   0.1817   0.1826   0.1826   0.1896   0.1903   0.1908   0.1996
  0.2004   0.2099   0.2128   0.2187   0.2218   0.2225   0.2243   0.2283
  0.2302   0.2344   0.2352   0.2363   0.2405   0.2416   0.2432   0.2460
  0.2522   0.2528   0.2563   0.2564   0.2568   0.2579   0.2634   0.2724
  0.2748   0.2819   0.2850   0.2853   0.2859   0.2944   0.2957   0.2987
  0.2997   0.3002   0.3022   0.3042   0.3071   0.3157   0.3176   0.3176
  0.3200   0.3282   0.3289   0.3313   0.3329   0.3353   0.3415   0.3462
  0.3467   0.3486   0.3547   0.3580   0.3709   0.3833   0.3845   0.3874
  0.3903   0.3946   0.3953   0.3972   0.4006   0.4116   0.4265   0.4434
  0.4513   0.4578   0.4668   0.4671   0.4778   0.4867   0.4958   0.5039
  0.5217   0.5244   0.5358   0.5408   0.5414   0.5427   0.5604   0.5625
  0.5688   0.5714   0.5723   0.5748   0.5790   0.5833   0.5849   0.5853
  0.5857   0.5869   0.5938   0.5978   0.5985   0.6079   0.6090   0.6141
  0.6163   0.6175   0.6273   0.6385   0.6403   0.6566   0.6596   0.6602
  0.6629   0.6735   0.6780   0.6806   0.6843   0.6875   0.6951   0.7007
  0.7011   0.7049   0.7104   0.7190   0.7270   0.7429   0.7444   0.7469
  0.7508   0.7556   0.7558   0.7708   0.7744   0.7798   0.7830   0.7852
  0.7882   0.8056   0.8064   0.8091   0.8167   0.8303   0.8507   0.8515
  0.8547   0.8749   0.8755   0.8781   0.8845   0.8931   0.9096   0.9102
  0.9219   0.9334   0.9341   0.9369   0.9399   0.9413   0.9436   0.9495
  0.9607   0.9664   0.9744   0.9791   0.9806   0.9936   0.9956   1.0009
  1.0028   1.0033   1.0074   1.0077   1.0241   1.0300   1.0425   1.0457
  1.0523   1.0610   1.0742   1.0799   1.0815   1.0827   1.0832   1.0845
  1.1035   1.1192   1.1236   1.1257   1.1295   1.1342   1.1486   1.1487
  1.1638   1.1662   1.1734   1.1770   1.1978   1.2331   1.2510   1.2552
  1.2576   1.2713   1.2875   1.2901   1.3024   1.3065   1.3299   1.3550
  1.3753   1.3781   1.3896   1.3946   1.3972   1.4309   1.4727   1.4889
  1.4959   1.5015   1.5053   1.5060   1.5179   1.5217   1.5222   1.5250
  1.5255   1.5369   1.5390   1.5412   1.5442   1.5612   1.5694   1.5729
  1.5737   1.5825   1.6017   1.6084   1.6203   1.6329   1.6330   1.6559
  1.6632   1.6799   1.6845   1.6925   1.7089   1.7288   1.7294   1.7521
  1.7530   1.7558   1.7574   1.7761   1.7775   1.7815   1.7934   1.7977
  1.8161   1.8194   1.8260   1.8334   1.8590   1.8957   1.8983   1.8992
  1.9031   1.9090   1.9090   1.9138   1.9146   1.9154   1.9414   1.9421
  1.9482   1.9492   1.9549   1.9557   1.9744   1.9840   1.9928   1.9931
  2.0033   2.0205   2.0208   2.0421   2.0490   2.0703   2.0844   2.0928
  2.1192   2.1214   2.1284   2.1316   2.1404   2.1419   2.1481   2.1554
  2.1771   2.1903   2.2138   2.2176   2.2463   2.2576   2.2630   2.2644
  2.2894   2.2958   2.3139   2.3532   2.3828   2.3929   2.3999   2.4227
  2.4400   2.4539   2.4575   2.4644   2.4681   2.4921   2.4959   2.5041
  2.5065   2.5267   2.5778   2.6011   2.6012   2.6518   2.6537   2.6568
  2.6743   2.6832   2.6943   2.7139   2.7258   2.7306   2.7314   2.7330
  2.7533   2.7552   2.7646   2.7678   2.7732   2.7740   2.7751   2.7784
  2.7941   2.7946   2.7981   2.8023   2.8126   2.8137   2.8182   2.8367
  2.8379   2.8533   2.8605   2.8682   2.8839   2.8876   2.8939   2.9134
  2.9134   2.9135   2.9244   2.9448   2.9484   2.9741   2.9826   2.9905
  2.9934   3.0033   3.0085   3.0340   3.0557   3.0853   3.0973   3.1236
  3.1278   3.1592   3.1603   3.2006   3.2016   3.2360   3.2513   3.2551
  3.2876   3.3225   3.3348   3.3448   3.3502   3.3676   3.3715   3.3936
  3.4141   3.4327   3.4422   3.4758   3.4787   3.5004   3.5525   3.5568
  3.5661   3.5753   3.5905   3.6033   3.6067   3.6178   3.6753   3.6939
  3.7190   3.7552   3.7603   3.8039   3.8837   3.9215   4.0522   4.0539
  4.0597   4.0606   4.2051   4.2060   4.2436   4.2704   4.2917   4.2991
  4.3710   4.4252   4.6633   4.8162   4.8208   4.8359   4.8604   4.8707
  5.1247   5.1369   5.3164   5.3509   5.7959   5.8653  23.5081  23.6348
 23.7943  23.8641  23.8676  23.8841  23.9316  23.9380  23.9647  23.9784
 23.9912  24.0282  24.0367  24.0409  24.1258  24.1340  24.1479  24.1495
 24.1660  24.1702  24.1965  24.1981  50.0944  50.1557
 --------------------------------------------------------------
 
          Ground-State Mulliken Net Atomic Charges

     Atom                 Charge (a.u.)
  ----------------------------------------
      1 O                    -0.661646
      2 C                    -0.594056
      3 C                     0.231372
      4 C                    -0.014427
      5 C                     0.069040
      6 C                    -0.257817
      7 C                    -0.399867
      8 C                    -0.399287
      9 C                    -0.259418
     10 C                     0.071798
     11 C                    -0.014280
     12 C                     0.230407
     13 C                    -0.590601
     14 O                    -0.661549
     15 C                     0.229996
     16 C                    -0.015010
     17 C                     0.069970
     18 C                    -0.258966
     19 C                    -0.399562
     20 C                    -0.399630
     21 C                    -0.258328
     22 C                     0.070649
     23 C                    -0.014252
     24 C                     0.232625
     25 H                     0.134925
     26 H                     0.167206
     27 H                     0.196190
     28 H                     0.196207
     29 H                     0.167227
     30 H                     0.134658
     31 H                     0.134851
     32 H                     0.167188
     33 H                     0.196206
     34 H                     0.196220
     35 H                     0.167269
     36 H                     0.134693
  ----------------------------------------
  Sum of atomic charges =    -2.000000

 -----------------------------------------------------------------
                    Cartesian Multipole Moments
 -----------------------------------------------------------------
    Charge (ESU x 10^10)
                -9.6064
    Dipole Moment (Debye)
         X      -0.0053      Y       0.0047      Z       0.0004
       Tot       0.0071
    Quadrupole Moments (Debye-Ang)
        XX    -179.1288     XY      -0.0028     YY    -193.5262
        XZ      -0.0012     YZ      -0.0028     ZZ    -154.7824
    Octopole Moments (Debye-Ang^2)
       XXX      -0.1751    XXY       0.0223    XYY      -0.0044
       YYY       0.0543    XXZ       0.0145    XYZ      -0.0210
       YYZ      -0.0068    XZZ      -0.0082    YZZ       0.0058
       ZZZ       0.0030
    Hexadecapole Moments (Debye-Ang^3)
      XXXX  -12334.3887   XXXY       0.0634   XXYY   -2204.6734
      XYYY      -0.0046   YYYY   -2377.0918   XXXZ      -0.0209
      XXYZ      -0.0074   XYYZ      -0.0068   YYYZ      -0.0311
      XXZZ   -2348.9046   XYZZ      -0.0030   YYZZ    -384.3145
      XZZZ      -0.0034   YZZZ      -0.0063   ZZZZ    -194.5056
 -----------------------------------------------------------------
 Total job time:  583.94s(wall), 4535.36s(cpu) 
 Sat Feb 24 17:45:15 2024

        *************************************************************
        *                                                           *
        *  Thank you very much for using Q-Chem.  Have a nice day.  *
        *                                                           *
        *************************************************************


