
Running Job 1 of 1 167-rad-COSMO.in
qchem 167-rad-COSMO.in_2015935.0 /expanse/lustre/scratch/selhajj/temp_project/qcscratch/28869667/qchem2015935/ 0
/cm/shared/apps/spack/cpu/opt/spack/linux-centos8-zen2/gcc-10.2.0/qchem-5.4-akfmr7b3t57bfs6qan3padb2wnb2i7cl/exe/qcprog.exe_s 167-rad-COSMO.in_2015935.0 /expanse/lustre/scratch/selhajj/temp_project/qcscratch/28869667/qchem2015935/
                  Welcome to Q-Chem
     A Quantum Leap Into The Future Of Chemistry


 Q-Chem 5.4, Q-Chem, Inc., Pleasanton, CA (2021)

 License issued to: University of California, San Diego (site)

 E. Epifanovsky,  A. T. B. Gilbert,  Xintian Feng,  Joonho Lee,  Yuezhi Mao,  
 N. Mardirossian,  P. Pokhilko,  A. White,  M. Wormit,  M. P. Coons,  
 A. L. Dempwolff,  Zhengting Gan,  D. Hait,  P. R. Horn,  L. D. Jacobson,  
 I. Kaliman,  J. Kussmann,  A. W. Lange,  Ka Un Lao,  D. S. Levine,  Jie Liu,  
 S. C. McKenzie,  A. F. Morrison,  K. Nanda,  F. Plasser,  D. R. Rehn,  
 M. L. Vidal,  Zhi-Qiang You,  Ying Zhu,  B. Alam,  B. Albrecht,  
 A. Aldossary,  E. Alguire,  J. H. Andersen,  D. Barton,  K. Begam,  A. Behn,  
 Y. A. Bernard,  E. J. Berquist,  H. Burton,  A. Carreras,  K. Carter-Fenk,  
 R. Chakraborty,  A. D. Chien,  K. D. Closser,  V. Cofer-Shabica,  
 S. Dasgupta,  Jia Deng,  M. de Wergifosse,  M. Diedenhofen,  Hainam Do,  
 S. Ehlert,  Po-Tung Fang,  S. Fatehi,  Qingguo Feng,  J. Gayvert,  
 Qinghui Ge,  G. Gidofalvi,  M. Goldey,  J. Gomes,  C. Gonzalez-Espinoza,  
 S. Gulania,  A. Gunina,  M. W. D. Hanson-Heine,  P. H. P. Harbach,  
 A. W. Hauser,  M. F. Herbst,  M. Hernandez Vera,  M. Hodecker,  
 Z. C. Holden,  S. Houck,  Xunkun Huang,  Kerwin Hui,  B. C. Huynh,  
 M. Ivanov,  Hyunjun Ji,  Hanjie Jiang,  B. Kaduk,  S. Kaehler,  
 K. Khistyaev,  Jaehoon Kim,  P. Klunzinger,  Z. Koczor-Benda,  
 Joong Hoon Koh,  D. Kosenkov,  L. Koulias,  T. Kowalczyk,  C. M. Krauter,  
 K. Kue,  A. Kunitsa,  T. Kus,  A. Landau,  K. V. Lawler,  D. Lefrancois,  
 S. Lehtola,  Rain Li,  Yi-Pei Li,  Jiashu Liang,  M. Liebenthal,  
 Hung-Hsuan Lin,  You-Sheng Lin,  Fenglai Liu,  Kuan-Yu Liu,  
 M. Loipersberger,  A. Luenser,  A. Manjanath,  P. Manohar,  E. Mansoor,  
 S. F. Manzer,  Shan-Ping Mao,  A. V. Marenich,  T. Markovich,  S. Mason,  
 S. A. Maurer,  P. F. McLaughlin,  M. F. S. J. Menger,  J.-M. Mewes,  
 S. A. Mewes,  P. Morgante,  J. W. Mullinax,  T. S. Nguyen-Beck,  
 K. J. Oosterbaan,  G. Paran,  Alexander C. Paul,  Suranjan K. Paul,  
 F. Pavosevic,  Zheng Pei,  S. Prager,  E. I. Proynov,  E. Ramos,  B. Rana,  
 A. E. Rask,  A. Rettig,  R. M. Richard,  F. Rob,  E. Rossomme,  T. Scheele,  
 M. Scheurer,  M. Schneider,  N. Sergueev,  S. M. Sharada,  W. Skomorowski,  
 D. W. Small,  C. J. Stein,  Yu-Chuan Su,  E. J. Sundstrom,  Zhen Tao,  
 J. Thirman,  T. Tsuchimochi,  N. M. Tubman,  S. P. Veccham,  O. Vydrov,  
 J. Wenzel,  J. Witte,  A. Yamada,  Kun Yao,  S. Yeganeh,  S. R. Yost,  
 A. Zech,  Igor Ying Zhang,  Xing Zhang,  Yu Zhang,  D. Zuev,  
 A. Aspuru-Guzik,  A. T. Bell,  N. A. Besley,  K. B. Bravaya,  B. R. Brooks,  
 D. Casanova,  Jeng-Da Chai,  S. Coriani,  C. J. Cramer,  
 A. E. DePrince, III,  R. A. DiStasio Jr.,  A. Dreuw,  B. D. Dunietz,  
 T. R. Furlani,  W. A. Goddard III,  S. Grimme,  S. Hammes-Schiffer,  
 T. Head-Gordon,  W. J. Hehre,  Chao-Ping Hsu,  T.-C. Jagau,  Yousung Jung,  
 A. Klamt,  Jing Kong,  D. S. Lambrecht,  WanZhen Liang,  N. J. Mayhall,  
 C. W. McCurdy,  J. B. Neaton,  C. Ochsenfeld,  J. A. Parkhill,  R. Peverati,  
 V. A. Rassolov,  Yihan Shao,  L. V. Slipchenko,  T. Stauch,  R. P. Steele,  
 J. E. Subotnik,  A. J. W. Thom,  A. Tkatchenko,  D. G. Truhlar,  
 T. Van Voorhis,  T. A. Wesolowski,  K. B. Whaley,  H. L. Woodcock III,  
 P. M. Zimmerman,  S. Faraji,  P. M. W. Gill,  M. Head-Gordon,  
 J. M. Herbert,  A. I. Krylov

 Contributors to earlier versions of Q-Chem not listed above: 
 R. D. Adamson,  B. Austin,  R. Baer,  J. Baker,  G. J. O. Beran,  
 K. Brandhorst,  S. T. Brown,  E. F. C. Byrd,  A. K. Chakraborty,  
 G. K. L. Chan,  Chun-Min Chang,  Yunqing Chen,  C.-L. Cheng,  
 Siu Hung Chien,  D. M. Chipman,  D. L. Crittenden,  H. Dachsel,  
 R. J. Doerksen,  A. D. Dutoi,  R. G. Edgar,  J. Fosso-Tande,  
 L. Fusti-Molnar,  D. Ghosh,  A. Ghysels,  A. Golubeva-Zadorozhnaya,  
 J. Gonthier,  M. S. Gordon,  S. R. Gwaltney,  G. Hawkins,  J. E. Herr,  
 A. Heyden,  S. Hirata,  E. G. Hohenstein,  G. Kedziora,  F. J. Keil,  
 C. Kelley,  Jihan Kim,  R. A. King,  R. Z. Khaliullin,  P. P. Korambath,  
 W. Kurlancheek,  A. Laurent,  A. M. Lee,  M. S. Lee,  S. V. Levchenko,  
 Ching Yeh Lin,  D. Liotard,  E. Livshits,  R. C. Lochan,  I. Lotan,  
 L. A. Martinez-Martinez,  P. E. Maslen,  N. Nair,  D. P. O'Neill,  
 D. Neuhauser,  E. Neuscamman,  C. M. Oana,  R. Olivares-Amaya,  R. Olson,  
 T. M. Perrine,  B. Peters,  P. A. Pieniazek,  A. Prociuk,  Y. M. Rhee,  
 J. Ritchie,  M. A. Rohrdanz,  E. Rosta,  N. J. Russ,  H. F. Schaefer III,  
 M. W. Schmidt,  N. E. Schultz,  S. Sharma,  N. Shenvi,  C. D. Sherrill,  
 A. C. Simmonett,  A. Sodt,  T. Stein,  D. Stuck,  K. S. Thanthiriwatte,  
 V. Vanovschi,  L. Vogt,  Tao Wang,  A. Warshel,  M. A. Watson,  
 C. F. Williams,  Q. Wu,  X. Xu,  Jun Yang,  W. Zhang,  Yan Zhao

 Please cite Q-Chem as follows:
 Y. Shao et al., Mol. Phys. 113, 184-215 (2015)
 DOI: 10.1080/00268976.2014.952696

 Q-Chem 5.4.0 for Intel X86 EM64T Linux

 Parts of Q-Chem use Armadillo 9.800.1 (Horizon Scraper).
 http://arma.sourceforge.net/

 Q-Chem begins on Thu Feb 22 04:35:58 2024  

 Host: 
0

     Scratch files written to /expanse/lustre/scratch/selhajj/temp_project/qcscratch/28869667/qchem2015935//
 May1621 |scratch|qcdevops|jenkins|workspace|build_RNUM    
 Processing $rem in /cm/shared/apps/spack/cpu/opt/spack/linux-centos8-zen2/gcc-10.2.0/qchem-5.4-akfmr7b3t57bfs6qan3padb2wnb2i7cl/config/preferences:
 Processing $rem in /home/selhajj/.qchemrc:

 Checking the input file for inconsistencies... 
 Q-Chem warning in module libgen/CheckREMs.C, line 172:

 Found a $solvent section, which is only used for PCM and Kirkwood-Onsager solvation models

	...done.

--------------------------------------------------------------
User input:
--------------------------------------------------------------
$molecule
-1 2
N                  3.5762560000     -1.2690170000      0.1384910000
C                  2.8831880000     -0.0904570000     -0.0825520000
C                  3.5807600000      1.0947900000     -0.3264540000
C                  2.9009340000      2.3099000000     -0.4873800000
C                  1.5234060000      2.3603070000     -0.4030820000
C                  0.7799930000      1.1843360000     -0.1711920000
C                 -0.6786910000      1.3010390000     -0.1048050000
O                 -1.2269810000      2.4372670000     -0.2565030000
C                 -1.4416950000      0.0827450000      0.1214030000
C                 -2.8760470000      0.1067490000      0.2117370000
N                 -3.5569920000      1.3127560000      0.2080370000
C                 -3.5796570000     -1.0922320000      0.3463540000
C                 -2.9047730000     -2.3186100000      0.4184140000
C                 -1.5257140000     -2.3655270000      0.3621490000
C                 -0.7776730000     -1.1790510000      0.2132680000
C                  0.6810430000     -1.2957260000      0.1475110000
O                  1.2251250000     -2.4415480000      0.2228880000
C                  1.4473990000     -0.0699260000     -0.0194540000
H                  2.9773710000     -2.0970940000      0.1121790000
H                  4.4950790000     -1.3284050000     -0.2716110000
H                  4.6664980000      1.0639280000     -0.3705340000
H                  3.4691310000      3.2173530000     -0.6722440000
H                  0.9768880000      3.2875440000     -0.5144390000
H                 -4.5156430000      1.2813970000     -0.1017220000
H                 -2.9759120000      2.1002960000     -0.0870890000
H                 -4.6640770000     -1.0583670000      0.4143670000
H                 -3.4773390000     -3.2355850000      0.5271290000
H                 -0.9818800000     -3.2988610000      0.4251340000
$end
$rem
MAX_SCF_CYCLES=200
BASIS  =  6-311++G(d,p)
GUI  =  2
JOB_TYPE  =  SP
METHOD  =  B3LYP
SOLVENT_METHOD = COSMO
$end
$solvent
dielectric 37.219
opticaldielectric 1.43
$end





--------------------------------------------------------------
 ----------------------------------------------------------------
             Standard Nuclear Orientation (Angstroms)
    I     Atom           X                Y                Z
 ----------------------------------------------------------------
    1      N       3.2786096500    -1.9076869510     0.1507565161
    2      C       2.8208720534    -0.6051351213     0.0410206625
    3      C       3.7312050370     0.4527653870    -0.0141672474
    4      C       3.2882521320     1.7817991703    -0.0590538467
    5      C       1.9383238301     2.0728716055    -0.0448825206
    6      C       0.9855272796     1.0337545711    -0.0029519176
    7      C      -0.4311278888     1.4064124620    -0.0026945625
    8      O      -0.7594305493     2.6333568510    -0.0410756071
    9      C      -1.4101102175     0.3301769727     0.0272421230
   10      C      -2.8208915778     0.6051487853     0.0409730862
   11      N      -3.2785494172     1.9077134805     0.1506416037
   12      C      -3.7311963113    -0.4527033114    -0.0141489685
   13      C      -3.2882694671    -1.7817896121    -0.0589761012
   14      C      -1.9383716606    -2.0729033913    -0.0448566070
   15      C      -0.9855428149    -1.0337593109    -0.0029882499
   16      C       0.4311005015    -1.4064669483    -0.0026162460
   17      O       0.7594310091    -2.6333816937    -0.0412718516
   18      C       1.4101555158    -0.3302126566     0.0272576308
   19      H       2.5481578244    -2.6041928702    -0.0116833724
   20      H       4.2015735476    -2.0869761969    -0.2124779816
   21      H       4.7950283311     0.2294801121    -0.0020759743
   22      H       4.0185755294     2.5853146345    -0.0975780008
   23      H       1.5721949051     3.0908122144    -0.0693219752
   24      H      -4.2014309290     2.0870572709    -0.2127745279
   25      H      -2.5480838945     2.6042319668    -0.0113913940
   26      H      -4.7950308318    -0.2294324383    -0.0020836008
   27      H      -4.0187236451    -2.5851951854    -0.0973180492
   28      H      -1.5722446132    -3.0908380858    -0.0692457056
 ----------------------------------------------------------------
 Molecular Point Group                 C1    NOp =  1
 Largest Abelian Subgroup              C1    NOp =  1
 Nuclear Repulsion Energy =        1232.47831348 hartrees
 There are       63 alpha and       62 beta electrons
 Requested basis set is 6-311++G(d,p)
 There are 158 shells and 466 basis functions

 Total QAlloc Memory Limit   8000 MB
 Mega-Array Size       188 MB
 MEM_STATIC part       192 MB
 A cutoff of  1.0D-08 yielded   8794 shell pairs
 There are     80074 function pairs (     85733 Cartesian)
 Smallest overlap matrix eigenvalue = 5.90E-08

 Q-Chem warning in module stvman/mkSTV.C, line 323:

 Overlap eigenvalue is smaller than square root of threshold
 Use THRESH >= 12 to get rid of this warning

 Linear dependence detected in AO basis
 Tighter screening thresholds may be required for diffuse basis sets
 Use S2THRESH > 14 and THRESH = 14 in case of SCF convergence issues
 Number of orthogonalized atomic orbitals = 458
 Maximum deviation from orthogonality = 2.411E-10

 Scale SEOQF with 1.000000e-01/1.000000e-01/1.000000e-01

 Standard Electronic Orientation quadrupole field applied
 Nucleus-field energy     =     0.0000000524 hartrees
 Guess from superposition of atomic densities
 Warning:  Energy on first SCF cycle will be non-variational
 SAD guess density has 124.000000 electrons

 -----------------------------------------------------------------------
  General SCF calculation program by
  Eric Jon Sundstrom, Paul Horn, Yuezhi Mao, Dmitri Zuev, Alec White,
  David Stuck, Shaama M.S., Shane Yost, Joonho Lee, David Small,
  Daniel Levine, Susi Lehtola, Hugh Burton, Evgeny Epifanovsky,
  Bang C. Huynh
 -----------------------------------------------------------------------
 Exchange:     0.2000 Hartree-Fock + 0.0800 Slater + 0.7200 B88
 Correlation:  0.1900 VWN1RPA + 0.8100 LYP
 Using SG-1 standard quadrature grid
 using 8 threads for integral computing
 -------------------------------------------------------
 OpenMP Integral computing Module                
 Release: version 1.0, May 2013, Q-Chem Inc. Pittsburgh 
 -------------------------------------------------------
 A unrestricted SCF calculation will be
 performed using DIIS
 SCF converges when DIIS error is below 1.0e-05
 ---------------------------------------
  Cycle       Energy         DIIS error
 ---------------------------------------
    1    -804.1334971805      1.57e-02  
    2    -799.4030218947      1.94e-03  
    3    -798.7322877024      3.19e-03  
    4    -799.6916985438      9.53e-04  
    5    -799.7761900005      1.77e-04  
    6    -799.7791236850      8.82e-05  
    7    -799.7797501909      5.17e-05  
    8    -799.7800959291      1.27e-05  
    9    -799.7801232073      8.56e-06  Convergence criterion met
 ---------------------------------------
 SCF time:   CPU 351.20s  wall 45.00s 
<S^2> =          0.758916191
 SCF   energy in the final basis set =     -799.7801232073
 Total energy in the final basis set =     -799.7801232073
 Exchange:     0.2000 Hartree-Fock + 0.0800 Slater + 0.7200 B88
 Correlation:  0.1900 VWN1RPA + 0.8100 LYP
 Using SG-1 standard quadrature grid
 in get_qchem_info
 IBasis=      401111
 IBasis=      401111
 USING 1082 GRID
 MICHARGE=          -1
 Set epsilon to    37.2190017700195     
==== cosmo data ====
outfile: 167-rad-COSMO.out.cosmo.0
phsran:    0.00000D+00
ampran:    0.10000D-04
volume:   1781.9850702
area:    869.4602053
routf:      0.8500000
rsolv [a.u]:      2.4566438
disex:     10.0000000
disex2:   4581.6694083
fepsi:      0.9731320
eps :    37.2190018
lcavity:     1
nppa:  1082
nspa:    92
nsph:    32
maxnps:  1976
natoms:    28
Atom   Radius [a.u.] nuc. charge
    1      3.4581986    7
    2      3.7794520    6
    3      3.7794520    6
    4      3.7794520    6
    5      3.7794520    6
    6      3.7794520    6
    7      3.7794520    6
    8      3.2503287    8
    9      3.7794520    6
   10      3.7794520    6
   11      3.4581986    7
   12      3.7794520    6
   13      3.7794520    6
   14      3.7794520    6
   15      3.7794520    6
   16      3.7794520    6
   17      3.2503287    8
   18      3.7794520    6
   19      2.4566438    1
   20      2.4566438    1
   21      2.4566438    1
   22      2.4566438    1
   23      2.4566438    1
   24      2.4566438    1
   25      2.4566438    1
   26      2.4566438    1
   27      2.4566438    1
   28      2.4566438    1
=== end cosmo data ===
 number of segments:         1102
 f_epsilon=  0.973132003749614     
Ediel:   -0.0788052
 A unrestricted SCF calculation will be
 performed using Roothaan-Hall, DIIS
 SCF converges when DIIS error is below 1.0e-05
 ---------------------------------------
  Cycle       Energy         DIIS error
 ---------------------------------------
 number of segments:         1102
 f_epsilon=  0.973132003749614     
Ediel:   -0.0973925
    1    -799.8589435507      1.40e-04  Roothaan Step
 ---------------------------------------
  Cycle       Energy         DIIS error
 ---------------------------------------
 number of segments:         1102
 f_epsilon=  0.973132003749614     
Ediel:   -0.0891765
    1    -799.8636914974      1.26e-04  
 number of segments:         1102
 f_epsilon=  0.973132003749614     
Ediel:   -0.0939935
    2    -799.8608803987      2.12e-04  
 number of segments:         1102
 f_epsilon=  0.973132003749614     
Ediel:   -0.0943574
    3    -799.8655322364      2.46e-05  
    4    -799.8655897969      6.91e-06  Convergence criterion met
 ---------------------------------------
 SCF time:   CPU 269.89s  wall 35.00s 
<S^2> =          0.758283783
before final oc correction, ETot:      -799.8655897969
 number of outlayer segments:          464
SCF energy after oc correction:      -799.8716481981
 SCF   energy in the final basis set =     -799.8716481981
 Total energy in the final basis set =     -799.8655897969
 
 --------------------------------------------------------------
 
                    Orbital Energies (a.u.)
 --------------------------------------------------------------
 
 Alpha MOs
 -- Occupied --
-19.0791 -19.0791 -14.3025 -14.3025 -10.2273 -10.2273 -10.2151 -10.2151
-10.1717 -10.1717 -10.1710 -10.1710 -10.1694 -10.1694 -10.1608 -10.1608
-10.1561 -10.1561  -1.0068  -1.0043  -0.9115  -0.9106  -0.8463  -0.8296
 -0.7810  -0.7375  -0.7331  -0.7231  -0.6637  -0.6338  -0.6243  -0.5799
 -0.5568  -0.5529  -0.5250  -0.5037  -0.4944  -0.4788  -0.4702  -0.4546
 -0.4487  -0.4334  -0.4324  -0.4260  -0.4154  -0.4030  -0.3932  -0.3900
 -0.3769  -0.3684  -0.3577  -0.3570  -0.3487  -0.3407  -0.3127  -0.3052
 -0.2687  -0.2507  -0.2474  -0.2398  -0.2165  -0.2075  -0.1383
 -- Virtual --
 -0.0415  -0.0202  -0.0008   0.0066   0.0113   0.0115   0.0220   0.0230
  0.0407   0.0425   0.0452   0.0461   0.0510   0.0624   0.0632   0.0664
  0.0677   0.0717   0.0735   0.0871   0.0936   0.0970   0.0997   0.1066
  0.1095   0.1173   0.1210   0.1233   0.1253   0.1280   0.1311   0.1318
  0.1367   0.1377   0.1438   0.1451   0.1529   0.1588   0.1628   0.1659
  0.1696   0.1721   0.1748   0.1761   0.1795   0.1842   0.1879   0.1906
  0.1987   0.2001   0.2050   0.2120   0.2135   0.2154   0.2235   0.2259
  0.2298   0.2358   0.2374   0.2410   0.2431   0.2472   0.2491   0.2497
  0.2530   0.2532   0.2671   0.2671   0.2727   0.2754   0.2785   0.2818
  0.2843   0.2890   0.2935   0.3014   0.3027   0.3047   0.3088   0.3110
  0.3156   0.3235   0.3244   0.3354   0.3357   0.3377   0.3415   0.3441
  0.3451   0.3544   0.3610   0.3670   0.3721   0.3828   0.3835   0.3891
  0.4041   0.4153   0.4210   0.4295   0.4400   0.4617   0.4653   0.4820
  0.4963   0.5094   0.5195   0.5369   0.5466   0.5521   0.5550   0.5624
  0.5681   0.5723   0.5754   0.5849   0.6009   0.6030   0.6076   0.6106
  0.6192   0.6269   0.6354   0.6378   0.6448   0.6475   0.6532   0.6583
  0.6641   0.6708   0.6778   0.6820   0.6863   0.6898   0.7041   0.7068
  0.7292   0.7384   0.7474   0.7594   0.7695   0.7716   0.7790   0.7889
  0.7959   0.7989   0.8134   0.8218   0.8445   0.8459   0.8559   0.8565
  0.8638   0.8659   0.8779   0.8833   0.8887   0.9009   0.9049   0.9127
  0.9151   0.9269   0.9364   0.9395   0.9503   0.9515   0.9548   0.9610
  0.9854   0.9882   0.9936   1.0058   1.0148   1.0211   1.0378   1.0381
  1.0580   1.0622   1.0662   1.0764   1.1005   1.1129   1.1142   1.1286
  1.1499   1.1587   1.1750   1.1767   1.1921   1.2157   1.2278   1.2347
  1.2407   1.2650   1.2675   1.2895   1.3117   1.3222   1.3450   1.3498
  1.3554   1.4082   1.4527   1.4694   1.4845   1.4892   1.4931   1.5041
  1.5062   1.5175   1.5214   1.5327   1.5413   1.5528   1.5720   1.5774
  1.5789   1.6041   1.6061   1.6177   1.6202   1.6452   1.6460   1.6753
  1.6865   1.7018   1.7130   1.7241   1.7324   1.7453   1.7484   1.7514
  1.7628   1.7684   1.8026   1.8047   1.8390   1.8443   1.8736   1.8821
  1.8992   1.9018   1.9130   1.9132   1.9141   1.9365   1.9481   1.9595
  1.9607   1.9645   1.9747   1.9806   1.9921   1.9940   2.0113   2.0114
  2.0238   2.0331   2.0552   2.0903   2.0977   2.1169   2.1327   2.1561
  2.1679   2.1870   2.1938   2.2110   2.2707   2.2782   2.3030   2.3061
  2.3276   2.3772   2.3800   2.3844   2.4187   2.4224   2.4485   2.4902
  2.5107   2.5422   2.5643   2.5647   2.5867   2.5908   2.6332   2.6412
  2.6679   2.6784   2.6955   2.7051   2.7231   2.7263   2.7358   2.7391
  2.7440   2.7545   2.7736   2.7887   2.7929   2.7945   2.8006   2.8061
  2.8070   2.8226   2.8278   2.8325   2.8356   2.8550   2.8685   2.8800
  2.8953   2.9033   2.9037   2.9442   2.9578   2.9674   2.9933   3.0272
  3.0365   3.0399   3.0997   3.1095   3.1200   3.1204   3.1369   3.1608
  3.2203   3.2253   3.2272   3.2513   3.2531   3.3149   3.3230   3.3375
  3.3487   3.3898   3.4099   3.4171   3.4441   3.4661   3.4997   3.5205
  3.5248   3.5481   3.5677   3.5893   3.5904   3.6919   3.7851   3.8195
  3.8337   3.9210   3.9689   4.0152   4.0260   4.0592   4.0735   4.1642
  4.1726   4.2874   4.2986   4.4927   4.7943   4.8267   4.8400   4.8552
  4.8690   5.0411   5.0498   5.0785   5.0941   5.3568   5.3640   5.7761
  5.8513  23.5372  23.7087  23.8974  23.9065  23.9265  23.9385  23.9426
 23.9777  24.0112  24.0371  24.0838  24.0876  24.1947  24.1965  35.6783
 35.6867  50.0607  50.1108
 
 Beta MOs
 -- Occupied --
-19.0743 -19.0743 -14.3023 -14.3023 -10.2253 -10.2253 -10.2151 -10.2150
-10.1717 -10.1716 -10.1702 -10.1702 -10.1689 -10.1689 -10.1599 -10.1599
-10.1558 -10.1558  -0.9985  -0.9957  -0.9107  -0.9097  -0.8436  -0.8282
 -0.7773  -0.7357  -0.7299  -0.7214  -0.6570  -0.6318  -0.6221  -0.5791
 -0.5546  -0.5510  -0.5235  -0.5029  -0.4936  -0.4764  -0.4679  -0.4537
 -0.4478  -0.4320  -0.4311  -0.4154  -0.4121  -0.4006  -0.3912  -0.3831
 -0.3672  -0.3605  -0.3564  -0.3516  -0.3442  -0.3380  -0.3063  -0.2990
 -0.2511  -0.2463  -0.2425  -0.2356  -0.2066  -0.2021
 -- Virtual --
 -0.0842  -0.0298  -0.0101  -0.0006   0.0067   0.0116   0.0141   0.0220
  0.0231   0.0411   0.0426   0.0453   0.0467   0.0560   0.0639   0.0676
  0.0678   0.0723   0.0732   0.0777   0.0872   0.0941   0.0993   0.0998
  0.1078   0.1099   0.1174   0.1212   0.1235   0.1265   0.1282   0.1315
  0.1321   0.1373   0.1390   0.1456   0.1474   0.1531   0.1592   0.1630
  0.1659   0.1699   0.1725   0.1751   0.1771   0.1798   0.1867   0.1888
  0.1916   0.1998   0.2005   0.2064   0.2123   0.2140   0.2162   0.2244
  0.2265   0.2300   0.2371   0.2382   0.2414   0.2467   0.2483   0.2499
  0.2521   0.2538   0.2542   0.2674   0.2681   0.2741   0.2759   0.2789
  0.2820   0.2848   0.2895   0.2948   0.3020   0.3030   0.3058   0.3097
  0.3115   0.3173   0.3250   0.3263   0.3364   0.3374   0.3385   0.3420
  0.3454   0.3462   0.3548   0.3618   0.3676   0.3728   0.3837   0.3843
  0.3901   0.4049   0.4165   0.4220   0.4328   0.4413   0.4628   0.4665
  0.4832   0.4975   0.5108   0.5211   0.5383   0.5484   0.5543   0.5567
  0.5652   0.5696   0.5760   0.5761   0.5861   0.6033   0.6047   0.6089
  0.6130   0.6208   0.6284   0.6367   0.6386   0.6460   0.6504   0.6549
  0.6596   0.6675   0.6716   0.6786   0.6842   0.6872   0.6912   0.7049
  0.7103   0.7301   0.7391   0.7501   0.7604   0.7702   0.7720   0.7795
  0.7895   0.7975   0.7999   0.8147   0.8223   0.8451   0.8467   0.8573
  0.8576   0.8647   0.8677   0.8794   0.8843   0.8898   0.9015   0.9066
  0.9137   0.9161   0.9279   0.9373   0.9410   0.9515   0.9526   0.9576
  0.9620   0.9872   0.9893   0.9958   1.0076   1.0172   1.0224   1.0402
  1.0405   1.0602   1.0630   1.0695   1.0781   1.1037   1.1188   1.1190
  1.1336   1.1546   1.1599   1.1763   1.1806   1.1968   1.2169   1.2309
  1.2423   1.2434   1.2699   1.2702   1.2906   1.3133   1.3242   1.3461
  1.3522   1.3571   1.4101   1.4539   1.4701   1.4865   1.4921   1.4937
  1.5047   1.5075   1.5203   1.5256   1.5340   1.5428   1.5541   1.5738
  1.5789   1.5803   1.6057   1.6076   1.6188   1.6216   1.6463   1.6477
  1.6764   1.6890   1.7032   1.7145   1.7274   1.7334   1.7461   1.7500
  1.7529   1.7640   1.7695   1.8062   1.8068   1.8414   1.8457   1.8752
  1.8842   1.9013   1.9032   1.9150   1.9156   1.9160   1.9378   1.9489
  1.9615   1.9620   1.9658   1.9768   1.9847   1.9936   1.9957   2.0126
  2.0152   2.0260   2.0345   2.0566   2.0929   2.0993   2.1191   2.1337
  2.1575   2.1690   2.1892   2.1959   2.2120   2.2728   2.2808   2.3051
  2.3077   2.3321   2.3802   2.3821   2.3856   2.4200   2.4242   2.4508
  2.4908   2.5110   2.5430   2.5663   2.5664   2.5881   2.5918   2.6345
  2.6461   2.6704   2.6810   2.6973   2.7063   2.7271   2.7272   2.7363
  2.7395   2.7448   2.7549   2.7756   2.7919   2.7941   2.7979   2.8012
  2.8079   2.8086   2.8231   2.8317   2.8343   2.8389   2.8564   2.8715
  2.8871   2.9022   2.9053   2.9091   2.9466   2.9591   2.9757   2.9991
  3.0353   3.0427   3.0454   3.1023   3.1100   3.1206   3.1243   3.1409
  3.1624   3.2214   3.2275   3.2280   3.2529   3.2555   3.3235   3.3281
  3.3493   3.3504   3.3910   3.4112   3.4178   3.4450   3.4665   3.5013
  3.5224   3.5274   3.5492   3.5693   3.5902   3.5920   3.6933   3.7863
  3.8211   3.8375   3.9227   3.9708   4.0164   4.0276   4.0604   4.0750
  4.1654   4.1739   4.2900   4.3016   4.4958   4.7967   4.8271   4.8425
  4.8562   4.8701   5.0416   5.0504   5.0981   5.1137   5.3607   5.3679
  5.7804   5.8557  23.5379  23.7093  23.8988  23.9081  23.9277  23.9393
 23.9431  23.9786  24.0118  24.0378  24.0845  24.0884  24.1953  24.1971
 35.6785  35.6869  50.0655  50.1156
 --------------------------------------------------------------
 
          Ground-State Mulliken Net Atomic Charges

     Atom                 Charge (a.u.)    Spin (a.u.)
  --------------------------------------------------------
      1 N                    -0.446324       0.010716
      2 C                     0.101908       0.021160
      3 C                    -0.241427       0.082433
      4 C                    -0.444320       0.037355
      5 C                    -0.222988       0.058608
      6 C                     0.493083       0.046482
      7 C                    -0.679206       0.098121
      8 O                    -0.497550       0.173304
      9 C                     0.273432      -0.013828
     10 C                     0.102007       0.021182
     11 N                    -0.445722       0.010756
     12 C                    -0.241581       0.082418
     13 C                    -0.444131       0.037406
     14 C                    -0.222848       0.058578
     15 C                     0.493539       0.046577
     16 C                    -0.679910       0.098000
     17 O                    -0.497027       0.173397
     18 C                     0.274405      -0.013728
     19 H                     0.324171      -0.002454
     20 H                     0.281968      -0.000523
     21 H                     0.182096      -0.005846
     22 H                     0.202931      -0.003030
     23 H                     0.171258      -0.002615
     24 H                     0.281908      -0.000524
     25 H                     0.324104      -0.002454
     26 H                     0.182063      -0.005846
     27 H                     0.202927      -0.003033
     28 H                     0.171235      -0.002614
  --------------------------------------------------------
  Sum of atomic charges =    -1.000000
  Sum of spin   charges =     1.000000

 -----------------------------------------------------------------
                    Cartesian Multipole Moments
 -----------------------------------------------------------------
    Charge (ESU x 10^10)
                -4.8032
    Dipole Moment (Debye)
         X      -0.0005      Y      -0.0002      Z      -1.8286
       Tot       1.8286
    Quadrupole Moments (Debye-Ang)
        XX     -95.1458     XY       1.2790     YY    -133.2905
        XZ      -0.0029     YZ      -0.0006     ZZ    -114.9689
    Octopole Moments (Debye-Ang^2)
       XXX       0.0051    XXY       0.0155    XYY      -0.0002
       YYY      -0.0052    XXZ     -30.4766    XYZ      15.8793
       YYZ      -9.7394    XZZ      -0.0032    YZZ       0.0022
       ZZZ      -2.0791
    Hexadecapole Moments (Debye-Ang^3)
      XXXX   -3344.3182   XXXY    -163.0671   XXYY    -853.7591
      XYYY       6.1595   YYYY   -2010.2413   XXXZ      -0.0244
      XXYZ       0.0095   XYYZ      -0.0192   YYYZ      -0.0132
      XXZZ    -773.2600   XYZZ     -18.1522   YYZZ    -360.0723
      XZZZ      -0.0059   YZZZ       0.0040   ZZZZ    -141.0240
 -----------------------------------------------------------------
 Total job time:  82.82s(wall), 630.53s(cpu) 
 Thu Feb 22 04:37:20 2024

        *************************************************************
        *                                                           *
        *  Thank you very much for using Q-Chem.  Have a nice day.  *
        *                                                           *
        *************************************************************


