
Running Job 1 of 1 072-COSMO.in
qchem 072-COSMO.in_2617120.0 /expanse/lustre/scratch/selhajj/temp_project/qcscratch/28869285/qchem2617120/ 0
/cm/shared/apps/spack/cpu/opt/spack/linux-centos8-zen2/gcc-10.2.0/qchem-5.4-akfmr7b3t57bfs6qan3padb2wnb2i7cl/exe/qcprog.exe_s 072-COSMO.in_2617120.0 /expanse/lustre/scratch/selhajj/temp_project/qcscratch/28869285/qchem2617120/
                  Welcome to Q-Chem
     A Quantum Leap Into The Future Of Chemistry


 Q-Chem 5.4, Q-Chem, Inc., Pleasanton, CA (2021)

 License issued to: University of California, San Diego (site)

 E. Epifanovsky,  A. T. B. Gilbert,  Xintian Feng,  Joonho Lee,  Yuezhi Mao,  
 N. Mardirossian,  P. Pokhilko,  A. White,  M. Wormit,  M. P. Coons,  
 A. L. Dempwolff,  Zhengting Gan,  D. Hait,  P. R. Horn,  L. D. Jacobson,  
 I. Kaliman,  J. Kussmann,  A. W. Lange,  Ka Un Lao,  D. S. Levine,  Jie Liu,  
 S. C. McKenzie,  A. F. Morrison,  K. Nanda,  F. Plasser,  D. R. Rehn,  
 M. L. Vidal,  Zhi-Qiang You,  Ying Zhu,  B. Alam,  B. Albrecht,  
 A. Aldossary,  E. Alguire,  J. H. Andersen,  D. Barton,  K. Begam,  A. Behn,  
 Y. A. Bernard,  E. J. Berquist,  H. Burton,  A. Carreras,  K. Carter-Fenk,  
 R. Chakraborty,  A. D. Chien,  K. D. Closser,  V. Cofer-Shabica,  
 S. Dasgupta,  Jia Deng,  M. de Wergifosse,  M. Diedenhofen,  Hainam Do,  
 S. Ehlert,  Po-Tung Fang,  S. Fatehi,  Qingguo Feng,  J. Gayvert,  
 Qinghui Ge,  G. Gidofalvi,  M. Goldey,  J. Gomes,  C. Gonzalez-Espinoza,  
 S. Gulania,  A. Gunina,  M. W. D. Hanson-Heine,  P. H. P. Harbach,  
 A. W. Hauser,  M. F. Herbst,  M. Hernandez Vera,  M. Hodecker,  
 Z. C. Holden,  S. Houck,  Xunkun Huang,  Kerwin Hui,  B. C. Huynh,  
 M. Ivanov,  Hyunjun Ji,  Hanjie Jiang,  B. Kaduk,  S. Kaehler,  
 K. Khistyaev,  Jaehoon Kim,  P. Klunzinger,  Z. Koczor-Benda,  
 Joong Hoon Koh,  D. Kosenkov,  L. Koulias,  T. Kowalczyk,  C. M. Krauter,  
 K. Kue,  A. Kunitsa,  T. Kus,  A. Landau,  K. V. Lawler,  D. Lefrancois,  
 S. Lehtola,  Rain Li,  Yi-Pei Li,  Jiashu Liang,  M. Liebenthal,  
 Hung-Hsuan Lin,  You-Sheng Lin,  Fenglai Liu,  Kuan-Yu Liu,  
 M. Loipersberger,  A. Luenser,  A. Manjanath,  P. Manohar,  E. Mansoor,  
 S. F. Manzer,  Shan-Ping Mao,  A. V. Marenich,  T. Markovich,  S. Mason,  
 S. A. Maurer,  P. F. McLaughlin,  M. F. S. J. Menger,  J.-M. Mewes,  
 S. A. Mewes,  P. Morgante,  J. W. Mullinax,  T. S. Nguyen-Beck,  
 K. J. Oosterbaan,  G. Paran,  Alexander C. Paul,  Suranjan K. Paul,  
 F. Pavosevic,  Zheng Pei,  S. Prager,  E. I. Proynov,  E. Ramos,  B. Rana,  
 A. E. Rask,  A. Rettig,  R. M. Richard,  F. Rob,  E. Rossomme,  T. Scheele,  
 M. Scheurer,  M. Schneider,  N. Sergueev,  S. M. Sharada,  W. Skomorowski,  
 D. W. Small,  C. J. Stein,  Yu-Chuan Su,  E. J. Sundstrom,  Zhen Tao,  
 J. Thirman,  T. Tsuchimochi,  N. M. Tubman,  S. P. Veccham,  O. Vydrov,  
 J. Wenzel,  J. Witte,  A. Yamada,  Kun Yao,  S. Yeganeh,  S. R. Yost,  
 A. Zech,  Igor Ying Zhang,  Xing Zhang,  Yu Zhang,  D. Zuev,  
 A. Aspuru-Guzik,  A. T. Bell,  N. A. Besley,  K. B. Bravaya,  B. R. Brooks,  
 D. Casanova,  Jeng-Da Chai,  S. Coriani,  C. J. Cramer,  
 A. E. DePrince, III,  R. A. DiStasio Jr.,  A. Dreuw,  B. D. Dunietz,  
 T. R. Furlani,  W. A. Goddard III,  S. Grimme,  S. Hammes-Schiffer,  
 T. Head-Gordon,  W. J. Hehre,  Chao-Ping Hsu,  T.-C. Jagau,  Yousung Jung,  
 A. Klamt,  Jing Kong,  D. S. Lambrecht,  WanZhen Liang,  N. J. Mayhall,  
 C. W. McCurdy,  J. B. Neaton,  C. Ochsenfeld,  J. A. Parkhill,  R. Peverati,  
 V. A. Rassolov,  Yihan Shao,  L. V. Slipchenko,  T. Stauch,  R. P. Steele,  
 J. E. Subotnik,  A. J. W. Thom,  A. Tkatchenko,  D. G. Truhlar,  
 T. Van Voorhis,  T. A. Wesolowski,  K. B. Whaley,  H. L. Woodcock III,  
 P. M. Zimmerman,  S. Faraji,  P. M. W. Gill,  M. Head-Gordon,  
 J. M. Herbert,  A. I. Krylov

 Contributors to earlier versions of Q-Chem not listed above: 
 R. D. Adamson,  B. Austin,  R. Baer,  J. Baker,  G. J. O. Beran,  
 K. Brandhorst,  S. T. Brown,  E. F. C. Byrd,  A. K. Chakraborty,  
 G. K. L. Chan,  Chun-Min Chang,  Yunqing Chen,  C.-L. Cheng,  
 Siu Hung Chien,  D. M. Chipman,  D. L. Crittenden,  H. Dachsel,  
 R. J. Doerksen,  A. D. Dutoi,  R. G. Edgar,  J. Fosso-Tande,  
 L. Fusti-Molnar,  D. Ghosh,  A. Ghysels,  A. Golubeva-Zadorozhnaya,  
 J. Gonthier,  M. S. Gordon,  S. R. Gwaltney,  G. Hawkins,  J. E. Herr,  
 A. Heyden,  S. Hirata,  E. G. Hohenstein,  G. Kedziora,  F. J. Keil,  
 C. Kelley,  Jihan Kim,  R. A. King,  R. Z. Khaliullin,  P. P. Korambath,  
 W. Kurlancheek,  A. Laurent,  A. M. Lee,  M. S. Lee,  S. V. Levchenko,  
 Ching Yeh Lin,  D. Liotard,  E. Livshits,  R. C. Lochan,  I. Lotan,  
 L. A. Martinez-Martinez,  P. E. Maslen,  N. Nair,  D. P. O'Neill,  
 D. Neuhauser,  E. Neuscamman,  C. M. Oana,  R. Olivares-Amaya,  R. Olson,  
 T. M. Perrine,  B. Peters,  P. A. Pieniazek,  A. Prociuk,  Y. M. Rhee,  
 J. Ritchie,  M. A. Rohrdanz,  E. Rosta,  N. J. Russ,  H. F. Schaefer III,  
 M. W. Schmidt,  N. E. Schultz,  S. Sharma,  N. Shenvi,  C. D. Sherrill,  
 A. C. Simmonett,  A. Sodt,  T. Stein,  D. Stuck,  K. S. Thanthiriwatte,  
 V. Vanovschi,  L. Vogt,  Tao Wang,  A. Warshel,  M. A. Watson,  
 C. F. Williams,  Q. Wu,  X. Xu,  Jun Yang,  W. Zhang,  Yan Zhao

 Please cite Q-Chem as follows:
 Y. Shao et al., Mol. Phys. 113, 184-215 (2015)
 DOI: 10.1080/00268976.2014.952696

 Q-Chem 5.4.0 for Intel X86 EM64T Linux

 Parts of Q-Chem use Armadillo 9.800.1 (Horizon Scraper).
 http://arma.sourceforge.net/

 Q-Chem begins on Thu Feb 22 03:55:24 2024  

 Host: 
0

     Scratch files written to /expanse/lustre/scratch/selhajj/temp_project/qcscratch/28869285/qchem2617120//
 May1621 |scratch|qcdevops|jenkins|workspace|build_RNUM    
 Processing $rem in /cm/shared/apps/spack/cpu/opt/spack/linux-centos8-zen2/gcc-10.2.0/qchem-5.4-akfmr7b3t57bfs6qan3padb2wnb2i7cl/config/preferences:
 Processing $rem in /home/selhajj/.qchemrc:

 Checking the input file for inconsistencies... 
 Q-Chem warning in module libgen/CheckREMs.C, line 172:

 Found a $solvent section, which is only used for PCM and Kirkwood-Onsager solvation models

	...done.

--------------------------------------------------------------
User input:
--------------------------------------------------------------
$molecule
0 1
C                  0.6663020000      1.2416750000     -1.4506380000
C                 -0.7682650000      0.9529790000     -1.7370600000
C                 -1.5348930000      0.2465000000     -0.8986380000
C                 -0.9929900000     -0.2920570000      0.3814170000
C                  0.4580310000     -0.0604920000      0.6349470000
C                  1.2257110000      0.6424010000     -0.2055350000
O                  1.3133230000      1.9467770000     -2.1970990000
O                 -1.6760850000     -0.8721720000      1.1998580000
S                  3.0175400000      0.7683970000      0.1636720000
C                  3.3412180000      2.5247400000      0.3643990000
C                  3.7483070000      3.2723410000     -0.7387850000
C                  3.2151800000      3.0867440000      1.6346590000
C                  3.4904390000      4.4420820000      1.7954920000
C                  4.0252430000      4.6250910000     -0.5596820000
C                  3.8934990000      5.2074340000      0.7010180000
O                  3.7286320000      0.2748940000     -1.0132670000
O                  3.1776830000      0.1295560000      1.4736890000
H                  3.8429910000      2.7998880000     -1.7069310000
H                  2.9294320000      2.4683230000      2.4761550000
H                  4.3472750000      5.2220500000     -1.4046710000
H                  3.4028440000      4.8954620000      2.7757910000
H                  4.1110230000      6.2613190000      0.8324710000
S                 -3.2542690000     -0.1308870000     -1.4126540000
C                 -4.3028740000      0.6257060000     -0.1645730000
C                 -4.7182750000      1.9442090000     -0.3499210000
C                 -4.7085260000     -0.1307720000      0.9330970000
C                 -5.5461810000      0.4604800000      1.8751480000
C                 -5.5511000000      2.5223620000      0.6043970000
C                 -5.9623720000      1.7819470000      1.7128820000
H                 -1.1632520000      1.3531780000     -2.6649180000
H                  0.8614000000     -0.4897730000      1.5460490000
H                 -4.4115890000      2.4914230000     -1.2323770000
H                 -4.3730380000     -1.1534080000      1.0387250000
H                 -5.8758270000     -0.1131480000      2.7332600000
H                 -5.8881330000      3.5440790000      0.4751060000
H                 -6.6145350000      2.2353130000      2.4507250000
O                 -3.4042010000     -1.5830760000     -1.3573300000
O                 -3.4428590000      0.6070030000     -2.6655680000
$end
$rem
MAX_SCF_CYCLES=200
BASIS  =  6-311++G(d,p)
GUI  =  2
JOB_TYPE  =  SP
METHOD  =  B3LYP
SOLVENT_METHOD = COSMO
$end
$solvent
dielectric 37.219
opticaldielectric 1.43
$end





--------------------------------------------------------------
 ----------------------------------------------------------------
             Standard Nuclear Orientation (Angstroms)
    I     Atom           X                Y                Z
 ----------------------------------------------------------------
    1      C      -0.9739499843    -0.8772252269     1.0802711271
    2      C       0.4940091112    -0.9110953077     1.3397211827
    3      C       1.3935360160    -0.9125977798     0.3494527302
    4      C       0.9736860028    -0.8759436819    -1.0804513750
    5      C      -0.4942574219    -0.9100189152    -1.3399561591
    6      C      -1.3938020166    -0.9127836786    -0.3496970909
    7      O      -1.7604230411    -0.8033165066     2.0016867019
    8      O       1.7601985849    -0.8011776209    -2.0017579782
    9      S      -3.1663984128    -1.0620790063    -0.7951776039
   10      C      -3.9433681595     0.4328251520    -0.1695746307
   11      C      -4.4989477145     0.4276501073     1.1082939947
   12      C      -4.0059495970     1.5514828901    -1.0002267659
   13      C      -4.6302842073     2.7017762539    -0.5252453591
   14      C      -5.1247621134     1.5842193405     1.5659051205
   15      C      -5.1868694678     2.7167178576     0.7538496258
   16      O      -3.6889368547    -2.2196894844    -0.0731845216
   17      O      -3.1926004341    -1.0026750900    -2.2599959451
   18      H      -4.4383984798    -0.4616895404     1.7205785328
   19      H      -3.5934839630     1.5089541823    -2.0003644467
   20      H      -5.5665270019     1.5982262823     2.5552072259
   21      H      -4.6930488994     3.5792610210    -1.1579328923
   22      H      -5.6758935099     3.6134178812     1.1172429785
   23      S       3.1661542042    -1.0623283469     0.7947534618
   24      C       3.9435223503     0.4326521744     0.1698985967
   25      C       4.0053712965     1.5515145472     1.0003705899
   26      C       4.5001964558     0.4273456914    -1.1075119559
   27      C       5.1262284010     1.5838989695    -1.5648667764
   28      C       4.6298035502     2.7018361008     0.5255802142
   29      C       5.1873859576     2.7166336758    -0.7530835087
   30      H       0.7978827472    -0.9288809414     2.3810851549
   31      H      -0.7981287348    -0.9268278457    -2.3813375814
   32      H       3.5925092136     1.5092707327     2.0003647984
   33      H       4.4405148195    -0.4621557429    -1.7196550452
   34      H       5.5688590983     1.5977061369    -2.5537849733
   35      H       4.6919124013     3.5794679294     1.1581289459
   36      H       5.6764760356     3.6133639244    -1.1163125797
   37      O       3.6885046136    -2.2195909941     0.0720595732
   38      O       3.1922499883    -1.0039159775     2.2595907691
 ----------------------------------------------------------------
 Molecular Point Group                 C1    NOp =  1
 Largest Abelian Subgroup              C1    NOp =  1
 Nuclear Repulsion Energy =        2594.14574326 hartrees
 There are      100 alpha and      100 beta electrons
 Requested basis set is 6-311++G(d,p)
 There are 230 shells and 672 basis functions

 Total QAlloc Memory Limit   8000 MB
 Mega-Array Size       188 MB
 MEM_STATIC part       192 MB
 A cutoff of  1.0D-08 yielded  15140 shell pairs
 There are    134548 function pairs (    143355 Cartesian)
 Smallest overlap matrix eigenvalue = 3.73E-07

 Q-Chem warning in module stvman/mkSTV.C, line 323:

 Overlap eigenvalue is smaller than square root of threshold
 Use THRESH >= 12 to get rid of this warning

 Linear dependence detected in AO basis
 Tighter screening thresholds may be required for diffuse basis sets
 Use S2THRESH > 14 and THRESH = 14 in case of SCF convergence issues
 Number of orthogonalized atomic orbitals = 668
 Maximum deviation from orthogonality = 7.844E-11

 Scale SEOQF with 1.000000e-02/1.000000e-01/1.000000e-01

 Standard Electronic Orientation quadrupole field applied
 Nucleus-field energy     =     0.0000000094 hartrees
 Guess from superposition of atomic densities
 Warning:  Energy on first SCF cycle will be non-variational
 SAD guess density has 200.000000 electrons

 -----------------------------------------------------------------------
  General SCF calculation program by
  Eric Jon Sundstrom, Paul Horn, Yuezhi Mao, Dmitri Zuev, Alec White,
  David Stuck, Shaama M.S., Shane Yost, Joonho Lee, David Small,
  Daniel Levine, Susi Lehtola, Hugh Burton, Evgeny Epifanovsky,
  Bang C. Huynh
 -----------------------------------------------------------------------
 Exchange:     0.2000 Hartree-Fock + 0.0800 Slater + 0.7200 B88
 Correlation:  0.1900 VWN1RPA + 0.8100 LYP
 Using SG-1 standard quadrature grid
 using 8 threads for integral computing
 -------------------------------------------------------
 OpenMP Integral computing Module                
 Release: version 1.0, May 2013, Q-Chem Inc. Pittsburgh 
 -------------------------------------------------------
 A restricted SCF calculation will be
 performed using DIIS
 SCF converges when DIIS error is below 1.0e-05
 ---------------------------------------
  Cycle       Energy         DIIS error
 ---------------------------------------
    1   -1947.7423148340      2.65e-02  
    2   -1940.2967579936      4.06e-03  
    3   -1938.0653978355      8.44e-03  
    4   -1940.9345308221      1.34e-03  
    5   -1941.0248509522      5.12e-04  
    6   -1941.0347709711      2.41e-04  
    7   -1941.0370188331      6.70e-05  
    8   -1941.0372060379      1.90e-05  
    9   -1941.0372107203      6.29e-06  Convergence criterion met
 ---------------------------------------
 SCF time:   CPU 641.83s  wall 83.00s 
 SCF   energy in the final basis set =    -1941.0372107203
 Total energy in the final basis set =    -1941.0372107203
 Exchange:     0.2000 Hartree-Fock + 0.0800 Slater + 0.7200 B88
 Correlation:  0.1900 VWN1RPA + 0.8100 LYP
 Using SG-1 standard quadrature grid
 in get_qchem_info
 IBasis=      401111
 IBasis=      401111
 USING 1082 GRID
 MICHARGE=           0
 Set epsilon to    37.2190017700195     
==== cosmo data ====
outfile: 072-COSMO.out.cosmo.0
phsran:    0.00000D+00
ampran:    0.10000D-04
volume:   2748.7839588
area:   1264.0837451
routf:      0.8500000
rsolv [a.u]:      2.4566438
disex:     10.0000000
disex2:   4608.4228317
fepsi:      0.9602322
eps :    37.2190018
lcavity:     1
nppa:  1082
nspa:    92
nsph:    32
maxnps:  2776
natoms:    38
Atom   Radius [a.u.] nuc. charge
    1      3.7794520    6
    2      3.7794520    6
    3      3.7794520    6
    4      3.7794520    6
    5      3.7794520    6
    6      3.7794520    6
    7      3.2503287    8
    8      3.2503287    8
    9      4.0818081   16
   10      3.7794520    6
   11      3.7794520    6
   12      3.7794520    6
   13      3.7794520    6
   14      3.7794520    6
   15      3.7794520    6
   16      3.2503287    8
   17      3.2503287    8
   18      2.4566438    1
   19      2.4566438    1
   20      2.4566438    1
   21      2.4566438    1
   22      2.4566438    1
   23      4.0818081   16
   24      3.7794520    6
   25      3.7794520    6
   26      3.7794520    6
   27      3.7794520    6
   28      3.7794520    6
   29      3.7794520    6
   30      2.4566438    1
   31      2.4566438    1
   32      2.4566438    1
   33      2.4566438    1
   34      2.4566438    1
   35      2.4566438    1
   36      2.4566438    1
   37      3.2503287    8
   38      3.2503287    8
=== end cosmo data ===
 number of segments:         1495
 f_epsilon=  0.960232245562971     
Ediel:   -0.0283721
 A restricted SCF calculation will be
 performed using Roothaan-Hall, DIIS
 SCF converges when DIIS error is below 1.0e-05
 ---------------------------------------
  Cycle       Energy         DIIS error
 ---------------------------------------
 number of segments:         1495
 f_epsilon=  0.960232245562971     
Ediel:   -0.0434546
    1   -1941.0655952780      1.85e-04  Roothaan Step
 ---------------------------------------
  Cycle       Energy         DIIS error
 ---------------------------------------
 number of segments:         1495
 f_epsilon=  0.960232245562971     
Ediel:   -0.0335165
    1   -1941.0678390844      2.47e-04  
 number of segments:         1495
 f_epsilon=  0.960232245562971     
Ediel:   -0.0396920
    2   -1941.0578018148      5.47e-04  
 number of segments:         1495
 f_epsilon=  0.960232245562971     
Ediel:   -0.0400621
    3   -1941.0706610673      4.57e-05  
 number of segments:         1495
 f_epsilon=  0.960232245562971     
Ediel:   -0.0401611
    4   -1941.0707542318      1.31e-05  
    5   -1941.0707561502      3.83e-06  Convergence criterion met
 ---------------------------------------
 SCF time:   CPU 478.36s  wall 62.00s 
before final oc correction, ETot:     -1941.0707561502
 number of outlayer segments:          637
SCF energy after oc correction:     -1941.0710728995
 SCF   energy in the final basis set =    -1941.0710728995
 Total energy in the final basis set =    -1941.0707561502
 
 --------------------------------------------------------------
 
                    Orbital Energies (a.u.)
 --------------------------------------------------------------
 
 Alpha MOs
 -- Occupied --
-89.0817 -89.0816 -19.1703 -19.1703 -19.1475 -19.1474 -19.1461 -19.1460
-10.3221 -10.3221 -10.2604 -10.2604 -10.2468 -10.2468 -10.2291 -10.2291
-10.2062 -10.2062 -10.2048 -10.2048 -10.1974 -10.1974 -10.1952 -10.1952
-10.1949 -10.1948  -8.1453  -8.1453  -6.1081  -6.1080  -6.1073  -6.1073
 -6.1062  -6.1062  -1.1433  -1.1431  -1.1040  -1.1025  -1.0403  -1.0403
 -0.9015  -0.8898  -0.8892  -0.8426  -0.7972  -0.7932  -0.7746  -0.7745
 -0.7487  -0.7277  -0.6907  -0.6601  -0.6519  -0.6336  -0.6335  -0.6151
 -0.5958  -0.5685  -0.5616  -0.5570  -0.5405  -0.5334  -0.5080  -0.5028
 -0.5004  -0.4970  -0.4940  -0.4849  -0.4785  -0.4777  -0.4718  -0.4715
 -0.4638  -0.4635  -0.4499  -0.4495  -0.4473  -0.4441  -0.3995  -0.3992
 -0.3917  -0.3912  -0.3745  -0.3711  -0.3707  -0.3702  -0.3616  -0.3606
 -0.3479  -0.3474  -0.3400  -0.3381  -0.3314  -0.3287  -0.3201  -0.3016
 -0.2864  -0.2860  -0.2800  -0.2796
 -- Virtual --
 -0.1650  -0.0837  -0.0581  -0.0466  -0.0359  -0.0351  -0.0345  -0.0086
 -0.0031   0.0066   0.0095   0.0124   0.0154   0.0160   0.0240   0.0281
  0.0299   0.0325   0.0343   0.0361   0.0444   0.0459   0.0487   0.0507
  0.0546   0.0564   0.0593   0.0603   0.0617   0.0670   0.0702   0.0712
  0.0749   0.0788   0.0823   0.0834   0.0887   0.0967   0.0980   0.1004
  0.1004   0.1054   0.1097   0.1117   0.1136   0.1142   0.1180   0.1199
  0.1205   0.1221   0.1243   0.1250   0.1260   0.1283   0.1283   0.1300
  0.1372   0.1393   0.1405   0.1415   0.1459   0.1476   0.1490   0.1514
  0.1546   0.1567   0.1582   0.1607   0.1638   0.1713   0.1716   0.1748
  0.1749   0.1781   0.1794   0.1838   0.1839   0.1923   0.1934   0.1975
  0.1980   0.2034   0.2057   0.2071   0.2109   0.2129   0.2152   0.2218
  0.2231   0.2247   0.2250   0.2276   0.2332   0.2377   0.2384   0.2423
  0.2439   0.2458   0.2483   0.2495   0.2543   0.2552   0.2602   0.2633
  0.2689   0.2696   0.2711   0.2732   0.2754   0.2824   0.2829   0.2845
  0.2883   0.2924   0.2937   0.2948   0.2955   0.3017   0.3083   0.3142
  0.3143   0.3194   0.3212   0.3236   0.3286   0.3360   0.3363   0.3397
  0.3412   0.3444   0.3458   0.3509   0.3510   0.3554   0.3560   0.3602
  0.3610   0.3662   0.3672   0.3711   0.3731   0.3772   0.3861   0.3924
  0.3948   0.3956   0.4016   0.4034   0.4152   0.4230   0.4236   0.4307
  0.4345   0.4355   0.4534   0.4536   0.4646   0.4677   0.4709   0.4718
  0.4823   0.4852   0.4980   0.4988   0.5029   0.5044   0.5306   0.5314
  0.5327   0.5396   0.5408   0.5438   0.5482   0.5513   0.5554   0.5601
  0.5624   0.5632   0.5649   0.5653   0.5766   0.5775   0.5808   0.5861
  0.5884   0.6013   0.6152   0.6158   0.6280   0.6371   0.6407   0.6538
  0.6598   0.6647   0.6653   0.6748   0.6805   0.6817   0.6994   0.7003
  0.7057   0.7079   0.7124   0.7182   0.7236   0.7242   0.7326   0.7346
  0.7366   0.7405   0.7424   0.7526   0.7533   0.7630   0.7909   0.7965
  0.7994   0.8074   0.8099   0.8182   0.8293   0.8351   0.8405   0.8498
  0.8503   0.8578   0.8606   0.8615   0.8661   0.8674   0.8689   0.8750
  0.8751   0.8799   0.8846   0.8868   0.9011   0.9042   0.9158   0.9214
  0.9254   0.9284   0.9384   0.9403   0.9545   0.9587   0.9714   0.9748
  0.9827   0.9907   1.0025   1.0037   1.0061   1.0067   1.0227   1.0256
  1.0366   1.0467   1.0481   1.0494   1.0555   1.0662   1.0714   1.0884
  1.0942   1.0967   1.1092   1.1165   1.1217   1.1218   1.1301   1.1311
  1.1435   1.1467   1.1665   1.1727   1.1762   1.1842   1.1892   1.1953
  1.1979   1.2114   1.2131   1.2156   1.2274   1.2309   1.2404   1.2508
  1.2521   1.2638   1.2676   1.2723   1.2733   1.2844   1.2950   1.2983
  1.3181   1.3397   1.3570   1.3691   1.3976   1.3982   1.4683   1.4705
  1.4940   1.4976   1.5088   1.5094   1.5133   1.5149   1.5172   1.5203
  1.5453   1.5566   1.5572   1.5603   1.5630   1.5672   1.5838   1.5938
  1.6122   1.6163   1.6313   1.6320   1.6389   1.6390   1.6520   1.6567
  1.6636   1.6770   1.6894   1.6930   1.7130   1.7257   1.7300   1.7367
  1.7389   1.7460   1.7517   1.7576   1.7710   1.7755   1.7816   1.7921
  1.7921   1.8014   1.8221   1.8397   1.8409   1.8669   1.8723   1.8799
  1.9039   1.9060   1.9138   1.9191   1.9268   1.9320   1.9341   1.9356
  1.9366   1.9471   1.9534   1.9674   1.9688   1.9777   1.9858   1.9897
  1.9944   2.0122   2.0202   2.0275   2.0309   2.0424   2.0532   2.0653
  2.0714   2.0758   2.0764   2.0989   2.0994   2.1216   2.1305   2.1552
  2.1586   2.1765   2.2123   2.2295   2.2823   2.2898   2.3148   2.3199
  2.3336   2.3458   2.3738   2.4148   2.4148   2.4299   2.4481   2.4484
  2.4640   2.4677   2.4959   2.5094   2.5158   2.5544   2.5972   2.6135
  2.6154   2.6431   2.6506   2.6699   2.6851   2.6895   2.6978   2.6993
  2.7000   2.7019   2.7163   2.7170   2.7206   2.7292   2.7397   2.7439
  2.7488   2.7529   2.7552   2.7575   2.7802   2.7935   2.7953   2.8038
  2.8058   2.8116   2.8152   2.8162   2.8176   2.8226   2.8258   2.8289
  2.8338   2.8420   2.8488   2.8526   2.8616   2.8736   2.8885   2.8886
  2.8937   2.8978   2.9036   2.9116   2.9176   2.9274   2.9354   2.9380
  2.9387   2.9472   2.9732   2.9865   2.9892   3.0227   3.0298   3.0338
  3.0599   3.0846   3.0920   3.0950   3.1182   3.1438   3.1714   3.1862
  3.1867   3.1911   3.2242   3.2462   3.3058   3.3262   3.3406   3.3476
  3.3635   3.3659   3.3716   3.4359   3.4786   3.4871   3.4884   3.4907
  3.5212   3.5250   3.5284   3.5539   3.5857   3.5863   3.6016   3.6323
  3.6327   3.6873   3.7526   3.7849   3.7856   3.8268   3.9915   3.9916
  4.0346   4.0351   4.0660   4.0949   4.1397   4.1399   4.1508   4.1528
  4.1692   4.6568   4.8242   4.8245   5.0364   5.0375   5.0538   5.0633
  5.0754   5.0894   5.0921   5.1036   5.1203   5.1312   5.1593   5.1639
  5.2375   5.2642   5.3055   5.3057   5.6974   5.7822   8.1907   8.2006
 17.3905  17.4084  17.4267  17.4322  17.5722  17.5976  23.5441  23.5796
 23.5807  23.6893  23.8139  23.8737  23.9364  23.9423  23.9564  23.9581
 24.0555  24.0557  24.0812  24.0813  24.1372  24.1740  24.1747  24.1891
 49.8808  49.8825  49.9164  49.9194  49.9665  50.0040 189.3125 189.3219
 --------------------------------------------------------------
 
          Ground-State Mulliken Net Atomic Charges

     Atom                 Charge (a.u.)
  ----------------------------------------
      1 C                    -0.410526
      2 C                    -0.400409
      3 C                     0.295169
      4 C                    -0.411253
      5 C                    -0.400984
      6 C                     0.295836
      7 O                    -0.183799
      8 O                    -0.183754
      9 S                     0.509005
     10 C                     0.555161
     11 C                    -0.265120
     12 C                    -0.016393
     13 C                    -0.550537
     14 C                    -0.423081
     15 C                    -0.327288
     16 O                    -0.162593
     17 O                    -0.203337
     18 H                     0.290118
     19 H                     0.273665
     20 H                     0.241170
     21 H                     0.236426
     22 H                     0.218843
     23 S                     0.509327
     24 C                     0.554312
     25 C                    -0.016740
     26 C                    -0.263258
     27 C                    -0.422930
     28 C                    -0.550723
     29 C                    -0.328222
     30 H                     0.323453
     31 H                     0.323094
     32 H                     0.274295
     33 H                     0.290071
     34 H                     0.241162
     35 H                     0.236400
     36 H                     0.218794
     37 O                    -0.162702
     38 O                    -0.202661
  ----------------------------------------
  Sum of atomic charges =    -0.000009

 -----------------------------------------------------------------
                    Cartesian Multipole Moments
 -----------------------------------------------------------------
    Charge (ESU x 10^10)
                -0.0000
    Dipole Moment (Debye)
         X       0.0023      Y      11.6280      Z       0.0081
       Tot      11.6280
    Quadrupole Moments (Debye-Ang)
        XX    -163.6994     XY      -0.0060     YY    -159.5587
        XZ     -18.5389     YZ       0.0062     ZZ    -170.4087
    Octopole Moments (Debye-Ang^2)
       XXX       0.1173    XXY     257.0378    XYY      -0.0242
       YYY      81.3568    XXZ       0.0399    XYZ       5.6959
       YYZ       0.0140    XZZ       0.0037    YZZ      27.9492
       ZZZ       0.0625
    Hexadecapole Moments (Debye-Ang^3)
      XXXX  -12344.5362   XXXY      -0.1508   XXYY   -2227.9450
      XYYY      -0.0295   YYYY   -2297.7482   XXXZ    -643.7089
      XXYZ       0.0465   XYYZ     -19.7623   YYYZ       0.0140
      XXZZ   -2299.2116   XYZZ      -0.0830   YYZZ    -643.9820
      XZZZ    -143.8592   YZZZ       0.0520   ZZZZ   -1676.6813
 -----------------------------------------------------------------
 Total job time:  150.13s(wall), 1129.38s(cpu) 
 Thu Feb 22 03:57:54 2024

        *************************************************************
        *                                                           *
        *  Thank you very much for using Q-Chem.  Have a nice day.  *
        *                                                           *
        *************************************************************


