 Entering Gaussian System, Link 0=g16
 Input=165.com
 Output=165.log
 Initial command:
 /sysapps/ubuntu-applications/gaussian/Gaussian/AVX2/g16/l1.exe "/scratch/selhajj1/4406771/Gau-380656.inp" -scrdir="/scratch/selhajj1/4406771/"
 Entering Link 1 = /sysapps/ubuntu-applications/gaussian/Gaussian/AVX2/g16/l1.exe PID=    380660.
  
 Copyright (c) 1988,1990,1992,1993,1995,1998,2003,2009,2016,
            Gaussian, Inc.  All Rights Reserved.
  
 This is part of the Gaussian(R) 16 program.  It is based on
 the Gaussian(R) 09 system (copyright 2009, Gaussian, Inc.),
 the Gaussian(R) 03 system (copyright 2003, Gaussian, Inc.),
 the Gaussian(R) 98 system (copyright 1998, Gaussian, Inc.),
 the Gaussian(R) 94 system (copyright 1995, Gaussian, Inc.),
 the Gaussian 92(TM) system (copyright 1992, Gaussian, Inc.),
 the Gaussian 90(TM) system (copyright 1990, Gaussian, Inc.),
 the Gaussian 88(TM) system (copyright 1988, Gaussian, Inc.),
 the Gaussian 86(TM) system (copyright 1986, Carnegie Mellon
 University), and the Gaussian 82(TM) system (copyright 1983,
 Carnegie Mellon University). Gaussian is a federally registered
 trademark of Gaussian, Inc.
  
 This software contains proprietary and confidential information,
 including trade secrets, belonging to Gaussian, Inc.
  
 This software is provided under written license and may be
 used, copied, transmitted, or stored only in accord with that
 written license.
  
 The following legend is applicable only to US Government
 contracts under FAR:
  
                    RESTRICTED RIGHTS LEGEND
  
 Use, reproduction and disclosure by the US Government is
 subject to restrictions as set forth in subparagraphs (a)
 and (c) of the Commercial Computer Software - Restricted
 Rights clause in FAR 52.227-19.
  
 Gaussian, Inc.
 340 Quinnipiac St., Bldg. 40, Wallingford CT 06492
  
  
 ---------------------------------------------------------------
 Warning -- This program may not be used in any manner that
 competes with the business of Gaussian, Inc. or will provide
 assistance to any competitor of Gaussian, Inc.  The licensee
 of this program is prohibited from giving any competitor of
 Gaussian, Inc. access to this program.  By using this program,
 the user acknowledges that Gaussian, Inc. is engaged in the
 business of creating and licensing software in the field of
 computational chemistry and represents and warrants to the
 licensee that it is not a competitor of Gaussian, Inc. and that
 it will not use this program in any manner prohibited above.
 ---------------------------------------------------------------
  

 Cite this work as:
 Gaussian 16, Revision A.03,
 M. J. Frisch, G. W. Trucks, H. B. Schlegel, G. E. Scuseria, 
 M. A. Robb, J. R. Cheeseman, G. Scalmani, V. Barone, 
 G. A. Petersson, H. Nakatsuji, X. Li, M. Caricato, A. V. Marenich, 
 J. Bloino, B. G. Janesko, R. Gomperts, B. Mennucci, H. P. Hratchian, 
 J. V. Ortiz, A. F. Izmaylov, J. L. Sonnenberg, D. Williams-Young, 
 F. Ding, F. Lipparini, F. Egidi, J. Goings, B. Peng, A. Petrone, 
 T. Henderson, D. Ranasinghe, V. G. Zakrzewski, J. Gao, N. Rega, 
 G. Zheng, W. Liang, M. Hada, M. Ehara, K. Toyota, R. Fukuda, 
 J. Hasegawa, M. Ishida, T. Nakajima, Y. Honda, O. Kitao, H. Nakai, 
 T. Vreven, K. Throssell, J. A. Montgomery, Jr., J. E. Peralta, 
 F. Ogliaro, M. J. Bearpark, J. J. Heyd, E. N. Brothers, K. N. Kudin, 
 V. N. Staroverov, T. A. Keith, R. Kobayashi, J. Normand, 
 K. Raghavachari, A. P. Rendell, J. C. Burant, S. S. Iyengar, 
 J. Tomasi, M. Cossi, J. M. Millam, M. Klene, C. Adamo, R. Cammi, 
 J. W. Ochterski, R. L. Martin, K. Morokuma, O. Farkas, 
 J. B. Foresman, and D. J. Fox, Gaussian, Inc., Wallingford CT, 2016.
 
 ******************************************
 Gaussian 16:  ES64L-G16RevA.03 25-Dec-2016
                10-Feb-2024 
 ******************************************
 %chk=165.chk
 %nproc=8
 Will use up to    8 processors via shared memory.
 %mem=30GB
 ----------------------------------------------------------------------
 #P UB3LYP/6-311++G(d,p) nosym opt freq SCRF=(PCM,Solvent=n,n-DiMethylF
 ormamide)
 ----------------------------------------------------------------------
 1/18=20,19=15,26=3,38=1/1,3;
 2/9=110,12=2,15=1,17=6,18=5,40=1/2;
 3/5=4,6=6,7=1111,11=2,25=1,30=1,70=2201,71=1,72=148,74=-5,116=2/1,2,3;
 4//1;
 5/5=2,38=5,53=148/2;
 6/7=2,8=2,9=2,10=2,28=1/1;
 7/30=1/1,2,3,16;
 1/18=20,19=15,26=3/3(2);
 2/9=110,15=1/2;
 99//99;
 2/9=110,15=1/2;
 3/5=4,6=6,7=1111,11=2,25=1,30=1,70=2205,71=1,72=148,74=-5,116=2/1,2,3;
 4/5=5,16=3,69=1/1;
 5/5=2,38=5,53=148/2;
 7/30=1/1,2,3,16;
 1/18=20,19=15,26=3/3(-5);
 2/9=110,15=1/2;
 6/7=2,8=2,9=2,10=2,19=2,28=1/1;
 99/9=1/99;
 Leave Link    1 at Sat Feb 10 15:46:29 2024, MaxMem=  4026531840 cpu:               0.8 elap:               0.1
 (Enter /sysapps/ubuntu-applications/gaussian/Gaussian/AVX2/g16/l101.exe)
 --------
 Oxidized
 --------
 Symbolic Z-matrix:
 Charge =  0 Multiplicity = 1
 N                    -4.46844  -0.01134  -0.02971 
 C                    -3.13365  -0.37221   0.17574 
 C                    -2.77389  -1.52633   0.85885 
 C                    -1.4348   -1.85003   1.06124 
 C                    -0.43037  -1.02519   0.57338 
 C                     0.97781  -1.43556   0.80051 
 O                     1.26081  -2.47573   1.37984 
 C                     2.04712  -0.52508   0.30165 
 C                     3.38795  -0.87202   0.49398 
 C                     4.39821  -0.03233   0.04159 
 C                     4.07633   1.16298  -0.60821 
 C                     2.74639   1.51409  -0.8042 
 C                     1.72255   0.6743   -0.35147 
 C                     0.30455   1.07659  -0.58532 
 O                     0.06821   2.14064  -1.16511 
 C                    -0.76243   0.17753  -0.11094 
 C                    -2.12408   0.52056  -0.29196 
 N                    -2.53898   1.65837  -0.9458 
 H                    -4.66585   0.35657  -0.95322 
 H                    -5.13768  -0.72196   0.23142 
 H                    -3.55205  -2.19272   1.21792 
 H                    -1.15364  -2.75586   1.58232 
 H                     3.61058  -1.80261   1.00118 
 H                     5.43674  -0.3045    0.19298 
 H                     4.86527   1.81769  -0.96097 
 H                     2.47548   2.43397  -1.3067 
 H                    -1.79515   2.30871  -1.17744 
 H                    -3.40699   2.06149  -0.62155 
 
 ITRead=  0  0  0  0  0  0  0  0  0  0  0  0  0  0  0  0  0  0  0  0
 ITRead=  0  0  0  0  0  0  0  0
 MicOpt= -1 -1 -1 -1 -1 -1 -1 -1 -1 -1 -1 -1 -1 -1 -1 -1 -1 -1 -1 -1
 MicOpt= -1 -1 -1 -1 -1 -1 -1 -1
 NAtoms=     28 NQM=       28 NQMF=       0 NMMI=      0 NMMIF=      0
                NMic=       0 NMicF=      0.
                    Isotopes and Nuclear Properties:
 (Nuclear quadrupole moments (NQMom) in fm**2, nuclear magnetic moments (NMagM)
  in nuclear magnetons)

  Atom         1           2           3           4           5           6           7           8           9          10
 IAtWgt=          14          12          12          12          12          12          16          12          12          12
 AtmWgt=  14.0030740  12.0000000  12.0000000  12.0000000  12.0000000  12.0000000  15.9949146  12.0000000  12.0000000  12.0000000
 NucSpn=           2           0           0           0           0           0           0           0           0           0
 AtZEff=  -0.0000000  -0.0000000  -0.0000000  -0.0000000  -0.0000000  -0.0000000  -0.0000000  -0.0000000  -0.0000000  -0.0000000
 NQMom=    2.0440000   0.0000000   0.0000000   0.0000000   0.0000000   0.0000000   0.0000000   0.0000000   0.0000000   0.0000000
 NMagM=    0.4037610   0.0000000   0.0000000   0.0000000   0.0000000   0.0000000   0.0000000   0.0000000   0.0000000   0.0000000
 AtZNuc=   7.0000000   6.0000000   6.0000000   6.0000000   6.0000000   6.0000000   8.0000000   6.0000000   6.0000000   6.0000000

  Atom        11          12          13          14          15          16          17          18          19          20
 IAtWgt=          12          12          12          12          16          12          12          14           1           1
 AtmWgt=  12.0000000  12.0000000  12.0000000  12.0000000  15.9949146  12.0000000  12.0000000  14.0030740   1.0078250   1.0078250
 NucSpn=           0           0           0           0           0           0           0           2           1           1
 AtZEff=  -0.0000000  -0.0000000  -0.0000000  -0.0000000  -0.0000000  -0.0000000  -0.0000000  -0.0000000  -0.0000000  -0.0000000
 NQMom=    0.0000000   0.0000000   0.0000000   0.0000000   0.0000000   0.0000000   0.0000000   2.0440000   0.0000000   0.0000000
 NMagM=    0.0000000   0.0000000   0.0000000   0.0000000   0.0000000   0.0000000   0.0000000   0.4037610   2.7928460   2.7928460
 AtZNuc=   6.0000000   6.0000000   6.0000000   6.0000000   8.0000000   6.0000000   6.0000000   7.0000000   1.0000000   1.0000000

  Atom        21          22          23          24          25          26          27          28
 IAtWgt=           1           1           1           1           1           1           1           1
 AtmWgt=   1.0078250   1.0078250   1.0078250   1.0078250   1.0078250   1.0078250   1.0078250   1.0078250
 NucSpn=           1           1           1           1           1           1           1           1
 AtZEff=  -0.0000000  -0.0000000  -0.0000000  -0.0000000  -0.0000000  -0.0000000  -0.0000000  -0.0000000
 NQMom=    0.0000000   0.0000000   0.0000000   0.0000000   0.0000000   0.0000000   0.0000000   0.0000000
 NMagM=    2.7928460   2.7928460   2.7928460   2.7928460   2.7928460   2.7928460   2.7928460   2.7928460
 AtZNuc=   1.0000000   1.0000000   1.0000000   1.0000000   1.0000000   1.0000000   1.0000000   1.0000000
 Leave Link  101 at Sat Feb 10 15:46:30 2024, MaxMem=  4026531840 cpu:               6.6 elap:               0.9
 (Enter /sysapps/ubuntu-applications/gaussian/Gaussian/AVX2/g16/l103.exe)

 GradGradGradGradGradGradGradGradGradGradGradGradGradGradGradGradGradGrad
 Berny optimization.
 Initialization pass.
                           ----------------------------
                           !    Initial Parameters    !
                           ! (Angstroms and Degrees)  !
 --------------------------                            --------------------------
 ! Name  Definition              Value          Derivative Info.                !
 --------------------------------------------------------------------------------
 ! R1    R(1,2)                  1.3979         estimate D2E/DX2                !
 ! R2    R(1,19)                 1.0135         estimate D2E/DX2                !
 ! R3    R(1,20)                 1.0105         estimate D2E/DX2                !
 ! R4    R(2,3)                  1.3886         estimate D2E/DX2                !
 ! R5    R(2,17)                 1.4265         estimate D2E/DX2                !
 ! R6    R(3,4)                  1.3924         estimate D2E/DX2                !
 ! R7    R(3,21)                 1.0856         estimate D2E/DX2                !
 ! R8    R(4,5)                  1.3883         estimate D2E/DX2                !
 ! R9    R(4,22)                 1.0822         estimate D2E/DX2                !
 ! R10   R(5,6)                  1.4842         estimate D2E/DX2                !
 ! R11   R(5,16)                 1.4231         estimate D2E/DX2                !
 ! R12   R(6,7)                  1.2238         estimate D2E/DX2                !
 ! R13   R(6,8)                  1.4904         estimate D2E/DX2                !
 ! R14   R(8,9)                  1.3983         estimate D2E/DX2                !
 ! R15   R(8,13)                 1.4037         estimate D2E/DX2                !
 ! R16   R(9,10)                 1.3894         estimate D2E/DX2                !
 ! R17   R(9,23)                 1.083          estimate D2E/DX2                !
 ! R18   R(10,11)                1.3981         estimate D2E/DX2                !
 ! R19   R(10,24)                1.0842         estimate D2E/DX2                !
 ! R20   R(11,12)                1.3894         estimate D2E/DX2                !
 ! R21   R(11,25)                1.0842         estimate D2E/DX2                !
 ! R22   R(12,13)                1.3994         estimate D2E/DX2                !
 ! R23   R(12,26)                1.0826         estimate D2E/DX2                !
 ! R24   R(13,14)                1.4924         estimate D2E/DX2                !
 ! R25   R(14,15)                1.2346         estimate D2E/DX2                !
 ! R26   R(14,16)                1.4737         estimate D2E/DX2                !
 ! R27   R(16,17)                1.4158         estimate D2E/DX2                !
 ! R28   R(17,18)                1.3763         estimate D2E/DX2                !
 ! R29   R(18,27)                1.0148         estimate D2E/DX2                !
 ! R30   R(18,28)                1.0105         estimate D2E/DX2                !
 ! A1    A(2,1,19)             114.4321         estimate D2E/DX2                !
 ! A2    A(2,1,20)             114.3864         estimate D2E/DX2                !
 ! A3    A(19,1,20)            111.2086         estimate D2E/DX2                !
 ! A4    A(1,2,3)              122.294          estimate D2E/DX2                !
 ! A5    A(1,2,17)             117.7761         estimate D2E/DX2                !
 ! A6    A(3,2,17)             119.8747         estimate D2E/DX2                !
 ! A7    A(2,3,4)              120.9231         estimate D2E/DX2                !
 ! A8    A(2,3,21)             119.1573         estimate D2E/DX2                !
 ! A9    A(4,3,21)             119.905          estimate D2E/DX2                !
 ! A10   A(3,4,5)              120.4376         estimate D2E/DX2                !
 ! A11   A(3,4,22)             120.959          estimate D2E/DX2                !
 ! A12   A(5,4,22)             118.5921         estimate D2E/DX2                !
 ! A13   A(4,5,6)              117.9302         estimate D2E/DX2                !
 ! A14   A(4,5,16)             120.1536         estimate D2E/DX2                !
 ! A15   A(6,5,16)             121.9143         estimate D2E/DX2                !
 ! A16   A(5,6,7)              121.7926         estimate D2E/DX2                !
 ! A17   A(5,6,8)              117.4248         estimate D2E/DX2                !
 ! A18   A(7,6,8)              120.7816         estimate D2E/DX2                !
 ! A19   A(6,8,9)              119.3657         estimate D2E/DX2                !
 ! A20   A(6,8,13)             120.7844         estimate D2E/DX2                !
 ! A21   A(9,8,13)             119.8494         estimate D2E/DX2                !
 ! A22   A(8,9,10)             120.1665         estimate D2E/DX2                !
 ! A23   A(8,9,23)             118.3434         estimate D2E/DX2                !
 ! A24   A(10,9,23)            121.49           estimate D2E/DX2                !
 ! A25   A(9,10,11)            120.0428         estimate D2E/DX2                !
 ! A26   A(9,10,24)            119.9544         estimate D2E/DX2                !
 ! A27   A(11,10,24)           120.0029         estimate D2E/DX2                !
 ! A28   A(10,11,12)           120.1318         estimate D2E/DX2                !
 ! A29   A(10,11,25)           119.9982         estimate D2E/DX2                !
 ! A30   A(12,11,25)           119.8701         estimate D2E/DX2                !
 ! A31   A(11,12,13)           120.1997         estimate D2E/DX2                !
 ! A32   A(11,12,26)           121.3131         estimate D2E/DX2                !
 ! A33   A(13,12,26)           118.4872         estimate D2E/DX2                !
 ! A34   A(8,13,12)            119.6098         estimate D2E/DX2                !
 ! A35   A(8,13,14)            121.5285         estimate D2E/DX2                !
 ! A36   A(12,13,14)           118.8605         estimate D2E/DX2                !
 ! A37   A(13,14,15)           119.1957         estimate D2E/DX2                !
 ! A38   A(13,14,16)           118.2313         estimate D2E/DX2                !
 ! A39   A(15,14,16)           122.5729         estimate D2E/DX2                !
 ! A40   A(5,16,14)            120.0967         estimate D2E/DX2                !
 ! A41   A(5,16,17)            119.3843         estimate D2E/DX2                !
 ! A42   A(14,16,17)           120.4878         estimate D2E/DX2                !
 ! A43   A(2,17,16)            119.1495         estimate D2E/DX2                !
 ! A44   A(2,17,18)            117.3734         estimate D2E/DX2                !
 ! A45   A(16,17,18)           123.4325         estimate D2E/DX2                !
 ! A46   A(17,18,27)           114.6616         estimate D2E/DX2                !
 ! A47   A(17,18,28)           115.8687         estimate D2E/DX2                !
 ! A48   A(27,18,28)           116.5645         estimate D2E/DX2                !
 ! D1    D(19,1,2,3)          -138.846          estimate D2E/DX2                !
 ! D2    D(19,1,2,17)           43.8595         estimate D2E/DX2                !
 ! D3    D(20,1,2,3)            -8.8886         estimate D2E/DX2                !
 ! D4    D(20,1,2,17)          173.8168         estimate D2E/DX2                !
 ! D5    D(1,2,3,4)           -179.2143         estimate D2E/DX2                !
 ! D6    D(1,2,3,21)             2.1789         estimate D2E/DX2                !
 ! D7    D(17,2,3,4)            -1.9748         estimate D2E/DX2                !
 ! D8    D(17,2,3,21)          179.4183         estimate D2E/DX2                !
 ! D9    D(1,2,17,16)         -179.3809         estimate D2E/DX2                !
 ! D10   D(1,2,17,18)           -1.7266         estimate D2E/DX2                !
 ! D11   D(3,2,17,16)            3.2565         estimate D2E/DX2                !
 ! D12   D(3,2,17,18)         -179.0892         estimate D2E/DX2                !
 ! D13   D(2,3,4,5)             -0.4402         estimate D2E/DX2                !
 ! D14   D(2,3,4,22)          -179.1989         estimate D2E/DX2                !
 ! D15   D(21,3,4,5)           178.1563         estimate D2E/DX2                !
 ! D16   D(21,3,4,22)           -0.6024         estimate D2E/DX2                !
 ! D17   D(3,4,5,6)           -178.9646         estimate D2E/DX2                !
 ! D18   D(3,4,5,16)             1.5341         estimate D2E/DX2                !
 ! D19   D(22,4,5,6)            -0.1769         estimate D2E/DX2                !
 ! D20   D(22,4,5,16)         -179.6781         estimate D2E/DX2                !
 ! D21   D(4,5,6,7)              1.1075         estimate D2E/DX2                !
 ! D22   D(4,5,6,8)           -178.5269         estimate D2E/DX2                !
 ! D23   D(16,5,6,7)          -179.4006         estimate D2E/DX2                !
 ! D24   D(16,5,6,8)             0.9651         estimate D2E/DX2                !
 ! D25   D(4,5,16,14)          177.7786         estimate D2E/DX2                !
 ! D26   D(4,5,16,17)           -0.1987         estimate D2E/DX2                !
 ! D27   D(6,5,16,14)           -1.7023         estimate D2E/DX2                !
 ! D28   D(6,5,16,17)         -179.6796         estimate D2E/DX2                !
 ! D29   D(5,6,8,9)            179.9952         estimate D2E/DX2                !
 ! D30   D(5,6,8,13)             0.2554         estimate D2E/DX2                !
 ! D31   D(7,6,8,9)              0.357          estimate D2E/DX2                !
 ! D32   D(7,6,8,13)          -179.3829         estimate D2E/DX2                !
 ! D33   D(6,8,9,10)          -179.6802         estimate D2E/DX2                !
 ! D34   D(6,8,9,23)             0.23           estimate D2E/DX2                !
 ! D35   D(13,8,9,10)            0.0621         estimate D2E/DX2                !
 ! D36   D(13,8,9,23)          179.9724         estimate D2E/DX2                !
 ! D37   D(6,8,13,12)          179.6901         estimate D2E/DX2                !
 ! D38   D(6,8,13,14)           -0.705          estimate D2E/DX2                !
 ! D39   D(9,8,13,12)           -0.0486         estimate D2E/DX2                !
 ! D40   D(9,8,13,14)          179.5563         estimate D2E/DX2                !
 ! D41   D(8,9,10,11)           -0.0162         estimate D2E/DX2                !
 ! D42   D(8,9,10,24)          179.9703         estimate D2E/DX2                !
 ! D43   D(23,9,10,11)        -179.9235         estimate D2E/DX2                !
 ! D44   D(23,9,10,24)           0.0629         estimate D2E/DX2                !
 ! D45   D(9,10,11,12)          -0.0436         estimate D2E/DX2                !
 ! D46   D(9,10,11,25)        -179.9988         estimate D2E/DX2                !
 ! D47   D(24,10,11,12)        179.97           estimate D2E/DX2                !
 ! D48   D(24,10,11,25)          0.0148         estimate D2E/DX2                !
 ! D49   D(10,11,12,13)          0.057          estimate D2E/DX2                !
 ! D50   D(10,11,12,26)       -179.8723         estimate D2E/DX2                !
 ! D51   D(25,11,12,13)       -179.9878         estimate D2E/DX2                !
 ! D52   D(25,11,12,26)          0.0829         estimate D2E/DX2                !
 ! D53   D(11,12,13,8)          -0.0108         estimate D2E/DX2                !
 ! D54   D(11,12,13,14)       -179.6263         estimate D2E/DX2                !
 ! D55   D(26,12,13,8)         179.9204         estimate D2E/DX2                !
 ! D56   D(26,12,13,14)          0.305          estimate D2E/DX2                !
 ! D57   D(8,13,14,15)        -179.956          estimate D2E/DX2                !
 ! D58   D(8,13,14,16)          -0.0156         estimate D2E/DX2                !
 ! D59   D(12,13,14,15)         -0.3482         estimate D2E/DX2                !
 ! D60   D(12,13,14,16)        179.5922         estimate D2E/DX2                !
 ! D61   D(13,14,16,5)           1.2142         estimate D2E/DX2                !
 ! D62   D(13,14,16,17)        179.169          estimate D2E/DX2                !
 ! D63   D(15,14,16,5)        -178.8476         estimate D2E/DX2                !
 ! D64   D(15,14,16,17)         -0.8928         estimate D2E/DX2                !
 ! D65   D(5,16,17,2)           -2.1678         estimate D2E/DX2                !
 ! D66   D(5,16,17,18)        -179.6716         estimate D2E/DX2                !
 ! D67   D(14,16,17,2)         179.863          estimate D2E/DX2                !
 ! D68   D(14,16,17,18)          2.3592         estimate D2E/DX2                !
 ! D69   D(2,17,18,27)         174.1019         estimate D2E/DX2                !
 ! D70   D(2,17,18,28)          33.7906         estimate D2E/DX2                !
 ! D71   D(16,17,18,27)         -8.353          estimate D2E/DX2                !
 ! D72   D(16,17,18,28)       -148.6643         estimate D2E/DX2                !
 --------------------------------------------------------------------------------
 Trust Radius=3.00D-01 FncErr=1.00D-07 GrdErr=1.00D-06 EigMax=2.50D+02 EigMin=1.00D-04
 Number of steps in this run=    160 maximum allowed number of steps=    168.
 GradGradGradGradGradGradGradGradGradGradGradGradGradGradGradGradGradGrad

 Leave Link  103 at Sat Feb 10 15:46:30 2024, MaxMem=  4026531840 cpu:               0.3 elap:               0.1
 (Enter /sysapps/ubuntu-applications/gaussian/Gaussian/AVX2/g16/l202.exe)
                          Input orientation:                          
 ---------------------------------------------------------------------
 Center     Atomic      Atomic             Coordinates (Angstroms)
 Number     Number       Type             X           Y           Z
 ---------------------------------------------------------------------
      1          7           0       -4.468438   -0.011340   -0.029713
      2          6           0       -3.133645   -0.372205    0.175738
      3          6           0       -2.773887   -1.526332    0.858848
      4          6           0       -1.434799   -1.850025    1.061244
      5          6           0       -0.430367   -1.025194    0.573377
      6          6           0        0.977805   -1.435557    0.800513
      7          8           0        1.260813   -2.475732    1.379836
      8          6           0        2.047124   -0.525082    0.301653
      9          6           0        3.387948   -0.872022    0.493982
     10          6           0        4.398208   -0.032331    0.041585
     11          6           0        4.076332    1.162983   -0.608213
     12          6           0        2.746389    1.514091   -0.804196
     13          6           0        1.722552    0.674296   -0.351471
     14          6           0        0.304545    1.076586   -0.585323
     15          8           0        0.068212    2.140636   -1.165113
     16          6           0       -0.762429    0.177533   -0.110941
     17          6           0       -2.124084    0.520556   -0.291957
     18          7           0       -2.538982    1.658366   -0.945798
     19          1           0       -4.665845    0.356571   -0.953221
     20          1           0       -5.137684   -0.721955    0.231423
     21          1           0       -3.552054   -2.192724    1.217917
     22          1           0       -1.153642   -2.755859    1.582323
     23          1           0        3.610575   -1.802609    1.001179
     24          1           0        5.436737   -0.304499    0.192977
     25          1           0        4.865269    1.817689   -0.960965
     26          1           0        2.475478    2.433967   -1.306701
     27          1           0       -1.795146    2.308706   -1.177435
     28          1           0       -3.406986    2.061485   -0.621547
 ---------------------------------------------------------------------
                    Distance matrix (angstroms):
                    1          2          3          4          5
     1  N    0.000000
     2  C    1.397893   0.000000
     3  C    2.440542   1.388551   0.000000
     4  C    3.711323   2.419535   1.392443   0.000000
     5  C    4.206856   2.809310   2.413445   1.388252   0.000000
     6  C    5.690275   4.292445   3.753243   2.461793   1.484229
     7  O    6.394089   5.018559   4.177510   2.785558   2.369499
     8  C    6.544179   5.184553   4.955312   3.802136   2.542028
     9  C    7.920722   6.548456   6.207210   4.953500   3.822211
    10  C    8.866958   7.540711   7.371493   6.194166   4.958197
    11  C    8.644466   7.413174   7.504011   6.499067   5.147291
    12  C    7.414883   6.252454   6.517924   5.681503   4.293886
    13  C    6.237145   4.995574   5.150301   4.282152   2.894593
    14  C    4.926830   3.807802   4.282237   3.781739   2.510012
    15  O    5.147944   4.285340   5.061679   4.810518   3.646013
    16  C    3.711708   2.450931   2.808845   2.436615   1.423063
    17  C    2.418198   1.426525   2.436462   2.815301   2.450882
    18  N    2.711075   2.394720   3.668001   4.190017   3.735725
    19  H    1.013506   2.037965   3.226209   4.400772   4.709464
    20  H    1.010473   2.035092   2.574533   3.958851   4.729452
    21  H    2.674841   2.139040   1.085612   2.150525   3.394626
    22  H    4.595532   3.403043   2.158784   1.082177   2.129859
    23  H    8.339175   6.943480   6.392022   5.045954   4.137221
    24  H    9.912014   8.570667   8.327701   7.096516   5.923429
    25  H    9.556708   8.370804   8.535274   7.565204   6.203221
    26  H    7.471827   6.444726   6.923106   6.264983   4.893304
    27  H    3.721071   3.287847   4.451056   4.736726   4.005353
    28  H    2.402822   2.575505   3.932533   4.692677   4.451482
                    6          7          8          9         10
     6  C    0.000000
     7  O    1.223794   0.000000
     8  C    1.490392   2.363429   0.000000
     9  C    2.494057   2.807370   1.398273   0.000000
    10  C    3.774145   4.195756   2.416203   1.389377   0.000000
    11  C    4.282264   5.011959   2.791971   2.414529   1.398076
    12  C    3.795182   4.784937   2.422829   2.791129   2.415631
    13  C    2.516584   3.623990   1.403718   2.424754   2.795165
    14  C    2.946979   4.170763   2.527578   3.803859   4.287282
    15  O    4.180933   5.404620   3.629538   4.780100   4.992672
    16  C    2.541893   3.654551   2.925319   4.323555   5.167154
    17  C    3.826432   4.819768   4.341049   5.739292   6.554176
    18  N    4.998975   6.077646   5.230291   6.603357   7.208189
    19  H    6.175605   6.970679   6.885926   8.274504   9.126771
    20  H    6.183227   6.733153   7.187848   8.530994   9.562680
    21  H    4.611632   4.823899   5.913659   7.101547   8.322122
    22  H    2.626307   2.439071   4.106262   5.035809   6.372952
    23  H    2.665797   2.473430   2.136771   1.082961   2.162191
    24  H    4.640093   4.853991   3.398521   2.147143   1.084222
    25  H    5.366450   6.074942   3.876174   3.396159   2.155418
    26  H    4.653664   5.726957   3.395035   3.873580   3.405494
    27  H    5.061723   6.226505   4.998109   6.306753   6.732317
    28  H    5.786013   6.810302   6.106549   7.484718   8.108321
                   11         12         13         14         15
    11  C    0.000000
    12  C    1.389401   0.000000
    13  C    2.417646   1.399449   0.000000
    14  C    3.772846   2.490365   1.492403   0.000000
    15  O    4.163048   2.774068   2.355633   1.234590   0.000000
    16  C    4.963063   3.818219   2.545537   1.473692   2.378028
    17  C    6.241625   4.997100   3.850167   2.508679   2.862381
    18  N    6.642420   5.289236   4.413875   2.924732   2.660478
    19  H    8.786068   7.503551   6.424536   5.035727   5.063505
    20  H    9.442249   8.260207   7.025106   5.789618   6.102958
    21  H    8.531576   7.582862   6.205179   5.367813   6.128880
    22  H    6.892634   6.256052   4.876271   4.638171   5.746042
    23  H    3.406143   3.873848   3.395490   4.662251   5.726285
    24  H    2.155484   3.396998   3.879386   5.371456   6.053442
    25  H    1.084203   2.146253   3.399338   4.635789   4.812248
    26  H    2.160097   1.082625   2.139113   2.660041   2.429201
    27  H    6.009239   4.625609   3.965818   2.505478   1.870963
    28  H    7.537077   6.180374   5.320657   3.840156   3.518342
                   16         17         18         19         20
    16  C    0.000000
    17  C    1.415816   0.000000
    18  N    2.458860   1.376321   0.000000
    19  H    3.997267   2.631484   2.493646   0.000000
    20  H    4.479860   3.301446   3.715512   1.670099   0.000000
    21  H    3.894354   3.417705   4.531983   3.528920   2.377089
    22  H    3.409542   3.897381   5.272186   5.334020   4.672717
    23  H    4.927569   6.321045   7.320254   8.773874   8.848298
    24  H    6.225302   7.621148   8.292270  10.188864  10.582728
    25  H    5.923144   7.140111   7.405980   9.642461  10.388968
    26  H    4.123758   5.083977   5.086906   7.445738   8.383669
    27  H    2.597270   2.022314   1.014835   3.478795   4.726769
    28  H    3.286894   2.031977   1.010482   2.145103   3.386800
                   21         22         23         24         25
    21  H    0.000000
    22  H    2.490440   0.000000
    23  H    7.176519   4.893279   0.000000
    24  H    9.241984   7.167464   2.496476   0.000000
    25  H    9.575086   7.975772   4.304744   2.482305   0.000000
    26  H    8.006941   6.960694   4.956141   4.303172   2.492074
    27  H    5.393265   5.803241   7.132397   7.810698   6.681997
    28  H    4.637129   5.756857   8.173777   9.190907   8.282804
                   26         27         28
    26  H    0.000000
    27  H    4.274416   0.000000
    28  H    5.933933   1.722834   0.000000
 Symmetry turned off by external request.
 Stoichiometry    C14H10N2O2
 Framework group  C1[X(C14H10N2O2)]
 Deg. of freedom    78
 Full point group                 C1      NOp   1
 Rotational constants (GHZ):           0.8995413           0.3154094           0.2336782
 Leave Link  202 at Sat Feb 10 15:46:30 2024, MaxMem=  4026531840 cpu:               0.1 elap:               0.0
 (Enter /sysapps/ubuntu-applications/gaussian/Gaussian/AVX2/g16/l301.exe)
 Standard basis: 6-311++G(d,p) (5D, 7F)
 Ernie: Thresh=  0.10000D-02 Tol=  0.10000D-05 Strict=F.
   466 basis functions,   738 primitive gaussians,   484 cartesian basis functions
    62 alpha electrons       62 beta electrons
       nuclear repulsion energy      1224.1633309754 Hartrees.
 IExCor=  402 DFT=T Ex+Corr=B3LYP ExCW=0 ScaHFX=  0.200000
 ScaDFX=  0.800000  0.720000  1.000000  0.810000 ScalE2=  1.000000  1.000000
 IRadAn=      5 IRanWt=     -1 IRanGd=            0 ICorTp=0 IEmpDi=  4
 NAtoms=   28 NActive=   28 NUniq=   28 SFac= 1.00D+00 NAtFMM=   60 NAOKFM=F Big=F
 Integral buffers will be    131072 words long.
 Raffenetti 2 integral format.
 Two-electron integral symmetry is turned off.
 ------------------------------------------------------------------------------
 Polarizable Continuum Model (PCM)
 =================================
 Model                : PCM.
 Atomic radii         : UFF (Universal Force Field).
 Polarization charges : Total charges.
 Charge compensation  : None.
 Solution method      : On-the-fly selection.
 Cavity type          : Scaled VdW (van der Waals Surface) (Alpha=1.100).
 Cavity algorithm     : GePol (No added spheres)
                        Default sphere list used, NSphG=   28.
                        Lebedev-Laikov grids with approx.  5.0 points / Ang**2.
                        Smoothing algorithm: York/Karplus (Gamma=1.0000).
                        Polarization charges: spherical gaussians, with
                                              point-specific exponents (IZeta= 3).
                        Self-potential: point-specific (ISelfS= 7).
                        Self-field    : sphere-specific E.n sum rule (ISelfD= 2).
 1st derivatives      : Analytical E(r).r(x)/FMM algorithm (CHGder, D1EAlg=3).
                        Cavity 1st derivative terms included.
 Solvent              : n,n-DiMethylFormamide, Eps=  37.219000 Eps(inf)=   2.046330
 ------------------------------------------------------------------------------
 GePol: Number of generator spheres                  =      28
 GePol: Total number of spheres                      =      28
 GePol: Number of exposed spheres                    =      28 (100.00%)
 GePol: Number of points                             =    2153
 GePol: Average weight of points                     =       0.13
 GePol: Minimum weight of points                     =   0.21D-07
 GePol: Maximum weight of points                     =    0.20577
 GePol: Number of points with low weight             =     121
 GePol: Fraction of low-weight points (<1% of avg)   =       5.62%
 GePol: Cavity surface area                          =    280.904 Ang**2
 GePol: Cavity volume                                =    309.036 Ang**3
 Leave Link  301 at Sat Feb 10 15:46:30 2024, MaxMem=  4026531840 cpu:               1.6 elap:               0.2
 (Enter /sysapps/ubuntu-applications/gaussian/Gaussian/AVX2/g16/l302.exe)
 NPDir=0 NMtPBC=     1 NCelOv=     1 NCel=       1 NClECP=     1 NCelD=      1
         NCelK=      1 NCelE2=     1 NClLst=     1 CellRange=     0.0.
 One-electron integrals computed using PRISM.
 NBasis=   466 RedAO= T EigKep=  1.24D-06  NBF=   466
 NBsUse=   459 1.00D-06 EigRej=  7.29D-07 NBFU=   459
 Precomputing XC quadrature grid using
 IXCGrd= 4 IRadAn=           5 IRanWt=          -1 IRanGd=           0 AccXCQ= 0.00D+00.
 Generated NRdTot=       0 NPtTot=           0 NUsed=           0 NTot=          32
 NSgBfM=   483   483   483   483   483 MxSgAt=    28 MxSgA2=    28.
 Leave Link  302 at Sat Feb 10 15:46:31 2024, MaxMem=  4026531840 cpu:               3.7 elap:               0.5
 (Enter /sysapps/ubuntu-applications/gaussian/Gaussian/AVX2/g16/l303.exe)
 DipDrv:  MaxL=1.
 Leave Link  303 at Sat Feb 10 15:46:31 2024, MaxMem=  4026531840 cpu:               0.9 elap:               0.1
 (Enter /sysapps/ubuntu-applications/gaussian/Gaussian/AVX2/g16/l401.exe)
 ExpMin= 3.60D-02 ExpMax= 8.59D+03 ExpMxC= 1.30D+03 IAcc=3 IRadAn=         5 AccDes= 0.00D+00
 Harris functional with IExCor=  402 and IRadAn=       5 diagonalized for initial guess.
 HarFok:  IExCor=  402 AccDes= 0.00D+00 IRadAn=         5 IDoV= 1 UseB2=F ITyADJ=14
 ICtDFT=  3500011 ScaDFX=  1.000000  1.000000  1.000000  1.000000
 FoFCou: FMM=F IPFlag=           0 FMFlag=      100000 FMFlg1=           0
         NFxFlg=           0 DoJE=T BraDBF=F KetDBF=T FulRan=T
         wScrn=  0.000000 ICntrl=       500 IOpCl=  0 I1Cent=   200000004 NGrid=           0
         NMat0=    1 NMatS0=      1 NMatT0=    0 NMatD0=    1 NMtDS0=    0 NMtDT0=    0
 Symmetry not used in FoFCou.
 Harris En= -799.724586939371    
 JPrj=0 DoOrth=F DoCkMO=F.
 Initial guess <Sx>= 0.0000 <Sy>= 0.0000 <Sz>= 0.0000 <S**2>=-0.0000 S=-0.0000
 Leave Link  401 at Sat Feb 10 15:46:33 2024, MaxMem=  4026531840 cpu:              16.6 elap:               2.1
 (Enter /sysapps/ubuntu-applications/gaussian/Gaussian/AVX2/g16/l502.exe)
 Two-electron integral symmetry not used.
 UHF open shell SCF:
 Using DIIS extrapolation, IDIIS=  1040.
 NGot=  4026531840 LenX=  4026056052 LenY=  4025821312
 Requested convergence on RMS density matrix=1.00D-08 within 128 cycles.
 Requested convergence on MAX density matrix=1.00D-06.
 Requested convergence on             energy=1.00D-06.
 No special actions if energy rises.
 Fock matrices will be formed incrementally for  20 cycles.

 Cycle   1  Pass 1  IDiag  1:
 FoFJK:  IHMeth= 1 ICntrl=       0 DoSepK=F KAlg= 0 I1Cent=           0 FoldK=F
 IRaf= 850000000 NMat=       1 IRICut=       1 DoRegI=T DoRafI=F ISym2E= 0 IDoP0=0 IntGTp=1.
 FoFCou: FMM=F IPFlag=           0 FMFlag=      100000 FMFlg1=           0
         NFxFlg=           0 DoJE=F BraDBF=F KetDBF=F FulRan=T
         wScrn=  0.000000 ICntrl=         0 IOpCl=  1 I1Cent=           0 NGrid=           0
         NMat0=    1 NMatS0=      1 NMatT0=    0 NMatD0=    1 NMtDS0=    0 NMtDT0=    0
 Symmetry not used in FoFCou.
 Inv3:  Mode=1 IEnd=    13906227.
 Iteration    1 A*A^-1 deviation from unit magnitude is 3.33D-15 for     43.
 Iteration    1 A*A^-1 deviation from orthogonality  is 1.76D-15 for   1567    447.
 Iteration    1 A^-1*A deviation from unit magnitude is 3.33D-15 for     43.
 Iteration    1 A^-1*A deviation from orthogonality  is 1.78D-15 for   1818   1637.
 E= -799.329898686893    
 DIIS: error= 3.05D-02 at cycle   1 NSaved=   1.
 NSaved= 1 IEnMin= 1 EnMin= -799.329898686893     IErMin= 1 ErrMin= 3.05D-02
 ErrMax= 3.05D-02  0.00D+00 EMaxC= 1.00D-01 BMatC= 2.03D+00 BMatP= 2.03D+00
 IDIUse=3 WtCom= 6.95D-01 WtEn= 3.05D-01
 Coeff-Com:  0.100D+01
 Coeff-En:   0.100D+01
 Coeff:      0.100D+01
 Gap=     0.092 Goal=   None    Shift=    0.000
 Gap=     0.092 Goal=   None    Shift=    0.000
 GapD=    0.092 DampG=0.500 DampE=0.500 DampFc=0.2500 IDamp=-1.
 Damping current iteration by 2.50D-01
 RMSDP=1.43D-02 MaxDP=8.33D-01              OVMax= 2.40D-01

 Cycle   2  Pass 1  IDiag  1:
 RMSU=  3.45D-03    CP:  9.84D-01
 E= -799.471415676057     Delta-E=       -0.141516989164 Rises=F Damp=T
 DIIS: error= 1.66D-02 at cycle   2 NSaved=   2.
 NSaved= 2 IEnMin= 2 EnMin= -799.471415676057     IErMin= 2 ErrMin= 1.66D-02
 ErrMax= 1.66D-02  0.00D+00 EMaxC= 1.00D-01 BMatC= 4.90D-01 BMatP= 2.03D+00
 IDIUse=3 WtCom= 8.34D-01 WtEn= 1.66D-01
 Coeff-Com: -0.690D+00 0.169D+01
 Coeff-En:   0.000D+00 0.100D+01
 Coeff:     -0.576D+00 0.158D+01
 Gap=     0.108 Goal=   None    Shift=    0.000
 Gap=     0.108 Goal=   None    Shift=    0.000
 RMSDP=7.93D-03 MaxDP=4.12D-01 DE=-1.42D-01 OVMax= 2.23D-01

 Cycle   3  Pass 1  IDiag  1:
 RMSU=  6.93D-03    CP:  9.23D-01  1.32D+00
 E= -799.685597003756     Delta-E=       -0.214181327699 Rises=F Damp=F
 DIIS: error= 1.14D-02 at cycle   3 NSaved=   3.
 NSaved= 3 IEnMin= 3 EnMin= -799.685597003756     IErMin= 3 ErrMin= 1.14D-02
 ErrMax= 1.14D-02  0.00D+00 EMaxC= 1.00D-01 BMatC= 1.97D-01 BMatP= 4.90D-01
 IDIUse=3 WtCom= 8.86D-01 WtEn= 1.14D-01
 Coeff-Com: -0.435D+00 0.931D+00 0.504D+00
 Coeff-En:   0.000D+00 0.000D+00 0.100D+01
 Coeff:     -0.385D+00 0.825D+00 0.561D+00
 Gap=     0.109 Goal=   None    Shift=    0.000
 Gap=     0.109 Goal=   None    Shift=    0.000
 RMSDP=3.19D-03 MaxDP=1.45D-01 DE=-2.14D-01 OVMax= 7.37D-02

 Cycle   4  Pass 1  IDiag  1:
 RMSU=  2.85D-03    CP:  9.29D-01  1.46D+00  8.11D-01
 E= -799.718513906435     Delta-E=       -0.032916902678 Rises=F Damp=F
 DIIS: error= 7.00D-03 at cycle   4 NSaved=   4.
 NSaved= 4 IEnMin= 4 EnMin= -799.718513906435     IErMin= 4 ErrMin= 7.00D-03
 ErrMax= 7.00D-03  0.00D+00 EMaxC= 1.00D-01 BMatC= 5.26D-02 BMatP= 1.97D-01
 IDIUse=3 WtCom= 9.30D-01 WtEn= 7.00D-02
 Coeff-Com: -0.102D+00 0.217D+00 0.353D+00 0.532D+00
 Coeff-En:   0.000D+00 0.000D+00 0.239D+00 0.761D+00
 Coeff:     -0.953D-01 0.202D+00 0.345D+00 0.548D+00
 Gap=     0.105 Goal=   None    Shift=    0.000
 Gap=     0.105 Goal=   None    Shift=    0.000
 RMSDP=1.86D-03 MaxDP=1.57D-01 DE=-3.29D-02 OVMax= 2.36D-02

 Cycle   5  Pass 1  IDiag  1:
 RMSU=  6.69D-04    CP:  9.08D-01  1.33D+00  8.40D-01  6.24D-01
 E= -799.729242614792     Delta-E=       -0.010728708358 Rises=F Damp=F
 DIIS: error= 1.05D-03 at cycle   5 NSaved=   5.
 NSaved= 5 IEnMin= 5 EnMin= -799.729242614792     IErMin= 5 ErrMin= 1.05D-03
 ErrMax= 1.05D-03  0.00D+00 EMaxC= 1.00D-01 BMatC= 2.32D-03 BMatP= 5.26D-02
 IDIUse=3 WtCom= 9.89D-01 WtEn= 1.05D-02
 Coeff-Com: -0.151D-01 0.300D-01 0.142D+00 0.297D+00 0.546D+00
 Coeff-En:   0.000D+00 0.000D+00 0.000D+00 0.000D+00 0.100D+01
 Coeff:     -0.149D-01 0.297D-01 0.140D+00 0.294D+00 0.551D+00
 Gap=     0.107 Goal=   None    Shift=    0.000
 Gap=     0.107 Goal=   None    Shift=    0.000
 RMSDP=6.37D-04 MaxDP=4.81D-02 DE=-1.07D-02 OVMax= 7.22D-03

 Cycle   6  Pass 1  IDiag  1:
 RMSU=  3.01D-04    CP:  8.99D-01  1.35D+00  8.41D-01  6.26D-01  7.31D-01
 E= -799.729741699945     Delta-E=       -0.000499085153 Rises=F Damp=F
 DIIS: error= 2.50D-04 at cycle   6 NSaved=   6.
 NSaved= 6 IEnMin= 6 EnMin= -799.729741699945     IErMin= 6 ErrMin= 2.50D-04
 ErrMax= 2.50D-04  0.00D+00 EMaxC= 1.00D-01 BMatC= 1.45D-04 BMatP= 2.32D-03
 IDIUse=3 WtCom= 9.98D-01 WtEn= 2.50D-03
 Coeff-Com: -0.159D-02 0.230D-02 0.440D-01 0.105D+00 0.280D+00 0.570D+00
 Coeff-En:   0.000D+00 0.000D+00 0.000D+00 0.000D+00 0.000D+00 0.100D+01
 Coeff:     -0.158D-02 0.229D-02 0.439D-01 0.105D+00 0.280D+00 0.571D+00
 Gap=     0.107 Goal=   None    Shift=    0.000
 Gap=     0.107 Goal=   None    Shift=    0.000
 RMSDP=1.45D-04 MaxDP=1.12D-02 DE=-4.99D-04 OVMax= 2.55D-03

 Cycle   7  Pass 1  IDiag  1:
 RMSU=  7.35D-05    CP:  9.00D-01  1.34D+00  8.47D-01  6.39D-01  7.51D-01
                    CP:  7.95D-01
 E= -799.729774700006     Delta-E=       -0.000033000060 Rises=F Damp=F
 DIIS: error= 7.46D-05 at cycle   7 NSaved=   7.
 NSaved= 7 IEnMin= 7 EnMin= -799.729774700006     IErMin= 7 ErrMin= 7.46D-05
 ErrMax= 7.46D-05  0.00D+00 EMaxC= 1.00D-01 BMatC= 1.88D-05 BMatP= 1.45D-04
 IDIUse=1 WtCom= 1.00D+00 WtEn= 0.00D+00
 Coeff-Com:  0.533D-03-0.149D-02 0.131D-01 0.353D-01 0.119D+00 0.330D+00
 Coeff-Com:  0.504D+00
 Coeff:      0.533D-03-0.149D-02 0.131D-01 0.353D-01 0.119D+00 0.330D+00
 Coeff:      0.504D+00
 Gap=     0.107 Goal=   None    Shift=    0.000
 Gap=     0.107 Goal=   None    Shift=    0.000
 RMSDP=2.47D-05 MaxDP=1.78D-03 DE=-3.30D-05 OVMax= 7.06D-04

 Cycle   8  Pass 1  IDiag  1:
 RMSU=  1.86D-05    CP:  9.01D-01  1.34D+00  8.47D-01  6.39D-01  7.54D-01
                    CP:  8.05D-01  8.29D-01
 E= -799.729779117654     Delta-E=       -0.000004417648 Rises=F Damp=F
 DIIS: error= 1.91D-05 at cycle   8 NSaved=   8.
 NSaved= 8 IEnMin= 8 EnMin= -799.729779117654     IErMin= 8 ErrMin= 1.91D-05
 ErrMax= 1.91D-05  0.00D+00 EMaxC= 1.00D-01 BMatC= 5.74D-07 BMatP= 1.88D-05
 IDIUse=1 WtCom= 1.00D+00 WtEn= 0.00D+00
 Coeff-Com:  0.403D-03-0.815D-03 0.164D-02 0.539D-02 0.260D-01 0.814D-01
 Coeff-Com:  0.190D+00 0.696D+00
 Coeff:      0.403D-03-0.815D-03 0.164D-02 0.539D-02 0.260D-01 0.814D-01
 Coeff:      0.190D+00 0.696D+00
 Gap=     0.107 Goal=   None    Shift=    0.000
 Gap=     0.107 Goal=   None    Shift=    0.000
 RMSDP=1.61D-05 MaxDP=1.31D-03 DE=-4.42D-06 OVMax= 1.48D-04

 Cycle   9  Pass 1  IDiag  1:
 RMSU=  8.71D-06    CP:  9.01D-01  1.34D+00  8.48D-01  6.39D-01  7.56D-01
                    CP:  7.89D-01  7.87D-01  7.87D-01
 E= -799.729779188984     Delta-E=       -0.000000071330 Rises=F Damp=F
 DIIS: error= 1.16D-05 at cycle   9 NSaved=   9.
 NSaved= 9 IEnMin= 9 EnMin= -799.729779188984     IErMin= 9 ErrMin= 1.16D-05
 ErrMax= 1.16D-05  0.00D+00 EMaxC= 1.00D-01 BMatC= 2.79D-07 BMatP= 5.74D-07
 IDIUse=1 WtCom= 1.00D+00 WtEn= 0.00D+00
 Coeff-Com:  0.210D-03-0.377D-03-0.253D-03-0.147D-03 0.451D-02 0.165D-01
 Coeff-Com:  0.635D-01 0.447D+00 0.469D+00
 Coeff:      0.210D-03-0.377D-03-0.253D-03-0.147D-03 0.451D-02 0.165D-01
 Coeff:      0.635D-01 0.447D+00 0.469D+00
 Gap=     0.107 Goal=   None    Shift=    0.000
 Gap=     0.107 Goal=   None    Shift=    0.000
 RMSDP=3.06D-06 MaxDP=1.98D-04 DE=-7.13D-08 OVMax= 1.43D-04

 Cycle  10  Pass 1  IDiag  1:
 RMSU=  1.84D-06    CP:  9.01D-01  1.34D+00  8.48D-01  6.39D-01  7.57D-01
                    CP:  7.90D-01  8.03D-01  7.71D-01  8.39D-01
 E= -799.729779255990     Delta-E=       -0.000000067006 Rises=F Damp=F
 DIIS: error= 2.03D-06 at cycle  10 NSaved=  10.
 NSaved=10 IEnMin=10 EnMin= -799.729779255990     IErMin=10 ErrMin= 2.03D-06
 ErrMax= 2.03D-06  0.00D+00 EMaxC= 1.00D-01 BMatC= 1.20D-08 BMatP= 2.79D-07
 IDIUse=1 WtCom= 1.00D+00 WtEn= 0.00D+00
 Coeff-Com:  0.615D-04-0.104D-03-0.268D-03-0.590D-03-0.585D-04 0.899D-03
 Coeff-Com:  0.137D-01 0.155D+00 0.236D+00 0.595D+00
 Coeff:      0.615D-04-0.104D-03-0.268D-03-0.590D-03-0.585D-04 0.899D-03
 Coeff:      0.137D-01 0.155D+00 0.236D+00 0.595D+00
 Gap=     0.107 Goal=   None    Shift=    0.000
 Gap=     0.107 Goal=   None    Shift=    0.000
 RMSDP=1.29D-06 MaxDP=1.07D-04 DE=-6.70D-08 OVMax= 1.84D-05

 Cycle  11  Pass 1  IDiag  1:
 RMSU=  5.49D-07    CP:  9.01D-01  1.34D+00  8.48D-01  6.39D-01  7.57D-01
                    CP:  7.90D-01  8.02D-01  7.89D-01  9.14D-01  8.53D-01
 E= -799.729779258032     Delta-E=       -0.000000002041 Rises=F Damp=F
 DIIS: error= 1.31D-06 at cycle  11 NSaved=  11.
 NSaved=11 IEnMin=11 EnMin= -799.729779258032     IErMin=11 ErrMin= 1.31D-06
 ErrMax= 1.31D-06  0.00D+00 EMaxC= 1.00D-01 BMatC= 3.22D-09 BMatP= 1.20D-08
 IDIUse=1 WtCom= 1.00D+00 WtEn= 0.00D+00
 Coeff-Com:  0.308D-05-0.255D-05-0.108D-03-0.309D-03-0.629D-03-0.184D-02
 Coeff-Com: -0.191D-02 0.211D-01 0.766D-01 0.378D+00 0.529D+00
 Coeff:      0.308D-05-0.255D-05-0.108D-03-0.309D-03-0.629D-03-0.184D-02
 Coeff:     -0.191D-02 0.211D-01 0.766D-01 0.378D+00 0.529D+00
 Gap=     0.107 Goal=   None    Shift=    0.000
 Gap=     0.107 Goal=   None    Shift=    0.000
 RMSDP=4.88D-07 MaxDP=3.54D-05 DE=-2.04D-09 OVMax= 1.91D-05

 Cycle  12  Pass 1  IDiag  1:
 RMSU=  2.53D-07    CP:  9.01D-01  1.34D+00  8.48D-01  6.39D-01  7.57D-01
                    CP:  7.90D-01  8.03D-01  7.88D-01  9.06D-01  8.38D-01
                    CP:  7.22D-01
 E= -799.729779258790     Delta-E=       -0.000000000759 Rises=F Damp=F
 DIIS: error= 2.61D-07 at cycle  12 NSaved=  12.
 NSaved=12 IEnMin=12 EnMin= -799.729779258790     IErMin=12 ErrMin= 2.61D-07
 ErrMax= 2.61D-07  0.00D+00 EMaxC= 1.00D-01 BMatC= 1.62D-10 BMatP= 3.22D-09
 IDIUse=1 WtCom= 1.00D+00 WtEn= 0.00D+00
 Coeff-Com: -0.508D-05 0.840D-05-0.170D-04-0.621D-04-0.224D-03-0.756D-03
 Coeff-Com: -0.188D-02-0.688D-02 0.887D-02 0.637D-01 0.219D+00 0.719D+00
 Coeff:     -0.508D-05 0.840D-05-0.170D-04-0.621D-04-0.224D-03-0.756D-03
 Coeff:     -0.188D-02-0.688D-02 0.887D-02 0.637D-01 0.219D+00 0.719D+00
 Gap=     0.107 Goal=   None    Shift=    0.000
 Gap=     0.107 Goal=   None    Shift=    0.000
 RMSDP=1.66D-07 MaxDP=1.19D-05 DE=-7.59D-10 OVMax= 4.43D-06

 Cycle  13  Pass 1  IDiag  1:
 RMSU=  6.64D-08    CP:  9.01D-01  1.34D+00  8.48D-01  6.39D-01  7.57D-01
                    CP:  7.90D-01  8.04D-01  7.86D-01  9.13D-01  8.53D-01
                    CP:  7.73D-01  1.02D+00
 E= -799.729779258828     Delta-E=       -0.000000000037 Rises=F Damp=F
 DIIS: error= 1.06D-07 at cycle  13 NSaved=  13.
 NSaved=13 IEnMin=13 EnMin= -799.729779258828     IErMin=13 ErrMin= 1.06D-07
 ErrMax= 1.06D-07  0.00D+00 EMaxC= 1.00D-01 BMatC= 4.38D-11 BMatP= 1.62D-10
 IDIUse=1 WtCom= 1.00D+00 WtEn= 0.00D+00
 Coeff-Com: -0.404D-05 0.640D-05 0.443D-05 0.410D-05-0.621D-04-0.253D-03
 Coeff-Com: -0.988D-03-0.837D-02-0.590D-02-0.213D-01 0.681D-01 0.453D+00
 Coeff-Com:  0.516D+00
 Coeff:     -0.404D-05 0.640D-05 0.443D-05 0.410D-05-0.621D-04-0.253D-03
 Coeff:     -0.988D-03-0.837D-02-0.590D-02-0.213D-01 0.681D-01 0.453D+00
 Coeff:      0.516D+00
 Gap=     0.107 Goal=   None    Shift=    0.000
 Gap=     0.107 Goal=   None    Shift=    0.000
 RMSDP=1.10D-07 MaxDP=9.16D-06 DE=-3.73D-11 OVMax= 8.88D-07

 Cycle  14  Pass 1  IDiag  1:
 RMSU=  3.24D-08    CP:  9.01D-01  1.34D+00  8.48D-01  6.39D-01  7.57D-01
                    CP:  7.90D-01  8.03D-01  7.85D-01  9.19D-01  8.51D-01
                    CP:  8.00D-01  1.11D+00  8.06D-01
 E= -799.729779258830     Delta-E=       -0.000000000003 Rises=F Damp=F
 DIIS: error= 3.47D-08 at cycle  14 NSaved=  14.
 NSaved=14 IEnMin=14 EnMin= -799.729779258830     IErMin=14 ErrMin= 3.47D-08
 ErrMax= 3.47D-08  0.00D+00 EMaxC= 1.00D-01 BMatC= 2.63D-12 BMatP= 4.38D-11
 IDIUse=1 WtCom= 1.00D+00 WtEn= 0.00D+00
 Coeff-Com: -0.100D-05 0.160D-05 0.347D-05 0.750D-05-0.406D-05-0.470D-04
 Coeff-Com: -0.224D-03-0.288D-02-0.246D-02-0.147D-01 0.167D-01 0.142D+00
 Coeff-Com:  0.235D+00 0.627D+00
 Coeff:     -0.100D-05 0.160D-05 0.347D-05 0.750D-05-0.406D-05-0.470D-04
 Coeff:     -0.224D-03-0.288D-02-0.246D-02-0.147D-01 0.167D-01 0.142D+00
 Coeff:      0.235D+00 0.627D+00
 Gap=     0.107 Goal=   None    Shift=    0.000
 Gap=     0.107 Goal=   None    Shift=    0.000
 RMSDP=1.45D-08 MaxDP=8.70D-07 DE=-2.73D-12 OVMax= 7.56D-07

 Cycle  15  Pass 1  IDiag  1:
 RMSU=  8.15D-09    CP:  9.01D-01  1.34D+00  8.48D-01  6.39D-01  7.57D-01
                    CP:  7.90D-01  8.03D-01  7.85D-01  9.18D-01  8.49D-01
                    CP:  8.04D-01  1.12D+00  8.80D-01  8.49D-01
 E= -799.729779258828     Delta-E=        0.000000000003 Rises=F Damp=F
 DIIS: error= 2.92D-08 at cycle  15 NSaved=  15.
 NSaved=15 IEnMin=14 EnMin= -799.729779258830     IErMin=15 ErrMin= 2.92D-08
 ErrMax= 2.92D-08  0.00D+00 EMaxC= 1.00D-01 BMatC= 1.12D-12 BMatP= 2.63D-12
 IDIUse=1 WtCom= 1.00D+00 WtEn= 0.00D+00
 Coeff-Com:  0.432D-07-0.187D-07 0.182D-05 0.497D-05 0.718D-05 0.762D-05
 Coeff-Com:  0.921D-05-0.744D-03-0.104D-02-0.836D-02-0.239D-02 0.132D-01
 Coeff-Com:  0.637D-01 0.437D+00 0.499D+00
 Coeff:      0.432D-07-0.187D-07 0.182D-05 0.497D-05 0.718D-05 0.762D-05
 Coeff:      0.921D-05-0.744D-03-0.104D-02-0.836D-02-0.239D-02 0.132D-01
 Coeff:      0.637D-01 0.437D+00 0.499D+00
 Gap=     0.107 Goal=   None    Shift=    0.000
 Gap=     0.107 Goal=   None    Shift=    0.000
 RMSDP=1.02D-08 MaxDP=5.36D-07 DE= 2.50D-12 OVMax= 1.77D-07

 Cycle  16  Pass 1  IDiag  1:
 RMSU=  3.38D-09    CP:  9.01D-01  1.34D+00  8.48D-01  6.39D-01  7.57D-01
                    CP:  7.90D-01  8.03D-01  7.85D-01  9.19D-01  8.48D-01
                    CP:  8.09D-01  1.13D+00  8.75D-01  9.24D-01  7.19D-01
 E= -799.729779258843     Delta-E=       -0.000000000015 Rises=F Damp=F
 DIIS: error= 3.36D-09 at cycle  16 NSaved=  16.
 NSaved=16 IEnMin=16 EnMin= -799.729779258843     IErMin=16 ErrMin= 3.36D-09
 ErrMax= 3.36D-09  0.00D+00 EMaxC= 1.00D-01 BMatC= 2.68D-14 BMatP= 1.12D-12
 IDIUse=1 WtCom= 1.00D+00 WtEn= 0.00D+00
 Coeff-Com:  0.146D-06-0.197D-06 0.521D-06 0.148D-05 0.353D-05 0.670D-05
 Coeff-Com:  0.245D-04-0.785D-04-0.158D-03-0.220D-02-0.161D-02-0.421D-02
 Coeff-Com:  0.746D-02 0.138D+00 0.194D+00 0.669D+00
 Coeff:      0.146D-06-0.197D-06 0.521D-06 0.148D-05 0.353D-05 0.670D-05
 Coeff:      0.245D-04-0.785D-04-0.158D-03-0.220D-02-0.161D-02-0.421D-02
 Coeff:      0.746D-02 0.138D+00 0.194D+00 0.669D+00
 Gap=     0.107 Goal=   None    Shift=    0.000
 Gap=     0.107 Goal=   None    Shift=    0.000
 RMSDP=1.73D-09 MaxDP=1.49D-07 DE=-1.52D-11 OVMax= 5.76D-08

 Error on total polarization charges =  0.01748
 SCF Done:  E(UB3LYP) =  -799.729779259     A.U. after   16 cycles
            NFock= 16  Conv=0.17D-08     -V/T= 2.0041
 <Sx>= 0.0000 <Sy>= 0.0000 <Sz>= 0.0000 <S**2>=-0.0000 S=-0.0000
 <L.S>=  0.00000000000    
 KE= 7.964575437809D+02 PE=-4.312918482008D+03 EE= 1.492567827993D+03
 Annihilation of the first spin contaminant:
 S**2 before annihilation    -0.0000,   after    -0.0000
 Leave Link  502 at Sat Feb 10 15:50:29 2024, MaxMem=  4026531840 cpu:            1848.5 elap:             235.7
 (Enter /sysapps/ubuntu-applications/gaussian/Gaussian/AVX2/g16/l601.exe)
 Copying SCF densities to generalized density rwf, IOpCl= 1 IROHF=0.

 **********************************************************************

            Population analysis using the SCF density.

 **********************************************************************

 Alpha  occ. eigenvalues --  -19.12641 -19.11975 -14.33744 -14.33222 -10.27946
 Alpha  occ. eigenvalues --  -10.27344 -10.24320 -10.23699 -10.20518 -10.20354
 Alpha  occ. eigenvalues --  -10.20206 -10.19626 -10.19575 -10.19551 -10.19450
 Alpha  occ. eigenvalues --  -10.19439 -10.19097 -10.18841  -1.06036  -1.05493
 Alpha  occ. eigenvalues --   -0.96220  -0.91335  -0.88734  -0.86232  -0.80286
 Alpha  occ. eigenvalues --   -0.77560  -0.76239  -0.75101  -0.68556  -0.66325
 Alpha  occ. eigenvalues --   -0.64750  -0.61405  -0.58876  -0.57428  -0.56046
 Alpha  occ. eigenvalues --   -0.53431  -0.51629  -0.50675  -0.49893  -0.48799
 Alpha  occ. eigenvalues --   -0.47377  -0.46632  -0.45323  -0.45050  -0.44900
 Alpha  occ. eigenvalues --   -0.44576  -0.42977  -0.41793  -0.41160  -0.40116
 Alpha  occ. eigenvalues --   -0.38587  -0.37809  -0.37465  -0.36537  -0.33730
 Alpha  occ. eigenvalues --   -0.32784  -0.28335  -0.28320  -0.27619  -0.27031
 Alpha  occ. eigenvalues --   -0.25644  -0.21879
 Alpha virt. eigenvalues --   -0.11171  -0.06576  -0.03039  -0.01484  -0.00992
 Alpha virt. eigenvalues --   -0.00184   0.00651   0.01489   0.01838   0.03198
 Alpha virt. eigenvalues --    0.03603   0.03780   0.03828   0.03975   0.04673
 Alpha virt. eigenvalues --    0.05306   0.05839   0.06244   0.06379   0.06679
 Alpha virt. eigenvalues --    0.07660   0.08526   0.08997   0.09176   0.09718
 Alpha virt. eigenvalues --    0.10496   0.10838   0.11140   0.11375   0.11567
 Alpha virt. eigenvalues --    0.11753   0.12133   0.12306   0.12600   0.12869
 Alpha virt. eigenvalues --    0.13534   0.13748   0.14236   0.14773   0.14825
 Alpha virt. eigenvalues --    0.15403   0.15858   0.16212   0.16634   0.16853
 Alpha virt. eigenvalues --    0.17192   0.17437   0.17653   0.18070   0.18748
 Alpha virt. eigenvalues --    0.19140   0.19282   0.19585   0.19995   0.20481
 Alpha virt. eigenvalues --    0.20819   0.21014   0.21758   0.22085   0.22279
 Alpha virt. eigenvalues --    0.22556   0.22702   0.23219   0.23385   0.23556
 Alpha virt. eigenvalues --    0.24192   0.24291   0.24695   0.24904   0.25464
 Alpha virt. eigenvalues --    0.26235   0.26480   0.26904   0.27123   0.27993
 Alpha virt. eigenvalues --    0.28211   0.28620   0.29090   0.29622   0.30002
 Alpha virt. eigenvalues --    0.30239   0.30403   0.31378   0.31394   0.31504
 Alpha virt. eigenvalues --    0.31966   0.32211   0.32580   0.33519   0.33784
 Alpha virt. eigenvalues --    0.34244   0.34551   0.34784   0.34988   0.36321
 Alpha virt. eigenvalues --    0.36866   0.37792   0.38273   0.39273   0.39432
 Alpha virt. eigenvalues --    0.40756   0.40839   0.42370   0.42972   0.44144
 Alpha virt. eigenvalues --    0.47522   0.47653   0.49637   0.50032   0.52756
 Alpha virt. eigenvalues --    0.53150   0.53685   0.54069   0.54371   0.54854
 Alpha virt. eigenvalues --    0.54976   0.56481   0.57194   0.57888   0.58709
 Alpha virt. eigenvalues --    0.59454   0.59817   0.60600   0.61062   0.61546
 Alpha virt. eigenvalues --    0.62239   0.63334   0.63719   0.64009   0.64782
 Alpha virt. eigenvalues --    0.65114   0.65494   0.65686   0.66152   0.66903
 Alpha virt. eigenvalues --    0.67545   0.67793   0.68863   0.70862   0.72263
 Alpha virt. eigenvalues --    0.72816   0.73159   0.73943   0.75069   0.75733
 Alpha virt. eigenvalues --    0.76399   0.77301   0.77728   0.78382   0.80582
 Alpha virt. eigenvalues --    0.81454   0.81891   0.83385   0.83940   0.85180
 Alpha virt. eigenvalues --    0.85918   0.86292   0.87036   0.87895   0.88461
 Alpha virt. eigenvalues --    0.89035   0.89833   0.90353   0.90729   0.91362
 Alpha virt. eigenvalues --    0.92165   0.93040   0.93836   0.94046   0.96078
 Alpha virt. eigenvalues --    0.97203   0.97608   0.98420   0.99464   0.99556
 Alpha virt. eigenvalues --    1.00319   1.01001   1.01477   1.02424   1.04345
 Alpha virt. eigenvalues --    1.05452   1.06622   1.07103   1.08357   1.08971
 Alpha virt. eigenvalues --    1.11605   1.12499   1.13488   1.14325   1.14985
 Alpha virt. eigenvalues --    1.15614   1.17253   1.20562   1.21050   1.21729
 Alpha virt. eigenvalues --    1.23072   1.24589   1.26376   1.29260   1.30917
 Alpha virt. eigenvalues --    1.32384   1.32520   1.34591   1.37388   1.39497
 Alpha virt. eigenvalues --    1.44480   1.45884   1.46146   1.46758   1.48552
 Alpha virt. eigenvalues --    1.49322   1.49815   1.50755   1.51411   1.51776
 Alpha virt. eigenvalues --    1.52699   1.53342   1.54151   1.55450   1.55753
 Alpha virt. eigenvalues --    1.58250   1.58772   1.60494   1.60774   1.63966
 Alpha virt. eigenvalues --    1.64895   1.66147   1.66704   1.68187   1.69217
 Alpha virt. eigenvalues --    1.71094   1.71948   1.72525   1.74163   1.74932
 Alpha virt. eigenvalues --    1.75461   1.76297   1.77520   1.81393   1.81962
 Alpha virt. eigenvalues --    1.82690   1.84709   1.85111   1.88519   1.89123
 Alpha virt. eigenvalues --    1.89279   1.89618   1.90112   1.91073   1.92495
 Alpha virt. eigenvalues --    1.93299   1.94526   1.95397   1.96054   1.96985
 Alpha virt. eigenvalues --    1.97367   1.98054   2.00107   2.01926   2.03056
 Alpha virt. eigenvalues --    2.04063   2.05869   2.07266   2.08817   2.09659
 Alpha virt. eigenvalues --    2.11253   2.14231   2.14666   2.15464   2.20170
 Alpha virt. eigenvalues --    2.24546   2.25665   2.26374   2.27759   2.31104
 Alpha virt. eigenvalues --    2.31363   2.35107   2.36208   2.38151   2.42965
 Alpha virt. eigenvalues --    2.43279   2.47000   2.48070   2.49559   2.51819
 Alpha virt. eigenvalues --    2.55597   2.59273   2.59371   2.61708   2.62244
 Alpha virt. eigenvalues --    2.62404   2.63578   2.65155   2.65883   2.69719
 Alpha virt. eigenvalues --    2.70256   2.71301   2.72311   2.72903   2.74139
 Alpha virt. eigenvalues --    2.74898   2.75136   2.76413   2.76860   2.77730
 Alpha virt. eigenvalues --    2.78220   2.79178   2.80115   2.81454   2.83393
 Alpha virt. eigenvalues --    2.83871   2.85271   2.85564   2.85947   2.86730
 Alpha virt. eigenvalues --    2.89126   2.90155   2.91204   2.91753   2.92829
 Alpha virt. eigenvalues --    2.94516   2.97280   2.98658   2.99523   3.01300
 Alpha virt. eigenvalues --    3.07954   3.08393   3.09205   3.09892   3.13667
 Alpha virt. eigenvalues --    3.16864   3.18738   3.20506   3.21991   3.24833
 Alpha virt. eigenvalues --    3.27211   3.32070   3.32232   3.33056   3.35233
 Alpha virt. eigenvalues --    3.36049   3.39903   3.41427   3.46188   3.48931
 Alpha virt. eigenvalues --    3.52079   3.52868   3.55637   3.56613   3.57744
 Alpha virt. eigenvalues --    3.59401   3.67801   3.75544   3.81000   3.82095
 Alpha virt. eigenvalues --    3.86182   3.96485   4.03028   4.03711   4.04788
 Alpha virt. eigenvalues --    4.06855   4.13207   4.18715   4.23820   4.26593
 Alpha virt. eigenvalues --    4.44008   4.74485   4.74988   4.81310   4.83342
 Alpha virt. eigenvalues --    4.85643   4.93628   5.04834   5.06213   5.08415
 Alpha virt. eigenvalues --    5.25802   5.33016   5.74366   5.82183  23.51695
 Alpha virt. eigenvalues --   23.65257  23.87001  23.89171  23.91219  23.93211
 Alpha virt. eigenvalues --   23.94634  23.95410  24.00265  24.04406  24.06598
 Alpha virt. eigenvalues --   24.08508  24.16502  24.17389  35.60813  35.69919
 Alpha virt. eigenvalues --   50.03622  50.08519
  Beta  occ. eigenvalues --  -19.12641 -19.11975 -14.33744 -14.33222 -10.27946
  Beta  occ. eigenvalues --  -10.27344 -10.24320 -10.23699 -10.20518 -10.20354
  Beta  occ. eigenvalues --  -10.20206 -10.19626 -10.19575 -10.19551 -10.19450
  Beta  occ. eigenvalues --  -10.19439 -10.19097 -10.18841  -1.06036  -1.05493
  Beta  occ. eigenvalues --   -0.96220  -0.91335  -0.88734  -0.86232  -0.80286
  Beta  occ. eigenvalues --   -0.77560  -0.76239  -0.75101  -0.68556  -0.66325
  Beta  occ. eigenvalues --   -0.64750  -0.61405  -0.58876  -0.57428  -0.56046
  Beta  occ. eigenvalues --   -0.53431  -0.51629  -0.50675  -0.49893  -0.48799
  Beta  occ. eigenvalues --   -0.47377  -0.46632  -0.45323  -0.45050  -0.44900
  Beta  occ. eigenvalues --   -0.44576  -0.42977  -0.41793  -0.41160  -0.40116
  Beta  occ. eigenvalues --   -0.38587  -0.37809  -0.37465  -0.36537  -0.33730
  Beta  occ. eigenvalues --   -0.32784  -0.28335  -0.28320  -0.27619  -0.27031
  Beta  occ. eigenvalues --   -0.25644  -0.21879
  Beta virt. eigenvalues --   -0.11171  -0.06576  -0.03039  -0.01484  -0.00992
  Beta virt. eigenvalues --   -0.00184   0.00651   0.01489   0.01838   0.03198
  Beta virt. eigenvalues --    0.03603   0.03780   0.03828   0.03975   0.04673
  Beta virt. eigenvalues --    0.05306   0.05839   0.06244   0.06379   0.06679
  Beta virt. eigenvalues --    0.07660   0.08526   0.08997   0.09176   0.09718
  Beta virt. eigenvalues --    0.10496   0.10838   0.11140   0.11375   0.11567
  Beta virt. eigenvalues --    0.11753   0.12133   0.12306   0.12600   0.12869
  Beta virt. eigenvalues --    0.13534   0.13748   0.14236   0.14773   0.14825
  Beta virt. eigenvalues --    0.15403   0.15858   0.16212   0.16634   0.16853
  Beta virt. eigenvalues --    0.17192   0.17437   0.17653   0.18070   0.18748
  Beta virt. eigenvalues --    0.19140   0.19282   0.19585   0.19995   0.20481
  Beta virt. eigenvalues --    0.20819   0.21014   0.21758   0.22085   0.22279
  Beta virt. eigenvalues --    0.22556   0.22702   0.23219   0.23385   0.23556
  Beta virt. eigenvalues --    0.24192   0.24291   0.24695   0.24904   0.25464
  Beta virt. eigenvalues --    0.26235   0.26480   0.26904   0.27123   0.27993
  Beta virt. eigenvalues --    0.28211   0.28620   0.29090   0.29622   0.30002
  Beta virt. eigenvalues --    0.30239   0.30403   0.31378   0.31394   0.31504
  Beta virt. eigenvalues --    0.31966   0.32211   0.32580   0.33519   0.33784
  Beta virt. eigenvalues --    0.34244   0.34551   0.34784   0.34988   0.36321
  Beta virt. eigenvalues --    0.36866   0.37792   0.38273   0.39273   0.39432
  Beta virt. eigenvalues --    0.40756   0.40839   0.42370   0.42972   0.44144
  Beta virt. eigenvalues --    0.47522   0.47653   0.49637   0.50032   0.52756
  Beta virt. eigenvalues --    0.53150   0.53685   0.54069   0.54371   0.54854
  Beta virt. eigenvalues --    0.54976   0.56481   0.57194   0.57888   0.58709
  Beta virt. eigenvalues --    0.59454   0.59817   0.60600   0.61062   0.61546
  Beta virt. eigenvalues --    0.62239   0.63334   0.63719   0.64009   0.64782
  Beta virt. eigenvalues --    0.65114   0.65494   0.65686   0.66152   0.66903
  Beta virt. eigenvalues --    0.67545   0.67793   0.68863   0.70862   0.72263
  Beta virt. eigenvalues --    0.72816   0.73159   0.73943   0.75069   0.75733
  Beta virt. eigenvalues --    0.76399   0.77301   0.77728   0.78382   0.80582
  Beta virt. eigenvalues --    0.81454   0.81891   0.83385   0.83940   0.85180
  Beta virt. eigenvalues --    0.85918   0.86292   0.87036   0.87895   0.88461
  Beta virt. eigenvalues --    0.89035   0.89833   0.90353   0.90729   0.91362
  Beta virt. eigenvalues --    0.92165   0.93040   0.93836   0.94046   0.96078
  Beta virt. eigenvalues --    0.97203   0.97608   0.98420   0.99464   0.99556
  Beta virt. eigenvalues --    1.00319   1.01001   1.01477   1.02424   1.04345
  Beta virt. eigenvalues --    1.05452   1.06622   1.07103   1.08357   1.08971
  Beta virt. eigenvalues --    1.11605   1.12499   1.13488   1.14325   1.14985
  Beta virt. eigenvalues --    1.15614   1.17253   1.20562   1.21050   1.21729
  Beta virt. eigenvalues --    1.23072   1.24589   1.26376   1.29260   1.30917
  Beta virt. eigenvalues --    1.32384   1.32520   1.34591   1.37388   1.39497
  Beta virt. eigenvalues --    1.44480   1.45884   1.46146   1.46758   1.48552
  Beta virt. eigenvalues --    1.49322   1.49815   1.50755   1.51411   1.51776
  Beta virt. eigenvalues --    1.52699   1.53342   1.54151   1.55450   1.55753
  Beta virt. eigenvalues --    1.58250   1.58772   1.60494   1.60774   1.63966
  Beta virt. eigenvalues --    1.64895   1.66147   1.66704   1.68187   1.69217
  Beta virt. eigenvalues --    1.71094   1.71948   1.72525   1.74163   1.74932
  Beta virt. eigenvalues --    1.75461   1.76297   1.77520   1.81393   1.81962
  Beta virt. eigenvalues --    1.82690   1.84709   1.85111   1.88519   1.89123
  Beta virt. eigenvalues --    1.89279   1.89618   1.90112   1.91073   1.92495
  Beta virt. eigenvalues --    1.93299   1.94526   1.95397   1.96054   1.96985
  Beta virt. eigenvalues --    1.97367   1.98054   2.00107   2.01926   2.03056
  Beta virt. eigenvalues --    2.04063   2.05869   2.07266   2.08817   2.09659
  Beta virt. eigenvalues --    2.11253   2.14231   2.14666   2.15464   2.20170
  Beta virt. eigenvalues --    2.24546   2.25665   2.26374   2.27759   2.31104
  Beta virt. eigenvalues --    2.31363   2.35107   2.36208   2.38151   2.42965
  Beta virt. eigenvalues --    2.43279   2.47000   2.48070   2.49559   2.51819
  Beta virt. eigenvalues --    2.55597   2.59273   2.59371   2.61708   2.62244
  Beta virt. eigenvalues --    2.62404   2.63578   2.65155   2.65883   2.69719
  Beta virt. eigenvalues --    2.70256   2.71301   2.72311   2.72903   2.74139
  Beta virt. eigenvalues --    2.74898   2.75136   2.76413   2.76860   2.77730
  Beta virt. eigenvalues --    2.78220   2.79178   2.80115   2.81454   2.83393
  Beta virt. eigenvalues --    2.83871   2.85271   2.85564   2.85947   2.86730
  Beta virt. eigenvalues --    2.89126   2.90155   2.91204   2.91753   2.92829
  Beta virt. eigenvalues --    2.94516   2.97280   2.98658   2.99523   3.01300
  Beta virt. eigenvalues --    3.07954   3.08393   3.09205   3.09892   3.13667
  Beta virt. eigenvalues --    3.16864   3.18738   3.20506   3.21991   3.24833
  Beta virt. eigenvalues --    3.27211   3.32070   3.32232   3.33056   3.35233
  Beta virt. eigenvalues --    3.36049   3.39903   3.41427   3.46188   3.48931
  Beta virt. eigenvalues --    3.52079   3.52868   3.55637   3.56613   3.57744
  Beta virt. eigenvalues --    3.59401   3.67801   3.75544   3.81000   3.82095
  Beta virt. eigenvalues --    3.86182   3.96485   4.03028   4.03711   4.04788
  Beta virt. eigenvalues --    4.06855   4.13207   4.18715   4.23820   4.26593
  Beta virt. eigenvalues --    4.44008   4.74485   4.74988   4.81310   4.83342
  Beta virt. eigenvalues --    4.85643   4.93628   5.04834   5.06213   5.08415
  Beta virt. eigenvalues --    5.25802   5.33016   5.74366   5.82183  23.51695
  Beta virt. eigenvalues --   23.65257  23.87001  23.89171  23.91219  23.93211
  Beta virt. eigenvalues --   23.94634  23.95410  24.00265  24.04406  24.06598
  Beta virt. eigenvalues --   24.08508  24.16502  24.17389  35.60813  35.69919
  Beta virt. eigenvalues --   50.03622  50.08519
          Condensed to atoms (all electrons):
               1          2          3          4          5          6
     1  N    6.662079   0.185661  -0.047695   0.057203   0.017954   0.012710
     2  C    0.185661  15.523977   0.895167  -0.519160  -0.836683  -1.461539
     3  C   -0.047695   0.895167  10.958739   0.073781  -1.832217   0.763315
     4  C    0.057203  -0.519160   0.073781   9.568338   2.115148  -2.674270
     5  C    0.017954  -0.836683  -1.832217   2.115148  13.696353  -1.013314
     6  C    0.012710  -1.461539   0.763315  -2.674270  -1.013314  11.243754
     7  O    0.000029  -0.010164   0.082732   0.218953  -0.187822   0.679867
     8  C    0.002329  -1.086077   0.096606   0.361132   1.327224   0.912631
     9  C    0.000705  -0.177404  -0.072545   0.104566  -0.482965  -1.778514
    10  C    0.000099  -0.073136  -0.012266  -0.023764  -0.153358  -0.323181
    11  C   -0.000327   0.078668   0.024687  -0.065823  -0.067717   0.168060
    12  C   -0.001655  -0.003805  -0.087344  -0.216114  -1.393203  -1.183958
    13  C   -0.002869   0.933240   0.129906  -2.568745  -5.543205   0.155445
    14  C   -0.004076  -0.499558  -0.195835  -0.577999   1.395543   1.349380
    15  O   -0.000356  -0.098099  -0.021384  -0.034194  -0.233815  -0.014307
    16  C   -0.016984  -5.188088  -1.385649  -1.221087  -0.154764   0.919860
    17  C   -0.229044  -0.558059  -3.651202   0.970623  -1.236441  -1.335378
    18  N    0.031096  -0.460817  -0.046114  -0.004258   0.122795   0.037596
    19  H    0.348251   0.060257   0.121343   0.010955  -0.014350  -0.000758
    20  H    0.369814  -0.047356  -0.124426   0.003905   0.001536  -0.005828
    21  H   -0.010294  -0.226151   0.556377  -0.025981  -0.040004   0.057229
    22  H   -0.001848   0.023928  -0.148724   0.356235   0.067049   0.020274
    23  H    0.000009   0.000624   0.000822  -0.022578  -0.057147  -0.005461
    24  H    0.000000  -0.000194  -0.000507   0.001760   0.010260   0.013538
    25  H    0.000002   0.000894   0.000406  -0.000673  -0.006930  -0.004537
    26  H    0.000006  -0.007548  -0.002327   0.002977   0.013554  -0.005600
    27  H   -0.002985   0.078969   0.012684  -0.002761   0.017081   0.009000
    28  H    0.026360  -0.133580  -0.053310  -0.003207  -0.003358  -0.005148
               7          8          9         10         11         12
     1  N    0.000029   0.002329   0.000705   0.000099  -0.000327  -0.001655
     2  C   -0.010164  -1.086077  -0.177404  -0.073136   0.078668  -0.003805
     3  C    0.082732   0.096606  -0.072545  -0.012266   0.024687  -0.087344
     4  C    0.218953   0.361132   0.104566  -0.023764  -0.065823  -0.216114
     5  C   -0.187822   1.327224  -0.482965  -0.153358  -0.067717  -1.393203
     6  C    0.679867   0.912631  -1.778514  -0.323181   0.168060  -1.183958
     7  O    8.268191  -0.172438   0.159452   0.064999  -0.011634  -0.021974
     8  C   -0.172438  19.608721   0.021368  -0.970923   0.754717  -3.610610
     9  C    0.159452   0.021368   8.917112   0.565313  -0.805787   2.083744
    10  C    0.064999  -0.970923   0.565313   7.709913  -0.336719   0.031560
    11  C   -0.011634   0.754717  -0.805787  -0.336719   7.953428  -1.013622
    12  C   -0.021974  -3.610610   2.083744   0.031560  -1.013622   9.948123
    13  C   -0.424939  -5.397796  -0.761988   0.202861  -1.246629   1.766721
    14  C   -0.000566   1.877232  -0.935846  -0.010571   0.365168  -1.831616
    15  O   -0.000128  -0.384779  -0.001275  -0.002314   0.051339   0.202577
    16  C   -0.285449  -4.738935  -0.988341  -0.293338   0.078137   0.582775
    17  C   -0.041178  -2.703948  -0.340844  -0.268801   0.261418   0.177747
    18  N    0.000121   0.048204  -0.001201   0.001926  -0.001217  -0.012445
    19  H    0.000001   0.000377   0.000291   0.000059  -0.000085   0.000349
    20  H   -0.000011  -0.002074  -0.000340  -0.000066   0.000011  -0.000252
    21  H    0.002797   0.016456   0.002308   0.000172   0.000303   0.000099
    22  H   -0.008165  -0.033706  -0.005236   0.000665  -0.001333  -0.002305
    23  H   -0.009794  -0.014699   0.356708  -0.109217   0.010803   0.031486
    24  H    0.002674   0.010139  -0.074822   0.471975  -0.056358   0.002955
    25  H   -0.000355  -0.003453  -0.003770  -0.071099   0.483554  -0.103975
    26  H    0.000540   0.077453   0.035059   0.023518  -0.168579   0.402233
    27  H    0.000162   0.034553  -0.001217   0.001375  -0.001940  -0.018489
    28  H   -0.000065  -0.005165   0.000107  -0.000133  -0.000145   0.002496
              13         14         15         16         17         18
     1  N   -0.002869  -0.004076  -0.000356  -0.016984  -0.229044   0.031096
     2  C    0.933240  -0.499558  -0.098099  -5.188088  -0.558059  -0.460817
     3  C    0.129906  -0.195835  -0.021384  -1.385649  -3.651202  -0.046114
     4  C   -2.568745  -0.577999  -0.034194  -1.221087   0.970623  -0.004258
     5  C   -5.543205   1.395543  -0.233815  -0.154764  -1.236441   0.122795
     6  C    0.155445   1.349380  -0.014307   0.919860  -1.335378   0.037596
     7  O   -0.424939  -0.000566  -0.000128  -0.285449  -0.041178   0.000121
     8  C   -5.397796   1.877232  -0.384779  -4.738935  -2.703948   0.048204
     9  C   -0.761988  -0.935846  -0.001275  -0.988341  -0.340844  -0.001201
    10  C    0.202861  -0.010571  -0.002314  -0.293338  -0.268801   0.001926
    11  C   -1.246629   0.365168   0.051339   0.078137   0.261418  -0.001217
    12  C    1.766721  -1.831616   0.202577   0.582775   0.177747  -0.012445
    13  C   17.919908  -1.206325  -0.302039   1.256949   0.840611  -0.070464
    14  C   -1.206325   9.238701   0.675492  -0.367130  -2.883098   0.029984
    15  O   -0.302039   0.675492   8.265444   0.290669  -0.097860  -0.018149
    16  C    1.256949  -0.367130   0.290669  15.196648   1.808629   0.185818
    17  C    0.840611  -2.883098  -0.097860   1.808629  15.378278   0.102876
    18  N   -0.070464   0.029984  -0.018149   0.185818   0.102876   6.786849
    19  H   -0.000539  -0.003336   0.000548  -0.019739  -0.187971   0.026193
    20  H   -0.000005  -0.002942  -0.000070   0.006856   0.144491  -0.001967
    21  H    0.001027  -0.005764  -0.000158   0.014302  -0.044350  -0.003307
    22  H   -0.025412   0.007705   0.000115   0.031188   0.049170   0.000808
    23  H    0.133290  -0.001434   0.000496   0.020767   0.003821  -0.000030
    24  H   -0.028784  -0.011690  -0.000240  -0.008244  -0.001116  -0.000012
    25  H    0.006848   0.018936   0.002138   0.007557   0.005697  -0.000000
    26  H    0.041687  -0.006228  -0.009082  -0.036157  -0.025959   0.000097
    27  H    0.022426   0.086681   0.030498  -0.152813  -0.120522   0.352022
    28  H    0.001357   0.014619   0.004515   0.043503   0.111989   0.325092
              19         20         21         22         23         24
     1  N    0.348251   0.369814  -0.010294  -0.001848   0.000009   0.000000
     2  C    0.060257  -0.047356  -0.226151   0.023928   0.000624  -0.000194
     3  C    0.121343  -0.124426   0.556377  -0.148724   0.000822  -0.000507
     4  C    0.010955   0.003905  -0.025981   0.356235  -0.022578   0.001760
     5  C   -0.014350   0.001536  -0.040004   0.067049  -0.057147   0.010260
     6  C   -0.000758  -0.005828   0.057229   0.020274  -0.005461   0.013538
     7  O    0.000001  -0.000011   0.002797  -0.008165  -0.009794   0.002674
     8  C    0.000377  -0.002074   0.016456  -0.033706  -0.014699   0.010139
     9  C    0.000291  -0.000340   0.002308  -0.005236   0.356708  -0.074822
    10  C    0.000059  -0.000066   0.000172   0.000665  -0.109217   0.471975
    11  C   -0.000085   0.000011   0.000303  -0.001333   0.010803  -0.056358
    12  C    0.000349  -0.000252   0.000099  -0.002305   0.031486   0.002955
    13  C   -0.000539  -0.000005   0.001027  -0.025412   0.133290  -0.028784
    14  C   -0.003336  -0.002942  -0.005764   0.007705  -0.001434  -0.011690
    15  O    0.000548  -0.000070  -0.000158   0.000115   0.000496  -0.000240
    16  C   -0.019739   0.006856   0.014302   0.031188   0.020767  -0.008244
    17  C   -0.187971   0.144491  -0.044350   0.049170   0.003821  -0.001116
    18  N    0.026193  -0.001967  -0.003307   0.000808  -0.000030  -0.000012
    19  H    0.418932  -0.030618   0.002910  -0.000123  -0.000002   0.000001
    20  H   -0.030618   0.390828  -0.002530   0.001137  -0.000002  -0.000000
    21  H    0.002910  -0.002530   0.520293  -0.017704  -0.000036  -0.000007
    22  H   -0.000123   0.001137  -0.017704   0.507792  -0.000172  -0.000040
    23  H   -0.000002  -0.000002  -0.000036  -0.000172   0.492101  -0.013706
    24  H    0.000001  -0.000000  -0.000007  -0.000040  -0.013706   0.491606
    25  H   -0.000001   0.000000   0.000004  -0.000043   0.001344  -0.013891
    26  H    0.000003  -0.000010  -0.000025   0.000014   0.000834   0.001326
    27  H    0.000225   0.000354  -0.000250   0.000570  -0.000069   0.000005
    28  H   -0.003755  -0.000656  -0.000593  -0.000102  -0.000001   0.000002
              25         26         27         28
     1  N    0.000002   0.000006  -0.002985   0.026360
     2  C    0.000894  -0.007548   0.078969  -0.133580
     3  C    0.000406  -0.002327   0.012684  -0.053310
     4  C   -0.000673   0.002977  -0.002761  -0.003207
     5  C   -0.006930   0.013554   0.017081  -0.003358
     6  C   -0.004537  -0.005600   0.009000  -0.005148
     7  O   -0.000355   0.000540   0.000162  -0.000065
     8  C   -0.003453   0.077453   0.034553  -0.005165
     9  C   -0.003770   0.035059  -0.001217   0.000107
    10  C   -0.071099   0.023518   0.001375  -0.000133
    11  C    0.483554  -0.168579  -0.001940  -0.000145
    12  C   -0.103975   0.402233  -0.018489   0.002496
    13  C    0.006848   0.041687   0.022426   0.001357
    14  C    0.018936  -0.006228   0.086681   0.014619
    15  O    0.002138  -0.009082   0.030498   0.004515
    16  C    0.007557  -0.036157  -0.152813   0.043503
    17  C    0.005697  -0.025959  -0.120522   0.111989
    18  N   -0.000000   0.000097   0.352022   0.325092
    19  H   -0.000001   0.000003   0.000225  -0.003755
    20  H    0.000000  -0.000010   0.000354  -0.000656
    21  H    0.000004  -0.000025  -0.000250  -0.000593
    22  H   -0.000043   0.000014   0.000570  -0.000102
    23  H    0.001344   0.000834  -0.000069  -0.000001
    24  H   -0.013891   0.001326   0.000005   0.000002
    25  H    0.491744  -0.014750  -0.000166  -0.000006
    26  H   -0.014750   0.490784   0.000508   0.000144
    27  H   -0.000166   0.000508   0.358030  -0.026953
    28  H   -0.000006   0.000144  -0.026953   0.431439
          Atomic-Atomic Spin Densities.
               1          2          3          4          5          6
     1  N    0.000000  -0.000000   0.000000  -0.000000   0.000000   0.000000
     2  C   -0.000000  -0.000000  -0.000000   0.000000   0.000000  -0.000000
     3  C    0.000000  -0.000000  -0.000000  -0.000000  -0.000000   0.000000
     4  C   -0.000000   0.000000  -0.000000   0.000000  -0.000000  -0.000000
     5  C    0.000000   0.000000  -0.000000  -0.000000  -0.000000  -0.000000
     6  C    0.000000  -0.000000   0.000000  -0.000000  -0.000000   0.000000
     7  O    0.000000   0.000000   0.000000  -0.000000  -0.000000  -0.000000
     8  C    0.000000   0.000000  -0.000000  -0.000000  -0.000000  -0.000000
     9  C   -0.000000   0.000000  -0.000000   0.000000   0.000000   0.000000
    10  C   -0.000000  -0.000000   0.000000  -0.000000  -0.000000  -0.000000
    11  C    0.000000  -0.000000  -0.000000  -0.000000  -0.000000  -0.000000
    12  C   -0.000000  -0.000000  -0.000000   0.000000   0.000000   0.000000
    13  C   -0.000000  -0.000000  -0.000000   0.000000   0.000000   0.000000
    14  C    0.000000  -0.000000  -0.000000  -0.000000  -0.000000   0.000000
    15  O   -0.000000   0.000000   0.000000   0.000000   0.000000   0.000000
    16  C   -0.000000   0.000000   0.000000   0.000000   0.000000   0.000000
    17  C    0.000000   0.000000   0.000000   0.000000   0.000000  -0.000000
    18  N   -0.000000   0.000000  -0.000000  -0.000000  -0.000000   0.000000
    19  H    0.000000  -0.000000  -0.000000   0.000000   0.000000  -0.000000
    20  H   -0.000000   0.000000   0.000000   0.000000   0.000000  -0.000000
    21  H    0.000000  -0.000000   0.000000  -0.000000  -0.000000   0.000000
    22  H   -0.000000   0.000000   0.000000  -0.000000   0.000000  -0.000000
    23  H   -0.000000  -0.000000   0.000000   0.000000   0.000000   0.000000
[...]
 0.00007550,0.00017794,-0.06980306,-0.07595634,0.06554714,-0.00016235,0
 .00109367,-0.00099817,-0.00466032,0.00008209,-0.00012063,-0.00373659,0
 .02549275,-0.01427648,-0.07360184,0.05805102,-0.03319591,0.01148311,-0
 .01877987,0.01077618,-0.00061128,-0.00079795,0.00034798,-0.00078199,0.
 00050666,-0.00032342,0.00041456,0.00032042,-0.00014305,-0.00001298,0.0
 0013320,-0.00007662,-0.00002615,-0.00001130,0.00000710,-0.00003416,0.0
 0007026,-0.00003938,0.00007930,0.00009639,-0.00005292,0.00001609,-0.00
 005868,0.00003005,0.00139459,-0.00046539,0.00031622,-0.00044309,-0.000
 66303,0.00033413,-0.00399321,-0.00208231,0.00124281,-0.00094633,-0.000
 19448,0.00010808,0.00026017,0.00008495,-0.00006163,-0.00034664,0.00018
 673,0.00006238,0.00011750,-0.00001723,-0.00003940,0.00137113,-0.000333
 14,0.00026971,0.07435030,0.00027304,-0.00030897,0.00005372,-0.00000515
 ,0.00299591,0.00215435,-0.00049706,-0.00094187,0.00261638,0.05759024,-
 0.25351745,0.12423018,0.00447661,-0.01269258,0.00905523,0.00174966,-0.
 00324117,-0.00076117,0.00178652,0.00197863,-0.00087661,-0.00014560,0.0
 0005954,0.00001383,0.00004824,0.00000073,0.00001125,-0.00005131,-0.000
 02176,-0.00000189,-0.00005087,0.00004373,-0.00003053,0.00006855,0.0000
 7271,-0.00002588,-0.00015642,-0.00006224,-0.00003143,0.00094351,0.0002
 3041,0.00084455,-0.00033220,-0.00061810,-0.00011511,-0.00309561,0.0012
 5552,0.00299778,0.00003062,0.00011432,-0.00073958,0.00004323,-0.000126
 29,-0.00012757,0.00002519,-0.00008379,-0.00004439,-0.00007662,0.000019
 82,0.00007719,0.00012481,-0.00039812,-0.00200099,-0.06271482,0.2651849
 0,0.00002155,0.00002902,-0.00020420,-0.00034551,0.00223334,0.00542725,
 -0.00000153,0.00255501,0.00222300,-0.03301623,0.12394651,-0.10801946,-
 0.00219673,0.00954943,-0.00235902,-0.00130609,-0.00060985,-0.00415373,
 -0.00095944,-0.00109127,0.00120196,0.00007040,0.00001991,0.00010132,-0
 .00002557,0.00001230,0.00000983,0.00002829,-0.00000089,-0.00002352,0.0
 0003107,-0.00002263,0.00000322,-0.00003260,-0.00003416,0.00003737,0.00
 007819,-0.00002691,-0.00009542,-0.00063632,0.00084277,0.00115585,0.000
 18812,-0.00003543,-0.00075038,0.00201981,0.00282572,0.00493127,0.00029
 184,-0.00061261,-0.00089542,-0.00006670,-0.00017374,-0.00016408,-0.000
 01421,-0.00016876,0.00001660,-0.00003889,0.00003377,0.00006659,0.00003
 497,-0.00194703,-0.00277610,0.03583404,-0.13731892,0.10423170,0.000180
 62,-0.00012348,-0.00000246,-0.00019360,0.00003527,-0.00000643,0.000060
 71,-0.00011821,0.00009292,-0.00010987,-0.00014112,0.00007122,0.0006178
 5,-0.00010458,0.00004509,-0.00043660,0.00183622,-0.00098063,0.00137541
 ,-0.00135300,0.00072593,-0.00152936,0.02640176,-0.01439755,-0.07155198
 ,0.05353327,-0.02936040,0.00889238,-0.02074818,0.01129870,-0.00309088,
 -0.00262219,0.00134336,-0.00084944,-0.00030906,0.00017554,-0.00580104,
 0.00003283,-0.00010942,0.00133624,0.00107248,-0.00055780,-0.00092481,0
 .00055910,-0.00031849,-0.00024902,0.00002364,-0.00001237,0.00024815,-0
 .00000984,0.00000872,-0.00007779,-0.00003238,0.00000831,0.00000476,0.0
 0004117,0.00001094,-0.00001120,-0.00000161,0.00001501,0.00001636,0.000
 00110,0.00000086,-0.00005095,-0.00002233,0.00001046,0.07058167,0.00007
 900,-0.00002862,-0.00001051,-0.00008063,0.00000780,0.00001156,0.000023
 81,0.00000443,-0.00001934,-0.00000018,-0.00002717,0.00006966,0.0003030
 0,0.00003328,0.00001373,-0.00087724,-0.00319764,-0.00047356,-0.0023196
 8,0.00076838,-0.00026746,0.00302158,-0.00295216,0.00363038,0.05403554,
 -0.26044324,0.12057909,0.00554209,-0.00983386,0.00788420,-0.00290177,0
 .00129255,0.00337679,-0.00037065,0.00008929,-0.00067360,0.00099429,0.0
 0249354,0.00234606,-0.00055435,0.00015937,0.00037465,0.00020503,-0.000
 28028,-0.00009547,0.00014758,0.00007731,-0.00004515,-0.00003158,0.0000
 8460,-0.00006109,0.00006171,-0.00005787,0.00005114,-0.00000425,0.00000
 921,0.00000560,-0.00000301,0.00000086,0.00000485,0.00001419,-0.0000013
 0,-0.00000421,-0.00001231,0.00002672,0.00000255,-0.05765212,0.27282503
 ,-0.00004135,0.00001884,-0.00000345,0.00004989,0.00001250,0.00000525,-
 0.00000173,-0.00003256,-0.00002113,-0.00001453,0.00006965,0.00005750,-
 0.00014717,0.00001056,0.00005180,0.00048157,-0.00046866,-0.00385233,0.
 00121427,-0.00024498,0.00035766,-0.00174685,0.00379541,0.00159765,-0.0
 2953311,0.12060669,-0.10520752,-0.00301601,0.00765153,0.00040299,0.001
 47821,0.00339269,0.00571097,0.00022319,-0.00065801,-0.00078408,-0.0006
 0588,0.00232961,0.00550584,0.00028424,0.00036670,0.00065986,-0.0001064
 9,-0.00009924,-0.00039939,-0.00007476,-0.00003315,0.00002644,0.0000096
 3,-0.00005075,0.00002754,-0.00003440,0.00002345,-0.00003992,0.00000031
 ,-0.00000520,0.00000399,0.00000179,-0.00000102,-0.00000608,-0.00000810
 ,-0.00000389,-0.00000764,0.00000822,0.00000421,0.00003210,0.03173610,-
 0.13437841,0.09991914,-0.00019567,0.00009471,0.00001332,0.00021398,-0.
 00001330,0.00000090,-0.00006561,0.00001397,-0.00002844,-0.00002844,0.0
 0011769,-0.00006199,-0.00041857,-0.00031515,0.00017676,-0.00014433,0.0
 0131151,-0.00072545,-0.00005300,-0.00039953,0.00021748,-0.00126526,-0.
 00347287,0.00182469,-0.01681196,0.00730362,-0.00412780,-0.31466979,0.0
 6699048,-0.03840503,-0.00224846,-0.00061453,0.00027424,0.00159642,0.00
 090701,-0.00053089,0.00035736,-0.00034472,0.00019497,0.00028199,-0.000
 04322,0.00003441,-0.00018355,0.00012945,-0.00007303,-0.00007164,-0.000
 10426,0.00006449,-0.00004843,-0.00018037,0.00011038,-0.00008231,0.0001
 1225,-0.00010524,0.00000546,-0.00002974,-0.00000899,0.00000998,-0.0000
 0151,-0.00001643,-0.00003031,-0.00000168,-0.00000054,0.00001896,-0.000
 00407,0.00000425,0.00105038,0.00004643,0.00001459,0.33228071,-0.000025
 27,0.00002004,-0.00000187,0.00002020,-0.00003783,-0.00000868,-0.000036
 92,-0.00000069,-0.00000053,-0.00005352,0.00004918,-0.00009540,-0.00020
 460,-0.00033006,0.00006028,-0.00084530,0.00072297,-0.00033483,0.000143
 52,-0.00003205,0.00010888,-0.00283612,-0.00031637,0.00423607,-0.019775
 24,0.00855459,-0.00247747,0.06702566,-0.07216738,0.01837177,0.02651872
 ,-0.00204127,0.00354098,0.00047339,-0.00261010,0.00534197,-0.00043768,
 -0.00102555,0.00010626,-0.00004373,-0.00037594,-0.00053728,0.00018795,
 0.00016464,0.00001344,0.00011161,0.00002672,0.00010119,-0.00001126,0.0
 0004131,0.00003049,0.00002034,0.00000243,-0.00000258,-0.00000219,-0.00
 000679,-0.00000114,0.00000210,0.00000115,-0.00000059,-0.00001373,0.000
 00995,0.00001189,0.00000762,-0.00000208,0.00000254,0.00062834,-0.00025
 375,-0.00219334,-0.07156584,0.06970142,0.00001108,-0.00000915,0.000003
 75,-0.00000930,-0.00001169,-0.00004577,0.00001618,0.00000298,0.0000025
 9,0.00002971,-0.00009195,-0.00007590,0.00012959,0.00003122,-0.00023545
 ,0.00042722,-0.00029809,0.00028731,-0.00007133,0.00009860,0.00011068,0
 .00147074,0.00423840,0.00523278,0.01057847,-0.00223504,0.00559877,-0.0
 3842400,0.01834392,-0.04951379,-0.01443055,0.00335409,0.00221975,-0.00
 031680,0.00533669,0.00433344,0.00024220,0.00009123,-0.00088167,0.00004
 513,-0.00053343,-0.00107060,-0.00009793,0.00001634,0.00018056,-0.00008
 512,0.00010383,0.00014704,0.00001916,0.00002259,0.00008379,-0.00000987
 ,0.00000380,-0.00001840,0.00000109,0.00000304,0.00000085,-0.00000164,0
 .00000129,0.00000197,0.00000608,0.00001368,0.00002673,-0.00000362,0.00
 000236,0.00000095,-0.00030091,-0.00220184,-0.00310623,0.04112890,-0.02
 416755,0.03954698,-0.00012409,0.00001923,0.00002015,0.00010160,0.00006
 474,-0.00003787,0.00001671,-0.00003477,0.00001384,-0.00005694,-0.00003
 800,0.00002073,-0.00004111,0.00013092,-0.00008103,0.00016279,0.0001668
 6,-0.00007781,0.00001565,-0.00019355,0.00010518,-0.00028427,0.00069926
 ,-0.00037793,0.00082411,0.00182946,-0.00104230,0.00921749,0.00641817,-
 0.00343414,-0.20627439,-0.12295675,0.06540209,-0.01718525,-0.01921513,
 0.01026595,-0.00432849,0.00258869,-0.00151614,0.00020231,-0.00154220,0
 .00085284,-0.00014096,0.00036052,-0.00019764,-0.00067335,0.00016693,-0
 .00009252,0.00003002,-0.00033904,0.00020273,-0.00012388,0.00012724,-0.
 00012951,0.00000935,-0.00000856,-0.00000286,-0.00000064,-0.00000092,-0
 .00001107,-0.00001039,-0.00000593,0.00000393,-0.00000490,-0.00000901,0
 .00000630,0.00027982,0.00033112,-0.00017714,0.00067440,-0.00042963,0.0
 0026560,0.21631480,-0.00005427,0.00003393,0.00001814,0.00007132,-0.000
 00028,-0.00000634,-0.00000384,-0.00000859,-0.00002632,-0.00000869,0.00
 003262,0.00001681,-0.00013026,0.00001123,0.00011073,0.00016252,-0.0002
 7822,-0.00058758,-0.00023406,0.00001618,0.00009924,0.00078853,-0.00052
 976,-0.00017992,0.00226481,-0.00201866,0.00502686,-0.02074554,-0.01104
 397,0.00809012,-0.12296371,-0.15705449,0.06297149,0.00781871,0.0087026
 2,-0.00233740,0.00198802,0.00213493,0.00293643,0.00058813,0.00038493,-
 0.00012967,-0.00018475,0.00007191,0.00004569,0.00006107,-0.00013403,-0
 .00000752,0.00002922,-0.00007755,-0.00003182,-0.00004706,0.00005144,-0
 .00005024,0.00000583,-0.00000859,-0.00000479,0.00000503,0.00000315,0.0
 0000061,-0.00000698,-0.00000237,-0.00000100,0.00000736,0.00000103,-0.0
 0000110,-0.00097181,-0.00055575,0.00020190,0.00020214,0.00007396,-0.00
 210912,0.13175198,0.16064503,0.00004062,-0.00001190,0.00002180,-0.0000
 7303,-0.00001055,0.00000777,0.00000099,-0.00002239,-0.00003197,0.00000
 763,0.00002156,0.00005688,0.00006672,0.00010734,0.00014956,-0.00010078
 ,-0.00060385,-0.00103921,0.00012846,0.00011238,0.00014508,-0.00040901,
 -0.00016803,-0.00078747,-0.00126322,0.00502762,0.00448444,0.01128938,0
 .00828877,-0.00025387,0.06541185,0.06297980,-0.07287250,-0.00441633,-0
 .00254742,0.00561749,-0.00118723,0.00295339,0.00589619,-0.00030377,-0.
 00014233,0.00022641,0.00010150,0.00005154,0.00012686,-0.00005303,-0.00
 001993,-0.00015281,0.00000804,-0.00004023,-0.00013650,0.00002530,-0.00
 001850,0.00002954,0.00000400,0.00000370,-0.00000036,-0.00000184,0.0000
 0756,0.00001304,0.00000359,-0.00000062,-0.00000385,-0.00000435,-0.0000
 0194,-0.00000168,0.00052789,0.00021004,-0.00028208,-0.00007567,-0.0021
 1187,-0.00265348,-0.06999414,-0.07195399,0.06461893,0.00002061,0.00004
 126,-0.00001487,-0.00006280,-0.00011612,0.00005691,-0.00011468,0.00012
 877,-0.00007689,0.00019292,0.00015246,-0.00008085,-0.00009381,-0.00016
 911,0.00009532,0.00138744,-0.00054147,0.00030102,-0.00047718,-0.000599
 02,0.00032945,-0.00396267,-0.00235815,0.00120684,-0.00091735,-0.000282
 41,0.00014970,-0.00502701,0.00057252,-0.00042066,-0.00262649,0.0256976
 5,-0.01404196,-0.07276860,0.05663854,-0.03115112,0.01122163,-0.0191244
 7,0.01047637,-0.00047043,-0.00078496,0.00045021,-0.00103957,0.00065217
 ,-0.00045147,0.00057329,0.00038765,-0.00020890,-0.00014137,0.00022969,
 -0.00014866,0.00022835,-0.00010890,0.00010186,-0.00001236,-0.00001523,
 -0.00000293,0.00000206,0.00000314,0.00000213,-0.00000419,0.00000722,-0
 .00000640,0.00002389,0.00001655,-0.00000941,0.00011930,0.00004136,-0.0
 0001324,-0.00020230,0.00116786,-0.00063236,0.00132218,-0.00041073,0.00
 027667,0.07306729,-0.00008717,0.00005487,0.00000745,0.00005459,-0.0000
 5218,0.00000175,-0.00007721,0.00006864,-0.00004375,0.00011091,0.000092
 55,-0.00004280,-0.00021157,-0.00006422,0.00001948,0.00117521,0.0001561
 1,0.00038392,-0.00032707,-0.00063012,0.00009001,-0.00332390,0.00099842
 ,0.00309573,-0.00023205,0.00011874,-0.00070480,0.00082188,0.00286162,0
 .00258919,-0.00051815,-0.00081403,0.00293737,0.05603685,-0.25958672,0.
 12033207,0.00403405,-0.01280988,0.00901327,0.00190740,-0.00316280,-0.0
 0036673,0.00204313,0.00196322,-0.00105217,-0.00010092,0.00009282,-0.00
 003975,-0.00005649,-0.00008420,0.00009318,0.00006672,0.00005011,-0.000
 03199,-0.00000260,-0.00001947,-0.00000433,0.00000301,0.00000194,-0.000
 00712,-0.00001174,-0.00000187,-0.00000506,0.00001926,-0.00000079,0.000
 00471,0.00005375,-0.00024684,-0.00031162,-0.00012644,-0.00017450,0.000
 00165,0.00013946,-0.00044617,-0.00211342,-0.06130252,0.27159421,0.0000
 4521,-0.00002629,0.00000554,-0.00003120,0.00001231,-0.00003979,0.00003
 975,-0.00002916,0.00003184,-0.00005978,-0.00004060,0.00003579,0.000111
 67,0.00002212,-0.00004160,-0.00061796,0.00036385,0.00067529,0.00016811
 ,0.00006737,-0.00051813,0.00174677,0.00307434,0.00506635,0.00007073,-0
 .00070932,-0.00077978,-0.00053128,0.00261249,0.00615355,0.00028513,0.0
 0311517,0.00292181,-0.03090450,0.12036679,-0.10530704,-0.00213775,0.00
 887273,-0.00112972,-0.00094755,-0.00039340,-0.00373316,-0.00121862,-0.
 00104863,0.00069828,0.00003944,-0.00005271,0.00003902,0.00004935,0.000
 06107,0.00004630,-0.00003836,-0.00001096,0.00001693,0.00000024,0.00000
 925,0.00000383,-0.00000236,-0.00000008,0.00000454,0.00000583,-0.000004
 53,-0.00000640,-0.00001050,0.00000369,0.00000357,-0.00002096,-0.000311
 16,-0.00065028,0.00007035,0.00001106,-0.00018079,-0.00002584,-0.002109
 31,-0.00317405,0.03385298,-0.13383618,0.09985759,-0.00115648,-0.000301
 21,0.00017996,0.00115399,0.00753332,-0.00509966,0.00333893,-0.00174800
 ,0.00103506,-0.00301224,-0.00066506,0.00025204,-0.00097325,0.00217016,
 -0.00123720,0.00130963,-0.00002396,0.00007660,-0.00062308,0.00051026,-
 0.00031984,0.00045164,0.00052051,-0.00027829,0.00043467,-0.00018597,0.
 00014658,0.00001218,-0.00024704,0.00013302,-0.00011973,-0.00008183,0.0
 0003180,0.00003320,-0.00034255,0.00022888,0.00176879,-0.00236458,0.000
 96452,0.00007440,0.01934741,-0.01097786,0.00175241,-0.01460671,0.00748
 891,-0.00674729,-0.00345478,0.00357004,0.01970048,-0.00077826,0.001338
 75,-0.25310203,-0.16785703,0.06530627,-0.00001651,0.00003256,0.0002336
 3,0.00010864,-0.00009787,-0.00007515,-0.00000876,0.00031449,-0.0001052
 3,-0.00009882,-0.00003254,0.00005080,0.00011032,-0.00002754,0.00001885
 ,0.00002055,-0.00002425,0.00001345,0.00006226,0.00000997,-0.00000862,-
 0.00023991,-0.00009849,0.00006492,0.24597295,0.00089358,0.00086737,-0.
 00020620,0.00364345,-0.00188352,0.00236791,-0.00107772,-0.00024385,0.0
 0079052,-0.00012528,0.00022561,-0.00012035,-0.00038253,-0.00022737,0.0
 0016545,0.00020085,-0.00011627,0.00005256,-0.00016985,0.00025934,-0.00
 014853,0.00011124,0.00004305,0.00000497,-0.00011054,-0.00004480,0.0000
 0647,-0.00002587,0.00006517,-0.00004289,0.00003091,-0.00000655,0.00000
 553,-0.00018046,0.00004058,-0.00004799,-0.00015189,-0.00008466,0.00040
 056,0.00444374,-0.00092896,-0.00004524,-0.00504565,-0.00366235,0.00061
 306,-0.00076354,0.00068281,-0.00013446,-0.02168548,-0.02142510,0.00491
 677,-0.17086330,-0.22525342,0.07202027,-0.00022581,-0.00042272,-0.0005
 3024,-0.00020155,0.00024904,-0.00000044,0.00015151,-0.00032521,-0.0000
 0409,0.00003670,0.00000965,-0.00002523,-0.00000217,0.00000473,-0.00000
 346,-0.00001059,0.00000557,-0.00000181,-0.00001958,-0.00000339,0.00000
 394,0.00004950,0.00002582,-0.00001882,0.17836228,0.23637645,-0.0005469
 1,-0.00054434,0.00059379,-0.00302491,0.00175439,0.00329877,-0.00024656
 ,0.00147558,0.00007261,0.00110798,0.00002204,0.00042277,0.00033561,-0.
 00085025,-0.00035719,-0.00057877,0.00018098,-0.00033265,0.00037808,-0.
 00047144,0.00039397,-0.00017503,-0.00002235,0.00008944,0.00011832,0.00
 002049,-0.00015983,0.00002741,-0.00008397,0.00004243,-0.00003414,0.000
 02959,-0.00003084,0.00015336,-0.00004716,-0.00004267,-0.00015053,0.001
 08165,0.00117476,-0.00326232,-0.00186897,0.00134080,0.00130193,0.00137
 757,-0.00550029,0.00287452,-0.00109314,-0.00172003,0.01171754,0.019247
 77,-0.01047676,0.05066090,0.05049909,-0.02655341,0.00081078,0.00054471
 ,-0.00045968,0.00011628,-0.00013432,0.00020770,-0.00008887,-0.00011843
 ,-0.00054237,-0.00001363,-0.00002649,-0.00001618,-0.00000862,-0.000014
 56,-0.00001094,0.00001479,0.00000259,0.00000786,0.00001904,0.00001235,
 0.00000663,-0.00001704,-0.00001677,-0.00001788,-0.06494931,-0.07471936
 ,0.04436352,-0.00006326,0.00088259,-0.00083675,-0.00022520,-0.00507813
 ,0.00093114,-0.00180389,0.00169394,-0.00114623,0.00180644,-0.00030798,
 0.00014399,-0.00116183,-0.00054940,0.00045208,0.00022929,0.00014040,-0
 .00014841,0.00007488,-0.00020061,0.00011934,-0.00016923,-0.00006322,0.
 00002587,0.00011561,0.00007057,-0.00003043,0.00003499,-0.00007684,0.00
 004871,-0.00002290,0.00000179,-0.00000878,0.00003935,-0.00002196,0.000
 02634,-0.00019766,0.00015116,-0.00010769,-0.00150413,-0.00431554,0.002
 30047,-0.00360855,0.00220304,-0.00126032,0.00669652,0.00204709,0.00085
 486,-0.00944516,0.01164832,-0.00455398,-0.35544940,0.12271562,0.103499
 46,-0.00085985,-0.00401622,-0.00001281,-0.00031239,0.00057356,0.000389
 38,0.00000403,0.00003505,0.00009601,-0.00001800,0.00001684,-0.00002087
 ,0.00000257,-0.00001140,-0.00000010,0.00000944,-0.00000203,-0.00000118
 ,0.00001516,0.00000707,-0.00000161,0.00000175,0.00001013,-0.00000381,-
 0.01020694,0.01311805,0.00346012,0.37601837,-0.00087626,0.00231338,-0.
 00042200,0.00373902,-0.00277088,0.00085956,-0.00078099,0.00157777,-0.0
 0088754,0.00145639,-0.00022777,-0.00012941,0.00002070,0.00037223,0.001
 24331,0.00012009,-0.00021115,0.00055234,0.00011681,-0.00003713,-0.0001
 9897,-0.00006302,-0.00004875,-0.00000355,-0.00001636,0.00004376,0.0000
 0086,0.00001108,0.00001222,-0.00000883,0.00002490,-0.00000754,0.000009
 27,-0.00003357,0.00002039,-0.00000716,-0.00014716,0.00023806,-0.000243
 91,-0.00067033,-0.00314364,0.00120136,-0.00453278,0.00173030,-0.000827
 21,0.00073285,-0.00251955,0.00173360,0.02518650,-0.00735514,-0.0119525
 6,0.13573698,-0.11847292,-0.01603087,-0.00273535,-0.00361022,-0.001572
 42,-0.00064533,0.00091545,-0.00001401,-0.00006738,0.00009178,-0.000044
 78,-0.00005858,0.00002161,0.00001094,-0.00000683,0.00000140,0.00000054
 ,-0.00000142,0.00000042,-0.00000603,-0.00000152,-0.00000115,-0.0000006
 4,0.00002674,0.00001472,-0.00000108,-0.01586330,0.01577298,0.00376275,
 -0.14067190,0.11527937,0.00010593,-0.00022226,-0.00001360,-0.00083356,
 -0.00253667,0.00117692,-0.00107239,0.00108072,-0.00112586,0.00158269,-
 0.00028897,-0.00006759,-0.00127836,-0.00070172,0.00134943,-0.00037822,
 0.00090024,-0.00004069,0.00016473,-0.00058904,0.00011095,-0.00019295,-
 0.00006335,-0.00004209,0.00021933,0.00008844,0.00003350,0.00000097,-0.
 00013661,0.00008652,-0.00007786,0.00004791,-0.00002518,0.00009317,-0.0
 0000402,0.00006042,-0.00007092,-0.00053062,-0.00063445,-0.00116279,-0.
 00200176,0.00073683,-0.00018420,0.00162685,0.00052137,0.00310902,0.005
 76985,-0.00061210,-0.02490959,0.01232138,-0.00256782,0.12846848,-0.031
 28267,-0.04020115,-0.00126064,-0.00117689,0.00105482,-0.00000453,-0.00
 017311,-0.00084673,-0.00006020,0.00015481,0.00017498,0.00002281,0.0000
 3777,0.00001661,0.00000497,-0.00000399,0.00001233,0.00001499,-0.000006
 29,-0.00000375,0.00001955,0.00000575,-0.00001077,-0.00002269,0.0000067
 2,0.00001838,0.00191708,-0.00529890,-0.00579436,-0.10421481,0.02297645
 ,0.04663307\\-0.00000293,-0.00001144,0.00000656,0.00002631,-0.00000388
 ,0.00000035,0.00002251,0.00003836,-0.00003620,-0.00001944,0.00001235,0
 .00000616,0.00001742,-0.00006075,0.00004259,-0.00001166,0.00004934,-0.
 00004775,-0.00000258,-0.00000334,0.00000448,0.00003198,-0.00004253,0.0
 0003214,-0.00000581,0.00000449,-0.00000334,-0.00001231,0.00003433,-0.0
 0002136,0.00001494,-0.00003284,0.00001638,-0.00001188,-0.00000129,-0.0
 0000045,0.00002395,0.00003164,-0.00002054,0.00000451,0.00000391,0.0000
 0985,0.00000511,-0.00000369,0.00000847,-0.00004215,0.00001669,-0.00002
 383,-0.00002630,-0.00000988,0.00003004,-0.00004652,-0.00004162,-0.0000
 0257,0.00000687,-0.00000856,0.00000134,-0.00000172,0.00001162,-0.00000
 376,-0.00000989,-0.00001070,0.00001501,0.00001032,-0.00000045,-0.00000
 094,-0.00001186,-0.00000328,0.00000256,0.00000441,-0.00000630,0.000003
 23,0.00000055,0.00000527,-0.00000418,-0.00001098,-0.00000318,-0.000000
 20,0.00002967,0.00002866,-0.00001626,0.00001747,0.00000706,0.00000224\
 \\@


 WE ARE REACHING THE STAGE WHERE THE PROBLEMS WE MUST SOLVE ARE 
 GOING TO BECOME INSOLUBLE WITHOUT COMPUTERS.
 I DO NOT FEAR COMPUTERS.  I FEAR THE LACK OF THEM.

                                   -- ISSAC ASIMOV
 Job cpu time:       0 days  4 hours 36 minutes 45.5 seconds.
 Elapsed time:       0 days  0 hours 35 minutes 11.6 seconds.
 File lengths (MBytes):  RWF=   1177 Int=      0 D2E=      0 Chk=     34 Scr=      1
 Normal termination of Gaussian 16 at Sat Feb 10 16:50:55 2024.
