
Running Job 1 of 1 312-an-CPCM.in
qchem 312-an-CPCM.in_3393670.0 /expanse/lustre/scratch/selhajj/temp_project/qcscratch/31258363/qchem3393670/ 0
/cm/shared/apps/spack/cpu/opt/spack/linux-centos8-zen2/gcc-10.2.0/qchem-5.4-akfmr7b3t57bfs6qan3padb2wnb2i7cl/exe/qcprog.exe_s 312-an-CPCM.in_3393670.0 /expanse/lustre/scratch/selhajj/temp_project/qcscratch/31258363/qchem3393670/
                  Welcome to Q-Chem
     A Quantum Leap Into The Future Of Chemistry


 Q-Chem 5.4, Q-Chem, Inc., Pleasanton, CA (2021)

 License issued to: University of California, San Diego (site)

 E. Epifanovsky,  A. T. B. Gilbert,  Xintian Feng,  Joonho Lee,  Yuezhi Mao,  
 N. Mardirossian,  P. Pokhilko,  A. White,  M. Wormit,  M. P. Coons,  
 A. L. Dempwolff,  Zhengting Gan,  D. Hait,  P. R. Horn,  L. D. Jacobson,  
 I. Kaliman,  J. Kussmann,  A. W. Lange,  Ka Un Lao,  D. S. Levine,  Jie Liu,  
 S. C. McKenzie,  A. F. Morrison,  K. Nanda,  F. Plasser,  D. R. Rehn,  
 M. L. Vidal,  Zhi-Qiang You,  Ying Zhu,  B. Alam,  B. Albrecht,  
 A. Aldossary,  E. Alguire,  J. H. Andersen,  D. Barton,  K. Begam,  A. Behn,  
 Y. A. Bernard,  E. J. Berquist,  H. Burton,  A. Carreras,  K. Carter-Fenk,  
 R. Chakraborty,  A. D. Chien,  K. D. Closser,  V. Cofer-Shabica,  
 S. Dasgupta,  Jia Deng,  M. de Wergifosse,  M. Diedenhofen,  Hainam Do,  
 S. Ehlert,  Po-Tung Fang,  S. Fatehi,  Qingguo Feng,  J. Gayvert,  
 Qinghui Ge,  G. Gidofalvi,  M. Goldey,  J. Gomes,  C. Gonzalez-Espinoza,  
 S. Gulania,  A. Gunina,  M. W. D. Hanson-Heine,  P. H. P. Harbach,  
 A. W. Hauser,  M. F. Herbst,  M. Hernandez Vera,  M. Hodecker,  
 Z. C. Holden,  S. Houck,  Xunkun Huang,  Kerwin Hui,  B. C. Huynh,  
 M. Ivanov,  Hyunjun Ji,  Hanjie Jiang,  B. Kaduk,  S. Kaehler,  
 K. Khistyaev,  Jaehoon Kim,  P. Klunzinger,  Z. Koczor-Benda,  
 Joong Hoon Koh,  D. Kosenkov,  L. Koulias,  T. Kowalczyk,  C. M. Krauter,  
 K. Kue,  A. Kunitsa,  T. Kus,  A. Landau,  K. V. Lawler,  D. Lefrancois,  
 S. Lehtola,  Rain Li,  Yi-Pei Li,  Jiashu Liang,  M. Liebenthal,  
 Hung-Hsuan Lin,  You-Sheng Lin,  Fenglai Liu,  Kuan-Yu Liu,  
 M. Loipersberger,  A. Luenser,  A. Manjanath,  P. Manohar,  E. Mansoor,  
 S. F. Manzer,  Shan-Ping Mao,  A. V. Marenich,  T. Markovich,  S. Mason,  
 S. A. Maurer,  P. F. McLaughlin,  M. F. S. J. Menger,  J.-M. Mewes,  
 S. A. Mewes,  P. Morgante,  J. W. Mullinax,  T. S. Nguyen-Beck,  
 K. J. Oosterbaan,  G. Paran,  Alexander C. Paul,  Suranjan K. Paul,  
 F. Pavosevic,  Zheng Pei,  S. Prager,  E. I. Proynov,  E. Ramos,  B. Rana,  
 A. E. Rask,  A. Rettig,  R. M. Richard,  F. Rob,  E. Rossomme,  T. Scheele,  
 M. Scheurer,  M. Schneider,  N. Sergueev,  S. M. Sharada,  W. Skomorowski,  
 D. W. Small,  C. J. Stein,  Yu-Chuan Su,  E. J. Sundstrom,  Zhen Tao,  
 J. Thirman,  T. Tsuchimochi,  N. M. Tubman,  S. P. Veccham,  O. Vydrov,  
 J. Wenzel,  J. Witte,  A. Yamada,  Kun Yao,  S. Yeganeh,  S. R. Yost,  
 A. Zech,  Igor Ying Zhang,  Xing Zhang,  Yu Zhang,  D. Zuev,  
 A. Aspuru-Guzik,  A. T. Bell,  N. A. Besley,  K. B. Bravaya,  B. R. Brooks,  
 D. Casanova,  Jeng-Da Chai,  S. Coriani,  C. J. Cramer,  
 A. E. DePrince, III,  R. A. DiStasio Jr.,  A. Dreuw,  B. D. Dunietz,  
 T. R. Furlani,  W. A. Goddard III,  S. Grimme,  S. Hammes-Schiffer,  
 T. Head-Gordon,  W. J. Hehre,  Chao-Ping Hsu,  T.-C. Jagau,  Yousung Jung,  
 A. Klamt,  Jing Kong,  D. S. Lambrecht,  WanZhen Liang,  N. J. Mayhall,  
 C. W. McCurdy,  J. B. Neaton,  C. Ochsenfeld,  J. A. Parkhill,  R. Peverati,  
 V. A. Rassolov,  Yihan Shao,  L. V. Slipchenko,  T. Stauch,  R. P. Steele,  
 J. E. Subotnik,  A. J. W. Thom,  A. Tkatchenko,  D. G. Truhlar,  
 T. Van Voorhis,  T. A. Wesolowski,  K. B. Whaley,  H. L. Woodcock III,  
 P. M. Zimmerman,  S. Faraji,  P. M. W. Gill,  M. Head-Gordon,  
 J. M. Herbert,  A. I. Krylov

 Contributors to earlier versions of Q-Chem not listed above: 
 R. D. Adamson,  B. Austin,  R. Baer,  J. Baker,  G. J. O. Beran,  
 K. Brandhorst,  S. T. Brown,  E. F. C. Byrd,  A. K. Chakraborty,  
 G. K. L. Chan,  Chun-Min Chang,  Yunqing Chen,  C.-L. Cheng,  
 Siu Hung Chien,  D. M. Chipman,  D. L. Crittenden,  H. Dachsel,  
 R. J. Doerksen,  A. D. Dutoi,  R. G. Edgar,  J. Fosso-Tande,  
 L. Fusti-Molnar,  D. Ghosh,  A. Ghysels,  A. Golubeva-Zadorozhnaya,  
 J. Gonthier,  M. S. Gordon,  S. R. Gwaltney,  G. Hawkins,  J. E. Herr,  
 A. Heyden,  S. Hirata,  E. G. Hohenstein,  G. Kedziora,  F. J. Keil,  
 C. Kelley,  Jihan Kim,  R. A. King,  R. Z. Khaliullin,  P. P. Korambath,  
 W. Kurlancheek,  A. Laurent,  A. M. Lee,  M. S. Lee,  S. V. Levchenko,  
 Ching Yeh Lin,  D. Liotard,  E. Livshits,  R. C. Lochan,  I. Lotan,  
 L. A. Martinez-Martinez,  P. E. Maslen,  N. Nair,  D. P. O'Neill,  
 D. Neuhauser,  E. Neuscamman,  C. M. Oana,  R. Olivares-Amaya,  R. Olson,  
 T. M. Perrine,  B. Peters,  P. A. Pieniazek,  A. Prociuk,  Y. M. Rhee,  
 J. Ritchie,  M. A. Rohrdanz,  E. Rosta,  N. J. Russ,  H. F. Schaefer III,  
 M. W. Schmidt,  N. E. Schultz,  S. Sharma,  N. Shenvi,  C. D. Sherrill,  
 A. C. Simmonett,  A. Sodt,  T. Stein,  D. Stuck,  K. S. Thanthiriwatte,  
 V. Vanovschi,  L. Vogt,  Tao Wang,  A. Warshel,  M. A. Watson,  
 C. F. Williams,  Q. Wu,  X. Xu,  Jun Yang,  W. Zhang,  Yan Zhao

 Please cite Q-Chem as follows:
 Y. Shao et al., Mol. Phys. 113, 184-215 (2015)
 DOI: 10.1080/00268976.2014.952696

 Q-Chem 5.4.0 for Intel X86 EM64T Linux

 Parts of Q-Chem use Armadillo 9.800.1 (Horizon Scraper).
 http://arma.sourceforge.net/

 Q-Chem begins on Wed Jun 12 03:04:17 2024  

 Host: 
0

     Scratch files written to /expanse/lustre/scratch/selhajj/temp_project/qcscratch/31258363/qchem3393670//
 May1621 |scratch|qcdevops|jenkins|workspace|build_RNUM    
 Processing $rem in /cm/shared/apps/spack/cpu/opt/spack/linux-centos8-zen2/gcc-10.2.0/qchem-5.4-akfmr7b3t57bfs6qan3padb2wnb2i7cl/config/preferences:
 Processing $rem in /home/selhajj/.qchemrc:
 Symmetry turned off for PCM/SM12/SMD calculation

 Checking the input file for inconsistencies... 	...done.

--------------------------------------------------------------
User input:
--------------------------------------------------------------
$molecule
-2 1
C                  3.7655890000      0.1397920000     -0.1979730000
C                  2.7365840000      0.1270690000      0.9551200000
C                  1.2999130000      0.2456950000      0.5257610000
C                  0.5854660000     -0.9838800000      0.3145800000
O                  1.1674670000     -2.1090780000      0.4509010000
C                 -0.8407040000     -0.8578050000     -0.0522990000
C                 -1.6701680000     -1.9936090000     -0.2865370000
O                 -1.2106960000     -3.3045770000     -0.1939850000
C                 -3.0020940000     -1.8211360000     -0.6301310000
O                 -3.8011370000     -2.9600490000     -0.8597870000
C                 -3.5541840000     -0.5522310000     -0.7646670000
O                 -4.8899410000     -0.3917920000     -1.1261140000
C                 -2.8159590000      0.6089860000     -0.5601050000
C                 -1.4333940000      0.4566540000     -0.1876450000
C                 -0.6544290000      1.6346820000      0.0386210000
C                  0.6721250000      1.5063820000      0.3881790000
O                  1.3998840000      2.6867680000      0.6010320000
O                 -1.2189220000      2.8888800000     -0.1030980000
O                 -3.4520070000      1.7634420000     -0.7243870000
H                  3.5580760000     -0.6919820000     -0.8761300000
H                  3.7111040000      1.0685190000     -0.7774700000
H                  4.7967770000      0.0343980000      0.1793090000
H                  2.8318790000     -0.8326810000      1.4750710000
H                  3.0195410000      0.9097720000      1.6864880000
H                 -1.9597260000     -3.8484400000     -0.4658530000
H                  2.2740280000      2.4136140000      0.8935480000
H                 -2.1653860000      2.7078180000     -0.3648070000
H                 -4.6513210000     -2.6177010000     -1.1589580000
H                 -4.9341960000      0.5933460000     -1.1377900000
$end
$rem
MAX_SCF_CYCLES=200
BASIS  =  6-311++G(d,p)
GUI  =  2
JOB_TYPE  =  SP
METHOD  =  B3LYP
SOLVENT_METHOD = PCM
$end
$pcm
theory = CPCM
$end
$solvent
dielectric 37.219
opticaldielectric 1.43
$end






--------------------------------------------------------------
 ----------------------------------------------------------------
             Standard Nuclear Orientation (Angstroms)
    I     Atom           X                Y                Z
 ----------------------------------------------------------------
    1      C       3.7655890000     0.1397920000    -0.1979730000
    2      C       2.7365840000     0.1270690000     0.9551200000
    3      C       1.2999130000     0.2456950000     0.5257610000
    4      C       0.5854660000    -0.9838800000     0.3145800000
    5      O       1.1674670000    -2.1090780000     0.4509010000
    6      C      -0.8407040000    -0.8578050000    -0.0522990000
    7      C      -1.6701680000    -1.9936090000    -0.2865370000
    8      O      -1.2106960000    -3.3045770000    -0.1939850000
    9      C      -3.0020940000    -1.8211360000    -0.6301310000
   10      O      -3.8011370000    -2.9600490000    -0.8597870000
   11      C      -3.5541840000    -0.5522310000    -0.7646670000
   12      O      -4.8899410000    -0.3917920000    -1.1261140000
   13      C      -2.8159590000     0.6089860000    -0.5601050000
   14      C      -1.4333940000     0.4566540000    -0.1876450000
   15      C      -0.6544290000     1.6346820000     0.0386210000
   16      C       0.6721250000     1.5063820000     0.3881790000
   17      O       1.3998840000     2.6867680000     0.6010320000
   18      O      -1.2189220000     2.8888800000    -0.1030980000
   19      O      -3.4520070000     1.7634420000    -0.7243870000
   20      H       3.5580760000    -0.6919820000    -0.8761300000
   21      H       3.7111040000     1.0685190000    -0.7774700000
   22      H       4.7967770000     0.0343980000     0.1793090000
   23      H       2.8318790000    -0.8326810000     1.4750710000
   24      H       3.0195410000     0.9097720000     1.6864880000
   25      H      -1.9597260000    -3.8484400000    -0.4658530000
   26      H       2.2740280000     2.4136140000     0.8935480000
   27      H      -2.1653860000     2.7078180000    -0.3648070000
   28      H      -4.6513210000    -2.6177010000    -1.1589580000
   29      H      -4.9341960000     0.5933460000    -1.1377900000
 ----------------------------------------------------------------
 Nuclear Repulsion Energy =        1462.90623123 hartrees
 There are       70 alpha and       70 beta electrons
 Requested basis set is 6-311++G(d,p)
 There are 164 shells and 488 basis functions

 Total QAlloc Memory Limit   8000 MB
 Mega-Array Size       188 MB
 MEM_STATIC part       192 MB
 Discretize the solute cavity surface with Lebedev spheres
	Using 110 Lebedev grid points for each H atom
	Using 194 Lebedev grid points for other atoms
	Atomic van der Waals radii will be scaled by 1.20
 Remove points where switching function is < 1.0e-08
 Keep 1936 surface tesserae and discard 2850 interior tesserae
 Molecular Surface Area = 268.948 Angst**2
 A cutoff of  1.0D-08 yielded   9181 shell pairs
 There are     84320 function pairs (     90235 Cartesian)
 Smallest overlap matrix eigenvalue = 1.35E-07

 Q-Chem warning in module stvman/mkSTV.C, line 323:

 Overlap eigenvalue is smaller than square root of threshold
 Use THRESH >= 12 to get rid of this warning

 Linear dependence detected in AO basis
 Tighter screening thresholds may be required for diffuse basis sets
 Use S2THRESH > 14 and THRESH = 14 in case of SCF convergence issues
 Number of orthogonalized atomic orbitals = 482
 Maximum deviation from orthogonality = 1.426E-10

 Scale SEOQF with 1.000000e-01/1.000000e-01/1.000000e-01

 Standard Electronic Orientation quadrupole field applied
 Nucleus-field energy     =     0.0000000615 hartrees
 Guess from superposition of atomic densities
 Warning:  Energy on first SCF cycle will be non-variational
 SAD guess density has 138.000000 electrons

 -----------------------------------------------------------------------
  General SCF calculation program by
  Eric Jon Sundstrom, Paul Horn, Yuezhi Mao, Dmitri Zuev, Alec White,
  David Stuck, Shaama M.S., Shane Yost, Joonho Lee, David Small,
  Daniel Levine, Susi Lehtola, Hugh Burton, Evgeny Epifanovsky,
  Bang C. Huynh
 -----------------------------------------------------------------------
 Exchange:     0.2000 Hartree-Fock + 0.0800 Slater + 0.7200 B88
 Correlation:  0.1900 VWN1RPA + 0.8100 LYP
 Using SG-1 standard quadrature grid
 using 8 threads for integral computing
 -------------------------------------------------------
 OpenMP Integral computing Module                
 Release: version 1.0, May 2013, Q-Chem Inc. Pittsburgh 
 -------------------------------------------------------
 A restricted SCF calculation will be
 performed using DIIS
 SCF converges when DIIS error is below 1.0e-05
 ---------------------------------------
  Cycle       Energy         DIIS error
 ---------------------------------------
    1    -994.2965844550      2.99e-02  
    2    -989.9957247337      4.18e-03  
    3    -989.4651414422      6.48e-03  
    4    -990.3705486366      1.53e-03  
    5    -990.4254383050      3.32e-04  
    6    -990.4272184852      1.72e-04  
    7    -990.4279488051      4.41e-05  
    8    -990.4279903071      1.84e-05  
    9    -990.4279926898      5.25e-06  Convergence criterion met
 ---------------------------------------
 SCF time:   CPU 387.08s  wall 52.00s 

************** Final PCM Free Energy Summary **************
 G_electrostatic  =      -0.28833491 hartree =    -180.93288966 kcal/mol
 G_cavitation     =       0.00000000 hartree =       0.00000000 kcal/mol
 G_dispersion     =       0.00000000 hartree =       0.00000000 kcal/mol
 G_repulsion      =       0.00000000 hartree =       0.00000000 kcal/mol
 --------------------------------------------------
 Non-electrostatic Free Energy =       0.00000000 hartree =       0.00000000 kcal/mol
 Total                         =      -0.28833491 hartree =    -180.93288966 kcal/mol
 --------------------------------------------------
 SCF Energy (H0 + V/2)                       =    -990.42799269 
 Solute Internal Energy (H0)                 =    -990.13965778 
 Total Free Energy (H0 + V/2 + non-elec)     =    -990.42799269 hartree
                                             = -621502.94575638 kcal/mol
***********************************************************

 SCF   energy in the final basis set =     -990.4279926898
 Total energy in the final basis set =     -990.4279926898
 
 --------------------------------------------------------------
 
                    Orbital Energies (a.u.)
 --------------------------------------------------------------
 
 Alpha MOs
 -- Occupied --
-19.1454 -19.1323 -19.1305 -19.1281 -19.1016 -19.0531 -19.0229 -10.2048
-10.2025 -10.1947 -10.1916 -10.1893 -10.1875 -10.1824 -10.1524 -10.1516
-10.1494 -10.1459 -10.1278  -1.0584  -1.0380  -1.0360  -1.0231  -1.0094
 -0.9485  -0.9478  -0.8209  -0.7813  -0.7501  -0.7041  -0.6971  -0.6629
 -0.6209  -0.6020  -0.5787  -0.5561  -0.5471  -0.5192  -0.5143  -0.4824
 -0.4812  -0.4581  -0.4402  -0.4288  -0.4268  -0.4123  -0.4064  -0.4007
 -0.3938  -0.3844  -0.3777  -0.3704  -0.3643  -0.3617  -0.3556  -0.3541
 -0.3516  -0.3384  -0.3320  -0.3262  -0.3206  -0.3176  -0.3118  -0.2654
 -0.2387  -0.2284  -0.1986  -0.1922  -0.1766  -0.1202
 -- Virtual --
 -0.0072   0.0012   0.0130   0.0196   0.0253   0.0267   0.0287   0.0297
  0.0448   0.0508   0.0519   0.0586   0.0596   0.0681   0.0793   0.0821
  0.0856   0.0883   0.0921   0.0939   0.0976   0.1016   0.1103   0.1154
  0.1236   0.1239   0.1280   0.1295   0.1300   0.1352   0.1395   0.1467
  0.1510   0.1512   0.1537   0.1550   0.1580   0.1604   0.1637   0.1701
  0.1754   0.1791   0.1814   0.1896   0.1949   0.1990   0.2001   0.2036
  0.2090   0.2132   0.2154   0.2246   0.2264   0.2337   0.2373   0.2423
  0.2458   0.2495   0.2542   0.2573   0.2630   0.2689   0.2705   0.2744
  0.2779   0.2807   0.2846   0.2905   0.2926   0.2958   0.2981   0.3045
  0.3053   0.3091   0.3115   0.3169   0.3198   0.3237   0.3256   0.3289
  0.3355   0.3409   0.3450   0.3473   0.3545   0.3607   0.3625   0.3654
  0.3723   0.3746   0.3766   0.3821   0.3885   0.3913   0.4041   0.4098
  0.4131   0.4216   0.4277   0.4335   0.4356   0.4429   0.4499   0.4619
  0.4708   0.4784   0.4872   0.4961   0.5010   0.5082   0.5310   0.5349
  0.5376   0.5546   0.5613   0.5681   0.5883   0.5926   0.6026   0.6097
  0.6212   0.6281   0.6317   0.6337   0.6418   0.6511   0.6589   0.6613
  0.6667   0.6761   0.6770   0.6835   0.6866   0.6973   0.6988   0.7211
  0.7253   0.7291   0.7337   0.7402   0.7559   0.7636   0.7762   0.7856
  0.8026   0.8141   0.8280   0.8421   0.8612   0.8652   0.8797   0.8923
  0.9032   0.9159   0.9220   0.9336   0.9533   0.9597   0.9831   0.9962
  1.0033   1.0061   1.0146   1.0162   1.0222   1.0406   1.0549   1.0609
  1.0734   1.0885   1.0937   1.1005   1.1146   1.1221   1.1337   1.1440
  1.1510   1.1723   1.1806   1.1864   1.1948   1.2057   1.2125   1.2182
  1.2291   1.2365   1.2392   1.2435   1.2490   1.2587   1.2634   1.2661
  1.2694   1.2863   1.2890   1.2953   1.3038   1.3058   1.3195   1.3299
  1.3393   1.3527   1.3771   1.4124   1.4164   1.4220   1.4344   1.4439
  1.4477   1.4640   1.4669   1.5032   1.5211   1.5312   1.5372   1.5424
  1.5462   1.5855   1.5921   1.6091   1.6112   1.6242   1.6365   1.6461
  1.6597   1.6647   1.6708   1.6866   1.6909   1.7218   1.7291   1.7414
  1.7639   1.7709   1.7805   1.7968   1.8092   1.8171   1.8196   1.8304
  1.8360   1.8542   1.8582   1.8812   1.8985   1.9062   1.9134   1.9281
  1.9391   1.9449   1.9517   1.9760   1.9980   2.0065   2.0174   2.0313
  2.0438   2.0724   2.0994   2.1252   2.1292   2.1454   2.1519   2.1824
  2.1877   2.1982   2.2208   2.2402   2.2454   2.2611   2.2836   2.2930
  2.3118   2.3308   2.3475   2.3611   2.3704   2.4075   2.4374   2.4601
  2.4799   2.5005   2.5273   2.5494   2.5838   2.6047   2.6128   2.6162
  2.6339   2.6429   2.6665   2.6990   2.7090   2.7176   2.7399   2.7585
  2.7624   2.7805   2.7974   2.8030   2.8148   2.8598   2.8655   2.8743
  2.8903   2.8996   2.9342   2.9443   2.9486   3.0017   3.0180   3.0293
  3.0475   3.0749   3.0772   3.0878   3.1019   3.1079   3.1232   3.1286
  3.1425   3.1483   3.1506   3.1540   3.1648   3.1721   3.1882   3.1935
  3.1995   3.2083   3.2259   3.2317   3.2531   3.2818   3.3103   3.3307
  3.3436   3.3775   3.4123   3.4388   3.4438   3.4655   3.4746   3.5041
  3.5170   3.5573   3.5927   3.6149   3.6379   3.7685   3.7857   3.8079
  3.8085   3.8252   3.8633   3.8762   3.9068   3.9246   3.9376   3.9618
  3.9860   3.9996   4.1823   4.1984   4.2110   4.2374   4.2902   4.3242
  4.3428   4.4608   4.8856   4.9064   4.9765   5.0202   5.0275   5.0704
  5.0866   5.1400   5.1617   5.3241   5.3561   5.4192   5.4754   5.4943
  5.5368   5.5921   5.6474   5.7101   5.7406   5.7835   5.8189   5.8471
  5.8711  23.5052  23.7375  23.8985  23.9176  23.9333  23.9576  24.0008
 24.0059  24.0374  24.0441  24.1378  24.1588  49.9039  49.9541  49.9704
 50.0036  50.0347  50.1070  50.1408
 --------------------------------------------------------------
 
          Ground-State Mulliken Net Atomic Charges

     Atom                 Charge (a.u.)
  ----------------------------------------
      1 C                    -0.586067
      2 C                    -0.170694
      3 C                     1.261565
      4 C                    -0.418731
      5 O                    -0.654397
      6 C                     0.553580
      7 C                    -0.279422
      8 O                    -0.332237
      9 C                    -0.332928
     10 O                    -0.392049
     11 C                    -0.182678
     12 O                    -0.395564
     13 C                    -0.410039
     14 C                     0.876585
     15 C                    -0.494403
     16 C                    -0.809581
     17 O                    -0.349414
     18 O                    -0.522663
     19 O                    -0.726117
     20 H                     0.164180
     21 H                     0.142747
     22 H                     0.130472
     23 H                     0.171248
     24 H                     0.124878
     25 H                     0.303421
     26 H                     0.309288
     27 H                     0.391751
     28 H                     0.319288
     29 H                     0.307982
  ----------------------------------------
  Sum of atomic charges =    -2.000000

 -----------------------------------------------------------------
                    Cartesian Multipole Moments
 -----------------------------------------------------------------
    Charge (ESU x 10^10)
                -9.6064
    Dipole Moment (Debye)
         X       8.7353      Y       0.2816      Z       0.5877
       Tot       8.7596
    Quadrupole Moments (Debye-Ang)
        XX    -157.9719     XY      20.4513     YY    -172.1047
        XZ      -5.8696     YZ       5.9508     ZZ    -121.2993
    Octopole Moments (Debye-Ang^2)
       XXX     419.2481    XXY       1.9927    XYY     110.1933
       YYY      17.9919    XXZ      42.4215    XYZ      -2.4124
       YYZ       5.4138    XZZ     101.7385    YZZ      16.1618
       ZZZ      45.1526
    Hexadecapole Moments (Debye-Ang^3)
      XXXX   -5168.8804   XXXY    -153.6793   XXYY   -1254.8363
      XYYY    -212.1071   YYYY   -2727.1193   XXXZ    -474.1041
      XXYZ      29.2418   XYYZ    -147.5744   YYYZ     -57.9098
      XXZZ    -869.3549   XYZZ     -92.1180   YYZZ    -466.8070
      XZZZ    -446.0005   YZZZ     -85.9226   ZZZZ    -396.2601
 -----------------------------------------------------------------
 Total job time:  322.55s(wall), 396.42s(cpu) 
 Wed Jun 12 03:09:40 2024

        *************************************************************
        *                                                           *
        *  Thank you very much for using Q-Chem.  Have a nice day.  *
        *                                                           *
        *************************************************************


