 Entering Gaussian System, Link 0=g16
 Input=344-an.com
 Output=344-an.log
 Initial command:
 /sysapps/ubuntu-applications/gaussian/Gaussian/AVX2/g16/l1.exe "/scratch/selhajj1/4265685/Gau-2034891.inp" -scrdir="/scratch/selhajj1/4265685/"
 Entering Link 1 = /sysapps/ubuntu-applications/gaussian/Gaussian/AVX2/g16/l1.exe PID=   2034902.
  
 Copyright (c) 1988,1990,1992,1993,1995,1998,2003,2009,2016,
            Gaussian, Inc.  All Rights Reserved.
  
 This is part of the Gaussian(R) 16 program.  It is based on
 the Gaussian(R) 09 system (copyright 2009, Gaussian, Inc.),
 the Gaussian(R) 03 system (copyright 2003, Gaussian, Inc.),
 the Gaussian(R) 98 system (copyright 1998, Gaussian, Inc.),
 the Gaussian(R) 94 system (copyright 1995, Gaussian, Inc.),
 the Gaussian 92(TM) system (copyright 1992, Gaussian, Inc.),
 the Gaussian 90(TM) system (copyright 1990, Gaussian, Inc.),
 the Gaussian 88(TM) system (copyright 1988, Gaussian, Inc.),
 the Gaussian 86(TM) system (copyright 1986, Carnegie Mellon
 University), and the Gaussian 82(TM) system (copyright 1983,
 Carnegie Mellon University). Gaussian is a federally registered
 trademark of Gaussian, Inc.
  
 This software contains proprietary and confidential information,
 including trade secrets, belonging to Gaussian, Inc.
  
 This software is provided under written license and may be
 used, copied, transmitted, or stored only in accord with that
 written license.
  
 The following legend is applicable only to US Government
 contracts under FAR:
  
                    RESTRICTED RIGHTS LEGEND
  
 Use, reproduction and disclosure by the US Government is
 subject to restrictions as set forth in subparagraphs (a)
 and (c) of the Commercial Computer Software - Restricted
 Rights clause in FAR 52.227-19.
  
 Gaussian, Inc.
 340 Quinnipiac St., Bldg. 40, Wallingford CT 06492
  
  
 ---------------------------------------------------------------
 Warning -- This program may not be used in any manner that
 competes with the business of Gaussian, Inc. or will provide
 assistance to any competitor of Gaussian, Inc.  The licensee
 of this program is prohibited from giving any competitor of
 Gaussian, Inc. access to this program.  By using this program,
 the user acknowledges that Gaussian, Inc. is engaged in the
 business of creating and licensing software in the field of
 computational chemistry and represents and warrants to the
 licensee that it is not a competitor of Gaussian, Inc. and that
 it will not use this program in any manner prohibited above.
 ---------------------------------------------------------------
  

 Cite this work as:
 Gaussian 16, Revision A.03,
 M. J. Frisch, G. W. Trucks, H. B. Schlegel, G. E. Scuseria, 
 M. A. Robb, J. R. Cheeseman, G. Scalmani, V. Barone, 
 G. A. Petersson, H. Nakatsuji, X. Li, M. Caricato, A. V. Marenich, 
 J. Bloino, B. G. Janesko, R. Gomperts, B. Mennucci, H. P. Hratchian, 
 J. V. Ortiz, A. F. Izmaylov, J. L. Sonnenberg, D. Williams-Young, 
 F. Ding, F. Lipparini, F. Egidi, J. Goings, B. Peng, A. Petrone, 
 T. Henderson, D. Ranasinghe, V. G. Zakrzewski, J. Gao, N. Rega, 
 G. Zheng, W. Liang, M. Hada, M. Ehara, K. Toyota, R. Fukuda, 
 J. Hasegawa, M. Ishida, T. Nakajima, Y. Honda, O. Kitao, H. Nakai, 
 T. Vreven, K. Throssell, J. A. Montgomery, Jr., J. E. Peralta, 
 F. Ogliaro, M. J. Bearpark, J. J. Heyd, E. N. Brothers, K. N. Kudin, 
 V. N. Staroverov, T. A. Keith, R. Kobayashi, J. Normand, 
 K. Raghavachari, A. P. Rendell, J. C. Burant, S. S. Iyengar, 
 J. Tomasi, M. Cossi, J. M. Millam, M. Klene, C. Adamo, R. Cammi, 
 J. W. Ochterski, R. L. Martin, K. Morokuma, O. Farkas, 
 J. B. Foresman, and D. J. Fox, Gaussian, Inc., Wallingford CT, 2016.
 
 ******************************************
 Gaussian 16:  ES64L-G16RevA.03 25-Dec-2016
                 9-Jan-2024 
 ******************************************
 %chk=344-an.chk
 %nproc=8
 Will use up to    8 processors via shared memory.
 %mem=30GB
 --------------------------------------
 #P UB3LYP/6-311++G(d,p) nosym opt freq
 --------------------------------------
 1/18=20,19=15,26=3,38=1/1,3;
 2/9=110,12=2,15=1,17=6,18=5,40=1/2;
 3/5=4,6=6,7=1111,11=2,25=1,30=1,71=1,74=-5,116=2/1,2,3;
 4//1;
 5/5=2,38=5/2;
 6/7=2,8=2,9=2,10=2,28=1/1;
 7/30=1/1,2,3,16;
 1/18=20,19=15,26=3/3(2);
 2/9=110,15=1/2;
 99//99;
 2/9=110,15=1/2;
 3/5=4,6=6,7=1111,11=2,25=1,30=1,71=1,74=-5,116=2/1,2,3;
 4/5=5,16=3,69=1/1;
 5/5=2,38=5/2;
 7/30=1/1,2,3,16;
 1/18=20,19=15,26=3/3(-5);
 2/9=110,15=1/2;
 6/7=2,8=2,9=2,10=2,19=2,28=1/1;
 99/9=1/99;
 Leave Link    1 at Tue Jan  9 20:27:10 2024, MaxMem=  4026531840 cpu:               0.4 elap:               0.1
 (Enter /sysapps/ubuntu-applications/gaussian/Gaussian/AVX2/g16/l101.exe)
 -------
 Reduced
 -------
 Symbolic Z-matrix:
 Charge = -2 Multiplicity = 1
 O                     0.01571  -2.43621  -0.84982 
 C                     0.04085  -1.23895  -0.45708 
 C                     1.32204  -0.6171   -0.16279 
 C                     2.43964  -1.51583  -0.18231 
 C                     3.73538  -1.1295    0.05267 
 C                     4.02986   0.24118   0.309 
 C                     2.98568   1.13513   0.35115 
 C                     1.61976   0.77252   0.16 
 C                     0.68289   1.83468   0.22194 
 C                    -0.68523   1.84862   0.08376 
 C                    -1.63713   0.76899  -0.01259 
 C                    -3.00594   1.12596   0.13991 
 C                    -4.04521   0.20379   0.05813 
 C                    -3.74626  -1.13548  -0.15837 
 C                    -2.40066  -1.51789  -0.2838 
 C                    -1.33499  -0.61054  -0.22923 
 H                     2.20915  -2.55345  -0.39048 
 H                     4.53742  -1.86491   0.03582 
 H                     5.05417   0.57417   0.46204 
 H                     3.19687   2.18606   0.54315 
 H                     1.13371   2.81371   0.38787 
 H                    -1.14853   2.82895   0.18239 
 H                    -3.24209   2.17541   0.29671 
 H                    -5.07921   0.53839   0.14534 
 H                    -4.53874  -1.87519  -0.23906 
 H                    -2.13912  -2.55251  -0.46436 
 
 ITRead=  0  0  0  0  0  0  0  0  0  0  0  0  0  0  0  0  0  0  0  0
 ITRead=  0  0  0  0  0  0
 MicOpt= -1 -1 -1 -1 -1 -1 -1 -1 -1 -1 -1 -1 -1 -1 -1 -1 -1 -1 -1 -1
 MicOpt= -1 -1 -1 -1 -1 -1
 NAtoms=     26 NQM=       26 NQMF=       0 NMMI=      0 NMMIF=      0
                NMic=       0 NMicF=      0.
                    Isotopes and Nuclear Properties:
 (Nuclear quadrupole moments (NQMom) in fm**2, nuclear magnetic moments (NMagM)
  in nuclear magnetons)

  Atom         1           2           3           4           5           6           7           8           9          10
 IAtWgt=          16          12          12          12          12          12          12          12          12          12
 AtmWgt=  15.9949146  12.0000000  12.0000000  12.0000000  12.0000000  12.0000000  12.0000000  12.0000000  12.0000000  12.0000000
 NucSpn=           0           0           0           0           0           0           0           0           0           0
 AtZEff=  -0.0000000  -0.0000000  -0.0000000  -0.0000000  -0.0000000  -0.0000000  -0.0000000  -0.0000000  -0.0000000  -0.0000000
 NQMom=    0.0000000   0.0000000   0.0000000   0.0000000   0.0000000   0.0000000   0.0000000   0.0000000   0.0000000   0.0000000
 NMagM=    0.0000000   0.0000000   0.0000000   0.0000000   0.0000000   0.0000000   0.0000000   0.0000000   0.0000000   0.0000000
 AtZNuc=   8.0000000   6.0000000   6.0000000   6.0000000   6.0000000   6.0000000   6.0000000   6.0000000   6.0000000   6.0000000

  Atom        11          12          13          14          15          16          17          18          19          20
 IAtWgt=          12          12          12          12          12          12           1           1           1           1
 AtmWgt=  12.0000000  12.0000000  12.0000000  12.0000000  12.0000000  12.0000000   1.0078250   1.0078250   1.0078250   1.0078250
 NucSpn=           0           0           0           0           0           0           1           1           1           1
 AtZEff=  -0.0000000  -0.0000000  -0.0000000  -0.0000000  -0.0000000  -0.0000000  -0.0000000  -0.0000000  -0.0000000  -0.0000000
 NQMom=    0.0000000   0.0000000   0.0000000   0.0000000   0.0000000   0.0000000   0.0000000   0.0000000   0.0000000   0.0000000
 NMagM=    0.0000000   0.0000000   0.0000000   0.0000000   0.0000000   0.0000000   2.7928460   2.7928460   2.7928460   2.7928460
 AtZNuc=   6.0000000   6.0000000   6.0000000   6.0000000   6.0000000   6.0000000   1.0000000   1.0000000   1.0000000   1.0000000

  Atom        21          22          23          24          25          26
 IAtWgt=           1           1           1           1           1           1
 AtmWgt=   1.0078250   1.0078250   1.0078250   1.0078250   1.0078250   1.0078250
 NucSpn=           1           1           1           1           1           1
 AtZEff=  -0.0000000  -0.0000000  -0.0000000  -0.0000000  -0.0000000  -0.0000000
 NQMom=    0.0000000   0.0000000   0.0000000   0.0000000   0.0000000   0.0000000
 NMagM=    2.7928460   2.7928460   2.7928460   2.7928460   2.7928460   2.7928460
 AtZNuc=   1.0000000   1.0000000   1.0000000   1.0000000   1.0000000   1.0000000
 Leave Link  101 at Tue Jan  9 20:27:11 2024, MaxMem=  4026531840 cpu:               4.1 elap:               0.8
 (Enter /sysapps/ubuntu-applications/gaussian/Gaussian/AVX2/g16/l103.exe)

 GradGradGradGradGradGradGradGradGradGradGradGradGradGradGradGradGradGrad
 Berny optimization.
 Initialization pass.
                           ----------------------------
                           !    Initial Parameters    !
                           ! (Angstroms and Degrees)  !
 --------------------------                            --------------------------
 ! Name  Definition              Value          Derivative Info.                !
 --------------------------------------------------------------------------------
 ! R1    R(1,2)                  1.2603         estimate D2E/DX2                !
 ! R2    R(2,3)                  1.4542         estimate D2E/DX2                !
 ! R3    R(2,16)                 1.5296         estimate D2E/DX2                !
 ! R4    R(3,4)                  1.4343         estimate D2E/DX2                !
 ! R5    R(3,8)                  1.4573         estimate D2E/DX2                !
 ! R6    R(4,5)                  1.3724         estimate D2E/DX2                !
 ! R7    R(4,17)                 1.0831         estimate D2E/DX2                !
 ! R8    R(5,6)                  1.4252         estimate D2E/DX2                !
 ! R9    R(5,18)                 1.0883         estimate D2E/DX2                !
 ! R10   R(6,7)                  1.3752         estimate D2E/DX2                !
 ! R11   R(6,19)                 1.0879         estimate D2E/DX2                !
 ! R12   R(7,8)                  1.4261         estimate D2E/DX2                !
 ! R13   R(7,20)                 1.089          estimate D2E/DX2                !
 ! R14   R(8,9)                  1.4177         estimate D2E/DX2                !
 ! R15   R(9,10)                 1.3752         estimate D2E/DX2                !
 ! R16   R(9,21)                 1.0905         estimate D2E/DX2                !
 ! R17   R(10,11)                1.4426         estimate D2E/DX2                !
 ! R18   R(10,22)                1.0888         estimate D2E/DX2                !
 ! R19   R(11,12)                1.4228         estimate D2E/DX2                !
 ! R20   R(11,16)                1.4287         estimate D2E/DX2                !
 ! R21   R(12,13)                1.3918         estimate D2E/DX2                !
 ! R22   R(12,23)                1.0871         estimate D2E/DX2                !
 ! R23   R(13,14)                1.3892         estimate D2E/DX2                !
 ! R24   R(13,24)                1.0903         estimate D2E/DX2                !
 ! R25   R(14,15)                1.4045         estimate D2E/DX2                !
 ! R26   R(14,25)                1.0871         estimate D2E/DX2                !
 ! R27   R(15,16)                1.4007         estimate D2E/DX2                !
 ! R28   R(15,26)                1.0823         estimate D2E/DX2                !
 ! A1    A(1,2,3)              119.1353         estimate D2E/DX2                !
 ! A2    A(1,2,16)             114.7562         estimate D2E/DX2                !
 ! A3    A(3,2,16)             125.9176         estimate D2E/DX2                !
 ! A4    A(2,3,4)              114.5697         estimate D2E/DX2                !
 ! A5    A(2,3,8)              129.238          estimate D2E/DX2                !
 ! A6    A(4,3,8)              116.1881         estimate D2E/DX2                !
 ! A7    A(3,4,5)              123.8474         estimate D2E/DX2                !
 ! A8    A(3,4,17)             115.9185         estimate D2E/DX2                !
 ! A9    A(5,4,17)             120.2324         estimate D2E/DX2                !
 ! A10   A(4,5,6)              119.7765         estimate D2E/DX2                !
 ! A11   A(4,5,18)             120.1956         estimate D2E/DX2                !
 ! A12   A(6,5,18)             120.0262         estimate D2E/DX2                !
 ! A13   A(5,6,7)              118.281          estimate D2E/DX2                !
 ! A14   A(5,6,19)             120.9459         estimate D2E/DX2                !
 ! A15   A(7,6,19)             120.7722         estimate D2E/DX2                !
 ! A16   A(6,7,8)              123.9069         estimate D2E/DX2                !
 ! A17   A(6,7,20)             119.0432         estimate D2E/DX2                !
 ! A18   A(8,7,20)             117.0498         estimate D2E/DX2                !
 ! A19   A(3,8,7)              117.892          estimate D2E/DX2                !
 ! A20   A(3,8,9)              126.0926         estimate D2E/DX2                !
 ! A21   A(7,8,9)              115.8873         estimate D2E/DX2                !
 ! A22   A(8,9,10)             131.352          estimate D2E/DX2                !
 ! A23   A(8,9,21)             113.9589         estimate D2E/DX2                !
 ! A24   A(10,9,21)            114.675          estimate D2E/DX2                !
 ! A25   A(9,10,11)            130.9664         estimate D2E/DX2                !
 ! A26   A(9,10,22)            115.0477         estimate D2E/DX2                !
 ! A27   A(11,10,22)           113.5239         estimate D2E/DX2                !
 ! A28   A(10,11,12)           116.0977         estimate D2E/DX2                !
 ! A29   A(10,11,16)           126.3851         estimate D2E/DX2                !
 ! A30   A(12,11,16)           117.5132         estimate D2E/DX2                !
 ! A31   A(11,12,13)           123.0822         estimate D2E/DX2                !
 ! A32   A(11,12,23)           117.8182         estimate D2E/DX2                !
 ! A33   A(13,12,23)           119.0717         estimate D2E/DX2                !
 ! A34   A(12,13,14)           119.158          estimate D2E/DX2                !
 ! A35   A(12,13,24)           120.008          estimate D2E/DX2                !
 ! A36   A(14,13,24)           120.8243         estimate D2E/DX2                !
 ! A37   A(13,14,15)           118.8536         estimate D2E/DX2                !
 ! A38   A(13,14,25)           120.7104         estimate D2E/DX2                !
 ! A39   A(15,14,25)           120.4334         estimate D2E/DX2                !
 ! A40   A(14,15,16)           123.3027         estimate D2E/DX2                !
 ! A41   A(14,15,26)           120.4431         estimate D2E/DX2                !
 ! A42   A(16,15,26)           116.2241         estimate D2E/DX2                !
 ! A43   A(2,16,11)            127.5514         estimate D2E/DX2                !
 ! A44   A(2,16,15)            114.3555         estimate D2E/DX2                !
 ! A45   A(11,16,15)           118.066          estimate D2E/DX2                !
 ! D1    D(1,2,3,4)             -8.1232         estimate D2E/DX2                !
 ! D2    D(1,2,3,8)            172.654          estimate D2E/DX2                !
 ! D3    D(16,2,3,4)           166.5768         estimate D2E/DX2                !
 ! D4    D(16,2,3,8)           -12.6461         estimate D2E/DX2                !
 ! D5    D(1,2,16,11)         -168.3363         estimate D2E/DX2                !
 ! D6    D(1,2,16,15)            9.7166         estimate D2E/DX2                !
 ! D7    D(3,2,16,11)           16.7611         estimate D2E/DX2                !
 ! D8    D(3,2,16,15)         -165.186          estimate D2E/DX2                !
 ! D9    D(2,3,4,5)            179.2094         estimate D2E/DX2                !
 ! D10   D(2,3,4,17)            -1.2727         estimate D2E/DX2                !
 ! D11   D(8,3,4,5)             -1.4614         estimate D2E/DX2                !
 ! D12   D(8,3,4,17)           178.0565         estimate D2E/DX2                !
 ! D13   D(2,3,8,7)           -177.2934         estimate D2E/DX2                !
 ! D14   D(2,3,8,9)             -1.5933         estimate D2E/DX2                !
 ! D15   D(4,3,8,7)              3.4943         estimate D2E/DX2                !
 ! D16   D(4,3,8,9)            179.1943         estimate D2E/DX2                !
 ! D17   D(3,4,5,6)             -1.2877         estimate D2E/DX2                !
 ! D18   D(3,4,5,18)           179.1982         estimate D2E/DX2                !
 ! D19   D(17,4,5,6)           179.2142         estimate D2E/DX2                !
 ! D20   D(17,4,5,18)           -0.2999         estimate D2E/DX2                !
 ! D21   D(4,5,6,7)              1.8932         estimate D2E/DX2                !
 ! D22   D(4,5,6,19)          -177.7695         estimate D2E/DX2                !
 ! D23   D(18,5,6,7)          -178.5919         estimate D2E/DX2                !
 ! D24   D(18,5,6,19)            1.7454         estimate D2E/DX2                !
 ! D25   D(5,6,7,8)              0.3294         estimate D2E/DX2                !
 ! D26   D(5,6,7,20)          -179.8198         estimate D2E/DX2                !
 ! D27   D(19,6,7,8)           179.9927         estimate D2E/DX2                !
 ! D28   D(19,6,7,20)           -0.1565         estimate D2E/DX2                !
 ! D29   D(6,7,8,3)             -3.0808         estimate D2E/DX2                !
 ! D30   D(6,7,8,9)           -179.2193         estimate D2E/DX2                !
 ! D31   D(20,7,8,3)           177.0657         estimate D2E/DX2                !
 ! D32   D(20,7,8,9)             0.9272         estimate D2E/DX2                !
 ! D33   D(3,8,9,10)             4.1007         estimate D2E/DX2                !
 ! D34   D(3,8,9,21)          -174.434          estimate D2E/DX2                !
 ! D35   D(7,8,9,10)           179.8765         estimate D2E/DX2                !
 ! D36   D(7,8,9,21)             1.3418         estimate D2E/DX2                !
 ! D37   D(8,9,10,11)            8.406          estimate D2E/DX2                !
 ! D38   D(8,9,10,22)          179.9822         estimate D2E/DX2                !
 ! D39   D(21,9,10,11)        -173.0676         estimate D2E/DX2                !
 ! D40   D(21,9,10,22)          -1.4914         estimate D2E/DX2                !
 ! D41   D(9,10,11,12)         166.9181         estimate D2E/DX2                !
 ! D42   D(9,10,11,16)         -12.3313         estimate D2E/DX2                !
 ! D43   D(22,10,11,12)         -4.7593         estimate D2E/DX2                !
 ! D44   D(22,10,11,16)        175.9913         estimate D2E/DX2                !
 ! D45   D(10,11,12,13)        179.2397         estimate D2E/DX2                !
 ! D46   D(10,11,12,23)          1.1805         estimate D2E/DX2                !
 ! D47   D(16,11,12,13)         -1.4416         estimate D2E/DX2                !
 ! D48   D(16,11,12,23)       -179.5008         estimate D2E/DX2                !
 ! D49   D(10,11,16,2)          -2.4702         estimate D2E/DX2                !
 ! D50   D(10,11,16,15)        179.54           estimate D2E/DX2                !
 ! D51   D(12,11,16,2)         178.2898         estimate D2E/DX2                !
 ! D52   D(12,11,16,15)          0.3            estimate D2E/DX2                !
 ! D53   D(11,12,13,14)          1.1922         estimate D2E/DX2                !
 ! D54   D(11,12,13,24)       -177.6852         estimate D2E/DX2                !
 ! D55   D(23,12,13,14)        179.2283         estimate D2E/DX2                !
 ! D56   D(23,12,13,24)          0.3509         estimate D2E/DX2                !
 ! D57   D(12,13,14,15)          0.2073         estimate D2E/DX2                !
 ! D58   D(12,13,14,25)       -179.2212         estimate D2E/DX2                !
 ! D59   D(24,13,14,15)        179.0753         estimate D2E/DX2                !
 ! D60   D(24,13,14,25)         -0.3532         estimate D2E/DX2                !
 ! D61   D(13,14,15,16)         -1.3586         estimate D2E/DX2                !
 ! D62   D(13,14,15,26)       -179.2866         estimate D2E/DX2                !
 ! D63   D(25,14,15,16)        178.0715         estimate D2E/DX2                !
 ! D64   D(25,14,15,26)          0.1436         estimate D2E/DX2                !
 ! D65   D(14,15,16,2)        -177.1719         estimate D2E/DX2                !
 ! D66   D(14,15,16,11)          1.0788         estimate D2E/DX2                !
 ! D67   D(26,15,16,2)           0.8368         estimate D2E/DX2                !
 ! D68   D(26,15,16,11)        179.0875         estimate D2E/DX2                !
 --------------------------------------------------------------------------------
 Trust Radius=3.00D-01 FncErr=1.00D-07 GrdErr=1.00D-06 EigMax=2.50D+02 EigMin=1.00D-04
 Number of steps in this run=    151 maximum allowed number of steps=    156.
 GradGradGradGradGradGradGradGradGradGradGradGradGradGradGradGradGradGrad

 Leave Link  103 at Tue Jan  9 20:27:11 2024, MaxMem=  4026531840 cpu:               0.3 elap:               0.1
 (Enter /sysapps/ubuntu-applications/gaussian/Gaussian/AVX2/g16/l202.exe)
                          Input orientation:                          
 ---------------------------------------------------------------------
 Center     Atomic      Atomic             Coordinates (Angstroms)
 Number     Number       Type             X           Y           Z
 ---------------------------------------------------------------------
      1          8           0        0.015705   -2.436213   -0.849816
      2          6           0        0.040850   -1.238945   -0.457083
      3          6           0        1.322038   -0.617103   -0.162787
      4          6           0        2.439636   -1.515825   -0.182314
      5          6           0        3.735376   -1.129503    0.052669
      6          6           0        4.029864    0.241181    0.308999
      7          6           0        2.985679    1.135134    0.351145
      8          6           0        1.619755    0.772516    0.159996
      9          6           0        0.682887    1.834679    0.221938
     10          6           0       -0.685233    1.848620    0.083762
     11          6           0       -1.637132    0.768991   -0.012586
     12          6           0       -3.005938    1.125958    0.139910
     13          6           0       -4.045208    0.203793    0.058132
     14          6           0       -3.746261   -1.135481   -0.158370
     15          6           0       -2.400663   -1.517888   -0.283795
     16          6           0       -1.334990   -0.610535   -0.229228
     17          1           0        2.209146   -2.553449   -0.390480
     18          1           0        4.537419   -1.864905    0.035823
     19          1           0        5.054174    0.574169    0.462036
     20          1           0        3.196871    2.186056    0.543151
     21          1           0        1.133710    2.813706    0.387874
     22          1           0       -1.148527    2.828946    0.182391
     23          1           0       -3.242086    2.175408    0.296705
     24          1           0       -5.079213    0.538390    0.145341
     25          1           0       -4.538736   -1.875189   -0.239056
     26          1           0       -2.139121   -2.552508   -0.464356
 ---------------------------------------------------------------------
                    Distance matrix (angstroms):
                    1          2          3          4          5
     1  O    0.000000
     2  C    1.260287   0.000000
     3  C    2.342579   1.454215   0.000000
     4  C    2.677333   2.430295   1.434262   0.000000
     5  C    4.044493   3.731132   2.476525   1.372372   0.000000
     6  C    4.962334   4.323180   2.879506   2.420183   1.425203
     7  C    4.797663   3.868010   2.470255   2.758682   2.404104
     8  C    3.726746   2.630533   1.457349   2.454768   2.846937
     9  C    4.453572   3.212545   2.562765   3.804663   4.258253
    10  C    4.441022   3.217572   3.188999   4.599467   5.330288
    11  C    3.702183   2.654243   3.271162   4.676455   5.698454
    12  C    4.774824   3.902830   4.675603   6.061116   7.109151
    13  C    4.927983   4.363807   5.434152   6.713278   7.893997
    14  C    4.040098   3.800282   5.094741   6.197625   7.484615
    15  C    2.646230   2.463498   3.832044   4.841363   6.157518
    16  C    2.354274   1.529625   2.657867   3.881952   5.104645
    17  H    2.244085   2.536506   2.142018   1.083108   2.133865
    18  H    4.642914   4.566609   3.454726   2.137787   1.088289
    19  H    6.014111   5.409767   3.967162   3.408676   2.193013
    20  H    5.781483   4.763567   3.445439   3.847548   3.394627
    21  H    5.508490   4.281621   3.479820   4.558003   4.736024
    22  H    5.490245   4.286173   4.254185   5.646677   6.287977
    23  H    5.761489   4.796214   5.370333   6.792395   7.724440
    24  H    5.983042   5.453153   6.511998   7.801298   8.971479
    25  H    4.629331   4.628709   5.994770   6.987849   8.312766
    26  H    2.192117   2.545147   3.976979   4.703113   6.066463
                    6          7          8          9         10
     6  C    0.000000
     7  C    1.375227   0.000000
     8  C    2.472477   1.426106   0.000000
     9  C    3.707974   2.410168   1.417656   0.000000
    10  C    4.986655   3.749153   2.544952   1.375151   0.000000
    11  C    5.700600   4.651531   3.261458   2.563821   1.442565
    12  C    7.093231   5.995346   4.639220   3.757186   2.431268
    13  C    8.079054   7.098354   5.694351   5.004149   3.741062
    14  C    7.910863   7.122802   5.704028   5.346385   4.281750
    15  C    6.693086   6.037744   4.648297   4.582985   3.796205
    16  C    5.458641   4.695995   3.285551   3.202257   2.562731
    17  H    3.407967   3.841700   3.422346   4.686170   5.289664
    18  H    2.183537   3.392279   3.934993   5.345931   6.408483
    19  H    1.087894   2.146078   3.453376   4.555731   5.891359
    20  H    2.128672   1.088993   2.152254   2.558664   3.923727
    21  H    3.874508   2.499748   2.110598   1.090537   2.081449
    22  H    5.790362   4.470921   3.448593   2.084276   1.088764
    23  H    7.524802   6.314285   5.062044   3.940444   2.586432
    24  H    9.115394   8.089558   6.703074   5.906609   4.585581
    25  H    8.843093   8.125712   6.715400   6.421914   5.368468
    26  H    6.816095   6.366107   5.057148   5.261382   4.667349
                   11         12         13         14         15
    11  C    0.000000
    12  C    1.422783   0.000000
    13  C    2.474526   1.391818   0.000000
    14  C    2.845469   2.398157   1.389207   0.000000
    15  C    2.426180   2.745142   2.405333   1.404493   0.000000
    16  C    1.428746   2.437978   2.844466   2.468768   1.400688
    17  H    5.096594   6.404409   6.849860   6.126286   4.725898
    18  H    6.713034   8.115315   8.828448   8.318000   6.954104
    19  H    6.710946   8.085397   9.115869   8.986404   7.778661
    20  H    5.067988   6.305652   7.524116   7.728636   6.762797
    21  H    3.466813   4.477350   5.808749   6.301474   5.630776
    22  H    2.126068   2.520307   3.911218   4.751949   4.547542
    23  H    2.156281   1.087058   2.142239   3.379833   3.832155
    24  H    3.453410   2.154933   1.090288   2.161214   3.403978
    25  H    3.932211   3.391160   2.157326   1.087058   2.168184
    26  H    3.389461   3.827221   3.391660   2.164369   1.082333
                   16         17         18         19         20
    16  C    0.000000
    17  H    4.044974   0.000000
    18  H    6.010731   2.465093   0.000000
    19  H    6.534737   4.313115   2.529382   0.000000
    20  H    5.381009   4.930535   4.297061   2.460556   0.000000
    21  H    4.266230   5.528901   5.796428   4.515647   2.162103
    22  H    3.469039   6.369641   7.374531   6.605734   4.407487
    23  H    3.416884   7.249155   8.769999   8.450990   6.443680
    24  H    3.934404   7.935159   9.912993  10.138398   8.447877
    25  H    3.444334   6.783574   9.080322   9.925463   8.771840
    26  H    2.114987   4.348895   6.730465   7.897962   7.207071
                   21         22         23         24         25
    21  H    0.000000
    22  H    2.291519   0.000000
    23  H    4.423045   2.196171   0.000000
    24  H    6.620899   4.549540   2.465314   0.000000
    25  H    7.386164   5.813779   4.286686   2.503046   0.000000
    26  H    6.343025   5.509955   4.914157   4.309237   2.503532
                   26
    26  H    0.000000
 Symmetry turned off by external request.
 Stoichiometry    C15H10O(2-)
 Framework group  C1[X(C15H10O)]
 Deg. of freedom    72
 Full point group                 C1      NOp   1
 Rotational constants (GHZ):           1.2758446           0.3790322           0.2940568
 Leave Link  202 at Tue Jan  9 20:27:11 2024, MaxMem=  4026531840 cpu:               0.4 elap:               0.1
 (Enter /sysapps/ubuntu-applications/gaussian/Gaussian/AVX2/g16/l301.exe)
 Standard basis: 6-311++G(d,p) (5D, 7F)
 Ernie: Thresh=  0.10000D-02 Tol=  0.10000D-05 Strict=F.
   422 basis functions,   666 primitive gaussians,   438 cartesian basis functions
    55 alpha electrons       55 beta electrons
       nuclear repulsion energy       959.2518530390 Hartrees.
 IExCor=  402 DFT=T Ex+Corr=B3LYP ExCW=0 ScaHFX=  0.200000
 ScaDFX=  0.800000  0.720000  1.000000  0.810000 ScalE2=  1.000000  1.000000
 IRadAn=      5 IRanWt=     -1 IRanGd=            0 ICorTp=0 IEmpDi=  4
 NAtoms=   26 NActive=   26 NUniq=   26 SFac= 1.00D+00 NAtFMM=   60 NAOKFM=F Big=F
 Integral buffers will be    131072 words long.
 Raffenetti 2 integral format.
 Two-electron integral symmetry is turned off.
 Leave Link  301 at Tue Jan  9 20:27:11 2024, MaxMem=  4026531840 cpu:               0.5 elap:               0.1
 (Enter /sysapps/ubuntu-applications/gaussian/Gaussian/AVX2/g16/l302.exe)
 NPDir=0 NMtPBC=     1 NCelOv=     1 NCel=       1 NClECP=     1 NCelD=      1
         NCelK=      1 NCelE2=     1 NClLst=     1 CellRange=     0.0.
 One-electron integrals computed using PRISM.
 NBasis=   422 RedAO= T EigKep=  1.57D-06  NBF=   422
 NBsUse=   416 1.00D-06 EigRej=  8.24D-07 NBFU=   416
 Precomputing XC quadrature grid using
 IXCGrd= 4 IRadAn=           5 IRanWt=          -1 IRanGd=           0 AccXCQ= 0.00D+00.
 Generated NRdTot=       0 NPtTot=           0 NUsed=           0 NTot=          32
 NSgBfM=   437   437   437   437   437 MxSgAt=    26 MxSgA2=    26.
 Leave Link  302 at Tue Jan  9 20:27:12 2024, MaxMem=  4026531840 cpu:               4.8 elap:               0.7
 (Enter /sysapps/ubuntu-applications/gaussian/Gaussian/AVX2/g16/l303.exe)
 DipDrv:  MaxL=1.
 Leave Link  303 at Tue Jan  9 20:27:12 2024, MaxMem=  4026531840 cpu:               1.3 elap:               0.4
 (Enter /sysapps/ubuntu-applications/gaussian/Gaussian/AVX2/g16/l401.exe)
 ExpMin= 3.60D-02 ExpMax= 8.59D+03 ExpMxC= 1.30D+03 IAcc=3 IRadAn=         5 AccDes= 0.00D+00
 Harris functional with IExCor=  402 and IRadAn=       5 diagonalized for initial guess.
 HarFok:  IExCor=  402 AccDes= 0.00D+00 IRadAn=         5 IDoV= 1 UseB2=F ITyADJ=14
 ICtDFT=  3500011 ScaDFX=  1.000000  1.000000  1.000000  1.000000
 FoFCou: FMM=F IPFlag=           0 FMFlag=      100000 FMFlg1=           0
         NFxFlg=           0 DoJE=T BraDBF=F KetDBF=T FulRan=T
         wScrn=  0.000000 ICntrl=       500 IOpCl=  0 I1Cent=   200000004 NGrid=           0
         NMat0=    1 NMatS0=      1 NMatT0=    0 NMatD0=    1 NMtDS0=    0 NMtDT0=    0
 Symmetry not used in FoFCou.
 Harris En= -653.439647641560    
 JPrj=0 DoOrth=F DoCkMO=F.
 Initial guess <Sx>= 0.0000 <Sy>= 0.0000 <Sz>= 0.0000 <S**2>=-0.0000 S=-0.0000
 Leave Link  401 at Tue Jan  9 20:27:16 2024, MaxMem=  4026531840 cpu:              30.3 elap:               4.0
 (Enter /sysapps/ubuntu-applications/gaussian/Gaussian/AVX2/g16/l502.exe)
 Two-electron integral symmetry not used.
 UHF open shell SCF:
 Using DIIS extrapolation, IDIIS=  1040.
 NGot=  4026531840 LenX=  4026141532 LenY=  4025949247
 Requested convergence on RMS density matrix=1.00D-08 within 128 cycles.
 Requested convergence on MAX density matrix=1.00D-06.
 Requested convergence on             energy=1.00D-06.
 No special actions if energy rises.
 Fock matrices will be formed incrementally for  20 cycles.

 Cycle   1  Pass 1  IDiag  1:
 FoFJK:  IHMeth= 1 ICntrl=       0 DoSepK=F KAlg= 0 I1Cent=           0 FoldK=F
 IRaf= 880000000 NMat=       1 IRICut=       1 DoRegI=T DoRafI=F ISym2E= 0 IDoP0=0 IntGTp=1.
 FoFCou: FMM=F IPFlag=           0 FMFlag=      100000 FMFlg1=           0
         NFxFlg=           0 DoJE=F BraDBF=F KetDBF=F FulRan=T
         wScrn=  0.000000 ICntrl=         0 IOpCl=  1 I1Cent=           0 NGrid=           0
         NMat0=    1 NMatS0=      1 NMatT0=    0 NMatD0=    1 NMtDS0=    0 NMtDT0=    0
 Symmetry not used in FoFCou.
 E= -652.283106738605    
 DIIS: error= 4.16D-02 at cycle   1 NSaved=   1.
 NSaved= 1 IEnMin= 1 EnMin= -652.283106738605     IErMin= 1 ErrMin= 4.16D-02
 ErrMax= 4.16D-02  0.00D+00 EMaxC= 1.00D-01 BMatC= 2.36D+00 BMatP= 2.36D+00
 IDIUse=3 WtCom= 5.84D-01 WtEn= 4.16D-01
 Coeff-Com:  0.100D+01
 Coeff-En:   0.100D+01
 Coeff:      0.100D+01
 Gap=     0.027 Goal=   None    Shift=    0.000
 Gap=     0.027 Goal=   None    Shift=    0.000
 GapD=    0.027 DampG=0.250 DampE=0.500 DampFc=0.2500 IDamp=-1.
 Damping current iteration by 2.50D-01
 RMSDP=4.47D+00 MaxDP=4.09D+02              OVMax= 9.92D-01

 Cycle   2  Pass 1  IDiag  1:
 RMSU=  1.06D+00    CP:  3.00D+00
 E= -652.248267817883     Delta-E=        0.034838920722 Rises=F Damp=T
 DIIS: error= 1.66D-02 at cycle   2 NSaved=   2.
 NSaved= 2 IEnMin= 1 EnMin= -652.283106738605     IErMin= 2 ErrMin= 1.66D-02
 ErrMax= 1.66D-02  0.00D+00 EMaxC= 1.00D-01 BMatC= 4.35D-01 BMatP= 2.36D+00
 IDIUse=3 WtCom= 8.34D-01 WtEn= 1.66D-01
 Coeff-Com: -0.854D-01 0.109D+01
 Coeff-En:   0.530D+00 0.470D+00
 Coeff:      0.167D-01 0.983D+00
 Gap=    -0.190 Goal=   None    Shift=    0.000
 Gap=    -0.190 Goal=   None    Shift=    0.000
 RMSDP=1.09D+00 MaxDP=9.92D+01 DE= 3.48D-02 OVMax= 9.61D-01

 Cycle   3  Pass 1  IDiag  1:
 RMSU=  5.15D-02    CP:  1.54D+00  7.78D-03
 E= -652.050884621122     Delta-E=        0.197383196761 Rises=F Damp=F
 DIIS: error= 6.11D-02 at cycle   3 NSaved=   3.
 NSaved= 3 IEnMin= 1 EnMin= -652.283106738605     IErMin= 2 ErrMin= 1.66D-02
 ErrMax= 6.11D-02  0.00D+00 EMaxC= 1.00D-01 BMatC= 2.74D+00 BMatP= 4.35D-01
 IDIUse=2 WtCom= 0.00D+00 WtEn= 1.00D+00
 EnCoef did     2 forward-backward iterations
 Coeff-En:   0.210D+00 0.457D+00 0.333D+00
 Coeff:      0.210D+00 0.457D+00 0.333D+00
 Gap=     0.015 Goal=   None    Shift=    0.000
 Gap=     0.015 Goal=   None    Shift=    0.000
 RMSDP=3.12D+00 MaxDP=3.25D+02 DE= 1.97D-01 OVMax= 9.76D-01

 Cycle   4  Pass 1  IDiag  1:
 RMSU=  2.12D+00    CP:  3.00D+00  2.08D+00 -3.00D+00
 E= -650.851833809488     Delta-E=        1.199050811634 Rises=F Damp=F
 DIIS: error= 1.28D-01 at cycle   4 NSaved=   4.
 NSaved= 4 IEnMin= 1 EnMin= -652.283106738605     IErMin= 2 ErrMin= 1.66D-02
 ErrMax= 1.28D-01  0.00D+00 EMaxC= 1.00D-01 BMatC= 5.50D+00 BMatP= 4.35D-01
 IDIUse=2 WtCom= 0.00D+00 WtEn= 1.00D+00
 EnCoef did     3 forward-backward iterations
 Coeff-En:   0.219D+00 0.000D+00 0.470D+00 0.311D+00
 Coeff:      0.219D+00 0.000D+00 0.470D+00 0.311D+00
 Gap=    -0.091 Goal=   None    Shift=    0.000
 Gap=    -0.091 Goal=   None    Shift=    0.000
 RMSDP=2.81D+00 MaxDP=2.81D+02 DE= 1.20D+00 OVMax= 8.86D-01

 Cycle   5  Pass 1  IDiag  1:
 RMSU=  2.56D-01    CP:  3.00D+00  1.52D-01 -6.03D-01  1.12D-01
 E= -652.828586434793     Delta-E=       -1.976752625305 Rises=F Damp=F
 DIIS: error= 1.27D-02 at cycle   5 NSaved=   5.
 NSaved= 5 IEnMin= 5 EnMin= -652.828586434793     IErMin= 5 ErrMin= 1.27D-02
 ErrMax= 1.27D-02  0.00D+00 EMaxC= 1.00D-01 BMatC= 2.94D-01 BMatP= 4.35D-01
 IDIUse=3 WtCom= 8.73D-01 WtEn= 1.27D-01
 Coeff-Com: -0.154D+00 0.525D+00 0.216D+00 0.147D-01 0.399D+00
 Coeff-En:   0.000D+00 0.000D+00 0.680D-01 0.000D+00 0.932D+00
 Coeff:     -0.134D+00 0.458D+00 0.197D+00 0.128D-01 0.467D+00
 Gap=     0.037 Goal=   None    Shift=    0.000
 Gap=     0.037 Goal=   None    Shift=    0.000
 RMSDP=4.16D-01 MaxDP=4.59D+01 DE=-1.98D+00 OVMax= 5.79D-01

 Cycle   6  Pass 1  IDiag  1:
 RMSU=  2.11D-02    CP:  1.19D+00  1.53D-03  1.26D-01  1.72D-03  4.12D-03
 E= -652.742962791210     Delta-E=        0.085623643584 Rises=F Damp=F
 DIIS: error= 1.82D-02 at cycle   6 NSaved=   6.
 NSaved= 6 IEnMin= 5 EnMin= -652.828586434793     IErMin= 5 ErrMin= 1.27D-02
 ErrMax= 1.82D-02  0.00D+00 EMaxC= 1.00D-01 BMatC= 4.36D-01 BMatP= 2.94D-01
 IDIUse=2 WtCom= 0.00D+00 WtEn= 1.00D+00
 Coeff-En:   0.000D+00 0.000D+00 0.000D+00 0.000D+00 0.633D+00 0.367D+00
 Coeff:      0.000D+00 0.000D+00 0.000D+00 0.000D+00 0.633D+00 0.367D+00
 Gap=     0.031 Goal=   None    Shift=    0.000
 Gap=     0.031 Goal=   None    Shift=    0.000
 RMSDP=2.69D+00 MaxDP=2.75D+02 DE= 8.56D-02 OVMax= 9.81D-01

 Cycle   7  Pass 1  IDiag  1:
 RMSU=  8.56D-01    CP:  3.00D+00  1.71D+00 -3.00D+00  8.04D-01 -3.17D-01
                    CP:  9.35D-01
 E= -652.740866010774     Delta-E=        0.002096780436 Rises=F Damp=F
 DIIS: error= 1.90D-02 at cycle   7 NSaved=   7.
 NSaved= 7 IEnMin= 5 EnMin= -652.828586434793     IErMin= 5 ErrMin= 1.27D-02
 ErrMax= 1.90D-02  0.00D+00 EMaxC= 1.00D-01 BMatC= 4.70D-01 BMatP= 2.94D-01
 IDIUse=2 WtCom= 0.00D+00 WtEn= 1.00D+00
 EnCoef did     3 forward-backward iterations
 Coeff-En:   0.000D+00 0.000D+00 0.000D+00 0.000D+00 0.462D+00 0.299D+00
 Coeff-En:   0.238D+00
 Coeff:      0.000D+00 0.000D+00 0.000D+00 0.000D+00 0.462D+00 0.299D+00
 Coeff:      0.238D+00
 Gap=    -0.004 Goal=   None    Shift=    0.000
 Gap=    -0.004 Goal=   None    Shift=    0.000
 RMSDP=2.17D+00 MaxDP=2.49D+02 DE= 2.10D-03 OVMax= 8.57D-01

 Cycle   8  Pass 1  IDiag  1:
 RMSU=  1.61D-01    CP:  3.00D+00  3.39D-01 -1.63D+00  2.04D-01  1.34D+00
                    CP: -9.01D-01 -9.56D-03
 E= -652.906714830974     Delta-E=       -0.165848820200 Rises=F Damp=F
 DIIS: error= 6.96D-03 at cycle   8 NSaved=   8.
 NSaved= 8 IEnMin= 8 EnMin= -652.906714830974     IErMin= 8 ErrMin= 6.96D-03
 ErrMax= 6.96D-03  0.00D+00 EMaxC= 1.00D-01 BMatC= 3.49D-02 BMatP= 2.94D-01
 IDIUse=3 WtCom= 9.30D-01 WtEn= 6.96D-02
 Coeff-Com: -0.546D-02 0.281D-01-0.838D-02-0.160D-02 0.270D+00 0.193D+00
 Coeff-Com:  0.131D+00 0.393D+00
 Coeff-En:   0.000D+00 0.000D+00 0.000D+00 0.000D+00 0.000D+00 0.000D+00
 Coeff-En:   0.553D-01 0.945D+00
 Coeff:     -0.508D-02 0.261D-01-0.780D-02-0.149D-02 0.251D+00 0.179D+00
 Coeff:      0.126D+00 0.432D+00
 Gap=     0.014 Goal=   None    Shift=    0.000
 Gap=     0.014 Goal=   None    Shift=    0.000
 RMSDP=2.62D-01 MaxDP=2.64D+01 DE=-1.66D-01 OVMax= 2.77D-01

 Cycle   9  Pass 1  IDiag  1:
 RMSU=  1.15D-01    CP:  3.00D+00  3.63D-01 -1.36D+00  2.08D-01  7.07D-01
                    CP: -1.62D+00  1.64D-01  5.26D-01
 E= -652.916255794134     Delta-E=       -0.009540963160 Rises=F Damp=F
 DIIS: error= 3.39D-03 at cycle   9 NSaved=   9.
 NSaved= 9 IEnMin= 9 EnMin= -652.916255794134     IErMin= 9 ErrMin= 3.39D-03
 ErrMax= 3.39D-03  0.00D+00 EMaxC= 1.00D-01 BMatC= 1.08D-02 BMatP= 3.49D-02
 IDIUse=3 WtCom= 9.66D-01 WtEn= 3.39D-02
 Coeff-Com: -0.445D-02 0.915D-02-0.866D-02-0.789D-03 0.961D-01 0.243D-01
 Coeff-Com:  0.550D-01 0.324D+00 0.505D+00
 Coeff-En:   0.000D+00 0.000D+00 0.000D+00 0.000D+00 0.000D+00 0.000D+00
 Coeff-En:   0.000D+00 0.284D+00 0.716D+00
 Coeff:     -0.430D-02 0.884D-02-0.837D-02-0.763D-03 0.928D-01 0.235D-01
 Coeff:      0.531D-01 0.323D+00 0.512D+00
 Gap=     0.010 Goal=   None    Shift=    0.000
 Gap=     0.010 Goal=   None    Shift=    0.000
 RMSDP=7.22D-01 MaxDP=6.57D+01 DE=-9.54D-03 OVMax= 2.40D-01

 Cycle  10  Pass 1  IDiag  1:
 RMSU=  7.32D-02    CP:  3.00D+00  8.14D-01 -2.93D+00  4.37D-01  1.20D+00
                    CP: -2.41D+00  3.08D-01  1.22D+00  8.79D-01
 E= -652.920876049250     Delta-E=       -0.004620255116 Rises=F Damp=F
 DIIS: error= 1.69D-03 at cycle  10 NSaved=  10.
 NSaved=10 IEnMin=10 EnMin= -652.920876049250     IErMin=10 ErrMin= 1.69D-03
 ErrMax= 1.69D-03  0.00D+00 EMaxC= 1.00D-01 BMatC= 6.08D-03 BMatP= 1.08D-02
 IDIUse=3 WtCom= 9.83D-01 WtEn= 1.69D-02
 Coeff-Com:  0.223D-02 0.163D-02-0.715D-02-0.303D-03 0.340D-01 0.834D-02
 Coeff-Com:  0.117D-01 0.237D+00 0.378D+00 0.334D+00
 Coeff-En:   0.000D+00 0.000D+00 0.000D+00 0.000D+00 0.000D+00 0.000D+00
 Coeff-En:   0.000D+00 0.000D+00 0.295D+00 0.705D+00
 Coeff:      0.219D-02 0.160D-02-0.703D-02-0.298D-03 0.335D-01 0.819D-02
 Coeff:      0.115D-01 0.233D+00 0.377D+00 0.341D+00
 Gap=     0.011 Goal=   None    Shift=    0.000
 Gap=     0.011 Goal=   None    Shift=    0.000
 RMSDP=2.86D-01 MaxDP=3.99D+01 DE=-4.62D-03 OVMax= 1.41D-01

 Cycle  11  Pass 1  IDiag  1:
 RMSU=  6.66D-02    CP:  3.00D+00  7.21D-01 -2.47D+00  3.69D-01  5.52D-01
                    CP: -2.70D+00  4.14D-01  7.22D-01  1.22D+00  3.61D-01
 E= -652.922771095377     Delta-E=       -0.001895046127 Rises=F Damp=F
 DIIS: error= 1.38D-03 at cycle  11 NSaved=  11.
 NSaved=11 IEnMin=11 EnMin= -652.922771095377     IErMin=11 ErrMin= 1.38D-03
 ErrMax= 1.38D-03  0.00D+00 EMaxC= 1.00D-01 BMatC= 1.64D-03 BMatP= 6.08D-03
 IDIUse=3 WtCom= 9.86D-01 WtEn= 1.38D-02
 Coeff-Com: -0.906D-03 0.487D-02-0.579D-02 0.901D-03 0.239D-01 0.104D-01
 Coeff-Com: -0.118D-01 0.194D+00 0.216D+00 0.194D+00 0.375D+00
 Coeff-En:   0.000D+00 0.000D+00 0.000D+00 0.000D+00 0.000D+00 0.000D+00
 Coeff-En:   0.000D+00 0.000D+00 0.000D+00 0.167D+00 0.833D+00
 Coeff:     -0.894D-03 0.480D-02-0.571D-02 0.889D-03 0.236D-01 0.103D-01
 Coeff:     -0.116D-01 0.192D+00 0.213D+00 0.193D+00 0.381D+00
 Gap=     0.013 Goal=   None    Shift=    0.000
 Gap=     0.013 Goal=   None    Shift=    0.000
 RMSDP=8.79D-02 MaxDP=1.11D+01 DE=-1.90D-03 OVMax= 4.88D-02

 Cycle  12  Pass 1  IDiag  1:
 RMSU=  1.26D-02    CP:  3.00D+00  7.63D-01 -2.62D+00  3.90D-01  7.10D-01
                    CP: -2.67D+00  3.99D-01  9.23D-01  1.10D+00  5.49D-01
                    CP:  7.95D-01
 E= -652.923581229456     Delta-E=       -0.000810134079 Rises=F Damp=F
 DIIS: error= 8.54D-04 at cycle  12 NSaved=  12.
 NSaved=12 IEnMin=12 EnMin= -652.923581229456     IErMin=12 ErrMin= 8.54D-04
 ErrMax= 8.54D-04  0.00D+00 EMaxC= 1.00D-01 BMatC= 7.71D-04 BMatP= 1.64D-03
 IDIUse=3 WtCom= 9.91D-01 WtEn= 8.54D-03
 Coeff-Com: -0.364D-02 0.652D-02-0.304D-02 0.606D-03 0.126D-01 0.170D-01
 Coeff-Com: -0.160D-01 0.981D-01 0.554D-01-0.114D+00-0.252D-01 0.971D+00
 Coeff-En:   0.000D+00 0.000D+00 0.000D+00 0.000D+00 0.000D+00 0.000D+00
 Coeff-En:   0.000D+00 0.000D+00 0.000D+00 0.000D+00 0.000D+00 0.100D+01
 Coeff:     -0.361D-02 0.647D-02-0.302D-02 0.601D-03 0.125D-01 0.168D-01
 Coeff:     -0.159D-01 0.972D-01 0.549D-01-0.113D+00-0.250D-01 0.972D+00
 Gap=     0.014 Goal=   None    Shift=    0.000
 Gap=     0.014 Goal=   None    Shift=    0.000
 RMSDP=4.44D-02 MaxDP=3.41D+00 DE=-8.10D-04 OVMax= 1.62D-02

 Cycle  13  Pass 1  IDiag  1:
 RMSU=  4.49D-03    CP:  3.00D+00  7.74D-01 -2.60D+00  3.87D-01  6.00D-01
                    CP: -2.70D+00  4.24D-01  9.35D-01  1.06D+00  4.71D-01
                    CP:  1.01D+00  2.13D+00
 E= -652.923868655144     Delta-E=       -0.000287425689 Rises=F Damp=F
 DIIS: error= 3.95D-04 at cycle  13 NSaved=  13.
 NSaved=13 IEnMin=13 EnMin= -652.923868655144     IErMin=13 ErrMin= 3.95D-04
 ErrMax= 3.95D-04  0.00D+00 EMaxC= 1.00D-01 BMatC= 2.25D-04 BMatP= 7.71D-04
 IDIUse=3 WtCom= 9.96D-01 WtEn= 3.95D-03
 Coeff-Com: -0.260D-02 0.342D-02-0.547D-03 0.317D-03 0.150D-02 0.829D-02
 Coeff-Com: -0.701D-02 0.231D-01 0.111D-02-0.191D+00-0.257D+00 0.537D+00
 Coeff-Com:  0.883D+00
 Coeff-En:   0.000D+00 0.000D+00 0.000D+00 0.000D+00 0.000D+00 0.000D+00
 Coeff-En:   0.000D+00 0.000D+00 0.000D+00 0.000D+00 0.000D+00 0.000D+00
 Coeff-En:   0.100D+01
 Coeff:     -0.259D-02 0.340D-02-0.545D-03 0.316D-03 0.149D-02 0.825D-02
 Coeff:     -0.699D-02 0.231D-01 0.111D-02-0.190D+00-0.256D+00 0.535D+00
 Coeff:      0.884D+00
 Gap=     0.015 Goal=   None    Shift=    0.000
 Gap=     0.015 Goal=   None    Shift=    0.000
 RMSDP=4.30D-02 MaxDP=4.06D+00 DE=-2.87D-04 OVMax= 1.61D-02

 Cycle  14  Pass 1  IDiag  1:
 RMSU=  3.89D-03    CP:  3.00D+00  7.91D-01 -2.59D+00  3.85D-01  4.95D-01
                    CP: -2.73D+00  4.48D-01  9.54D-01  1.03D+00  4.08D-01
                    CP:  1.16D+00  3.00D+00  2.45D+00
 E= -652.923971715672     Delta-E=       -0.000103060528 Rises=F Damp=F
 DIIS: error= 2.06D-04 at cycle  14 NSaved=  14.
 NSaved=14 IEnMin=14 EnMin= -652.923971715672     IErMin=14 ErrMin= 2.06D-04
 ErrMax= 2.06D-04  0.00D+00 EMaxC= 1.00D-01 BMatC= 3.34D-05 BMatP= 2.25D-04
 IDIUse=3 WtCom= 9.98D-01 WtEn= 2.06D-03
 Coeff-Com: -0.532D-03 0.390D-03 0.163D-03-0.438D-04-0.398D-03-0.115D-03
 Coeff-Com:  0.601D-03 0.634D-02 0.481D-02-0.928D-01-0.147D+00 0.273D-01
 Coeff-Com:  0.555D+00 0.646D+00
 Coeff-En:   0.000D+00 0.000D+00 0.000D+00 0.000D+00 0.000D+00 0.000D+00
 Coeff-En:   0.000D+00 0.000D+00 0.000D+00 0.000D+00 0.000D+00 0.000D+00
 Coeff-En:   0.000D+00 0.100D+01
 Coeff:     -0.530D-03 0.389D-03 0.163D-03-0.437D-04-0.397D-03-0.115D-03
 Coeff:      0.599D-03 0.633D-02 0.480D-02-0.926D-01-0.146D+00 0.273D-01
 Coeff:      0.554D+00 0.647D+00
 Gap=     0.015 Goal=   None    Shift=    0.000
 Gap=     0.015 Goal=   None    Shift=    0.000
 RMSDP=1.83D-02 MaxDP=1.37D+00 DE=-1.03D-04 OVMax= 8.33D-03

 Cycle  15  Pass 1  IDiag  1:
 RMSU=  4.10D-03    CP:  3.00D+00  8.02D-01 -2.60D+00  3.87D-01  4.88D-01
                    CP: -2.71D+00  4.50D-01  1.01D+00  9.92D-01  4.24D-01
                    CP:  1.13D+00  3.00D+00  3.00D+00  3.00D+00
 E= -652.923988538337     Delta-E=       -0.000016822664 Rises=F Damp=F
 DIIS: error= 6.50D-05 at cycle  15 NSaved=  15.
 NSaved=15 IEnMin=15 EnMin= -652.923988538337     IErMin=15 ErrMin= 6.50D-05
 ErrMax= 6.50D-05  0.00D+00 EMaxC= 1.00D-01 BMatC= 4.84D-06 BMatP= 3.34D-05
 IDIUse=1 WtCom= 1.00D+00 WtEn= 0.00D+00
 Coeff-Com: -0.156D-04-0.192D-03 0.372D-03-0.750D-04-0.330D-03-0.856D-03
 Coeff-Com: -0.313D-04 0.370D-02 0.398D-02-0.197D-01-0.863D-03-0.497D-01
 Coeff-Com:  0.102D+00 0.299D+00 0.662D+00
 Coeff:     -0.156D-04-0.192D-03 0.372D-03-0.750D-04-0.330D-03-0.856D-03
 Coeff:     -0.313D-04 0.370D-02 0.398D-02-0.197D-01-0.863D-03-0.497D-01
 Coeff:      0.102D+00 0.299D+00 0.662D+00
 Gap=     0.015 Goal=   None    Shift=    0.000
 Gap=     0.015 Goal=   None    Shift=    0.000
 RMSDP=1.30D-02 MaxDP=1.17D+00 DE=-1.68D-05 OVMax= 7.37D-03

 Cycle  16  Pass 1  IDiag  1:
 RMSU=  3.54D-03    CP:  3.00D+00  8.05D-01 -2.60D+00  3.86D-01  4.50D-01
                    CP: -2.74D+00  4.56D-01  9.95D-01  1.00D+00  3.97D-01
                    CP:  1.17D+00  3.00D+00  3.00D+00  3.00D+00  1.28D+00
 E= -652.923993107619     Delta-E=       -0.000004569282 Rises=F Damp=F
 DIIS: error= 7.72D-05 at cycle  16 NSaved=  16.
 NSaved=16 IEnMin=16 EnMin= -652.923993107619     IErMin=15 ErrMin= 6.50D-05
 ErrMax= 7.72D-05  0.00D+00 EMaxC= 1.00D-01 BMatC= 3.22D-06 BMatP= 4.84D-06
 IDIUse=1 WtCom= 1.00D+00 WtEn= 0.00D+00
 Coeff-Com: -0.118D-04-0.137D-03 0.359D-03-0.733D-04-0.103D-05-0.672D-03
 Coeff-Com: -0.365D-03 0.355D-02 0.266D-02-0.479D-03 0.197D-01-0.237D-01
 Coeff-Com: -0.276D-01 0.576D-01 0.507D+00 0.462D+00
 Coeff:     -0.118D-04-0.137D-03 0.359D-03-0.733D-04-0.103D-05-0.672D-03
 Coeff:     -0.365D-03 0.355D-02 0.266D-02-0.479D-03 0.197D-01-0.237D-01
 Coeff:     -0.276D-01 0.576D-01 0.507D+00 0.462D+00
 Gap=     0.015 Goal=   None    Shift=    0.000
 Gap=     0.015 Goal=   None    Shift=    0.000
 RMSDP=4.96D-03 MaxDP=3.50D-01 DE=-4.57D-06 OVMax= 1.95D-03

 Cycle  17  Pass 1  IDiag  1:
 RMSU=  5.46D-04    CP:  3.00D+00  8.07D-01 -2.60D+00  3.86D-01  4.40D-01
                    CP: -2.74D+00  4.57D-01  1.00D+00  1.00D+00  3.93D-01
                    CP:  1.17D+00  3.00D+00  3.00D+00  3.00D+00  1.60D+00
                    CP:  1.68D+00
 E= -652.923994203709     Delta-E=       -0.000001096090 Rises=F Damp=F
 DIIS: error= 6.09D-05 at cycle  17 NSaved=  17.
 NSaved=17 IEnMin=17 EnMin= -652.923994203709     IErMin=17 ErrMin= 6.09D-05
 ErrMax= 6.09D-05  0.00D+00 EMaxC= 1.00D-01 BMatC= 1.59D-06 BMatP= 3.22D-06
 IDIUse=1 WtCom= 1.00D+00 WtEn= 0.00D+00
 Coeff-Com:  0.108D-04-0.821D-04 0.645D-04-0.270D-04 0.120D-03-0.203D-03
 Coeff-Com: -0.128D-03 0.221D-02-0.182D-02 0.486D-02-0.606D-02 0.234D-01
 Coeff-Com: -0.601D-01-0.157D+00 0.224D-01 0.608D-01 0.111D+01
 Coeff:      0.108D-04-0.821D-04 0.645D-04-0.270D-04 0.120D-03-0.203D-03
 Coeff:     -0.128D-03 0.221D-02-0.182D-02 0.486D-02-0.606D-02 0.234D-01
 Coeff:     -0.601D-01-0.157D+00 0.224D-01 0.608D-01 0.111D+01
 Gap=     0.015 Goal=   None    Shift=    0.000
 Gap=     0.015 Goal=   None    Shift=    0.000
 RMSDP=8.22D-03 MaxDP=5.06D-01 DE=-1.10D-06 OVMax= 4.22D-03

 Cycle  18  Pass 1  IDiag  1:
 RMSU=  5.47D-04    CP:  3.00D+00  8.10D-01 -2.59D+00  3.85D-01  4.32D-01
                    CP: -2.75D+00  4.57D-01  1.03D+00  9.93D-01  3.94D-01
                    CP:  1.15D+00  3.00D+00  3.00D+00  3.00D+00  2.28D+00
                    CP:  2.98D+00  3.00D+00
 E= -652.923996053685     Delta-E=       -0.000001849976 Rises=F Damp=F
 DIIS: error= 1.53D-05 at cycle  18 NSaved=  18.
 NSaved=18 IEnMin=18 EnMin= -652.923996053685     IErMin=18 ErrMin= 1.53D-05
 ErrMax= 1.53D-05  0.00D+00 EMaxC= 1.00D-01 BMatC= 4.51D-07 BMatP= 1.59D-06
 IDIUse=1 WtCom= 1.00D+00 WtEn= 0.00D+00
 Coeff-Com:  0.341D-04-0.624D-04-0.165D-04 0.870D-06-0.672D-04-0.101D-03
 Coeff-Com:  0.381D-04 0.112D-03-0.176D-02 0.360D-02-0.827D-02 0.354D-01
 Coeff-Com: -0.299D-01-0.120D+00-0.112D+00-0.185D+00 0.696D+00 0.721D+00
 Coeff:      0.341D-04-0.624D-04-0.165D-04 0.870D-06-0.672D-04-0.101D-03
 Coeff:      0.381D-04 0.112D-03-0.176D-02 0.360D-02-0.827D-02 0.354D-01
 Coeff:     -0.299D-01-0.120D+00-0.112D+00-0.185D+00 0.696D+00 0.721D+00
 Gap=     0.015 Goal=   None    Shift=    0.000
 Gap=     0.015 Goal=   None    Shift=    0.000
 RMSDP=5.47D-03 MaxDP=4.59D-01 DE=-1.85D-06 OVMax= 1.97D-03

 Cycle  19  Pass 1  IDiag  1:
 RMSU=  2.11D-03    CP:  3.00D+00  8.14D-01 -2.60D+00  3.85D-01  4.22D-01
                    CP: -2.76D+00  4.59D-01  1.03D+00  9.92D-01  3.91D-01
                    CP:  1.16D+00  3.00D+00  3.00D+00  3.00D+00  2.56D+00
                    CP:  3.00D+00  3.00D+00  1.60D+00
 E= -652.923996448473     Delta-E=       -0.000000394788 Rises=F Damp=F
 DIIS: error= 3.64D-06 at cycle  19 NSaved=  19.
 NSaved=19 IEnMin=19 EnMin= -652.923996448473     IErMin=19 ErrMin= 3.64D-06
 ErrMax= 3.64D-06  0.00D+00 EMaxC= 1.00D-01 BMatC= 2.44D-08 BMatP= 4.51D-07
 IDIUse=1 WtCom= 1.00D+00 WtEn= 0.00D+00
 Coeff-Com:  0.288D-04-0.235D-04-0.151D-04-0.147D-05-0.636D-04-0.363D-04
 Coeff-Com:  0.108D-03-0.396D-03-0.837D-03 0.938D-03-0.355D-02 0.128D-01
 Coeff-Com: -0.514D-02-0.299D-01-0.459D-01-0.105D+00 0.155D+00 0.373D+00
 Coeff-Com:  0.649D+00
 Coeff:      0.288D-04-0.235D-04-0.151D-04-0.147D-05-0.636D-04-0.363D-04
 Coeff:      0.108D-03-0.396D-03-0.837D-03 0.938D-03-0.355D-02 0.128D-01
 Coeff:     -0.514D-02-0.299D-01-0.459D-01-0.105D+00 0.155D+00 0.373D+00
 Coeff:      0.649D+00
 Gap=     0.015 Goal=   None    Shift=    0.000
 Gap=     0.015 Goal=   None    Shift=    0.000
 RMSDP=1.28D-03 MaxDP=7.98D-02 DE=-3.95D-07 OVMax= 5.79D-04

 Cycle  20  Pass 1  IDiag  1:
 RMSU=  1.07D-04    CP:  3.00D+00  8.14D-01 -2.59D+00  3.85D-01  4.20D-01
                    CP: -2.77D+00  4.59D-01  1.04D+00  9.92D-01  3.90D-01
                    CP:  1.16D+00  3.00D+00  3.00D+00  3.00D+00  2.66D+00
                    CP:  3.00D+00  3.00D+00  1.89D+00  1.32D+00
 E= -652.923996475324     Delta-E=       -0.000000026851 Rises=F Damp=F
 DIIS: error= 3.70D-06 at cycle  20 NSaved=  20.
 NSaved=20 IEnMin=20 EnMin= -652.923996475324     IErMin=19 ErrMin= 3.64D-06
 ErrMax= 3.70D-06  0.00D+00 EMaxC= 1.00D-01 BMatC= 2.28D-08 BMatP= 2.44D-08
 IDIUse=1 WtCom= 1.00D+00 WtEn= 0.00D+00
 Coeff-Com: -0.145D-04 0.226D-04-0.634D-06-0.551D-06 0.220D-04-0.175D-04
 Coeff-Com:  0.204D-04-0.669D-04 0.246D-03 0.724D-03-0.973D-03 0.160D-02
 Coeff-Com:  0.138D-02 0.127D-02 0.242D-02-0.804D-02-0.614D-01-0.484D-01
 Coeff-Com:  0.214D+00 0.897D+00
 Coeff:     -0.145D-04 0.226D-04-0.634D-06-0.551D-06 0.220D-04-0.175D-04
 Coeff:      0.204D-04-0.669D-04 0.246D-03 0.724D-03-0.973D-03 0.160D-02
 Coeff:      0.138D-02 0.127D-02 0.242D-02-0.804D-02-0.614D-01-0.484D-01
 Coeff:      0.214D+00 0.897D+00
 Gap=     0.015 Goal=   None    Shift=    0.000
 Gap=     0.015 Goal=   None    Shift=    0.000
 RMSDP=1.07D-03 MaxDP=6.57D-02 DE=-2.69D-08 OVMax= 4.10D-04

 Cycle  21  Pass 1  IDiag  1:
 Restarting incremental Fock formation.
 E= -652.923996496320     Delta-E=       -0.000000020995 Rises=F Damp=F
 DIIS: error= 1.25D-06 at cycle  21 NSaved=  20.
 NSaved=20 IEnMin=20 EnMin= -652.923996496320     IErMin=20 ErrMin= 1.25D-06
 ErrMax= 1.25D-06  0.00D+00 EMaxC= 1.00D-01 BMatC= 2.08D-09 BMatP= 2.28D-08
 IDIUse=1 WtCom= 1.00D+00 WtEn= 0.00D+00
 Coeff-Com: -0.715D-05 0.862D-05-0.142D-06 0.137D-04-0.593D-05 0.524D-05
 Coeff-Com: -0.190D-04 0.972D-04 0.479D-03-0.476D-04-0.146D-02 0.304D-04
 Coeff-Com:  0.327D-02 0.994D-02 0.218D-01-0.519D-01-0.951D-01-0.239D-02
 Coeff-Com:  0.376D+00 0.739D+00
 Coeff:     -0.715D-05 0.862D-05-0.142D-06 0.137D-04-0.593D-05 0.524D-05
 Coeff:     -0.190D-04 0.972D-04 0.479D-03-0.476D-04-0.146D-02 0.304D-04
 Coeff:      0.327D-02 0.994D-02 0.218D-01-0.519D-01-0.951D-01-0.239D-02
 Coeff:      0.376D+00 0.739D+00
 Gap=     0.015 Goal=   None    Shift=    0.000
 Gap=     0.015 Goal=   None    Shift=    0.000
 RMSDP=4.16D-04 MaxDP=2.53D-02 DE=-2.10D-08 OVMax= 1.63D-04

 Cycle  22  Pass 1  IDiag  1:
 RMSU=  4.11D-04    CP:  1.00D+00
 E= -652.923996498710     Delta-E=       -0.000000002391 Rises=F Damp=F
 DIIS: error= 9.69D-07 at cycle  22 NSaved=  20.
 NSaved=20 IEnMin=20 EnMin= -652.923996498710     IErMin=20 ErrMin= 9.69D-07
 ErrMax= 9.69D-07  0.00D+00 EMaxC= 1.00D-01 BMatC= 1.10D-09 BMatP= 2.08D-09
 IDIUse=1 WtCom= 1.00D+00 WtEn= 0.00D+00
 Coeff-Com: -0.145D-05 0.143D-06 0.527D-05 0.197D-05-0.117D-05 0.731D-05
 Coeff-Com:  0.793D-06 0.255D-03 0.311D-03-0.989D-03-0.962D-03 0.656D-03
 Coeff-Com:  0.529D-02 0.200D-01-0.131D-01-0.448D-01-0.739D-01-0.514D-01
 Coeff-Com:  0.418D+00 0.741D+00
 Coeff:     -0.145D-05 0.143D-06 0.527D-05 0.197D-05-0.117D-05 0.731D-05
 Coeff:      0.793D-06 0.255D-03 0.311D-03-0.989D-03-0.962D-03 0.656D-03
 Coeff:      0.529D-02 0.200D-01-0.131D-01-0.448D-01-0.739D-01-0.514D-01
 Coeff:      0.418D+00 0.741D+00
 Gap=     0.015 Goal=   None    Shift=    0.000
 Gap=     0.015 Goal=   None    Shift=    0.000
 RMSDP=2.81D-04 MaxDP=1.98D-02 DE=-2.39D-09 OVMax= 1.12D-04

 Cycle  23  Pass 1  IDiag  1:
 RMSU=  8.82D-05    CP:  1.00D+00  1.54D+00
 E= -652.923996499749     Delta-E=       -0.000000001038 Rises=F Damp=F
 DIIS: error= 3.67D-07 at cycle  23 NSaved=  20.
 NSaved=20 IEnMin=20 EnMin= -652.923996499749     IErMin=20 ErrMin= 3.67D-07
 ErrMax= 3.67D-07  0.00D+00 EMaxC= 1.00D-01 BMatC= 1.94D-10 BMatP= 1.10D-09
 IDIUse=1 WtCom= 1.00D+00 WtEn= 0.00D+00
 Coeff-Com: -0.319D-06 0.136D-05 0.289D-05-0.184D-05 0.158D-04 0.643D-05
 Coeff-Com:  0.446D-04 0.980D-04-0.442D-03-0.435D-03-0.159D-03 0.507D-03
 Coeff-Com:  0.724D-02 0.370D-02-0.214D-02-0.430D-01-0.800D-01 0.428D-01
 Coeff-Com:  0.344D+00 0.728D+00
 Coeff:     -0.319D-06 0.136D-05 0.289D-05-0.184D-05 0.158D-04 0.643D-05
 Coeff:      0.446D-04 0.980D-04-0.442D-03-0.435D-03-0.159D-03 0.507D-03
 Coeff:      0.724D-02 0.370D-02-0.214D-02-0.430D-01-0.800D-01 0.428D-01
 Coeff:      0.344D+00 0.728D+00
 Gap=     0.015 Goal=   None    Shift=    0.000
 Gap=     0.015 Goal=   None    Shift=    0.000
 RMSDP=1.73D-04 MaxDP=1.71D-02 DE=-1.04D-09 OVMax= 6.32D-05

 Cycle  24  Pass 1  IDiag  1:
 RMSU=  9.25D-05    CP:  1.00D+00  1.74D+00  2.33D+00
 E= -652.923996500305     Delta-E=       -0.000000000557 Rises=F Damp=F
 DIIS: error= 2.09D-07 at cycle  24 NSaved=  20.
 NSaved=20 IEnMin=20 EnMin= -652.923996500305     IErMin=20 ErrMin= 2.09D-07
 ErrMax= 2.09D-07  0.00D+00 EMaxC= 1.00D-01 BMatC= 6.47D-11 BMatP= 1.94D-10
 IDIUse=1 WtCom= 1.00D+00 WtEn= 0.00D+00
 Coeff-Com:  0.107D-05 0.204D-05-0.995D-06 0.117D-04 0.996D-05 0.367D-04
 Coeff-Com:  0.828D-04-0.350D-03-0.345D-03-0.172D-03 0.882D-04 0.519D-02
 Coeff-Com:  0.331D-02 0.195D-03-0.334D-01-0.595D-01 0.187D-01 0.245D+00
 Coeff-Com:  0.559D+00 0.262D+00
 Coeff:      0.107D-05 0.204D-05-0.995D-06 0.117D-04 0.996D-05 0.367D-04
 Coeff:      0.828D-04-0.350D-03-0.345D-03-0.172D-03 0.882D-04 0.519D-02
 Coeff:      0.331D-02 0.195D-03-0.334D-01-0.595D-01 0.187D-01 0.245D+00
 Coeff:      0.559D+00 0.262D+00
 Gap=     0.015 Goal=   None    Shift=    0.000
 Gap=     0.015 Goal=   None    Shift=    0.000
 RMSDP=9.33D-05 MaxDP=9.83D-03 DE=-5.57D-10 OVMax= 3.26D-05

 Cycle  25  Pass 1  IDiag  1:
 RMSU=  1.88D-05    CP:  1.00D+00  1.80D+00  3.00D+00  1.58D+00
 E= -652.923996500563     Delta-E=       -0.000000000258 Rises=F Damp=F
 DIIS: error= 2.42D-07 at cycle  25 NSaved=  20.
 NSaved=20 IEnMin=20 EnMin= -652.923996500563     IErMin=19 ErrMin= 2.09D-07
 ErrMax= 2.42D-07  0.00D+00 EMaxC= 1.00D-01 BMatC= 6.66D-11 BMatP= 6.47D-11
 IDIUse=1 WtCom= 1.00D+00 WtEn= 0.00D+00
 Coeff-Com:  0.167D-05 0.278D-05 0.131D-04 0.183D-04 0.238D-05 0.379D-04
 Coeff-Com: -0.292D-03-0.287D-03-0.434D-03-0.133D-02 0.278D-02 0.743D-02
 Coeff-Com:  0.107D-01-0.317D-01-0.713D-01-0.702D-01 0.198D+00 0.871D+00
 Coeff-Com:  0.149D+01-0.141D+01
 Coeff:      0.167D-05 0.278D-05 0.131D-04 0.183D-04 0.238D-05 0.379D-04
 Coeff:     -0.292D-03-0.287D-03-0.434D-03-0.133D-02 0.278D-02 0.743D-02
 Coeff:      0.107D-01-0.317D-01-0.713D-01-0.702D-01 0.198D+00 0.871D+00
 Coeff:      0.149D+01-0.141D+01
 Gap=     0.015 Goal=   None    Shift=    0.000
 Gap=     0.015 Goal=   None    Shift=    0.000
 RMSDP=2.70D-04 MaxDP=2.85D-02 DE=-2.58D-10 OVMax= 9.21D-05

 Cycle  26  Pass 1  IDiag  1:
 RMSU=  2.34D-05    CP:  1.00D+00  1.73D+00  7.93D-01 -1.96D-01 -1.57D+00
 E= -652.923996499883     Delta-E=        0.000000000680 Rises=F Damp=F
 DIIS: error= 2.11D-07 at cycle  26 NSaved=  20.
 NSaved=20 IEnMin=19 EnMin= -652.923996500563     IErMin=18 ErrMin= 2.09D-07
 ErrMax= 2.11D-07  0.00D+00 EMaxC= 1.00D-01 BMatC= 3.91D-11 BMatP= 6.47D-11
 IDIUse=1 WtCom= 1.00D+00 WtEn= 0.00D+00
 Coeff-Com: -0.732D-06 0.240D-05 0.238D-04-0.686D-04 0.624D-05-0.569D-04
 Coeff-Com:  0.161D-03-0.158D-04-0.162D-02-0.179D-02 0.468D-02 0.113D-01
 Coeff-Com: -0.687D-02-0.718D-02-0.998D-01-0.760D-01 0.228D+00 0.161D+01
 Coeff-Com: -0.176D+01 0.110D+01
 Coeff:     -0.732D-06 0.240D-05 0.238D-04-0.686D-04 0.624D-05-0.569D-04
 Coeff:      0.161D-03-0.158D-04-0.162D-02-0.179D-02 0.468D-02 0.113D-01
 Coeff:     -0.687D-02-0.718D-02-0.998D-01-0.760D-01 0.228D+00 0.161D+01
 Coeff:     -0.176D+01 0.110D+01
 Gap=     0.015 Goal=   None    Shift=    0.000
 Gap=     0.015 Goal=   None    Shift=    0.000
 RMSDP=1.57D-04 MaxDP=1.76D-02 DE= 6.80D-10 OVMax= 5.70D-05

 Cycle  27  Pass 1  IDiag  1:
 RMSU=  8.13D-06    CP:  1.00D+00  1.77D+00 -4.03D-01 -1.38D+00 -3.00D+00
                    CP:  2.00D+00
 E= -652.923996499786     Delta-E=        0.000000000097 Rises=F Damp=F
 DIIS: error= 8.53D-08 at cycle  27 NSaved=  20.
 NSaved=20 IEnMin=18 EnMin= -652.923996500563     IErMin=20 ErrMin= 8.53D-08
 ErrMax= 8.53D-08  0.00D+00 EMaxC= 1.00D-01 BMatC= 9.13D-12 BMatP= 3.91D-11
 IDIUse=1 WtCom= 1.00D+00 WtEn= 0.00D+00
 Coeff-Com:  0.479D-06 0.108D-04-0.424D-04 0.378D-04-0.349D-04 0.115D-03
 Coeff-Com:  0.139D-03-0.584D-03-0.139D-02 0.150D-02 0.432D-02 0.340D-03
 Coeff-Com:  0.992D-02-0.449D-01-0.989D-01-0.122D+00 0.630D+00-0.734D+00
 Coeff-Com:  0.683D+00 0.672D+00
 Coeff:      0.479D-06 0.108D-04-0.424D-04 0.378D-04-0.349D-04 0.115D-03
 Coeff:      0.139D-03-0.584D-03-0.139D-02 0.150D-02 0.432D-02 0.340D-03
 Coeff:      0.992D-02-0.449D-01-0.989D-01-0.122D+00 0.630D+00-0.734D+00
 Coeff:      0.683D+00 0.672D+00
 Gap=     0.015 Goal=   None    Shift=    0.000
 Gap=     0.015 Goal=   None    Shift=    0.000
 RMSDP=3.70D-05 MaxDP=4.05D-03 DE= 9.69D-11 OVMax= 1.67D-05

 Cycle  28  Pass 1  IDiag  1:
 RMSU=  7.15D-06    CP:  1.00D+00  1.81D+00 -5.80D-01 -1.64D+00 -3.00D+00
                    CP:  2.32D+00  1.98D+00
 E= -652.923996499929     Delta-E=       -0.000000000143 Rises=F Damp=F
 DIIS: error= 1.33D-08 at cycle  28 NSaved=  20.
 NSaved=20 IEnMin=17 EnMin= -652.923996500563     IErMin=20 ErrMin= 1.33D-08
 ErrMax= 1.33D-08  0.00D+00 EMaxC= 1.00D-01 BMatC= 4.22D-13 BMatP= 9.13D-12
 IDIUse=1 WtCom= 1.00D+00 WtEn= 0.00D+00
 Coeff-Com:  0.255D-06-0.829D-05 0.888D-05-0.120D-04 0.379D-04 0.516D-04
 Coeff-Com: -0.493D-04-0.383D-03 0.286D-03 0.430D-03 0.181D-03 0.150D-02
 Coeff-Com: -0.357D-02-0.272D-01-0.809D-01-0.127D-01-0.383D-02 0.861D-01
 Coeff-Com:  0.284D+00 0.756D+00
 Coeff:      0.255D-06-0.829D-05 0.888D-05-0.120D-04 0.379D-04 0.516D-04
 Coeff:     -0.493D-04-0.383D-03 0.286D-03 0.430D-03 0.181D-03 0.150D-02
 Coeff:     -0.357D-02-0.272D-01-0.809D-01-0.127D-01-0.383D-02 0.861D-01
 Coeff:      0.284D+00 0.756D+00
 Gap=     0.015 Goal=   None    Shift=    0.000
 Gap=     0.015 Goal=   None    Shift=    0.000
 RMSDP=1.06D-05 MaxDP=4.89D-04 DE=-1.43D-10 OVMax= 4.63D-06

 Cycle  29  Pass 1  IDiag  1:
 RMSU=  2.65D-06    CP:  1.00D+00  1.83D+00 -5.88D-01 -1.68D+00 -3.00D+00
                    CP:  2.39D+00  2.38D+00  1.25D+00
 E= -652.923996500023     Delta-E=       -0.000000000093 Rises=F Damp=F
 DIIS: error= 8.09D-09 at cycle  29 NSaved=  20.
 NSaved=20 IEnMin=16 EnMin= -652.923996500563     IErMin=20 ErrMin= 8.09D-09
 ErrMax= 8.09D-09  0.00D+00 EMaxC= 1.00D-01 BMatC= 1.17D-13 BMatP= 4.22D-13
 IDIUse=1 WtCom= 1.00D+00 WtEn= 0.00D+00
 Coeff-Com:  0.637D-05-0.252D-05-0.116D-04 0.918D-05 0.292D-04 0.145D-03
 Coeff-Com:  0.119D-03-0.515D-03-0.110D-02 0.120D-03 0.141D-02 0.891D-02
 Coeff-Com:  0.421D-02-0.124D-01-0.113D+00 0.116D+00-0.660D-01 0.171D-01
 Coeff-Com:  0.230D+00 0.815D+00
 Coeff:      0.637D-05-0.252D-05-0.116D-04 0.918D-05 0.292D-04 0.145D-03
 Coeff:      0.119D-03-0.515D-03-0.110D-02 0.120D-03 0.141D-02 0.891D-02
 Coeff:      0.421D-02-0.124D-01-0.113D+00 0.116D+00-0.660D-01 0.171D-01
 Coeff:      0.230D+00 0.815D+00
 Gap=     0.015 Goal=   None    Shift=    0.000
 Gap=     0.015 Goal=   None    Shift=    0.000
 RMSDP=4.21D-06 MaxDP=3.51D-04 DE=-9.35D-11 OVMax= 1.72D-06

 Cycle  30  Pass 1  IDiag  1:
 RMSU=  5.16D-07    CP:  1.00D+00  1.83D+00 -5.96D-01 -1.68D+00 -3.00D+00
                    CP:  2.38D+00  2.60D+00  1.26D+00  2.04D+00
 E= -652.923996499808     Delta-E=        0.000000000214 Rises=F Damp=F
 DIIS: error= 5.03D-09 at cycle  30 NSaved=  20.
 NSaved=20 IEnMin=15 EnMin= -652.923996500563     IErMin=20 ErrMin= 5.03D-09
 ErrMax= 5.03D-09  0.00D+00 EMaxC= 1.00D-01 BMatC= 4.25D-14 BMatP= 1.17D-13
 IDIUse=1 WtCom= 1.00D+00 WtEn= 0.00D+00
 Coeff-Com: -0.345D-05-0.146D-05 0.779D-05 0.217D-04 0.449D-04 0.116D-04
 Coeff-Com: -0.205D-03-0.137D-03 0.420D-03 0.612D-03 0.118D-02 0.168D-02
 Coeff-Com:  0.324D-02-0.139D-01 0.169D-01-0.121D-01-0.352D-01-0.163D+00
 Coeff-Com:  0.151D+00 0.105D+01
 Coeff:     -0.345D-05-0.146D-05 0.779D-05 0.217D-04 0.449D-04 0.116D-04
 Coeff:     -0.205D-03-0.137D-03 0.420D-03 0.612D-03 0.118D-02 0.168D-02
 Coeff:      0.324D-02-0.139D-01 0.169D-01-0.121D-01-0.352D-01-0.163D+00
 Coeff:      0.151D+00 0.105D+01
 Gap=     0.015 Goal=   None    Shift=    0.000
 Gap=     0.015 Goal=   None    Shift=    0.000
 RMSDP=4.31D-06 MaxDP=4.92D-04 DE= 2.14D-10 OVMax= 2.00D-06

 Cycle  31  Pass 1  IDiag  1:
 RMSU=  9.30D-07    CP:  1.00D+00  1.83D+00 -5.98D-01 -1.68D+00 -3.00D+00
                    CP:  2.40D+00  2.81D+00  1.35D+00  2.96D+00  3.00D+00
 E= -652.923996499799     Delta-E=        0.000000000009 Rises=F Damp=F
 DIIS: error= 4.76D-09 at cycle  31 NSaved=  20.
 NSaved=20 IEnMin=14 EnMin= -652.923996500563     IErMin=20 ErrMin= 4.76D-09
 ErrMax= 4.76D-09  0.00D+00 EMaxC= 1.00D-01 BMatC= 4.81D-14 BMatP= 4.25D-14
 IDIUse=1 WtCom= 1.00D+00 WtEn= 0.00D+00
 Coeff-Com: -0.415D-05-0.126D-05 0.124D-04 0.222D-04 0.572D-04-0.123D-03
 Coeff-Com: -0.609D-04 0.818D-04-0.211D-03 0.874D-03 0.445D-02 0.762D-02
 Coeff-Com:  0.162D-02-0.103D-03-0.735D-02-0.334D-01-0.156D+00-0.595D-01
 Coeff-Com:  0.731D+00 0.511D+00
 Coeff:     -0.415D-05-0.126D-05 0.124D-04 0.222D-04 0.572D-04-0.123D-03
 Coeff:     -0.609D-04 0.818D-04-0.211D-03 0.874D-03 0.445D-02 0.762D-02
 Coeff:      0.162D-02-0.103D-03-0.735D-02-0.334D-01-0.156D+00-0.595D-01
 Coeff:      0.731D+00 0.511D+00
 Gap=     0.015 Goal=   None    Shift=    0.000
 Gap=     0.015 Goal=   None    Shift=    0.000
 RMSDP=2.29D-06 MaxDP=2.70D-04 DE= 9.09D-12 OVMax= 1.30D-06

 Cycle  32  Pass 1  IDiag  1:
 RMSU=  1.71D-06    CP:  1.00D+00  1.83D+00 -5.99D-01 -1.68D+00 -3.00D+00
                    CP:  2.40D+00  2.90D+00  1.34D+00  3.00D+00  3.00D+00
                    CP:  2.09D+00
 E= -652.923996499850     Delta-E=       -0.000000000051 Rises=F Damp=F
 DIIS: error= 3.49D-09 at cycle  32 NSaved=  20.
 NSaved=20 IEnMin=13 EnMin= -652.923996500563     IErMin=20 ErrMin= 3.49D-09
 ErrMax= 3.49D-09  0.00D+00 EMaxC= 1.00D-01 BMatC= 2.29D-14 BMatP= 4.25D-14
 IDIUse=1 WtCom= 1.00D+00 WtEn= 0.00D+00
 Large coefficients: NSaved= 20 BigCof=    0.00 CofMax=   10.00 Det=-8.79D-15
 Inversion failed.  Reducing to 19 matrices.
 Large coefficients: NSaved= 19 BigCof=    0.00 CofMax=   10.00 Det=-9.71D-15
 Inversion failed.  Reducing to 18 matrices.
 Coeff-Com:  0.395D-05 0.709D-05-0.522D-04 0.685D-05 0.197D-03 0.236D-03
 Coeff-Com:  0.280D-03 0.198D-02 0.165D-02-0.301D-03 0.190D-02-0.400D-02
 Coeff-Com: -0.183D-01-0.880D-01-0.451D-01 0.430D+00 0.314D+00 0.406D+00
 Coeff:      0.395D-05 0.709D-05-0.522D-04 0.685D-05 0.197D-03 0.236D-03
 Coeff:      0.280D-03 0.198D-02 0.165D-02-0.301D-03 0.190D-02-0.400D-02
 Coeff:     -0.183D-01-0.880D-01-0.451D-01 0.430D+00 0.314D+00 0.406D+00
 Gap=     0.015 Goal=   None    Shift=    0.000
 Gap=     0.015 Goal=   None    Shift=    0.000
 RMSDP=1.66D-06 MaxDP=1.66D-04 DE=-5.12D-11 OVMax= 1.08D-06

 Cycle  33  Pass 1  IDiag  1:
 RMSU=  5.01D-07    CP:  1.00D+00  1.83D+00 -5.97D-01 -1.67D+00 -3.00D+00
                    CP:  2.40D+00  2.93D+00  1.34D+00  3.00D+00  3.00D+00
                    CP:  3.00D+00  1.69D+00
 E= -652.923996499804     Delta-E=        0.000000000046 Rises=F Damp=F
 DIIS: error= 3.51D-09 at cycle  33 NSaved=  19.
 NSaved=19 IEnMin=11 EnMin= -652.923996500563     IErMin=18 ErrMin= 3.49D-09
 ErrMax= 3.51D-09  0.00D+00 EMaxC= 1.00D-01 BMatC= 1.63D-14 BMatP= 2.29D-14
 IDIUse=1 WtCom= 1.00D+00 WtEn= 0.00D+00
 Large coefficients: NSaved= 19 BigCof=    0.00 CofMax=   10.00 Det=-1.80D-15
 Inversion failed.  Reducing to 18 matrices.
 Large coefficients: NSaved= 18 BigCof=    0.00 CofMax=   10.00 Det=-1.81D-15
 Inversion failed.  Reducing to 17 matrices.
 Large coefficients: NSaved= 17 BigCof=    0.00 CofMax=   10.00 Det=-1.81D-15
 Inversion failed.  Reducing to 16 matrices.
 Large coefficients: NSaved= 16 BigCof=    0.00 CofMax=   10.00 Det=-1.82D-15
 Inversion failed.  Reducing to 15 matrices.
 Coeff-Com:  0.131D-03 0.286D-03 0.454D-03 0.242D-02-0.989D-03-0.193D-02
 Coeff-Com:  0.338D-02-0.278D-02-0.119D-01-0.650D-01-0.699D-01 0.362D+00
 Coeff-Com:  0.370D+00 0.993D+00-0.579D+00
 Coeff:      0.131D-03 0.286D-03 0.454D-03 0.242D-02-0.989D-03-0.193D-02
 Coeff:      0.338D-02-0.278D-02-0.119D-01-0.650D-01-0.699D-01 0.362D+00
 Coeff:      0.370D+00 0.993D+00-0.579D+00
 Gap=     0.015 Goal=   None    Shift=    0.000
 Gap=     0.015 Goal=   None    Shift=    0.000
 RMSDP=1.42D-06 MaxDP=1.52D-04 DE= 4.62D-11 OVMax= 8.55D-07

 Cycle  34  Pass 1  IDiag  1:
 RMSU=  4.25D-08    CP:  1.00D+00  1.83D+00 -5.97D-01 -1.67D+00 -3.00D+00
                    CP:  2.40D+00  2.92D+00  1.34D+00  3.00D+00  3.00D+00
                    CP:  2.28D+00  1.14D+00 -1.54D-02
 E= -652.923996499864     Delta-E=       -0.000000000060 Rises=F Damp=F
 DIIS: error= 2.91D-09 at cycle  34 NSaved=  16.
 NSaved=16 IEnMin= 7 EnMin= -652.923996500563     IErMin=16 ErrMin= 2.91D-09
 ErrMax= 2.91D-09  0.00D+00 EMaxC= 1.00D-01 BMatC= 1.31D-14 BMatP= 1.63D-14
 IDIUse=1 WtCom= 1.00D+00 WtEn= 0.00D+00
 Large coefficients: NSaved= 16 BigCof=    0.00 CofMax=   10.00 Det=-7.61D-16
 Inversion failed.  Reducing to 15 matrices.
 Coeff-Com: -0.122D-03 0.463D-03 0.331D-02 0.824D-03-0.728D-02 0.103D-01
 Coeff-Com: -0.999D-02-0.218D-01-0.742D-01-0.856D-01 0.333D+00 0.333D+00
 Coeff-Com:  0.125D+01-0.183D+01 0.110D+01
 Coeff:     -0.122D-03 0.463D-03 0.331D-02 0.824D-03-0.728D-02 0.103D-01
 Coeff:     -0.999D-02-0.218D-01-0.742D-01-0.856D-01 0.333D+00 0.333D+00
 Coeff:      0.125D+01-0.183D+01 0.110D+01
 Gap=     0.015 Goal=   None    Shift=    0.000
 Gap=     0.015 Goal=   None    Shift=    0.000
 RMSDP=2.41D-06 MaxDP=2.63D-04 DE=-6.00D-11 OVMax= 1.50D-06

 Cycle  35  Pass 1  IDiag  1:
 RMSU=  3.77D-07    CP:  1.00D+00  1.83D+00 -5.99D-01 -1.68D+00 -3.00D+00
                    CP:  2.40D+00  2.94D+00  1.34D+00  3.00D+00  2.94D+00
                    CP:  6.65D-01  4.05D-01 -1.96D+00  3.00D+00
 E= -652.923996499801     Delta-E=        0.000000000063 Rises=F Damp=F
 DIIS: error= 5.33D-09 at cycle  35 NSaved=  16.
 NSaved=16 IEnMin= 6 EnMin= -652.923996500563     IErMin=15 ErrMin= 2.91D-09
 ErrMax= 5.33D-09  0.00D+00 EMaxC= 1.00D-01 BMatC= 2.30D-14 BMatP= 1.31D-14
 IDIUse=1 WtCom= 1.00D+00 WtEn= 0.00D+00
 Large coefficients: NSaved= 16 BigCof=    0.00 CofMax=   10.00 Det=-6.11D-16
 Inversion failed.  Reducing to 15 matrices.
 Coeff-Com:  0.318D-03 0.339D-02 0.646D-03-0.707D-02 0.103D-01-0.102D-01
 Coeff-Com: -0.208D-01-0.519D-01-0.979D-01 0.132D+00 0.124D+00 0.145D+01
 Coeff-Com: -0.294D+01 0.156D+01 0.848D+00
 Coeff:      0.318D-03 0.339D-02 0.646D-03-0.707D-02 0.103D-01-0.102D-01
 Coeff:     -0.208D-01-0.519D-01-0.979D-01 0.132D+00 0.124D+00 0.145D+01
 Coeff:     -0.294D+01 0.156D+01 0.848D+00
 Gap=     0.015 Goal=   None    Shift=    0.000
 Gap=     0.015 Goal=   None    Shift=    0.000
 RMSDP=3.79D-06 MaxDP=3.81D-04 DE= 6.34D-11 OVMax= 2.34D-06

 Cycle  36  Pass 1  IDiag  1:
 RMSU=  1.20D-06    CP:  1.00D+00  1.83D+00 -6.02D-01 -1.68D+00 -3.00D+00
                    CP:  2.40D+00  2.99D+00  1.34D+00  3.00D+00 -2.70D+00
                    CP: -1.53D+00  3.76D-01 -2.29D+00  3.00D+00  1.17D+00
 E= -652.923996499974     Delta-E=       -0.000000000173 Rises=F Damp=F
 DIIS: error= 1.29D-09 at cycle  36 NSaved=  16.
 NSaved=16 IEnMin= 5 EnMin= -652.923996500563     IErMin=16 ErrMin= 1.29D-09
 ErrMax= 1.29D-09  0.00D+00 EMaxC= 1.00D-01 BMatC= 4.11D-15 BMatP= 1.31D-14
 IDIUse=1 WtCom= 1.00D+00 WtEn= 0.00D+00
 Large coefficients: NSaved= 16 BigCof=    0.00 CofMax=   10.00 Det=-1.26D-16
 Inversion failed.  Reducing to 15 matrices.
 Coeff-Com:  0.123D-02-0.776D-03-0.306D-02 0.383D-02-0.327D-02-0.159D-02
 Coeff-Com:  0.142D-01-0.104D-01-0.430D-01-0.163D+00 0.287D+00-0.810D+00
 Coeff-Com:  0.532D+00 0.340D+00 0.857D+00
 Coeff:      0.123D-02-0.776D-03-0.306D-02 0.383D-02-0.327D-02-0.159D-02
 Coeff:      0.142D-01-0.104D-01-0.430D-01-0.163D+00 0.287D+00-0.810D+00
 Coeff:      0.532D+00 0.340D+00 0.857D+00
 Gap=     0.015 Goal=   None    Shift=    0.000
 Gap=     0.015 Goal=   None    Shift=    0.000
 RMSDP=7.40D-07 MaxDP=6.98D-05 DE=-1.73D-10 OVMax= 4.28D-07

 Cycle  37  Pass 1  IDiag  1:
 RMSU=  1.19D-07    CP:  1.00D+00  1.83D+00 -6.03D-01 -1.68D+00 -3.00D+00
                    CP:  2.40D+00  3.00D+00  1.34D+00  3.00D+00 -3.00D+00
                    CP: -1.97D+00  3.04D-01 -2.94D+00  3.00D+00  1.50D+00
                    CP:  1.15D+00
 E= -652.923996499851     Delta-E=        0.000000000123 Rises=F Damp=F
 DIIS: error= 7.78D-10 at cycle  37 NSaved=  16.
 NSaved=16 IEnMin= 4 EnMin= -652.923996500563     IErMin=16 ErrMin= 7.78D-10
 ErrMax= 7.78D-10  0.00D+00 EMaxC= 1.00D-01 BMatC= 5.13D-16 BMatP= 4.11D-15
 IDIUse=1 WtCom= 1.00D+00 WtEn= 0.00D+00
 Large coefficients: NSaved= 16 BigCof=    0.00 CofMax=   10.00 Det=-1.01D-16
 Inversion failed.  Reducing to 15 matrices.
 Coeff-Com: -0.127D-02-0.233D-03-0.274D-04 0.875D-03 0.366D-02 0.209D-01
 Coeff-Com:  0.145D-01-0.546D-01-0.156D+00-0.397D-01-0.286D-01 0.101D+00
 Coeff-Com:  0.800D-01 0.566D+00 0.494D+00
 Coeff:     -0.127D-02-0.233D-03-0.274D-04 0.875D-03 0.366D-02 0.209D-01
 Coeff:      0.145D-01-0.546D-01-0.156D+00-0.397D-01-0.286D-01 0.101D+00
 Coeff:      0.800D-01 0.566D+00 0.494D+00
 Gap=     0.015 Goal=   None    Shift=    0.000
 Gap=     0.015 Goal=   None    Shift=    0.000
 RMSDP=1.31D-07 MaxDP=1.16D-05 DE= 1.23D-10 OVMax= 7.00D-08

 Cycle  38  Pass 1  IDiag  1:
 RMSU=  9.34D-09    CP:  1.00D+00  1.83D+00 -6.03D-01 -1.68D+00 -3.00D+00
                    CP:  2.40D+00  3.00D+00  1.34D+00  3.00D+00 -3.00D+00
                    CP: -1.91D+00  3.46D-01 -2.92D+00  3.00D+00  1.49D+00
                    CP:  1.19D+00  1.42D+00
 E= -652.923996499840     Delta-E=        0.000000000012 Rises=F Damp=F
 DIIS: error= 3.14D-10 at cycle  38 NSaved=  16.
 NSaved=16 IEnMin= 3 EnMin= -652.923996500563     IErMin=16 ErrMin= 3.14D-10
 ErrMax= 3.14D-10  0.00D+00 EMaxC= 1.00D-01 BMatC= 1.91D-16 BMatP= 5.13D-16
 IDIUse=1 WtCom= 1.00D+00 WtEn= 0.00D+00
 Large coefficients: NSaved= 16 BigCof=    0.00 CofMax=   10.00 Det=-2.12D-16
 Inversion failed.  Reducing to 15 matrices.
 Coeff-Com:  0.894D-04-0.169D-03 0.206D-03-0.446D-03-0.516D-03-0.512D-02
 Coeff-Com: -0.114D-01-0.302D-01 0.980D-01-0.133D+00 0.686D-01 0.405D-01
 Coeff-Com:  0.764D-01 0.200D+00 0.698D+00
 Coeff:      0.894D-04-0.169D-03 0.206D-03-0.446D-03-0.516D-03-0.512D-02
 Coeff:     -0.114D-01-0.302D-01 0.980D-01-0.133D+00 0.686D-01 0.405D-01
 Coeff:      0.764D-01 0.200D+00 0.698D+00
 Gap=     0.015 Goal=   None    Shift=    0.000
 Gap=     0.015 Goal=   None    Shift=    0.000
 RMSDP=1.89D-07 MaxDP=1.41D-05 DE= 1.16D-11 OVMax= 6.15D-08

 Cycle  39  Pass 1  IDiag  1:
 RMSU=  1.27D-08    CP:  1.00D+00  1.83D+00 -6.04D-01 -1.68D+00 -3.00D+00
                    CP:  2.40D+00  3.00D+00  1.34D+00  3.00D+00 -3.00D+00
                    CP: -1.88D+00  3.82D-01 -2.96D+00  3.00D+00  1.51D+00
                    CP:  1.21D+00  1.81D+00  2.08D+00
 E= -652.923996499851     Delta-E=       -0.000000000012 Rises=F Damp=F
 DIIS: error= 1.80D-10 at cycle  39 NSaved=  16.
 NSaved=16 IEnMin= 2 EnMin= -652.923996500563     IErMin=16 ErrMin= 1.80D-10
 ErrMax= 1.80D-10  0.00D+00 EMaxC= 1.00D-01 BMatC= 5.50D-17 BMatP= 1.91D-16
 IDIUse=1 WtCom= 1.00D+00 WtEn= 0.00D+00
 Large coefficients: NSaved= 16 BigCof=    0.00 CofMax=   10.00 Det=-1.34D-16
 Inversion failed.  Reducing to 15 matrices.
 Coeff-Com:  0.168D-04-0.476D-04 0.221D-03-0.262D-02-0.446D-02 0.872D-02
 Coeff-Com: -0.280D-02 0.478D-01-0.671D-01 0.219D-01 0.176D-01-0.158D-01
 Coeff-Com:  0.822D-01 0.421D+00 0.493D+00
 Coeff:      0.168D-04-0.476D-04 0.221D-03-0.262D-02-0.446D-02 0.872D-02
 Coeff:     -0.280D-02 0.478D-01-0.671D-01 0.219D-01 0.176D-01-0.158D-01
 Coeff:      0.822D-01 0.421D+00 0.493D+00
 Gap=     0.015 Goal=   None    Shift=    0.000
 Gap=     0.015 Goal=   None    Shift=    0.000
 RMSDP=7.52D-08 MaxDP=9.58D-06 DE=-1.16D-11 OVMax= 4.81D-08

 Cycle  40  Pass 1  IDiag  1:
 RMSU=  8.31D-09    CP:  1.00D+00  1.83D+00 -6.04D-01 -1.68D+00 -3.00D+00
                    CP:  2.40D+00  3.00D+00  1.34D+00  3.00D+00 -3.00D+00
                    CP: -1.92D+00  3.58D-01 -2.98D+00  3.00D+00  1.53D+00
                    CP:  1.22D+00  1.83D+00  2.25D+00  9.66D-02
 E= -652.923996499824     Delta-E=        0.000000000028 Rises=F Damp=F
 DIIS: error= 1.68D-10 at cycle  40 NSaved=  16.
 NSaved=16 IEnMin= 2 EnMin= -652.923996500563     IErMin=16 ErrMin= 1.68D-10
 ErrMax= 1.68D-10  0.00D+00 EMaxC= 1.00D-01 BMatC= 2.49D-17 BMatP= 5.50D-17
 IDIUse=1 WtCom= 1.00D+00 WtEn= 0.00D+00
 Large coefficients: NSaved= 16 BigCof=    0.00 CofMax=   10.00 Det=-4.86D-17
 Inversion failed.  Reducing to 15 matrices.
 Coeff-Com: -0.464D-04 0.535D-04 0.316D-04-0.205D-02-0.274D-02 0.359D-02
 Coeff-Com:  0.203D-01-0.159D-01 0.120D-02 0.168D-02-0.510D-01-0.160D-01
 Coeff-Com:  0.116D+00 0.291D+00 0.654D+00
 Coeff:     -0.464D-04 0.535D-04 0.316D-04-0.205D-02-0.274D-02 0.359D-02
 Coeff:      0.203D-01-0.159D-01 0.120D-02 0.168D-02-0.510D-01-0.160D-01
 Coeff:      0.116D+00 0.291D+00 0.654D+00
 Gap=     0.015 Goal=   None    Shift=    0.000
 Gap=     0.015 Goal=   None    Shift=    0.000
 RMSDP=7.75D-08 MaxDP=4.62D-06 DE= 2.75D-11 OVMax= 2.37D-08

 Cycle  41  Pass 1  IDiag  1:
 Restarting incremental Fock formation.
 E= -652.923996499949     Delta-E=       -0.000000000125 Rises=F Damp=F
 DIIS: error= 1.17D-09 at cycle  41 NSaved=  16.
 NSaved=16 IEnMin= 2 EnMin= -652.923996500563     IErMin=15 ErrMin= 1.68D-10
 ErrMax= 1.17D-09  0.00D+00 EMaxC= 1.00D-01 BMatC= 2.03D-16 BMatP= 2.49D-17
 IDIUse=1 WtCom= 1.00D+00 WtEn= 0.00D+00
 Large coefficients: NSaved= 16 BigCof=    0.00 CofMax=   10.00 Det=-1.86D-17
 Inversion failed.  Reducing to 15 matrices.
 Coeff-Com: -0.377D-04 0.444D-04 0.363D-04-0.204D-02-0.254D-02 0.371D-02
 Coeff-Com:  0.185D-01-0.119D-01-0.675D-03-0.501D-01-0.180D-01 0.104D+00
 Coeff-Com:  0.280D+00 0.653D+00 0.255D-01
 Coeff:     -0.377D-04 0.444D-04 0.363D-04-0.204D-02-0.254D-02 0.371D-02
 Coeff:      0.185D-01-0.119D-01-0.675D-03-0.501D-01-0.180D-01 0.104D+00
 Coeff:      0.280D+00 0.653D+00 0.255D-01
 Gap=     0.015 Goal=   None    Shift=    0.000
 Gap=     0.015 Goal=   None    Shift=    0.000
 RMSDP=3.11D-08 MaxDP=4.24D-06 DE=-1.25D-10 OVMax= 2.32D-09

 Cycle  42  Pass 1  IDiag  1:
 RMSU=  2.32D-08    CP:  1.00D+00
 E= -652.923996500031     Delta-E=       -0.000000000083 Rises=F Damp=F
 DIIS: error= 1.14D-09 at cycle  42 NSaved=  16.
 NSaved=16 IEnMin= 2 EnMin= -652.923996500563     IErMin=14 ErrMin= 1.68D-10
 ErrMax= 1.14D-09  0.00D+00 EMaxC= 1.00D-01 BMatC= 1.94D-16 BMatP= 2.49D-17
 IDIUse=1 WtCom= 1.00D+00 WtEn= 0.00D+00
 Large coefficients: NSaved= 16 BigCof=    0.00 CofMax=   10.00 Det=-5.80D-19
 Inversion failed.  Reducing to 15 matrices.
 Coeff-Com:  0.154D-04-0.180D-04 0.862D-04-0.204D-02-0.233D-02 0.354D-02
 Coeff-Com:  0.112D-01-0.718D-02-0.507D-01-0.211D-01 0.929D-01 0.281D+00
 Coeff-Com:  0.662D+00-0.225D+00 0.257D+00
 Coeff:      0.154D-04-0.180D-04 0.862D-04-0.204D-02-0.233D-02 0.354D-02
 Coeff:      0.112D-01-0.718D-02-0.507D-01-0.211D-01 0.929D-01 0.281D+00
 Coeff:      0.662D+00-0.225D+00 0.257D+00
 Gap=     0.015 Goal=   None    Shift=    0.000
 Gap=     0.015 Goal=   None    Shift=    0.000
 RMSDP=1.54D-08 MaxDP=2.40D-06 DE=-8.28D-11 OVMax= 6.91D-09

 Cycle  43  Pass 1  IDiag  1:
 RMSU=  9.53D-09    CP:  1.00D+00  1.40D+00
 E= -652.923996500028     Delta-E=        0.000000000003 Rises=F Damp=F
 DIIS: error= 1.13D-09 at cycle  43 NSaved=  16.
 NSaved=16 IEnMin= 2 EnMin= -652.923996500563     IErMin=13 ErrMin= 1.68D-10
 ErrMax= 1.13D-09  0.00D+00 EMaxC= 1.00D-01 BMatC= 1.90D-16 BMatP= 2.49D-17
 IDIUse=1 WtCom= 1.00D+00 WtEn= 0.00D+00
 Large coefficients: NSaved= 16 BigCof=    0.00 CofMax=   10.00 Det=-4.93D-19
 Inversion failed.  Reducing to 15 matrices.
 Coeff-Com: -0.186D-04 0.320D-04 0.212D-04-0.135D-02-0.202D-02 0.121D-01
 Coeff-Com: -0.761D-02-0.466D-01-0.215D-01 0.787D-01 0.255D+00 0.694D+00
 Coeff-Com: -0.393D+00 0.117D+00 0.315D+00
[...]
 0211480,-0.00036913,-0.00143724,0.00074113,-0.00057739,0.00037870,0.00
 059544,0.00039558,0.00035136,-0.00090819,-0.00098699,-0.00029921,0.000
 69098,0.00204192,-0.00094358,0.00006126,-0.00128251,-0.00092636,0.0002
 3402,-0.00041526,-0.00018251,-0.00031616,0.00021859,0.00063458,-0.0002
 1955,0.00007264,-0.00011010,0.00044361,-0.00032634,0.00052180,-0.00055
 182,-0.00079444,0.31008775,-0.00026976,0.00064732,0.00007369,-0.000636
 48,-0.00032252,-0.00023545,0.00060044,-0.00015678,-0.00008359,0.000473
 76,-0.00600546,-0.00079141,-0.02850435,-0.00267307,-0.00226823,-0.0752
 6327,-0.08220207,-0.01878412,0.01987454,0.01020766,0.00506090,0.002874
 96,-0.00383054,-0.00189330,-0.00002351,0.00186257,-0.00019107,0.000826
 84,-0.00012942,0.00064020,-0.00041453,-0.00074848,-0.00098022,0.000487
 56,0.00025406,0.00102778,-0.00050322,0.00020632,-0.00050186,-0.0007044
 5,0.00014860,-0.00012803,-0.00016963,-0.00024459,0.00012192,0.00047624
 ,0.00011118,-0.00001432,-0.00115794,-0.00004119,-0.00031466,0.00062917
 ,0.00123412,-0.00019378,0.08147234,0.08125705,-0.00019583,-0.00062980,
 -0.00006908,0.00027820,0.00076104,-0.00066945,-0.00079866,0.00039714,0
 .00039081,0.00068243,-0.00182769,0.00461160,-0.00645718,0.00051257,-0.
 00101830,-0.03995037,-0.01642954,-0.04247331,0.00094693,-0.00043758,0.
 00207032,0.00026488,-0.00246993,0.00908511,-0.00130554,0.00046472,-0.0
 0072391,0.00149324,0.00000143,0.00030486,-0.00088535,-0.00061289,0.000
 77731,0.00063543,0.00005573,-0.00080705,-0.00030669,-0.00035256,0.0000
 5114,0.00038593,0.00035493,0.00017413,-0.00049456,-0.00020390,0.000016
 89,0.00055569,0.00048280,-0.00028564,-0.00035214,-0.00025958,0.0001121
 0,0.00078657,-0.00029004,-0.00065623,0.04438056,0.01873663,0.03280019,
 -0.00061473,-0.00042620,-0.00033367,0.00137611,-0.00084725,-0.00003026
 ,-0.00555978,0.00007106,-0.00046734,-0.00047191,0.00036454,0.00026882,
 -0.00315533,0.00202441,-0.00076933,0.00818615,0.02426455,0.00451942,-0
 .06591517,-0.04840205,-0.01143886,-0.00332552,-0.02707742,-0.00500272,
 0.00013509,-0.00297872,-0.00102802,-0.00004221,0.00018056,-0.00019145,
 0.00007844,0.00016832,0.00009235,-0.00022925,0.00022682,0.00040487,0.0
 0007925,-0.00049369,-0.00026486,0.00018926,0.00025581,-0.00000314,0.00
 018930,0.00003746,0.00011542,-0.00035810,-0.00018334,0.00003384,0.0001
 3684,-0.00005030,0.00006898,0.00015819,0.00142534,0.00002346,0.0010040
 4,-0.00068809,0.00042764,0.06895564,-0.00033196,0.00052844,-0.00035583
 ,0.00056826,-0.00114087,0.00057604,-0.00136906,0.00170755,0.00073478,-
 0.00037650,0.00112702,0.00005995,0.00520709,-0.00044460,-0.00120764,-0
 .00638414,-0.01733918,-0.00394151,-0.04892341,-0.29761696,-0.04782063,
 -0.00154697,-0.00931156,-0.00285209,0.00457403,-0.00012722,-0.00045369
 ,-0.00148179,0.00019259,-0.00016072,0.00122929,0.00064173,0.00005568,-
 0.00102492,0.00025709,0.00082908,-0.00010650,-0.00011094,-0.00052302,-
 0.00010909,0.00012448,-0.00018738,0.00032039,-0.00002664,0.00012003,-0
 .00038564,-0.00048211,-0.00014990,-0.00004327,-0.00013876,0.00014991,-
 0.00057171,-0.00065247,-0.00065179,-0.00013883,0.00059921,0.00143473,0
 .05042181,0.32062426,-0.00012410,-0.00021240,-0.00029049,0.00023945,-0
 .00009533,0.00051204,-0.00159373,-0.00051810,0.00452134,0.00013384,0.0
 0009056,-0.00061136,-0.00030433,-0.00088412,0.00700069,-0.00020396,-0.
 00098841,0.00268935,-0.01206122,-0.04717034,-0.04342622,-0.00078631,-0
 .00514661,0.00258701,0.00059274,0.00000368,-0.00345706,0.00057298,0.00
 043407,0.00029728,-0.00041131,-0.00052950,0.00018006,0.00034603,0.0001
 1093,-0.00003428,-0.00022713,0.00000241,-0.00027764,0.00001534,0.00011
 952,0.00004925,-0.00021646,-0.00006085,-0.00008063,0.00032227,0.000184
 13,0.00014928,0.00008481,0.00012401,-0.00076052,-0.00015362,-0.0001536
 2,0.00024232,0.00043848,0.00072064,-0.00372666,0.01337897,0.05369194,0
 .03421893,0.00032239,-0.00030654,-0.00000730,-0.00117271,0.00026008,-0
 .00026942,-0.00210396,0.00254747,-0.00004347,0.00016182,0.00050146,0.0
 0035433,0.00010914,0.00101299,0.00011289,0.00085970,-0.00118253,-0.000
 39616,-0.00240945,0.00430538,0.00107255,0.00849057,0.01568305,0.002225
 42,-0.09818904,-0.09480576,-0.01803388,-0.01309305,-0.02920814,-0.0049
 6869,-0.00532729,0.00088990,-0.00193230,0.00079781,-0.00100695,0.00004
 077,-0.00072972,-0.00004077,0.00022184,0.00071888,0.00031824,-0.000015
 56,-0.00067590,-0.00051102,0.00008820,0.00088629,0.00087689,0.00025533
 ,-0.00020280,0.00018315,0.00006604,-0.00000042,-0.00003094,-0.00002422
 ,-0.00005254,-0.00008298,0.00002535,-0.00061167,0.00034112,-0.00006264
 ,0.11229254,0.00000862,0.00108520,0.00012992,-0.00032973,-0.00116562,-
 0.00007078,0.00591379,-0.00017308,0.00065015,-0.00170466,-0.00111015,-
 0.00028494,0.00031764,0.00073395,0.00005222,0.00055188,0.00014182,-0.0
 0008205,-0.00321832,0.00001784,-0.00079028,-0.01107027,-0.02500212,-0.
 00611822,-0.09385070,-0.26196276,-0.03427772,0.00037119,-0.00100608,-0
 .00113817,0.00131698,0.00327507,-0.00195888,-0.00070565,-0.00054752,-0
 .00050003,0.00034862,0.00084290,0.00039191,-0.00040511,-0.00064278,-0.
 00006955,0.00018731,0.00040015,-0.00001620,-0.00013788,-0.00049018,0.0
 0012444,0.00038751,-0.00039750,0.00011901,0.00002703,0.00010411,0.0000
 2974,-0.00003723,-0.00000470,0.00029634,0.00154102,0.00176179,0.000351
 93,0.10051305,0.28240296,-0.00000539,0.00011395,-0.00021694,0.00008931
 ,-0.00017508,0.00015524,0.00008142,-0.00062981,0.00342431,-0.00044378,
 -0.00018212,0.00043314,0.00018471,0.00078549,0.00021251,0.00068041,-0.
 00065549,-0.00009951,-0.00141036,0.00103957,-0.00287589,0.00113362,-0.
 00324501,0.00177320,-0.01924621,-0.03564166,-0.03643480,-0.00076317,-0
 .00298774,0.00276263,-0.00107693,-0.00065020,0.00741208,0.00049279,-0.
 00011747,-0.00102241,-0.00069299,0.00017302,-0.00012730,-0.00036729,0.
 00013554,-0.00001807,-0.00012064,-0.00012993,-0.00049122,0.00023712,0.
 00039466,0.00008526,-0.00005233,-0.00018060,0.00005988,-0.00005120,-0.
 00008976,-0.00001978,-0.00040709,-0.00008719,0.00014979,0.00018420,0.0
 0054743,0.00004984,0.02046662,0.04124390,0.02899908,0.00008828,0.00047
 744,0.00005524,0.00059119,-0.00038805,0.00016520,-0.00024274,-0.001400
 52,-0.00021591,0.00016632,0.00041337,0.00015815,-0.00007144,-0.0010780
 2,-0.00023937,-0.00108990,0.00071560,0.00020751,0.00103599,0.00083977,
 0.00002360,-0.00517279,-0.00004120,-0.00179382,-0.01351539,0.02998047,
 0.00290787,-0.10109391,0.09963553,0.00979602,0.00787919,-0.01642439,-0
 .00217809,-0.00165046,-0.00383413,-0.00044121,0.00085491,0.00046469,0.
 00014829,-0.00056329,-0.00063883,0.00011996,0.00127833,-0.00021886,-0.
 00021488,-0.00380676,-0.00274232,0.00000243,-0.00002975,0.00001566,0.0
 0001321,-0.00001419,0.00004199,0.00003373,-0.00003581,0.00015293,0.000
 03594,0.00000061,-0.00007049,-0.00002001,0.00013984,-0.00003301,0.0006
 6734,0.11622480,0.00049772,0.00099759,0.00016891,-0.00136656,-0.001119
 55,0.00001961,0.00111188,-0.00001964,-0.00008775,-0.00052360,0.0003534
 1,-0.00012804,0.00039939,-0.00012597,0.00002892,-0.00007678,0.00049117
 ,0.00062450,0.00117579,-0.00024543,-0.00118456,-0.00170718,0.00218219,
 0.00042286,-0.00007208,-0.00120371,0.00013821,0.09781078,-0.26630095,-
 0.02537430,0.01203714,-0.02330732,-0.00320984,0.00258848,-0.00045395,0
 .00026031,-0.00058367,0.00116317,0.00008102,-0.00022167,0.00009693,-0.
 00024970,0.00130861,-0.00094497,-0.00035789,-0.00484896,-0.00126561,-0
 .00037434,0.00002404,-0.00001265,-0.00000901,-0.00000574,0.00002778,-0
 .00006624,-0.00006366,-0.00009065,-0.00001228,-0.00009765,-0.00033448,
 0.00002689,-0.00023979,0.00196543,0.00073623,-0.10555627,0.28698362,-0
 .00014838,-0.00068472,-0.00021038,-0.00008051,0.00087799,0.00017809,-0
 .00043551,0.00054316,-0.00031983,0.00009793,-0.00005011,-0.00020897,0.
 00007765,0.00063725,0.00029875,0.00081092,-0.00022628,-0.00057812,-0.0
 0108055,-0.00001601,0.00058553,0.00051286,-0.00232989,0.00741832,-0.00
 559272,0.00287998,0.00126047,0.01353725,-0.02690316,-0.03019140,0.0006
 0884,-0.00513578,0.00196984,0.00123454,0.00086766,-0.00191218,-0.00117
 025,-0.00014004,-0.00025327,0.00005938,0.00038552,-0.00016424,-0.00066
 497,-0.00070946,0.00042418,0.00042314,0.00019676,0.00310961,-0.0000415
 2,-0.00005222,0.00005870,0.00001162,-0.00007079,-0.00002849,-0.0001429
 3,-0.00005281,-0.00015474,0.00002815,-0.00004235,0.00000630,0.00098089
 ,0.00178455,-0.00443589,-0.00905484,0.02795633,0.02293644,-0.00059266,
 0.00087257,0.00035764,0.00134491,0.00054099,0.00003024,-0.00019239,0.0
 0015208,0.00006765,0.00005063,-0.00013743,-0.00005042,0.00001309,0.000
 15847,-0.00004438,0.00043460,-0.00002755,0.00027276,-0.00026256,0.0001
 1796,-0.00035928,0.00021430,-0.00060911,0.00010337,-0.00026920,-0.0000
 8842,-0.00024704,0.00012880,0.00309121,0.00064194,-0.00381160,0.027284
 51,0.00386214,-0.06823033,0.05540313,0.00947295,0.00812787,-0.02373533
 ,-0.00346369,-0.00314937,-0.00261027,-0.00003519,-0.00100176,-0.000441
 51,0.00004478,-0.00571177,0.00060327,0.00060452,0.00004657,-0.00001751
 ,0.00001325,-0.00002397,-0.00000982,-0.00005121,-0.00009788,-0.0000577
 1,-0.00004001,-0.00012227,-0.00017270,0.00001145,-0.00003964,0.0000643
 2,0.00013157,-0.00052053,-0.00149817,-0.00022501,0.07213971,0.00064078
 ,0.00041751,-0.00016706,-0.00163843,-0.00107034,0.00009533,0.00114052,
 -0.00001725,-0.00030895,-0.00039313,0.00026302,0.00013186,0.00012599,-
 0.00005807,-0.00012218,-0.00088317,-0.00024063,0.00024493,0.00060990,-
 0.00009994,-0.00062755,-0.00066915,0.00006407,0.00031735,0.00043236,0.
 00044760,0.00046967,-0.00324455,-0.00029100,0.00032123,0.00040652,-0.0
 0806560,-0.00178564,0.05647941,-0.30309854,-0.03885824,0.00736079,-0.0
 1691848,-0.00346945,-0.00396243,-0.00108379,-0.00130027,-0.00035891,0.
 00096850,0.00004737,0.00201843,0.00131902,-0.00017805,-0.00002271,0.00
 002928,-0.00005927,0.00000715,0.00005686,0.00006653,0.00022883,0.00020
 130,0.00010111,0.00007653,0.00015702,-0.00000183,0.00010319,-0.0001733
 3,-0.00016763,-0.00032680,0.00170526,0.00030934,-0.05812631,0.32539604
 ,-0.00000930,-0.00044751,-0.00069489,-0.00058190,0.00034781,0.00070943
 ,-0.00016762,0.00039654,-0.00004195,0.00000137,-0.00010985,-0.00001400
 ,0.00002953,0.00030368,0.00009217,0.00009783,-0.00042250,-0.00015992,-
 0.00055616,0.00009728,0.00016681,0.00063044,-0.00067466,0.00016239,-0.
 00121776,0.00038756,-0.00098093,0.00054592,0.00045508,-0.00295787,0.00
 041078,-0.00376944,0.00258913,0.01029085,-0.03803033,-0.03518027,-0.00
 129177,-0.00187331,0.00069360,0.00014787,-0.00111220,0.00565387,-0.000
 45780,-0.00017474,-0.00047540,0.00162135,-0.00026012,0.00518302,0.0000
 0400,0.00003662,-0.00003697,0.00000015,0.00000908,-0.00000193,0.000085
 61,0.00001879,0.00001256,-0.00002034,0.00000032,0.00004702,-0.00009078
 ,0.00000810,-0.00000138,-0.00003263,0.00020497,0.00063914,-0.01083351,
 0.04393828,0.02782263,-0.00015957,0.00018715,-0.00024999,0.00010598,-0
 .00022124,0.00050665,0.00009518,-0.00004538,-0.00042946,0.00006064,0.0
 0019412,0.00026090,-0.00046419,-0.00036296,-0.00062967,-0.00206000,-0.
 00059227,0.00240625,0.00096033,-0.00048641,-0.00491501,-0.00063874,0.0
 0104424,0.00286373,0.00016132,-0.00188479,0.00056517,-0.00103151,0.000
 54725,-0.00001107,-0.00146864,-0.00249182,-0.00206118,-0.01758227,0.00
 832840,-0.00111175,-0.28992284,0.07532722,0.02503584,-0.00225996,-0.00
 034842,0.00038635,0.00160885,0.00204740,0.00078278,0.00031653,-0.00004
 429,-0.00000207,0.00005320,0.00008831,-0.00018949,0.00021098,0.0001060
 6,0.00018262,0.00103080,0.00051746,0.00001927,-0.00012140,0.00028903,0
 .00006496,-0.00009519,-0.00001784,0.00030544,-0.00022419,0.00029676,0.
 00024463,0.00127544,-0.00054941,0.00089907,0.30974349,0.00036175,0.000
 14129,-0.00001904,-0.00000210,0.00008935,-0.00003437,-0.00016886,-0.00
 016306,0.00028372,0.00008368,-0.00001729,-0.00020219,0.00012626,0.0001
 1585,0.00037013,0.00057087,0.00025243,-0.00098882,-0.00038232,0.000134
 33,0.00223784,0.00057683,-0.00014769,-0.00147044,-0.00020824,0.0003168
 2,0.00001858,-0.00016020,0.00055691,0.00029572,-0.00309593,-0.00234559
 ,-0.00072819,-0.02007808,0.01095518,0.00254887,0.07425298,-0.08474613,
 -0.00948867,0.02951628,-0.00270045,-0.00169772,-0.00013553,-0.00545398
 ,-0.00235674,-0.00029608,-0.00109405,-0.00029353,-0.00006755,-0.000019
 10,0.00010044,-0.00008001,-0.00007292,-0.00008165,-0.00030334,-0.00022
 118,-0.00004945,0.00013533,0.00000149,-0.00009014,-0.00007366,-0.00007
 486,-0.00025754,0.00010094,-0.00010109,-0.00017591,0.00057243,0.001012
 21,0.00061007,-0.08187189,0.08234707,0.00017951,-0.00097833,-0.0000591
 4,-0.00063696,0.00104710,-0.00132203,-0.00061078,0.00030317,0.00058173
 ,0.00017219,-0.00009452,-0.00002084,-0.00006311,0.00044525,0.00016253,
 0.00015708,-0.00059019,-0.00029037,-0.00073742,0.00017624,-0.00028617,
 0.00107835,-0.00060437,0.00001525,-0.00129634,0.00021494,-0.00066902,0
 .00136181,0.00083623,-0.00074510,-0.00088965,-0.00270657,0.01057431,-0
 .00074289,-0.00048992,0.00427769,0.02068203,-0.00669719,-0.05106270,0.
 00524943,-0.00150961,0.00484164,-0.00052537,-0.00231175,0.00666595,0.0
 0080090,0.00093183,-0.00053836,0.00002060,0.00008344,-0.00010024,0.000
 08039,-0.00004587,0.00003762,0.00011903,0.00002516,0.00017840,-0.00003
 346,-0.00001340,0.00013260,-0.00002098,0.00016376,0.00028329,-0.000032
 03,0.00016106,-0.00016476,0.00003367,0.00085634,-0.00346512,-0.0241211
 0,0.01043057,0.03369727,0.00005946,-0.00032780,-0.00018407,-0.00045978
 ,-0.00101457,-0.00013561,-0.00103011,0.00047703,0.00084031,0.00032218,
 -0.00029836,-0.00021871,-0.00031049,0.00029967,-0.00014606,0.00019514,
 -0.00043766,0.00054095,-0.00064392,0.00002484,-0.00040382,0.00100219,-
 0.00024574,0.00001403,-0.00119199,0.00025996,-0.00025335,0.00164684,0.
 00021928,0.00026077,-0.00160892,0.00051521,0.00073341,0.00217488,0.001
 25497,-0.00036275,0.00776378,0.00491097,-0.00054654,-0.19717457,-0.132
 15679,-0.00855708,-0.01760022,-0.02224724,-0.00354218,-0.00333943,0.00
 405522,-0.00061691,-0.00004561,0.00000771,0.00002119,-0.00005594,0.000
 01871,-0.00001192,0.00013881,0.00009837,-0.00014356,-0.00002237,0.0000
 4848,-0.00003343,-0.00001868,0.00002092,0.00004280,-0.00001211,0.00000
 105,0.00005268,0.00015959,0.00055092,0.00046005,0.00051350,-0.00054439
 ,-0.00044366,0.20824287,-0.00036899,-0.00033072,-0.00016697,0.00083844
 ,0.00075472,0.00008829,-0.00045257,-0.00030232,0.00035926,0.00022783,-
 0.00003623,-0.00013056,-0.00010662,-0.00015781,0.00007170,0.00012522,0
 .00021065,-0.00033819,-0.00007512,-0.00002195,0.00078427,0.00013708,0.
 00033814,-0.00034416,0.00013704,-0.00009302,-0.00015352,-0.00005972,0.
 00017747,-0.00008556,0.00070563,-0.00053118,0.00034053,0.00326248,-0.0
 0403839,-0.00168925,-0.02520781,-0.01686587,-0.00233767,-0.13116942,-0
 .18020810,-0.01515353,0.00747970,0.00861240,0.00042855,0.00179967,0.00
 102769,-0.00187376,-0.00001016,-0.00001356,0.00003567,-0.00003816,-0.0
 0000851,0.00001093,-0.00004891,-0.00005537,-0.00006223,0.00004603,0.00
 002924,-0.00002406,-0.00002198,0.00000867,-0.00002395,0.00007958,0.000
 00204,0.00006016,-0.00135479,-0.00083258,0.00000378,0.00045685,0.00119
 534,0.00039675,0.14410495,0.19055746,0.00013426,-0.00052609,-0.0000904
 2,-0.00014657,0.00065421,-0.00012590,0.00007390,0.00006215,0.00087582,
 0.00014099,0.00002588,-0.00006478,-0.00010186,0.00008739,0.00009614,-0
 .00061217,-0.00057150,-0.00010613,-0.00021474,-0.00021327,0.00030922,0
 .00068279,0.00022229,-0.00053692,-0.00088494,-0.00000424,-0.00032488,0
 .00073034,0.00009984,-0.00096683,-0.00072701,0.00001878,-0.00001675,0.
 00086289,-0.00218424,0.00619437,-0.00270951,-0.00407204,-0.00167908,-0
 .01095008,-0.01640229,-0.02826868,0.00187108,0.00241645,0.00138459,0.0
 0123991,-0.00066771,0.00507814,-0.00000485,0.00004274,-0.00000744,0.00
 008376,0.00002078,0.00004158,0.00027744,0.00008079,-0.00009541,0.00005
 442,0.00017788,0.00000258,-0.00002669,-0.00005036,0.00001930,-0.000020
 88,0.00006163,0.00017609,-0.00030745,0.00000553,0.00077085,-0.00138654
 ,0.00122762,-0.00277852,0.01224135,0.01891490,0.02324067,-0.00322681,0
 .00532645,0.00106493,-0.00309815,-0.00648793,-0.00169379,0.00355281,0.
 00118695,0.00076229,-0.00129235,0.00068715,0.00006018,0.00075649,0.000
 05111,0.00022803,-0.00083623,0.00012729,-0.00025389,0.00103696,-0.0000
 4640,0.00035259,-0.00096796,-0.00031403,-0.00046344,0.00116780,-0.0001
 1459,0.00021380,-0.00064738,-0.00152159,-0.00036562,-0.00260170,-0.001
 73395,0.00031836,-0.00213706,-0.00079453,0.00005651,-0.00434516,0.0013
 6811,0.00041688,-0.00323599,0.02684125,0.00467086,-0.06733567,0.062668
 58,0.01107137,0.01017055,-0.02166125,-0.00370110,-0.00012213,0.0000239
 8,-0.00003214,-0.00002207,0.00003404,-0.00000578,-0.00000539,-0.000008
 67,0.00001181,0.00006078,0.00003750,-0.00000307,-0.00005691,-0.0000594
 7,-0.00005995,-0.00021618,-0.00038987,-0.00004328,0.00009042,-0.000006
 34,0.00003476,-0.00010776,0.00117084,0.00021878,0.00129491,-0.00048625
 ,-0.00029982,0.07212417,0.00527288,0.00242082,0.00009611,0.00162343,-0
 .00429305,-0.00086679,0.00012021,-0.00022634,0.00017621,-0.00005237,0.
 00012708,-0.00012166,0.00006937,-0.00018478,0.00000325,-0.00017158,0.0
 0028676,-0.00013684,0.00041595,-0.00005343,0.00007209,-0.00050299,0.00
 045498,-0.00002991,0.00081299,-0.00027437,0.00010288,0.00016436,-0.000
 47293,-0.00033045,-0.00350790,-0.00097854,-0.00153425,-0.00073817,0.00
 053683,0.00048083,0.00160973,0.00139910,-0.00071901,-0.00045032,-0.002
 02400,-0.00058249,0.05860290,-0.31204897,-0.04757347,0.00294825,-0.019
 36376,-0.00323252,0.00000561,0.00004541,0.00000096,-0.00001926,-0.0000
 1600,0.00004957,-0.00003626,-0.00000337,0.00003828,0.00000513,-0.00002
 611,0.00001462,-0.00002492,0.00001080,0.00005138,-0.00016508,-0.000442
 61,0.00009081,0.00002571,-0.00008814,0.00005670,-0.00051355,0.00003913
 ,-0.00003012,0.00040426,0.00058176,0.00057289,-0.06589839,0.33459372,0
 .00153677,0.00003371,-0.00135246,0.00118369,0.00012638,-0.00350951,-0.
 00114756,-0.00053377,-0.00040743,0.00023404,-0.00024045,0.00026188,-0.
 00018118,-0.00025446,-0.00004642,0.00012136,0.00030143,0.00020192,0.00
 011376,-0.00000752,-0.00001932,-0.00032391,0.00048827,0.00016781,0.000
 54595,-0.00022383,0.00000249,-0.00049371,-0.00035711,0.00034711,0.0008
 7494,-0.00048353,0.00660012,-0.00033406,0.00008924,-0.00072620,0.00012
 106,-0.00009479,0.00605851,-0.00090777,-0.00205229,0.00213824,0.011918
 84,-0.04866342,-0.04441074,-0.00149977,-0.00249152,0.00379910,0.000007
 26,0.00000153,0.00003970,-0.00003273,0.00000103,-0.00009082,-0.0000367
 0,0.00001355,-0.00005542,-0.00001710,-0.00001782,-0.00002104,-0.000018
 13,0.00001120,-0.00007638,-0.00009082,0.00016249,-0.00043919,0.0000092
 6,0.00014127,-0.00053198,0.00058367,-0.00018915,0.00005407,0.00039211,
 0.00088861,-0.00312759,-0.01255926,0.05335094,0.03514357\\0.00004184,-
 0.00003432,-0.00000141,-0.00003368,0.00003877,0.00000609,0.00000516,-0
 .00006441,-0.00001783,0.00000801,0.00000606,-0.00000010,-0.00000655,-0
 .00003181,-0.00000146,-0.00001080,0.00003825,0.00000432,0.00006453,-0.
 00002260,0.00000093,-0.00004844,0.00008697,0.00002694,0.00003647,-0.00
 001449,0.00000505,-0.00004927,-0.00001908,-0.00003405,0.00006144,0.000
 05276,0.00002413,-0.00007704,-0.00001234,0.00001694,0.00003119,0.00001
 877,0.00000145,-0.00001420,-0.00000454,0.00000173,-0.00003693,0.000005
 64,0.00000064,0.00001031,-0.00005206,-0.00002275,-0.00000560,-0.000005
 34,-0.00000365,-0.00000031,-0.00000098,-0.00000187,-0.00000209,0.00000
 255,0.00000244,-0.00000804,0.00000446,-0.00000037,0.00000099,0.0000001
 3,-0.00000352,0.00000598,0.00000347,-0.00000063,0.00000975,0.00000194,
 0.00000166,-0.00000292,0.00000134,-0.00000185,0.00000603,-0.00000204,-
 0.00000432,0.00001417,0.00000289,0.00000149\\\@


 THE BEST WAY TO CONVINCE A FOOL THAT HE IS WRONG 
 IS TO LET HIM HAVE HIS OWN WAY.

                                         JOSH BILLINGS
 Job cpu time:       0 days  6 hours 30 minutes 25.7 seconds.
 Elapsed time:       0 days  0 hours 54 minutes 17.8 seconds.
 File lengths (MBytes):  RWF=    843 Int=      0 D2E=      0 Chk=     20 Scr=      1
 Normal termination of Gaussian 16 at Tue Jan  9 21:36:24 2024.
