
Running Job 1 of 1 277-an-SM12.in
qchem 277-an-SM12.in_2736218.0 /expanse/lustre/scratch/selhajj/temp_project/qcscratch/28446910/qchem2736218/ 0
/cm/shared/apps/spack/cpu/opt/spack/linux-centos8-zen2/gcc-10.2.0/qchem-5.4-akfmr7b3t57bfs6qan3padb2wnb2i7cl/exe/qcprog.exe_s 277-an-SM12.in_2736218.0 /expanse/lustre/scratch/selhajj/temp_project/qcscratch/28446910/qchem2736218/
                  Welcome to Q-Chem
     A Quantum Leap Into The Future Of Chemistry


 Q-Chem 5.4, Q-Chem, Inc., Pleasanton, CA (2021)

 License issued to: University of California, San Diego (site)

 E. Epifanovsky,  A. T. B. Gilbert,  Xintian Feng,  Joonho Lee,  Yuezhi Mao,  
 N. Mardirossian,  P. Pokhilko,  A. White,  M. Wormit,  M. P. Coons,  
 A. L. Dempwolff,  Zhengting Gan,  D. Hait,  P. R. Horn,  L. D. Jacobson,  
 I. Kaliman,  J. Kussmann,  A. W. Lange,  Ka Un Lao,  D. S. Levine,  Jie Liu,  
 S. C. McKenzie,  A. F. Morrison,  K. Nanda,  F. Plasser,  D. R. Rehn,  
 M. L. Vidal,  Zhi-Qiang You,  Ying Zhu,  B. Alam,  B. Albrecht,  
 A. Aldossary,  E. Alguire,  J. H. Andersen,  D. Barton,  K. Begam,  A. Behn,  
 Y. A. Bernard,  E. J. Berquist,  H. Burton,  A. Carreras,  K. Carter-Fenk,  
 R. Chakraborty,  A. D. Chien,  K. D. Closser,  V. Cofer-Shabica,  
 S. Dasgupta,  Jia Deng,  M. de Wergifosse,  M. Diedenhofen,  Hainam Do,  
 S. Ehlert,  Po-Tung Fang,  S. Fatehi,  Qingguo Feng,  J. Gayvert,  
 Qinghui Ge,  G. Gidofalvi,  M. Goldey,  J. Gomes,  C. Gonzalez-Espinoza,  
 S. Gulania,  A. Gunina,  M. W. D. Hanson-Heine,  P. H. P. Harbach,  
 A. W. Hauser,  M. F. Herbst,  M. Hernandez Vera,  M. Hodecker,  
 Z. C. Holden,  S. Houck,  Xunkun Huang,  Kerwin Hui,  B. C. Huynh,  
 M. Ivanov,  Hyunjun Ji,  Hanjie Jiang,  B. Kaduk,  S. Kaehler,  
 K. Khistyaev,  Jaehoon Kim,  P. Klunzinger,  Z. Koczor-Benda,  
 Joong Hoon Koh,  D. Kosenkov,  L. Koulias,  T. Kowalczyk,  C. M. Krauter,  
 K. Kue,  A. Kunitsa,  T. Kus,  A. Landau,  K. V. Lawler,  D. Lefrancois,  
 S. Lehtola,  Rain Li,  Yi-Pei Li,  Jiashu Liang,  M. Liebenthal,  
 Hung-Hsuan Lin,  You-Sheng Lin,  Fenglai Liu,  Kuan-Yu Liu,  
 M. Loipersberger,  A. Luenser,  A. Manjanath,  P. Manohar,  E. Mansoor,  
 S. F. Manzer,  Shan-Ping Mao,  A. V. Marenich,  T. Markovich,  S. Mason,  
 S. A. Maurer,  P. F. McLaughlin,  M. F. S. J. Menger,  J.-M. Mewes,  
 S. A. Mewes,  P. Morgante,  J. W. Mullinax,  T. S. Nguyen-Beck,  
 K. J. Oosterbaan,  G. Paran,  Alexander C. Paul,  Suranjan K. Paul,  
 F. Pavosevic,  Zheng Pei,  S. Prager,  E. I. Proynov,  E. Ramos,  B. Rana,  
 A. E. Rask,  A. Rettig,  R. M. Richard,  F. Rob,  E. Rossomme,  T. Scheele,  
 M. Scheurer,  M. Schneider,  N. Sergueev,  S. M. Sharada,  W. Skomorowski,  
 D. W. Small,  C. J. Stein,  Yu-Chuan Su,  E. J. Sundstrom,  Zhen Tao,  
 J. Thirman,  T. Tsuchimochi,  N. M. Tubman,  S. P. Veccham,  O. Vydrov,  
 J. Wenzel,  J. Witte,  A. Yamada,  Kun Yao,  S. Yeganeh,  S. R. Yost,  
 A. Zech,  Igor Ying Zhang,  Xing Zhang,  Yu Zhang,  D. Zuev,  
 A. Aspuru-Guzik,  A. T. Bell,  N. A. Besley,  K. B. Bravaya,  B. R. Brooks,  
 D. Casanova,  Jeng-Da Chai,  S. Coriani,  C. J. Cramer,  
 A. E. DePrince, III,  R. A. DiStasio Jr.,  A. Dreuw,  B. D. Dunietz,  
 T. R. Furlani,  W. A. Goddard III,  S. Grimme,  S. Hammes-Schiffer,  
 T. Head-Gordon,  W. J. Hehre,  Chao-Ping Hsu,  T.-C. Jagau,  Yousung Jung,  
 A. Klamt,  Jing Kong,  D. S. Lambrecht,  WanZhen Liang,  N. J. Mayhall,  
 C. W. McCurdy,  J. B. Neaton,  C. Ochsenfeld,  J. A. Parkhill,  R. Peverati,  
 V. A. Rassolov,  Yihan Shao,  L. V. Slipchenko,  T. Stauch,  R. P. Steele,  
 J. E. Subotnik,  A. J. W. Thom,  A. Tkatchenko,  D. G. Truhlar,  
 T. Van Voorhis,  T. A. Wesolowski,  K. B. Whaley,  H. L. Woodcock III,  
 P. M. Zimmerman,  S. Faraji,  P. M. W. Gill,  M. Head-Gordon,  
 J. M. Herbert,  A. I. Krylov

 Contributors to earlier versions of Q-Chem not listed above: 
 R. D. Adamson,  B. Austin,  R. Baer,  J. Baker,  G. J. O. Beran,  
 K. Brandhorst,  S. T. Brown,  E. F. C. Byrd,  A. K. Chakraborty,  
 G. K. L. Chan,  Chun-Min Chang,  Yunqing Chen,  C.-L. Cheng,  
 Siu Hung Chien,  D. M. Chipman,  D. L. Crittenden,  H. Dachsel,  
 R. J. Doerksen,  A. D. Dutoi,  R. G. Edgar,  J. Fosso-Tande,  
 L. Fusti-Molnar,  D. Ghosh,  A. Ghysels,  A. Golubeva-Zadorozhnaya,  
 J. Gonthier,  M. S. Gordon,  S. R. Gwaltney,  G. Hawkins,  J. E. Herr,  
 A. Heyden,  S. Hirata,  E. G. Hohenstein,  G. Kedziora,  F. J. Keil,  
 C. Kelley,  Jihan Kim,  R. A. King,  R. Z. Khaliullin,  P. P. Korambath,  
 W. Kurlancheek,  A. Laurent,  A. M. Lee,  M. S. Lee,  S. V. Levchenko,  
 Ching Yeh Lin,  D. Liotard,  E. Livshits,  R. C. Lochan,  I. Lotan,  
 L. A. Martinez-Martinez,  P. E. Maslen,  N. Nair,  D. P. O'Neill,  
 D. Neuhauser,  E. Neuscamman,  C. M. Oana,  R. Olivares-Amaya,  R. Olson,  
 T. M. Perrine,  B. Peters,  P. A. Pieniazek,  A. Prociuk,  Y. M. Rhee,  
 J. Ritchie,  M. A. Rohrdanz,  E. Rosta,  N. J. Russ,  H. F. Schaefer III,  
 M. W. Schmidt,  N. E. Schultz,  S. Sharma,  N. Shenvi,  C. D. Sherrill,  
 A. C. Simmonett,  A. Sodt,  T. Stein,  D. Stuck,  K. S. Thanthiriwatte,  
 V. Vanovschi,  L. Vogt,  Tao Wang,  A. Warshel,  M. A. Watson,  
 C. F. Williams,  Q. Wu,  X. Xu,  Jun Yang,  W. Zhang,  Yan Zhao

 Please cite Q-Chem as follows:
 Y. Shao et al., Mol. Phys. 113, 184-215 (2015)
 DOI: 10.1080/00268976.2014.952696

 Q-Chem 5.4.0 for Intel X86 EM64T Linux

 Parts of Q-Chem use Armadillo 9.800.1 (Horizon Scraper).
 http://arma.sourceforge.net/

 Q-Chem begins on Sat Feb  3 13:15:24 2024  

 Host: 
0

     Scratch files written to /expanse/lustre/scratch/selhajj/temp_project/qcscratch/28446910/qchem2736218//
 May1621 |scratch|qcdevops|jenkins|workspace|build_RNUM    
 Processing $rem in /cm/shared/apps/spack/cpu/opt/spack/linux-centos8-zen2/gcc-10.2.0/qchem-5.4-akfmr7b3t57bfs6qan3padb2wnb2i7cl/config/preferences:
 Processing $rem in /home/selhajj/.qchemrc:
 Symmetry turned off for PCM/SM12/SMD calculation
 Method-specific promolecule density matrix will be built for SM12 calculation

 Checking the input file for inconsistencies... 	...done.

--------------------------------------------------------------
User input:
--------------------------------------------------------------
$molecule
-2 1
C                 -0.2300080000      3.9320580000      0.2258230000
C                 -1.4392280000      3.4560650000      0.7031240000
C                 -1.6598730000      2.0570200000      0.7695700000
C                  0.8020330000      3.0664970000     -0.2022310000
C                  0.5769830000      1.6463540000     -0.1414400000
C                 -0.6676870000      1.1876880000      0.3527010000
C                  2.0503330000      3.6373750000     -0.7049040000
C                  3.0114350000      2.6572530000     -1.1044040000
C                  2.8018210000      1.2424160000     -1.0344290000
C                  1.5806550000      0.6786310000     -0.5672160000
O                  2.2320170000      4.9104710000     -0.7564350000
O                  1.3501220000     -0.5968920000     -0.5027670000
H                 -0.0245570000      4.9963840000      0.1607680000
H                 -2.2144450000      4.1495400000      1.0265560000
H                 -2.6069850000      1.6702210000      1.1442580000
H                 -0.8021420000      0.1107060000      0.3866320000
S                  4.5566640000      3.2723670000     -1.7956090000
C                  5.1993020000      4.3372940000     -0.4419870000
C                  3.8704700000      0.2656950000     -1.4595320000
H                  6.0982860000      4.8387470000     -0.8195360000
H                  5.4597310000      3.7343420000      0.4336860000
H                  4.4199100000      5.0604580000     -0.1967300000
H                  4.0652960000      0.2940130000     -2.5436420000
H                  3.5254270000     -0.7383260000     -1.2002670000
H                  4.8345990000      0.4708240000     -0.9747610000
$end

$rem
BASIS  =  6-311++G(d,p)
GUI  =  2
JOB_TYPE  =  SP
METHOD  =  B3LYP
SCF_CONVERGENCE  = 8
SOLVENT_METHOD = sm12
$end

$smx
solvent dimethylformamide
charges CM5
$end





--------------------------------------------------------------
 ----------------------------------------------------------------
             Standard Nuclear Orientation (Angstroms)
    I     Atom           X                Y                Z
 ----------------------------------------------------------------
    1      C      -0.2300080000     3.9320580000     0.2258230000
    2      C      -1.4392280000     3.4560650000     0.7031240000
    3      C      -1.6598730000     2.0570200000     0.7695700000
    4      C       0.8020330000     3.0664970000    -0.2022310000
    5      C       0.5769830000     1.6463540000    -0.1414400000
    6      C      -0.6676870000     1.1876880000     0.3527010000
    7      C       2.0503330000     3.6373750000    -0.7049040000
    8      C       3.0114350000     2.6572530000    -1.1044040000
    9      C       2.8018210000     1.2424160000    -1.0344290000
   10      C       1.5806550000     0.6786310000    -0.5672160000
   11      O       2.2320170000     4.9104710000    -0.7564350000
   12      O       1.3501220000    -0.5968920000    -0.5027670000
   13      H      -0.0245570000     4.9963840000     0.1607680000
   14      H      -2.2144450000     4.1495400000     1.0265560000
   15      H      -2.6069850000     1.6702210000     1.1442580000
   16      H      -0.8021420000     0.1107060000     0.3866320000
   17      S       4.5566640000     3.2723670000    -1.7956090000
   18      C       5.1993020000     4.3372940000    -0.4419870000
   19      C       3.8704700000     0.2656950000    -1.4595320000
   20      H       6.0982860000     4.8387470000    -0.8195360000
   21      H       5.4597310000     3.7343420000     0.4336860000
   22      H       4.4199100000     5.0604580000    -0.1967300000
   23      H       4.0652960000     0.2940130000    -2.5436420000
   24      H       3.5254270000    -0.7383260000    -1.2002670000
   25      H       4.8345990000     0.4708240000    -0.9747610000
 ----------------------------------------------------------------
 Nuclear Repulsion Energy =        1038.87973641 hartrees
 There are       58 alpha and       58 beta electrons
 Requested basis set is 6-311++G(d,p)
 There are 147 shells and 408 basis functions

 Total QAlloc Memory Limit   8000 MB
 Mega-Array Size       188 MB
 MEM_STATIC part       192 MB
 A cutoff of  1.0D-11 yielded   8626 shell pairs
 There are     69220 function pairs (     74149 Cartesian)
 Smallest overlap matrix eigenvalue = 1.45E-07

 Q-Chem warning in module stvman/mkSTV.C, line 323:

 Overlap eigenvalue is smaller than square root of threshold
 Use THRESH >= 12 to get rid of this warning

 Linear dependence detected in AO basis
 Tighter screening thresholds may be required for diffuse basis sets
 Use S2THRESH > 14 and THRESH = 14 in case of SCF convergence issues
 Number of orthogonalized atomic orbitals = 404
 Maximum deviation from orthogonality = 1.830E-10

 Scale SEOQF with 1.000000e-02/1.000000e-01/1.000000e-01

 Standard Electronic Orientation quadrupole field applied
 Nucleus-field energy     =     0.0000000626 hartrees
 ================ Generating on-the-fly Promolecule Density  ================
Attempting to make child job directory: /expanse/lustre/scratch/selhajj/temp_project/qcscratch/28446910/qchem2736218//Frg1/
Attempting to make child job directory: /expanse/lustre/scratch/selhajj/temp_project/qcscratch/28446910/qchem2736218//Frg2/
Attempting to make child job directory: /expanse/lustre/scratch/selhajj/temp_project/qcscratch/28446910/qchem2736218//Frg3/
Attempting to make child job directory: /expanse/lustre/scratch/selhajj/temp_project/qcscratch/28446910/qchem2736218//Frg4/
Creating input file /expanse/lustre/scratch/selhajj/temp_project/qcscratch/28446910/qchem2736218/Frg1.input
using default PutDataFrgm: nothing
calling putenv with: QCSCRATCH=/expanse/lustre/scratch/selhajj/temp_project/qcscratch/28446910/qchem2736218/ 
Spawning Job For Fragment 0
Done Job For Fragment 0
calling putenv with: QCSCRATCH=/expanse/lustre/scratch/selhajj/temp_project/qcscratch/28446910 
calling putenv with: QCTHREADS=8 
Creating input file /expanse/lustre/scratch/selhajj/temp_project/qcscratch/28446910/qchem2736218/Frg2.input
using default PutDataFrgm: nothing
calling putenv with: QCSCRATCH=/expanse/lustre/scratch/selhajj/temp_project/qcscratch/28446910/qchem2736218/ 
Spawning Job For Fragment 1
Done Job For Fragment 1
calling putenv with: QCSCRATCH=/expanse/lustre/scratch/selhajj/temp_project/qcscratch/28446910 
calling putenv with: QCTHREADS=8 
Creating input file /expanse/lustre/scratch/selhajj/temp_project/qcscratch/28446910/qchem2736218/Frg3.input
using default PutDataFrgm: nothing
calling putenv with: QCSCRATCH=/expanse/lustre/scratch/selhajj/temp_project/qcscratch/28446910/qchem2736218/ 
Spawning Job For Fragment 2
Done Job For Fragment 2
calling putenv with: QCSCRATCH=/expanse/lustre/scratch/selhajj/temp_project/qcscratch/28446910 
calling putenv with: QCTHREADS=8 
Creating input file /expanse/lustre/scratch/selhajj/temp_project/qcscratch/28446910/qchem2736218/Frg4.input
using default PutDataFrgm: nothing
calling putenv with: QCSCRATCH=/expanse/lustre/scratch/selhajj/temp_project/qcscratch/28446910/qchem2736218/ 
Spawning Job For Fragment 3
Done Job For Fragment 3
calling putenv with: QCSCRATCH=/expanse/lustre/scratch/selhajj/temp_project/qcscratch/28446910 
calling putenv with: QCTHREADS=8 
 Time for running child jobs:  CPU 0.01 s  wall 4.41 s
 ============= Method Specific Promolecule Density Constructed =============
 Guess from superposition of atomic densities
 Warning:  Energy on first SCF cycle will be non-variational
 SAD guess density has 114.000000 electrons

 -----------------------------------------------------------------------
  General SCF calculation program by
  Eric Jon Sundstrom, Paul Horn, Yuezhi Mao, Dmitri Zuev, Alec White,
  David Stuck, Shaama M.S., Shane Yost, Joonho Lee, David Small,
  Daniel Levine, Susi Lehtola, Hugh Burton, Evgeny Epifanovsky,
  Bang C. Huynh
 -----------------------------------------------------------------------
 Exchange:     0.2000 Hartree-Fock + 0.0800 Slater + 0.7200 B88
 Correlation:  0.1900 VWN1RPA + 0.8100 LYP
 Using SG-1 standard quadrature grid
 using 8 threads for integral computing
 -------------------------------------------------------
 OpenMP Integral computing Module                
 Release: version 1.0, May 2013, Q-Chem Inc. Pittsburgh 
 -------------------------------------------------------
 
 SM12 calculation using CM5 charges
 Citation of the SM12 model:
 Marenich, A.V.; Cramer, C.J.; Truhlar, D.G.
 J. Chem. Theory Comput. 2013, 9, 609-612.
 iSolventCode=          91
 Solvent: dimethylformamide                                               
 
Hirshfeld: reading atomic densities from disk.
warning:  vdwdata pointer should have been initialzed before dftman
 Inaccurate integrated density:
   Number of electrons =   116
   Numerical integral  =   113.999675435677
   Relative error      =    -1.7244177279 %

 Charges (in A.U.) from CM5PAC (Nov. 11, 2011)
 -----------------------------------------------
 Center     Atomic      CM5         Hirshfeld
 Number     Number      Charge      Charge
 -----------------------------------------------
    1          6       -0.051855   -0.000600
    2          6       -0.057403   -0.002802
    3          6       -0.057410   -0.002851
    4          6       -0.002486   -0.000506
    5          6       -0.002290   -0.000251
    6          6       -0.051819   -0.000543
    7          6        0.033216    0.003843
    8          6        0.009088   -0.002275
    9          6       -0.010742   -0.003400
   10          6        0.032787    0.006390
   11          8       -0.068575   -0.021126
   12          8       -0.063404   -0.017522
   13          1        0.066533    0.005463
   14          1        0.057941    0.003029
   15          1        0.057943    0.003040
   16          1        0.066581    0.005477
   17         16       -0.010606    0.029065
   18          6       -0.138348   -0.007353
   19          6       -0.145994   -0.006473
   20          1        0.050926   -0.000993
   21          1        0.052750    0.000585
   22          1        0.063488    0.003250
   23          1        0.052539    0.001068
   24          1        0.064230    0.005002
   25          1        0.053233    0.000807
 -----------------------------------------------

 Dipole moment (in Debye)
 -----------------------------------------------
                 X        Y        Z     Total
 -----------------------------------------------
 CM5          0.0437   0.1100   0.4353   0.4511
 Hirshfeld    0.1291   0.0583  -0.0906   0.1681
 -----------------------------------------------

 A restricted SCF calculation will be
 performed using DIIS
 SCF converges when DIIS error is below 1.0e-08
 ---------------------------------------
  Cycle       Energy         DIIS error
 ---------------------------------------
Hirshfeld: reading atomic densities from disk.

 Charges (in A.U.) from CM5PAC (Nov. 11, 2011)
 -----------------------------------------------
 Center     Atomic      CM5         Hirshfeld
 Number     Number      Charge      Charge
 -----------------------------------------------
    1          6       -0.204931   -0.153676
    2          6       -0.203382   -0.148781
    3          6       -0.205444   -0.150885
    4          6       -0.112347   -0.110367
    5          6       -0.111245   -0.109207
    6          6       -0.204345   -0.153070
    7          6        0.084480    0.055107
    8          6       -0.139666   -0.151029
    9          6       -0.159912   -0.152571
   10          6        0.081078    0.054681
   11          8       -0.744636   -0.697187
   12          8       -0.768251   -0.722369
   13          1        0.162524    0.101454
   14          1        0.176127    0.121215
   15          1        0.175871    0.120967
   16          1        0.161924    0.100820
   17         16        0.045475    0.085145
   18          6       -0.428458   -0.297463
   19          6       -0.450379   -0.310857
   20          1        0.152773    0.100855
   21          1        0.140037    0.087872
   22          1        0.122462    0.062223
   23          1        0.148468    0.096997
   24          1        0.140064    0.080836
   25          1        0.141989    0.089563
 -----------------------------------------------

 Dipole moment (in Debye)
 -----------------------------------------------
                 X        Y        Z     Total
 -----------------------------------------------
 CM5        -15.9865 -20.1390   5.9836  26.3998
 Hirshfeld  -15.9011 -20.1907   5.4578  26.2735
 -----------------------------------------------

    1   -1015.2181384939      3.12e-02  
Hirshfeld: reading atomic densities from disk.

 Charges (in A.U.) from CM5PAC (Nov. 11, 2011)
 -----------------------------------------------
 Center     Atomic      CM5         Hirshfeld
 Number     Number      Charge      Charge
 -----------------------------------------------
    1          6       -0.324000   -0.272746
    2          6       -0.360585   -0.305984
    3          6       -0.352838   -0.298280
    4          6        0.112266    0.114247
    5          6        0.093960    0.095998
    6          6       -0.353889   -0.302613
    7          6        0.094108    0.064735
    8          6        0.132509    0.121145
    9          6        0.194367    0.201708
   10          6        0.054025    0.027628
   11          8        1.739982    1.787431
   12          8        1.750744    1.796626
   13          1       -0.667561   -0.728631
   14          1       -0.494415   -0.549326
   15          1       -0.468241   -0.523144
   16          1       -0.730569   -0.791673
   17         16       -0.505878   -0.466207
   18          6       -0.028494    0.102502
   19          6       -0.440802   -0.301280
   20          1       -0.074913   -0.126832
   21          1       -0.048069   -0.100234
   22          1       -0.004042   -0.064281
   23          1       -0.414004   -0.465475
   24          1       -0.448132   -0.507360
   25          1       -0.452493   -0.504919
 -----------------------------------------------

 Dipole moment (in Debye)
 -----------------------------------------------
                 X        Y        Z     Total
 -----------------------------------------------
 CM5          7.6850 -16.3697  -5.7411  18.9733
 Hirshfeld    7.7704 -16.4214  -6.2670  19.2176
 -----------------------------------------------

    2   -1011.6423371702      4.57e-03  
Hirshfeld: reading atomic densities from disk.

 Charges (in A.U.) from CM5PAC (Nov. 11, 2011)
 -----------------------------------------------
 Center     Atomic      CM5         Hirshfeld
 Number     Number      Charge      Charge
 -----------------------------------------------
    1          6       -0.060628   -0.009373
    2          6       -0.041884    0.012717
    3          6       -0.040158    0.014400
    4          6       -0.059435   -0.057454
    5          6       -0.063991   -0.061953
    6          6       -0.069793   -0.018518
    7          6       -0.054056   -0.083429
    8          6       -0.051284   -0.062647
    9          6       -0.036436   -0.029095
   10          6       -0.087471   -0.113868
   11          8       -0.779573   -0.732124
   12          8       -0.830076   -0.784194
   13          1        0.048721   -0.012349
   14          1        0.045350   -0.009561
   15          1        0.045779   -0.009124
   16          1        0.046883   -0.014221
   17         16       -0.119630   -0.079960
   18          6       -0.079247    0.051748
   19          6       -0.120438    0.019084
   20          1        0.072031    0.020112
   21          1        0.057281    0.005116
   22          1        0.052452   -0.007787
   23          1        0.041243   -0.010228
   24          1        0.041137   -0.018091
   25          1        0.043721   -0.008706
 -----------------------------------------------

 Dipole moment (in Debye)
 -----------------------------------------------
                 X        Y        Z     Total
 -----------------------------------------------
 CM5        -16.5108 -19.3576   6.8235  26.3416
 Hirshfeld  -16.4254 -19.4093   6.2976  26.1949
 -----------------------------------------------

    3   -1006.0764897940      1.26e-02  
Hirshfeld: reading atomic densities from disk.

 Charges (in A.U.) from CM5PAC (Nov. 11, 2011)
 -----------------------------------------------
 Center     Atomic      CM5         Hirshfeld
 Number     Number      Charge      Charge
 -----------------------------------------------
    1          6       -0.132125   -0.080870
    2          6       -0.159502   -0.104900
    3          6       -0.160402   -0.105844
    4          6       -0.089228   -0.087247
    5          6       -0.087859   -0.085820
    6          6       -0.132550   -0.081274
    7          6        0.032394    0.003021
    8          6       -0.114682   -0.126046
    9          6       -0.135502   -0.128160
   10          6        0.018198   -0.008199
   11          8       -0.604118   -0.556669
   12          8       -0.642639   -0.596757
   13          1        0.082039    0.020969
   14          1        0.087704    0.032793
   15          1        0.087647    0.032743
   16          1        0.079701    0.018597
   17         16       -0.074663   -0.034992
   18          6       -0.242262   -0.111266
   19          6       -0.267180   -0.127658
   20          1        0.094264    0.042345
   21          1        0.080779    0.028614
   22          1        0.078597    0.018359
   23          1        0.067472    0.016001
   24          1        0.069420    0.010191
   25          1        0.064935    0.012509
 -----------------------------------------------

 Dipole moment (in Debye)
 -----------------------------------------------
                 X        Y        Z     Total
 -----------------------------------------------
 CM5        -15.7535 -20.0997   5.8673  26.2030
 Hirshfeld  -15.6681 -20.1513   5.3414  26.0787
 -----------------------------------------------

    4   -1011.8342088751      3.58e-03  
Hirshfeld: reading atomic densities from disk.

 Charges (in A.U.) from CM5PAC (Nov. 11, 2011)
 -----------------------------------------------
 Center     Atomic      CM5         Hirshfeld
 Number     Number      Charge      Charge
 -----------------------------------------------
    1          6       -0.144618   -0.093364
    2          6       -0.142311   -0.087710
    3          6       -0.137887   -0.083328
    4          6       -0.067071   -0.065091
    5          6       -0.074283   -0.072245
    6          6       -0.153617   -0.102342
    7          6        0.002218   -0.027155
    8          6       -0.053073   -0.064437
    9          6       -0.028963   -0.021622
   10          6       -0.017015   -0.043412
   11          8       -0.536152   -0.488702
   12          8       -0.582051   -0.536169
   13          1        0.058986   -0.002085
   14          1        0.057591    0.002680
   15          1        0.058228    0.003325
   16          1        0.056834   -0.004269
   17         16       -0.152947   -0.113277
   18          6       -0.236291   -0.105295
   19          6       -0.263812   -0.124290
   20          1        0.069671    0.017753
   21          1        0.068780    0.016615
   22          1        0.075679    0.015440
   23          1        0.044330   -0.007141
   24          1        0.054037   -0.005191
   25          1        0.044165   -0.008261
 -----------------------------------------------

 Dipole moment (in Debye)
 -----------------------------------------------
                 X        Y        Z     Total
 -----------------------------------------------
 CM5        -15.9794 -20.6910   5.6890  26.7549
 Hirshfeld  -15.8940 -20.7427   5.1631  26.6371
 -----------------------------------------------

    5   -1012.0576989532      1.21e-03  
Hirshfeld: reading atomic densities from disk.

 Charges (in A.U.) from CM5PAC (Nov. 11, 2011)
 -----------------------------------------------
 Center     Atomic      CM5         Hirshfeld
 Number     Number      Charge      Charge
 -----------------------------------------------
    1          6       -0.124064   -0.072809
    2          6       -0.154396   -0.099795
    3          6       -0.154868   -0.100309
    4          6       -0.067872   -0.065891
    5          6       -0.064861   -0.062823
    6          6       -0.122089   -0.070814
    7          6        0.022195   -0.007178
    8          6       -0.128974   -0.140337
    9          6       -0.133679   -0.126337
   10          6        0.009751   -0.016646
   11          8       -0.502564   -0.455115
   12          8       -0.538989   -0.493107
   13          1        0.058163   -0.002907
   14          1        0.059592    0.004681
   15          1        0.059675    0.004771
   16          1        0.055520   -0.005584
   17         16       -0.134709   -0.095039
   18          6       -0.223436   -0.092440
   19          6       -0.254628   -0.115107
   20          1        0.068010    0.016092
   21          1        0.061214    0.009049
   22          1        0.070813    0.010575
   23          1        0.044242   -0.007229
   24          1        0.053726   -0.005502
   25          1        0.042635   -0.009792
 -----------------------------------------------

 Dipole moment (in Debye)
 -----------------------------------------------
                 X        Y        Z     Total
 -----------------------------------------------
 CM5        -16.8652 -20.6151   5.9830  27.2986
 Hirshfeld  -16.7799 -20.6668   5.4571  27.1746
 -----------------------------------------------

    6   -1012.0940158802      5.96e-04  
Hirshfeld: reading atomic densities from disk.

 Charges (in A.U.) from CM5PAC (Nov. 11, 2011)
 -----------------------------------------------
 Center     Atomic      CM5         Hirshfeld
 Number     Number      Charge      Charge
 -----------------------------------------------
    1          6       -0.135000   -0.083745
    2          6       -0.163048   -0.108447
    3          6       -0.161522   -0.106964
    4          6       -0.078561   -0.076581
    5          6       -0.079615   -0.077576
    6          6       -0.137839   -0.086564
    7          6        0.025259   -0.004114
    8          6       -0.083376   -0.094739
    9          6       -0.090146   -0.082804
   10          6        0.010068   -0.016329
   11          8       -0.504400   -0.456951
   12          8       -0.544885   -0.499003
   13          1        0.060159   -0.000912
   14          1        0.062414    0.007502
   15          1        0.062803    0.007900
   16          1        0.057835   -0.003268
   17         16       -0.138384   -0.098713
   18          6       -0.237343   -0.106347
   19          6       -0.257062   -0.117540
   20          1        0.066912    0.014993
   21          1        0.061281    0.009116
   22          1        0.070606    0.010368
   23          1        0.042436   -0.009035
   24          1        0.050970   -0.008258
   25          1        0.040827   -0.011599
 -----------------------------------------------

 Dipole moment (in Debye)
 -----------------------------------------------
                 X        Y        Z     Total
 -----------------------------------------------
 CM5        -16.2618 -20.7714   5.6289  26.9737
 Hirshfeld  -16.1764 -20.8231   5.1030  26.8573
 -----------------------------------------------

    7   -1012.0976996147      3.04e-04  
Hirshfeld: reading atomic densities from disk.

 Charges (in A.U.) from CM5PAC (Nov. 11, 2011)
 -----------------------------------------------
 Center     Atomic      CM5         Hirshfeld
 Number     Number      Charge      Charge
 -----------------------------------------------
    1          6       -0.136024   -0.084769
    2          6       -0.156432   -0.101831
    3          6       -0.154681   -0.100122
    4          6       -0.070572   -0.068591
    5          6       -0.071628   -0.069590
    6          6       -0.139090   -0.087814
    7          6        0.020386   -0.008987
    8          6       -0.098011   -0.109374
    9          6       -0.095790   -0.088448
   10          6        0.006400   -0.019997
   11          8       -0.500823   -0.453374
   12          8       -0.541142   -0.495260
   13          1        0.059494   -0.001576
   14          1        0.061353    0.006442
   15          1        0.061732    0.006828
   16          1        0.056938   -0.004166
   17         16       -0.139771   -0.100100
   18          6       -0.238635   -0.107640
   19          6       -0.263714   -0.124192
   20          1        0.067590    0.015671
   21          1        0.062144    0.009979
   22          1        0.071638    0.011400
   23          1        0.043653   -0.007819
   24          1        0.052808   -0.006421
   25          1        0.042569   -0.009857
 -----------------------------------------------

 Dipole moment (in Debye)
 -----------------------------------------------
                 X        Y        Z     Total
 -----------------------------------------------
 CM5        -16.6032 -20.7314   5.7828  27.1827
 Hirshfeld  -16.5178 -20.7831   5.2569  27.0631
 -----------------------------------------------

    8   -1012.1008692229      9.75e-05  
Hirshfeld: reading atomic densities from disk.

 Charges (in A.U.) from CM5PAC (Nov. 11, 2011)
 -----------------------------------------------
 Center     Atomic      CM5         Hirshfeld
 Number     Number      Charge      Charge
 -----------------------------------------------
    1          6       -0.134776   -0.083522
    2          6       -0.158548   -0.103947
    3          6       -0.157127   -0.102568
    4          6       -0.072900   -0.070919
    5          6       -0.073614   -0.071576
    6          6       -0.136985   -0.085710
    7          6        0.022012   -0.007361
    8          6       -0.094902   -0.106266
    9          6       -0.095722   -0.088381
   10          6        0.007220   -0.019177
   11          8       -0.501801   -0.454351
   12          8       -0.541480   -0.495598
   13          1        0.059811   -0.001259
   14          1        0.061847    0.006935
   15          1        0.062198    0.007295
   16          1        0.057186   -0.003918
   17         16       -0.140347   -0.100676
   18          6       -0.237307   -0.106311
   19          6       -0.262090   -0.122568
   20          1        0.066877    0.014958
   21          1        0.061673    0.009508
   22          1        0.071484    0.011245
   23          1        0.043146   -0.008325
   24          1        0.052442   -0.006786
   25          1        0.042093   -0.010334
 -----------------------------------------------

 Dipole moment (in Debye)
 -----------------------------------------------
                 X        Y        Z     Total
 -----------------------------------------------
 CM5        -16.5612 -20.7434   5.7639  27.1622
 Hirshfeld  -16.4758 -20.7950   5.2380  27.0430
 -----------------------------------------------

    9   -1012.1009696971      3.45e-05  
Hirshfeld: reading atomic densities from disk.

 Charges (in A.U.) from CM5PAC (Nov. 11, 2011)
 -----------------------------------------------
 Center     Atomic      CM5         Hirshfeld
 Number     Number      Charge      Charge
 -----------------------------------------------
    1          6       -0.135064   -0.083809
    2          6       -0.158036   -0.103435
    3          6       -0.156440   -0.101882
    4          6       -0.072661   -0.070680
    5          6       -0.073518   -0.071479
    6          6       -0.137927   -0.086652
    7          6        0.021922   -0.007451
    8          6       -0.095341   -0.106705
    9          6       -0.095590   -0.088248
   10          6        0.007566   -0.018831
   11          8       -0.501301   -0.453851
   12          8       -0.541853   -0.495971
   13          1        0.059819   -0.001251
   14          1        0.061853    0.006941
   15          1        0.062233    0.007329
   16          1        0.057242   -0.003862
   17         16       -0.139941   -0.100271
   18          6       -0.238025   -0.107029
   19          6       -0.261731   -0.122209
   20          1        0.066939    0.015020
   21          1        0.061592    0.009427
   22          1        0.071404    0.011166
   23          1        0.043040   -0.008431
   24          1        0.052294   -0.006934
   25          1        0.041914   -0.010513
 -----------------------------------------------

 Dipole moment (in Debye)
 -----------------------------------------------
                 X        Y        Z     Total
 -----------------------------------------------
 CM5        -16.5794 -20.7365   5.7646  27.1682
 Hirshfeld  -16.4941 -20.7881   5.2387  27.0489
 -----------------------------------------------

   10   -1012.1010746017      7.21e-06  
Hirshfeld: reading atomic densities from disk.

 Charges (in A.U.) from CM5PAC (Nov. 11, 2011)
 -----------------------------------------------
 Center     Atomic      CM5         Hirshfeld
 Number     Number      Charge      Charge
 -----------------------------------------------
    1          6       -0.135051   -0.083797
    2          6       -0.158161   -0.103560
    3          6       -0.156631   -0.102073
    4          6       -0.072632   -0.070651
    5          6       -0.073451   -0.071413
    6          6       -0.137613   -0.086338
    7          6        0.021923   -0.007450
    8          6       -0.095009   -0.106372
    9          6       -0.095588   -0.088247
   10          6        0.007367   -0.019029
   11          8       -0.501644   -0.454194
   12          8       -0.541481   -0.495599
   13          1        0.059853   -0.001217
   14          1        0.061914    0.007002
   15          1        0.062276    0.007373
   16          1        0.057225   -0.003879
   17         16       -0.140126   -0.100456
   18          6       -0.237857   -0.106862
   19          6       -0.262035   -0.122514
   20          1        0.066878    0.014959
   21          1        0.061542    0.009377
   22          1        0.071385    0.011147
   23          1        0.043043   -0.008428
   24          1        0.052307   -0.006921
   25          1        0.041955   -0.010472
 -----------------------------------------------

 Dipole moment (in Debye)
 -----------------------------------------------
                 X        Y        Z     Total
 -----------------------------------------------
 CM5        -16.5846 -20.7431   5.7668  27.1769
 Hirshfeld  -16.4992 -20.7948   5.2409  27.0576
 -----------------------------------------------

   11   -1012.1010749866      4.28e-06  
Hirshfeld: reading atomic densities from disk.

 Charges (in A.U.) from CM5PAC (Nov. 11, 2011)
 -----------------------------------------------
 Center     Atomic      CM5         Hirshfeld
 Number     Number      Charge      Charge
 -----------------------------------------------
    1          6       -0.134987   -0.083732
    2          6       -0.158166   -0.103565
    3          6       -0.156617   -0.102059
    4          6       -0.072692   -0.070711
    5          6       -0.073515   -0.071477
    6          6       -0.137599   -0.086323
    7          6        0.021946   -0.007427
    8          6       -0.095063   -0.106427
    9          6       -0.095515   -0.088174
   10          6        0.007348   -0.019049
   11          8       -0.501422   -0.453973
   12          8       -0.541674   -0.495791
   13          1        0.059860   -0.001210
   14          1        0.061936    0.007024
   15          1        0.062304    0.007401
   16          1        0.057244   -0.003860
   17         16       -0.140177   -0.100507
   18          6       -0.237852   -0.106856
   19          6       -0.262031   -0.122509
   20          1        0.066853    0.014934
   21          1        0.061529    0.009364
   22          1        0.071388    0.011149
   23          1        0.043025   -0.008446
   24          1        0.052316   -0.006912
   25          1        0.041950   -0.010476
 -----------------------------------------------

 Dipole moment (in Debye)
 -----------------------------------------------
                 X        Y        Z     Total
 -----------------------------------------------
 CM5        -16.5867 -20.7380   5.7675  27.1744
 Hirshfeld  -16.5013 -20.7897   5.2416  27.0551
 -----------------------------------------------

   12   -1012.1010897130      1.79e-06  
Hirshfeld: reading atomic densities from disk.

 Charges (in A.U.) from CM5PAC (Nov. 11, 2011)
 -----------------------------------------------
 Center     Atomic      CM5         Hirshfeld
 Number     Number      Charge      Charge
 -----------------------------------------------
    1          6       -0.134997   -0.083742
    2          6       -0.158138   -0.103537
    3          6       -0.156598   -0.102039
    4          6       -0.072695   -0.070714
    5          6       -0.073514   -0.071476
    6          6       -0.137638   -0.086362
    7          6        0.021942   -0.007431
    8          6       -0.095041   -0.106404
    9          6       -0.095515   -0.088174
   10          6        0.007398   -0.018999
   11          8       -0.501515   -0.454066
   12          8       -0.541628   -0.495746
   13          1        0.059869   -0.001201
   14          1        0.061945    0.007034
   15          1        0.062313    0.007410
   16          1        0.057246   -0.003858
   17         16       -0.140161   -0.100491
   18          6       -0.237888   -0.106892
   19          6       -0.261996   -0.122474
   20          1        0.066848    0.014930
   21          1        0.061526    0.009361
   22          1        0.071393    0.011155
   23          1        0.043004   -0.008468
   24          1        0.052300   -0.006929
   25          1        0.041928   -0.010498
 -----------------------------------------------

 Dipole moment (in Debye)
 -----------------------------------------------
                 X        Y        Z     Total
 -----------------------------------------------
 CM5        -16.5884 -20.7397   5.7679  27.1768
 Hirshfeld  -16.5030 -20.7914   5.2420  27.0575
 -----------------------------------------------

   13   -1012.1010876140      9.28e-07  
Hirshfeld: reading atomic densities from disk.

 Charges (in A.U.) from CM5PAC (Nov. 11, 2011)
 -----------------------------------------------
 Center     Atomic      CM5         Hirshfeld
 Number     Number      Charge      Charge
 -----------------------------------------------
    1          6       -0.135006   -0.083751
    2          6       -0.158149   -0.103548
    3          6       -0.156602   -0.102043
    4          6       -0.072678   -0.070698
    5          6       -0.073507   -0.071468
    6          6       -0.137624   -0.086349
    7          6        0.021957   -0.007416
    8          6       -0.095013   -0.106377
    9          6       -0.095520   -0.088179
   10          6        0.007375   -0.019022
   11          8       -0.501511   -0.454062
   12          8       -0.541647   -0.495765
   13          1        0.059873   -0.001197
   14          1        0.061952    0.007041
   15          1        0.062319    0.007416
   16          1        0.057248   -0.003855
   17         16       -0.140166   -0.100496
   18          6       -0.237887   -0.106892
   19          6       -0.262004   -0.122482
   20          1        0.066844    0.014926
   21          1        0.061520    0.009355
   22          1        0.071389    0.011150
   23          1        0.043003   -0.008469
   24          1        0.052298   -0.006931
   25          1        0.041926   -0.010501
 -----------------------------------------------

 Dipole moment (in Debye)
 -----------------------------------------------
                 X        Y        Z     Total
 -----------------------------------------------
 CM5        -16.5889 -20.7392   5.7679  27.1767
 Hirshfeld  -16.5035 -20.7909   5.2421  27.0575
 -----------------------------------------------

   14   -1012.1010895212      2.64e-07  
Hirshfeld: reading atomic densities from disk.

 Charges (in A.U.) from CM5PAC (Nov. 11, 2011)
 -----------------------------------------------
 Center     Atomic      CM5         Hirshfeld
 Number     Number      Charge      Charge
 -----------------------------------------------
    1          6       -0.134999   -0.083744
    2          6       -0.158144   -0.103543
    3          6       -0.156600   -0.102041
    4          6       -0.072692   -0.070712
    5          6       -0.073515   -0.071477
    6          6       -0.137626   -0.086350
    7          6        0.021948   -0.007425
    8          6       -0.095017   -0.106381
    9          6       -0.095509   -0.088167
   10          6        0.007381   -0.019016
   11          8       -0.501511   -0.454062
   12          8       -0.541643   -0.495760
   13          1        0.059875   -0.001196
   14          1        0.061954    0.007042
   15          1        0.062321    0.007418
   16          1        0.057250   -0.003854
   17         16       -0.140167   -0.100497
   18          6       -0.237884   -0.106888
   19          6       -0.262005   -0.122483
   20          1        0.066844    0.014925
   21          1        0.061519    0.009354
   22          1        0.071388    0.011150
   23          1        0.043001   -0.008471
   24          1        0.052297   -0.006931
   25          1        0.041925   -0.010502
 -----------------------------------------------

 Dipole moment (in Debye)
 -----------------------------------------------
                 X        Y        Z     Total
 -----------------------------------------------
 CM5        -16.5891 -20.7393   5.7680  27.1769
 Hirshfeld  -16.5037 -20.7910   5.2421  27.0577
 -----------------------------------------------

   15   -1012.1010905207      1.31e-07  
Hirshfeld: reading atomic densities from disk.

 Charges (in A.U.) from CM5PAC (Nov. 11, 2011)
 -----------------------------------------------
 Center     Atomic      CM5         Hirshfeld
 Number     Number      Charge      Charge
 -----------------------------------------------
    1          6       -0.134999   -0.083744
    2          6       -0.158145   -0.103544
    3          6       -0.156601   -0.102042
    4          6       -0.072689   -0.070708
    5          6       -0.073513   -0.071475
    6          6       -0.137627   -0.086351
    7          6        0.021952   -0.007421
    8          6       -0.095016   -0.106379
    9          6       -0.095510   -0.088169
   10          6        0.007382   -0.019015
   11          8       -0.501512   -0.454063
   12          8       -0.541644   -0.495762
   13          1        0.059874   -0.001196
   14          1        0.061953    0.007042
   15          1        0.062321    0.007418
   16          1        0.057250   -0.003854
   17         16       -0.140169   -0.100499
   18          6       -0.237886   -0.106890
   19          6       -0.262005   -0.122483
   20          1        0.066843    0.014925
   21          1        0.061519    0.009354
   22          1        0.071389    0.011151
   23          1        0.043000   -0.008472
   24          1        0.052297   -0.006932
   25          1        0.041924   -0.010503
 -----------------------------------------------

 Dipole moment (in Debye)
 -----------------------------------------------
                 X        Y        Z     Total
 -----------------------------------------------
 CM5        -16.5891 -20.7392   5.7680  27.1769
 Hirshfeld  -16.5037 -20.7909   5.2422  27.0577
 -----------------------------------------------

   16   -1012.1010900142      3.29e-08  
Hirshfeld: reading atomic densities from disk.

 Charges (in A.U.) from CM5PAC (Nov. 11, 2011)
 -----------------------------------------------
 Center     Atomic      CM5         Hirshfeld
 Number     Number      Charge      Charge
 -----------------------------------------------
    1          6       -0.135000   -0.083745
    2          6       -0.158145   -0.103544
    3          6       -0.156600   -0.102042
    4          6       -0.072690   -0.070709
    5          6       -0.073514   -0.071476
    6          6       -0.137626   -0.086350
    7          6        0.021951   -0.007422
    8          6       -0.095015   -0.106379
    9          6       -0.095510   -0.088168
   10          6        0.007381   -0.019016
   11          8       -0.501511   -0.454062
   12          8       -0.541643   -0.495761
   13          1        0.059875   -0.001196
   14          1        0.061954    0.007042
   15          1        0.062321    0.007418
   16          1        0.057250   -0.003854
   17         16       -0.140169   -0.100498
   18          6       -0.237886   -0.106890
   19          6       -0.262005   -0.122483
   20          1        0.066843    0.014925
   21          1        0.061519    0.009354
   22          1        0.071389    0.011150
   23          1        0.043000   -0.008472
   24          1        0.052297   -0.006932
   25          1        0.041924   -0.010503
 -----------------------------------------------

 Dipole moment (in Debye)
 -----------------------------------------------
                 X        Y        Z     Total
 -----------------------------------------------
 CM5        -16.5891 -20.7393   5.7680  27.1770
 Hirshfeld  -16.5038 -20.7909   5.2422  27.0577
 -----------------------------------------------

   17   -1012.1010903133      1.83e-08  
   18   -1012.1010902158      5.79e-09  Convergence criterion met
 ---------------------------------------
 SCF time:   CPU 4219.29s  wall 535.00s 
(1)  E-EN(liq) elect-nuc energy of solute              -1012.101090216 a.u.
(2)  G-P(liq) polarization free energy of solvation          -168.5110 kcal/mol
(3)  G-ENP(liq) elect-nuc-pol free energy of system    -1012.369629603 a.u.
(4)  G-CDS(liq) cavity-dispersion-solvent structure 
     free energy                                               -6.5652 kcal/mol
(5)  G-P-CDS(liq) = G-P(liq) + G-CDS(liq) = (2) + (4)        -175.0762 kcal/mol
(6)  G-S(liq) free energy of system = (1) + (5)        -1012.380091873 a.u.
 SCF   energy in the final basis set =    -1012.3800918734
 Total energy in the final basis set =    -1012.3800918734
 
 --------------------------------------------------------------
 
                    Orbital Energies (a.u.)
 --------------------------------------------------------------
 
 Alpha MOs
 -- Occupied --
-88.8292 -19.0252 -19.0204 -10.1877 -10.1832 -10.1807 -10.1762 -10.1755
-10.1699 -10.1691 -10.1622 -10.1570 -10.1566 -10.1563 -10.1470  -7.9138
 -5.8779  -5.8741  -5.8677  -0.9439  -0.9342  -0.8457  -0.8012  -0.7611
 -0.7434  -0.7387  -0.6883  -0.6491  -0.6308  -0.5880  -0.5724  -0.5377
 -0.4948  -0.4794  -0.4499  -0.4415  -0.4237  -0.4217  -0.4132  -0.4113
 -0.3927  -0.3852  -0.3812  -0.3732  -0.3612  -0.3536  -0.3426  -0.3292
 -0.3218  -0.3184  -0.3009  -0.2490  -0.2389  -0.2311  -0.2068  -0.2025
 -0.1955  -0.1228
 -- Virtual --
 -0.0698  -0.0667  -0.0610  -0.0522  -0.0493  -0.0402  -0.0320  -0.0278
 -0.0250  -0.0200  -0.0158  -0.0016  -0.0002   0.0028   0.0125   0.0186
  0.0209   0.0249   0.0332   0.0379   0.0407   0.0429   0.0477   0.0504
  0.0543   0.0589   0.0625   0.0662   0.0683   0.0700   0.0770   0.0797
  0.0852   0.0870   0.0907   0.0977   0.1018   0.1021   0.1067   0.1096
  0.1127   0.1158   0.1231   0.1246   0.1279   0.1315   0.1341   0.1410
  0.1502   0.1557   0.1589   0.1634   0.1696   0.1800   0.1882   0.1901
  0.1975   0.2001   0.2085   0.2127   0.2214   0.2268   0.2274   0.2332
  0.2401   0.2455   0.2472   0.2537   0.2603   0.2667   0.2710   0.2768
  0.2807   0.2819   0.2921   0.2965   0.3012   0.3060   0.3103   0.3127
  0.3196   0.3257   0.3318   0.3372   0.3413   0.3493   0.3594   0.3663
  0.3826   0.3971   0.3989   0.4092   0.4174   0.4273   0.4386   0.4414
  0.4700   0.4884   0.5038   0.5088   0.5296   0.5307   0.5370   0.5399
  0.5511   0.5575   0.5615   0.5769   0.5832   0.5883   0.6017   0.6066
  0.6153   0.6374   0.6418   0.6493   0.6527   0.6613   0.6629   0.6657
  0.6718   0.6748   0.6842   0.6991   0.7089   0.7123   0.7169   0.7261
  0.7307   0.7410   0.7535   0.7630   0.7719   0.7916   0.7950   0.8216
  0.8222   0.8293   0.8337   0.8549   0.8629   0.8725   0.8839   0.8963
  0.9188   0.9333   0.9364   0.9445   0.9527   0.9635   0.9770   1.0000
  1.0063   1.0103   1.0211   1.0320   1.0403   1.0551   1.0653   1.0718
  1.0826   1.0949   1.1022   1.1152   1.1327   1.1423   1.1527   1.1567
  1.1719   1.1942   1.2046   1.2580   1.2706   1.2862   1.2937   1.3055
  1.3267   1.3390   1.3394   1.3548   1.3909   1.4070   1.4179   1.4633
  1.4770   1.4982   1.5079   1.5187   1.5222   1.5270   1.5481   1.5547
  1.5650   1.5769   1.5895   1.6065   1.6114   1.6329   1.6352   1.6714
  1.6796   1.6809   1.6853   1.7039   1.7211   1.7351   1.7434   1.7469
  1.7668   1.7804   1.8078   1.8174   1.8258   1.8370   1.8524   1.8680
  1.8820   1.8976   1.9032   1.9218   1.9312   1.9465   1.9590   1.9647
  1.9730   1.9800   1.9873   2.0018   2.0199   2.0351   2.0384   2.0791
  2.0873   2.1030   2.1459   2.1778   2.1901   2.2153   2.2292   2.2371
  2.2751   2.2972   2.3022   2.3221   2.3439   2.3824   2.3943   2.4319
  2.4600   2.4718   2.4758   2.4990   2.5108   2.5333   2.5407   2.5631
  2.5858   2.6086   2.6153   2.6353   2.6432   2.6596   2.6681   2.6975
  2.7125   2.7304   2.7429   2.7536   2.7638   2.7788   2.7916   2.7974
  2.8330   2.8387   2.8538   2.8992   2.9041   2.9115   2.9231   2.9515
  2.9623   2.9730   3.0046   3.0107   3.0183   3.0912   3.1266   3.1433
  3.1712   3.2002   3.2073   3.2185   3.2676   3.2762   3.3083   3.3451
  3.3532   3.3769   3.4355   3.4989   3.5032   3.5334   3.5512   3.5698
  3.6034   3.6328   3.7292   3.7669   3.7678   3.7955   3.8655   3.9000
  4.0109   4.0356   4.1006   4.2004   4.3053   4.3369   4.4173   4.8372
  4.8453   5.1442   5.1623   5.3154   5.3433   5.7798   5.8543   8.0460
 17.4053  17.4895  17.5654  23.5341  23.7739  23.9201  23.9239  23.9340
 23.9664  23.9690  23.9978  24.0215  24.0721  24.1120  24.1785  50.0861
 50.1379 189.2298
 --------------------------------------------------------------
 
          Ground-State Mulliken Net Atomic Charges

     Atom                 Charge (a.u.)
  ----------------------------------------
      1 C                     0.167405
      2 C                     1.446231
      3 C                     1.652246
      4 C                    -1.371818
      5 C                    -1.982509
      6 C                    -0.313665
      7 C                    -2.091468
      8 C                     1.014855
      9 C                    -0.698122
     10 C                    -2.602384
     11 O                    -0.270811
     12 O                    -0.368270
     13 H                     0.115586
     14 H                     0.413890
     15 H                     0.408897
     16 H                     0.099097
     17 S                     0.662038
     18 C                    -0.247670
     19 C                     1.004435
     20 H                     0.312436
     21 H                     0.077589
     22 H                     0.091288
     23 H                     0.150044
     24 H                     0.174500
     25 H                     0.156179
  ----------------------------------------
  Sum of atomic charges =    -2.000000

 -----------------------------------------------------------------
                    Cartesian Multipole Moments
 -----------------------------------------------------------------
    Charge (ESU x 10^10)
                -9.6064
    Dipole Moment (Debye)
         X     -16.9359      Y     -20.6039      Z       6.6827
       Tot      27.4956
    Quadrupole Moments (Debye-Ang)
        XX    -163.5329     XY     -41.6566     YY    -203.2371
        XZ      23.5925     YZ      17.6411     ZZ    -119.5057
    Octopole Moments (Debye-Ang^2)
       XXX    -805.7055    XXY    -404.7942    XYY    -398.4958
       YYY   -1201.8634    XXZ     150.5673    XYZ      64.9918
       YYZ     141.5400    XZZ    -239.8959    YZZ    -298.6416
       ZZZ     186.6902
    Hexadecapole Moments (Debye-Ang^3)
      XXXX   -6326.1800   XXXY   -2098.3814   XXYY   -2408.2797
      XYYY   -2516.2921   YYYY   -7593.8635   XXXZ    1178.1931
      XXYZ     373.1656   XYYZ     521.4392   YYYZ     776.9567
      XXZZ   -1220.9145   XYZZ    -661.0451   YYZZ   -1225.4110
      XZZZ     902.6388   YZZZ     449.0589   ZZZZ    -816.9948
 -----------------------------------------------------------------
 Total job time:  622.84s(wall), 4225.75s(cpu) 
 Sat Feb  3 13:25:47 2024

        *************************************************************
        *                                                           *
        *  Thank you very much for using Q-Chem.  Have a nice day.  *
        *                                                           *
        *************************************************************


