
Running Job 1 of 1 204-rad-SM12.in
qchem 204-rad-SM12.in_12723.0 /expanse/lustre/scratch/selhajj/temp_project/qcscratch/28446400/qchem12723/ 0
/cm/shared/apps/spack/cpu/opt/spack/linux-centos8-zen2/gcc-10.2.0/qchem-5.4-akfmr7b3t57bfs6qan3padb2wnb2i7cl/exe/qcprog.exe_s 204-rad-SM12.in_12723.0 /expanse/lustre/scratch/selhajj/temp_project/qcscratch/28446400/qchem12723/
                  Welcome to Q-Chem
     A Quantum Leap Into The Future Of Chemistry


 Q-Chem 5.4, Q-Chem, Inc., Pleasanton, CA (2021)

 License issued to: University of California, San Diego (site)

 E. Epifanovsky,  A. T. B. Gilbert,  Xintian Feng,  Joonho Lee,  Yuezhi Mao,  
 N. Mardirossian,  P. Pokhilko,  A. White,  M. Wormit,  M. P. Coons,  
 A. L. Dempwolff,  Zhengting Gan,  D. Hait,  P. R. Horn,  L. D. Jacobson,  
 I. Kaliman,  J. Kussmann,  A. W. Lange,  Ka Un Lao,  D. S. Levine,  Jie Liu,  
 S. C. McKenzie,  A. F. Morrison,  K. Nanda,  F. Plasser,  D. R. Rehn,  
 M. L. Vidal,  Zhi-Qiang You,  Ying Zhu,  B. Alam,  B. Albrecht,  
 A. Aldossary,  E. Alguire,  J. H. Andersen,  D. Barton,  K. Begam,  A. Behn,  
 Y. A. Bernard,  E. J. Berquist,  H. Burton,  A. Carreras,  K. Carter-Fenk,  
 R. Chakraborty,  A. D. Chien,  K. D. Closser,  V. Cofer-Shabica,  
 S. Dasgupta,  Jia Deng,  M. de Wergifosse,  M. Diedenhofen,  Hainam Do,  
 S. Ehlert,  Po-Tung Fang,  S. Fatehi,  Qingguo Feng,  J. Gayvert,  
 Qinghui Ge,  G. Gidofalvi,  M. Goldey,  J. Gomes,  C. Gonzalez-Espinoza,  
 S. Gulania,  A. Gunina,  M. W. D. Hanson-Heine,  P. H. P. Harbach,  
 A. W. Hauser,  M. F. Herbst,  M. Hernandez Vera,  M. Hodecker,  
 Z. C. Holden,  S. Houck,  Xunkun Huang,  Kerwin Hui,  B. C. Huynh,  
 M. Ivanov,  Hyunjun Ji,  Hanjie Jiang,  B. Kaduk,  S. Kaehler,  
 K. Khistyaev,  Jaehoon Kim,  P. Klunzinger,  Z. Koczor-Benda,  
 Joong Hoon Koh,  D. Kosenkov,  L. Koulias,  T. Kowalczyk,  C. M. Krauter,  
 K. Kue,  A. Kunitsa,  T. Kus,  A. Landau,  K. V. Lawler,  D. Lefrancois,  
 S. Lehtola,  Rain Li,  Yi-Pei Li,  Jiashu Liang,  M. Liebenthal,  
 Hung-Hsuan Lin,  You-Sheng Lin,  Fenglai Liu,  Kuan-Yu Liu,  
 M. Loipersberger,  A. Luenser,  A. Manjanath,  P. Manohar,  E. Mansoor,  
 S. F. Manzer,  Shan-Ping Mao,  A. V. Marenich,  T. Markovich,  S. Mason,  
 S. A. Maurer,  P. F. McLaughlin,  M. F. S. J. Menger,  J.-M. Mewes,  
 S. A. Mewes,  P. Morgante,  J. W. Mullinax,  T. S. Nguyen-Beck,  
 K. J. Oosterbaan,  G. Paran,  Alexander C. Paul,  Suranjan K. Paul,  
 F. Pavosevic,  Zheng Pei,  S. Prager,  E. I. Proynov,  E. Ramos,  B. Rana,  
 A. E. Rask,  A. Rettig,  R. M. Richard,  F. Rob,  E. Rossomme,  T. Scheele,  
 M. Scheurer,  M. Schneider,  N. Sergueev,  S. M. Sharada,  W. Skomorowski,  
 D. W. Small,  C. J. Stein,  Yu-Chuan Su,  E. J. Sundstrom,  Zhen Tao,  
 J. Thirman,  T. Tsuchimochi,  N. M. Tubman,  S. P. Veccham,  O. Vydrov,  
 J. Wenzel,  J. Witte,  A. Yamada,  Kun Yao,  S. Yeganeh,  S. R. Yost,  
 A. Zech,  Igor Ying Zhang,  Xing Zhang,  Yu Zhang,  D. Zuev,  
 A. Aspuru-Guzik,  A. T. Bell,  N. A. Besley,  K. B. Bravaya,  B. R. Brooks,  
 D. Casanova,  Jeng-Da Chai,  S. Coriani,  C. J. Cramer,  
 A. E. DePrince, III,  R. A. DiStasio Jr.,  A. Dreuw,  B. D. Dunietz,  
 T. R. Furlani,  W. A. Goddard III,  S. Grimme,  S. Hammes-Schiffer,  
 T. Head-Gordon,  W. J. Hehre,  Chao-Ping Hsu,  T.-C. Jagau,  Yousung Jung,  
 A. Klamt,  Jing Kong,  D. S. Lambrecht,  WanZhen Liang,  N. J. Mayhall,  
 C. W. McCurdy,  J. B. Neaton,  C. Ochsenfeld,  J. A. Parkhill,  R. Peverati,  
 V. A. Rassolov,  Yihan Shao,  L. V. Slipchenko,  T. Stauch,  R. P. Steele,  
 J. E. Subotnik,  A. J. W. Thom,  A. Tkatchenko,  D. G. Truhlar,  
 T. Van Voorhis,  T. A. Wesolowski,  K. B. Whaley,  H. L. Woodcock III,  
 P. M. Zimmerman,  S. Faraji,  P. M. W. Gill,  M. Head-Gordon,  
 J. M. Herbert,  A. I. Krylov

 Contributors to earlier versions of Q-Chem not listed above: 
 R. D. Adamson,  B. Austin,  R. Baer,  J. Baker,  G. J. O. Beran,  
 K. Brandhorst,  S. T. Brown,  E. F. C. Byrd,  A. K. Chakraborty,  
 G. K. L. Chan,  Chun-Min Chang,  Yunqing Chen,  C.-L. Cheng,  
 Siu Hung Chien,  D. M. Chipman,  D. L. Crittenden,  H. Dachsel,  
 R. J. Doerksen,  A. D. Dutoi,  R. G. Edgar,  J. Fosso-Tande,  
 L. Fusti-Molnar,  D. Ghosh,  A. Ghysels,  A. Golubeva-Zadorozhnaya,  
 J. Gonthier,  M. S. Gordon,  S. R. Gwaltney,  G. Hawkins,  J. E. Herr,  
 A. Heyden,  S. Hirata,  E. G. Hohenstein,  G. Kedziora,  F. J. Keil,  
 C. Kelley,  Jihan Kim,  R. A. King,  R. Z. Khaliullin,  P. P. Korambath,  
 W. Kurlancheek,  A. Laurent,  A. M. Lee,  M. S. Lee,  S. V. Levchenko,  
 Ching Yeh Lin,  D. Liotard,  E. Livshits,  R. C. Lochan,  I. Lotan,  
 L. A. Martinez-Martinez,  P. E. Maslen,  N. Nair,  D. P. O'Neill,  
 D. Neuhauser,  E. Neuscamman,  C. M. Oana,  R. Olivares-Amaya,  R. Olson,  
 T. M. Perrine,  B. Peters,  P. A. Pieniazek,  A. Prociuk,  Y. M. Rhee,  
 J. Ritchie,  M. A. Rohrdanz,  E. Rosta,  N. J. Russ,  H. F. Schaefer III,  
 M. W. Schmidt,  N. E. Schultz,  S. Sharma,  N. Shenvi,  C. D. Sherrill,  
 A. C. Simmonett,  A. Sodt,  T. Stein,  D. Stuck,  K. S. Thanthiriwatte,  
 V. Vanovschi,  L. Vogt,  Tao Wang,  A. Warshel,  M. A. Watson,  
 C. F. Williams,  Q. Wu,  X. Xu,  Jun Yang,  W. Zhang,  Yan Zhao

 Please cite Q-Chem as follows:
 Y. Shao et al., Mol. Phys. 113, 184-215 (2015)
 DOI: 10.1080/00268976.2014.952696

 Q-Chem 5.4.0 for Intel X86 EM64T Linux

 Parts of Q-Chem use Armadillo 9.800.1 (Horizon Scraper).
 http://arma.sourceforge.net/

 Q-Chem begins on Sat Feb  3 12:51:43 2024  

 Host: 
0

     Scratch files written to /expanse/lustre/scratch/selhajj/temp_project/qcscratch/28446400/qchem12723//
 May1621 |scratch|qcdevops|jenkins|workspace|build_RNUM    
 Processing $rem in /cm/shared/apps/spack/cpu/opt/spack/linux-centos8-zen2/gcc-10.2.0/qchem-5.4-akfmr7b3t57bfs6qan3padb2wnb2i7cl/config/preferences:
 Processing $rem in /home/selhajj/.qchemrc:
 Symmetry turned off for PCM/SM12/SMD calculation
 Method-specific promolecule density matrix will be built for SM12 calculation

 Checking the input file for inconsistencies... 	...done.

--------------------------------------------------------------
User input:
--------------------------------------------------------------
$molecule
-1 2
O                  4.8728980000     -0.8947290000      0.0190890000
C                  3.6514870000     -0.2648620000      0.0585130000
C                  3.5770730000      1.1310370000      0.1256070000
C                  2.3393530000      1.7539740000      0.1649160000
C                  1.1487720000      1.0095120000      0.1386880000
C                 -0.1462570000      1.7167670000      0.1824440000
O                 -0.1747300000      2.9582790000      0.2417220000
C                 -1.3609100000      0.8804300000      0.1517490000
C                 -2.6594320000      1.4492670000      0.1886510000
O                 -2.8166500000      2.8139140000      0.2549790000
C                 -3.7882940000      0.6391620000      0.1584140000
C                 -3.6864980000     -0.7553580000      0.0910310000
C                 -2.4426360000     -1.3594450000      0.0528740000
O                 -2.3815940000     -2.7118320000     -0.0121360000
C                 -1.2571140000     -0.5573600000      0.0823170000
C                  0.0238900000     -1.2077970000      0.0415740000
O                  0.1247440000     -2.5125000000     -0.0216090000
C                  1.2177030000     -0.4067440000      0.0706340000
C                  2.4909330000     -1.0291860000      0.0310790000
O                  2.6421060000     -2.3817180000     -0.0344220000
H                  4.6832750000     -1.8429090000     -0.0244030000
H                  4.4988760000      1.7020960000      0.1456740000
H                  2.2568800000      2.8322680000      0.2169220000
H                 -3.7638170000      2.9875430000      0.2702770000
H                 -4.7719330000      1.1033990000      0.1879880000
H                 -4.5716800000     -1.3804170000      0.0678040000
H                 -1.4068290000     -2.9341390000     -0.0297380000
H                  1.7003840000     -2.7386520000     -0.0437830000
$end

$rem
BASIS  =  6-311++G(d,p)
GUI  =  2
JOB_TYPE  =  SP
METHOD  =  B3LYP
SCF_CONVERGENCE  = 8
SOLVENT_METHOD = sm12
$end

$smx
solvent dimethylformamide
charges CM5
$end





--------------------------------------------------------------
 ----------------------------------------------------------------
             Standard Nuclear Orientation (Angstroms)
    I     Atom           X                Y                Z
 ----------------------------------------------------------------
    1      O       4.8728980000    -0.8947290000     0.0190890000
    2      C       3.6514870000    -0.2648620000     0.0585130000
    3      C       3.5770730000     1.1310370000     0.1256070000
    4      C       2.3393530000     1.7539740000     0.1649160000
    5      C       1.1487720000     1.0095120000     0.1386880000
    6      C      -0.1462570000     1.7167670000     0.1824440000
    7      O      -0.1747300000     2.9582790000     0.2417220000
    8      C      -1.3609100000     0.8804300000     0.1517490000
    9      C      -2.6594320000     1.4492670000     0.1886510000
   10      O      -2.8166500000     2.8139140000     0.2549790000
   11      C      -3.7882940000     0.6391620000     0.1584140000
   12      C      -3.6864980000    -0.7553580000     0.0910310000
   13      C      -2.4426360000    -1.3594450000     0.0528740000
   14      O      -2.3815940000    -2.7118320000    -0.0121360000
   15      C      -1.2571140000    -0.5573600000     0.0823170000
   16      C       0.0238900000    -1.2077970000     0.0415740000
   17      O       0.1247440000    -2.5125000000    -0.0216090000
   18      C       1.2177030000    -0.4067440000     0.0706340000
   19      C       2.4909330000    -1.0291860000     0.0310790000
   20      O       2.6421060000    -2.3817180000    -0.0344220000
   21      H       4.6832750000    -1.8429090000    -0.0244030000
   22      H       4.4988760000     1.7020960000     0.1456740000
   23      H       2.2568800000     2.8322680000     0.2169220000
   24      H      -3.7638170000     2.9875430000     0.2702770000
   25      H      -4.7719330000     1.1033990000     0.1879880000
   26      H      -4.5716800000    -1.3804170000     0.0678040000
   27      H      -1.4068290000    -2.9341390000    -0.0297380000
   28      H       1.7003840000    -2.7386520000    -0.0437830000
 ----------------------------------------------------------------
 Nuclear Repulsion Energy =        1506.31821359 hartrees
 There are       71 alpha and       70 beta electrons
 Requested basis set is 6-311++G(d,p)
 There are 160 shells and 496 basis functions

 Total QAlloc Memory Limit   8000 MB
 Mega-Array Size       188 MB
 MEM_STATIC part       192 MB
 A cutoff of  1.0D-11 yielded   9683 shell pairs
 There are     96789 function pairs (    104013 Cartesian)
 Smallest overlap matrix eigenvalue = 5.27E-08

 Q-Chem warning in module stvman/mkSTV.C, line 323:

 Overlap eigenvalue is smaller than square root of threshold
 Use THRESH >= 12 to get rid of this warning

 Linear dependence detected in AO basis
 Tighter screening thresholds may be required for diffuse basis sets
 Use S2THRESH > 14 and THRESH = 14 in case of SCF convergence issues
 Number of orthogonalized atomic orbitals = 488
 Maximum deviation from orthogonality = 1.604E-10

 Scale SEOQF with 1.000000e-01/1.000000e-01/1.000000e-01

 Standard Electronic Orientation quadrupole field applied
 Nucleus-field energy     =     0.0000000660 hartrees
 ================ Generating on-the-fly Promolecule Density  ================
Attempting to make child job directory: /expanse/lustre/scratch/selhajj/temp_project/qcscratch/28446400/qchem12723//Frg1/
Attempting to make child job directory: /expanse/lustre/scratch/selhajj/temp_project/qcscratch/28446400/qchem12723//Frg2/
Attempting to make child job directory: /expanse/lustre/scratch/selhajj/temp_project/qcscratch/28446400/qchem12723//Frg3/
Creating input file /expanse/lustre/scratch/selhajj/temp_project/qcscratch/28446400/qchem12723/Frg1.input
using default PutDataFrgm: nothing
calling putenv with: QCSCRATCH=/expanse/lustre/scratch/selhajj/temp_project/qcscratch/28446400/qchem12723/ 
Spawning Job For Fragment 0
Done Job For Fragment 0
calling putenv with: QCSCRATCH=/expanse/lustre/scratch/selhajj/temp_project/qcscratch/28446400 
calling putenv with: QCTHREADS=8 
Creating input file /expanse/lustre/scratch/selhajj/temp_project/qcscratch/28446400/qchem12723/Frg2.input
using default PutDataFrgm: nothing
calling putenv with: QCSCRATCH=/expanse/lustre/scratch/selhajj/temp_project/qcscratch/28446400/qchem12723/ 
Spawning Job For Fragment 1
Done Job For Fragment 1
calling putenv with: QCSCRATCH=/expanse/lustre/scratch/selhajj/temp_project/qcscratch/28446400 
calling putenv with: QCTHREADS=8 
Creating input file /expanse/lustre/scratch/selhajj/temp_project/qcscratch/28446400/qchem12723/Frg3.input
using default PutDataFrgm: nothing
calling putenv with: QCSCRATCH=/expanse/lustre/scratch/selhajj/temp_project/qcscratch/28446400/qchem12723/ 
Spawning Job For Fragment 2
Done Job For Fragment 2
calling putenv with: QCSCRATCH=/expanse/lustre/scratch/selhajj/temp_project/qcscratch/28446400 
calling putenv with: QCTHREADS=8 
 Time for running child jobs:  CPU 0.01 s  wall 3.38 s
 ============= Method Specific Promolecule Density Constructed =============
 Guess from superposition of atomic densities
 Warning:  Energy on first SCF cycle will be non-variational
 SAD guess density has 140.000000 electrons

 -----------------------------------------------------------------------
  General SCF calculation program by
  Eric Jon Sundstrom, Paul Horn, Yuezhi Mao, Dmitri Zuev, Alec White,
  David Stuck, Shaama M.S., Shane Yost, Joonho Lee, David Small,
  Daniel Levine, Susi Lehtola, Hugh Burton, Evgeny Epifanovsky,
  Bang C. Huynh
 -----------------------------------------------------------------------
 Exchange:     0.2000 Hartree-Fock + 0.0800 Slater + 0.7200 B88
 Correlation:  0.1900 VWN1RPA + 0.8100 LYP
 Using SG-1 standard quadrature grid
 using 8 threads for integral computing
 -------------------------------------------------------
 OpenMP Integral computing Module                
 Release: version 1.0, May 2013, Q-Chem Inc. Pittsburgh 
 -------------------------------------------------------
 
 SM12 calculation using CM5 charges
 Citation of the SM12 model:
 Marenich, A.V.; Cramer, C.J.; Truhlar, D.G.
 J. Chem. Theory Comput. 2013, 9, 609-612.
 iSolventCode=          91
 Solvent: dimethylformamide                                               
 
Hirshfeld: reading atomic densities from disk.
warning:  vdwdata pointer should have been initialzed before dftman
 Inaccurate integrated density:
   Number of electrons =   141
   Numerical integral  =   140.000940181940
   Relative error      =    -0.7085530625 %

 Charges (in A.U.) from CM5PAC (Nov. 11, 2011)
 -----------------------------------------------
 Center     Atomic      CM5         Hirshfeld
 Number     Number      Charge      Charge
 -----------------------------------------------
    1          8       -0.218448   -0.023294
    2          6        0.024000    0.008107
    3          6       -0.049995    0.000140
    4          6       -0.051679   -0.000472
    5          6       -0.001486    0.000012
    6          6        0.041412    0.008253
    7          8       -0.058580   -0.014703
    8          6        0.006014    0.002637
    9          6        0.021706    0.007088
   10          8       -0.220630   -0.023001
   11          6       -0.051410   -0.000074
   12          6       -0.049575    0.000455
   13          6        0.023049    0.007330
   14          8       -0.206743   -0.021821
   15          6        0.003875    0.002229
   16          6        0.032972    0.008522
   17          8       -0.126628   -0.022156
   18          6        0.003705    0.002011
   19          6        0.027832    0.009143
   20          8       -0.210883   -0.022579
   21          1        0.197271    0.014518
   22          1        0.062890    0.004446
   23          1        0.066939    0.005469
   24          1        0.186540    0.011424
   25          1        0.061713    0.003428
   26          1        0.063599    0.004575
   27          1        0.212198    0.013623
   28          1        0.209404    0.013747
 -----------------------------------------------

 Dipole moment (in Debye)
 -----------------------------------------------
                 X        Y        Z     Total
 -----------------------------------------------
 CM5         -1.3455  -0.4280  -0.0097   1.4120
 Hirshfeld   -0.1135   0.1122   0.0058   0.1597
 -----------------------------------------------

 A unrestricted SCF calculation will be
 performed using DIIS
 SCF converges when DIIS error is below 1.0e-08
 ---------------------------------------
  Cycle       Energy         DIIS error
 ---------------------------------------
Hirshfeld: reading atomic densities from disk.

 Charges (in A.U.) from CM5PAC (Nov. 11, 2011)
 -----------------------------------------------
 Center     Atomic      CM5         Hirshfeld
 Number     Number      Charge      Charge
 -----------------------------------------------
    1          8       -0.495873   -0.300719
    2          6        0.147015    0.131122
    3          6       -0.221647   -0.171512
    4          6       -0.222225   -0.171018
    5          6       -0.114498   -0.113000
    6          6        0.245208    0.212049
    7          8       -0.658267   -0.614389
    8          6       -0.099111   -0.102488
    9          6        0.179243    0.164626
   10          8       -0.497086   -0.299457
   11          6       -0.219551   -0.168215
   12          6       -0.243260   -0.193231
   13          6        0.177144    0.161425
   14          8       -0.519509   -0.334587
   15          6       -0.094833   -0.096480
   16          6        0.233817    0.209366
   17          8       -0.518567   -0.414095
   18          6       -0.096617   -0.098311
   19          6        0.188819    0.170131
   20          8       -0.484450   -0.296146
   21          1        0.423606    0.240854
   22          1        0.177065    0.118621
   23          1        0.163586    0.102116
   24          1        0.439500    0.264384
   25          1        0.185496    0.127212
   26          1        0.175598    0.116574
   27          1        0.373435    0.174860
   28          1        0.375592    0.179936
 -----------------------------------------------

 Dipole moment (in Debye)
 -----------------------------------------------
                 X        Y        Z     Total
 -----------------------------------------------
 CM5         -2.8801  -3.2920  -0.6102   4.4163
 Hirshfeld   -1.6481  -2.7517  -0.5947   3.2622
 -----------------------------------------------

    1    -994.8608237255      1.54e-02  
Hirshfeld: reading atomic densities from disk.

 Charges (in A.U.) from CM5PAC (Nov. 11, 2011)
 -----------------------------------------------
 Center     Atomic      CM5         Hirshfeld
 Number     Number      Charge      Charge
 -----------------------------------------------
    1          8       -0.237253   -0.042099
    2          6       -0.123550   -0.139443
    3          6        0.004264    0.054399
    4          6        0.042075    0.093283
    5          6        0.025820    0.027318
    6          6       -0.189989   -0.223147
    7          8        0.362073    0.405951
    8          6       -0.042858   -0.046234
    9          6       -0.113880   -0.128497
   10          8       -0.204415   -0.006786
   11          6       -0.036838    0.014498
   12          6        0.021338    0.071368
   13          6       -0.110273   -0.125992
   14          8       -0.261428   -0.076506
   15          6       -0.071230   -0.072876
   16          6       -0.233346   -0.257796
   17          8       -0.112178   -0.007706
   18          6       -0.065237   -0.066931
   19          6       -0.198909   -0.217597
   20          8       -0.297874   -0.109570
   21          1        0.225594    0.042842
   22          1        0.017691   -0.040753
   23          1       -0.020642   -0.082112
   24          1        0.178835    0.003720
   25          1        0.005148   -0.053136
   26          1        0.021466   -0.037558
   27          1        0.199874    0.001299
   28          1        0.215720    0.020063
 -----------------------------------------------

 Dipole moment (in Debye)
 -----------------------------------------------
                 X        Y        Z     Total
 -----------------------------------------------
 CM5         -2.5082   7.5359  -0.0971   7.9429
 Hirshfeld   -1.2763   8.0761  -0.0816   8.1768
 -----------------------------------------------

    2    -989.6542753354      1.91e-03  
Hirshfeld: reading atomic densities from disk.

 Charges (in A.U.) from CM5PAC (Nov. 11, 2011)
 -----------------------------------------------
 Center     Atomic      CM5         Hirshfeld
 Number     Number      Charge      Charge
 -----------------------------------------------
    1          8       -0.415506   -0.220352
    2          6        0.071685    0.055792
    3          6       -0.100488   -0.050353
    4          6       -0.116181   -0.064974
    5          6       -0.031370   -0.029872
    6          6        0.146392    0.113233
    7          8       -0.627734   -0.583857
    8          6       -0.000663   -0.004039
    9          6        0.073508    0.058891
   10          8       -0.398330   -0.200701
   11          6       -0.102540   -0.051205
   12          6       -0.107962   -0.057932
   13          6        0.077840    0.062121
   14          8       -0.426375   -0.241453
   15          6        0.003750    0.002103
   16          6        0.139883    0.115433
   17          8       -0.402538   -0.298066
   18          6        0.011003    0.009310
   19          6        0.103485    0.084797
   20          8       -0.404630   -0.216326
   21          1        0.316839    0.134087
   22          1        0.076684    0.018240
   23          1        0.071029    0.009559
   24          1        0.323279    0.148163
   25          1        0.075555    0.017271
   26          1        0.074798    0.015774
   27          1        0.283389    0.084814
   28          1        0.284885    0.089228
 -----------------------------------------------

 Dipole moment (in Debye)
 -----------------------------------------------
                 X        Y        Z     Total
 -----------------------------------------------
 CM5         -2.3858  -3.7244  -0.6347   4.4684
 Hirshfeld   -1.1538  -3.1842  -0.6191   3.4429
 -----------------------------------------------

    3    -989.2068160170      2.93e-03  
Hirshfeld: reading atomic densities from disk.

 Charges (in A.U.) from CM5PAC (Nov. 11, 2011)
 -----------------------------------------------
 Center     Atomic      CM5         Hirshfeld
 Number     Number      Charge      Charge
 -----------------------------------------------
    1          8       -0.409955   -0.214801
    2          6        0.068737    0.052844
    3          6       -0.125418   -0.075284
    4          6       -0.119537   -0.068330
    5          6       -0.067409   -0.065911
    6          6        0.109500    0.076341
    7          8       -0.348457   -0.304580
    8          6       -0.067953   -0.071329
    9          6        0.085576    0.070959
   10          8       -0.389016   -0.191387
   11          6       -0.136385   -0.085050
   12          6       -0.135727   -0.085698
   13          6        0.079659    0.063940
   14          8       -0.426258   -0.241336
   15          6       -0.068195   -0.069842
   16          6        0.083769    0.059318
   17          8       -0.382613   -0.278141
   18          6       -0.065493   -0.067186
   19          6        0.075186    0.056497
   20          8       -0.416092   -0.227788
   21          1        0.332915    0.150163
   22          1        0.098839    0.040395
   23          1        0.089876    0.028407
   24          1        0.333659    0.158544
   25          1        0.098094    0.039809
   26          1        0.098795    0.039771
   27          1        0.299931    0.101356
   28          1        0.303665    0.108008
 -----------------------------------------------

 Dipole moment (in Debye)
 -----------------------------------------------
                 X        Y        Z     Total
 -----------------------------------------------
 CM5         -2.5729   0.1124  -0.4504   2.6144
 Hirshfeld   -1.3409   0.6526  -0.4348   1.5534
 -----------------------------------------------

    4    -989.9683577459      7.71e-04  
Hirshfeld: reading atomic densities from disk.

 Charges (in A.U.) from CM5PAC (Nov. 11, 2011)
 -----------------------------------------------
 Center     Atomic      CM5         Hirshfeld
 Number     Number      Charge      Charge
 -----------------------------------------------
    1          8       -0.395514   -0.200360
    2          6        0.043114    0.027221
    3          6       -0.120606   -0.070472
    4          6       -0.109098   -0.057890
    5          6       -0.044265   -0.042767
    6          6        0.104459    0.071301
    7          8       -0.392302   -0.348425
    8          6       -0.051389   -0.054766
    9          6        0.062718    0.048100
   10          8       -0.376975   -0.179346
   11          6       -0.131825   -0.080489
   12          6       -0.127181   -0.077151
   13          6        0.064048    0.048329
   14          8       -0.414817   -0.229895
   15          6       -0.056141   -0.057788
   16          6        0.071618    0.047167
   17          8       -0.357591   -0.253119
   18          6       -0.052605   -0.054298
   19          6        0.046454    0.027766
   20          8       -0.405825   -0.217521
   21          1        0.330039    0.147286
   22          1        0.098743    0.040299
   23          1        0.089776    0.028306
   24          1        0.331593    0.156477
   25          1        0.097900    0.039616
   26          1        0.097650    0.038626
   27          1        0.296296    0.097721
   28          1        0.301438    0.105781
 -----------------------------------------------

 Dipole moment (in Debye)
 -----------------------------------------------
                 X        Y        Z     Total
 -----------------------------------------------
 CM5         -2.6693  -0.5294  -0.4802   2.7634
 Hirshfeld   -1.4374   0.0109  -0.4647   1.5107
 -----------------------------------------------

    5    -990.0281927964      1.62e-04  
Hirshfeld: reading atomic densities from disk.

 Charges (in A.U.) from CM5PAC (Nov. 11, 2011)
 -----------------------------------------------
 Center     Atomic      CM5         Hirshfeld
 Number     Number      Charge      Charge
 -----------------------------------------------
    1          8       -0.404092   -0.208938
    2          6        0.057088    0.041195
    3          6       -0.118447   -0.068312
    4          6       -0.116040   -0.064833
    5          6       -0.054277   -0.052779
    6          6        0.103034    0.069876
    7          8       -0.377792   -0.333915
    8          6       -0.051705   -0.055082
    9          6        0.071446    0.056828
   10          8       -0.383369   -0.185740
   11          6       -0.129364   -0.078029
   12          6       -0.126811   -0.076781
   13          6        0.068592    0.052873
   14          8       -0.420484   -0.235562
   15          6       -0.053809   -0.055455
   16          6        0.078452    0.054002
   17          8       -0.378775   -0.274302
   18          6       -0.049984   -0.051677
   19          6        0.064041    0.045353
   20          8       -0.409137   -0.220832
   21          1        0.329791    0.147039
   22          1        0.096014    0.037570
   23          1        0.087473    0.026003
   24          1        0.330760    0.155644
   25          1        0.095066    0.036782
   26          1        0.095288    0.036264
   27          1        0.296276    0.097701
   28          1        0.300468    0.104811
 -----------------------------------------------

 Dipole moment (in Debye)
 -----------------------------------------------
                 X        Y        Z     Total
 -----------------------------------------------
 CM5         -2.6027  -0.2819  -0.4689   2.6596
 Hirshfeld   -1.3708   0.2583  -0.4534   1.4667
 -----------------------------------------------

    6    -990.0298707536      8.35e-05  
Hirshfeld: reading atomic densities from disk.

 Charges (in A.U.) from CM5PAC (Nov. 11, 2011)
 -----------------------------------------------
 Center     Atomic      CM5         Hirshfeld
 Number     Number      Charge      Charge
 -----------------------------------------------
    1          8       -0.403150   -0.207996
    2          6        0.056016    0.040123
    3          6       -0.120298   -0.070163
    4          6       -0.113447   -0.062240
    5          6       -0.053170   -0.051671
    6          6        0.108425    0.075266
    7          8       -0.380451   -0.336574
    8          6       -0.054289   -0.057666
    9          6        0.072394    0.057777
   10          8       -0.383312   -0.185683
   11          6       -0.131390   -0.080055
   12          6       -0.128765   -0.078735
   13          6        0.070183    0.054464
   14          8       -0.421010   -0.236088
   15          6       -0.056585   -0.058232
   16          6        0.078728    0.054278
   17          8       -0.369951   -0.265479
   18          6       -0.053247   -0.054940
   19          6        0.061787    0.043099
   20          8       -0.410936   -0.222632
   21          1        0.329731    0.146978
   22          1        0.096309    0.037865
   23          1        0.087747    0.026278
   24          1        0.330938    0.155822
   25          1        0.095383    0.037098
   26          1        0.095615    0.036591
   27          1        0.296033    0.097458
   28          1        0.300420    0.104763
 -----------------------------------------------

 Dipole moment (in Debye)
 -----------------------------------------------
                 X        Y        Z     Total
 -----------------------------------------------
 CM5         -2.5900  -0.3168  -0.4707   2.6514
 Hirshfeld   -1.3580   0.2235  -0.4551   1.4496
 -----------------------------------------------

    7    -990.0309963247      2.75e-05  
Hirshfeld: reading atomic densities from disk.

 Charges (in A.U.) from CM5PAC (Nov. 11, 2011)
 -----------------------------------------------
 Center     Atomic      CM5         Hirshfeld
 Number     Number      Charge      Charge
 -----------------------------------------------
    1          8       -0.402777   -0.207622
    2          6        0.055087    0.039194
    3          6       -0.120032   -0.069898
    4          6       -0.113934   -0.062727
    5          6       -0.052719   -0.051221
    6          6        0.107187    0.074028
    7          8       -0.379915   -0.336037
    8          6       -0.053385   -0.056761
    9          6        0.071415    0.056797
   10          8       -0.382954   -0.185325
   11          6       -0.130892   -0.079557
   12          6       -0.128112   -0.078082
   13          6        0.069286    0.053567
   14          8       -0.420199   -0.235277
   15          6       -0.055701   -0.057347
   16          6        0.078339    0.053889
   17          8       -0.373524   -0.269051
   18          6       -0.052326   -0.054019
   19          6        0.060972    0.042284
   20          8       -0.409558   -0.221253
   21          1        0.329778    0.147026
   22          1        0.096536    0.038092
   23          1        0.088029    0.026559
   24          1        0.331051    0.155935
   25          1        0.095506    0.037221
   26          1        0.095711    0.036687
   27          1        0.296234    0.097659
   28          1        0.300603    0.104946
 -----------------------------------------------

 Dipole moment (in Debye)
 -----------------------------------------------
                 X        Y        Z     Total
 -----------------------------------------------
 CM5         -2.6054  -0.2928  -0.4694   2.6635
 Hirshfeld   -1.3734   0.2474  -0.4539   1.4675
 -----------------------------------------------

    8    -990.0311162404      1.29e-05  
Hirshfeld: reading atomic densities from disk.

 Charges (in A.U.) from CM5PAC (Nov. 11, 2011)
 -----------------------------------------------
 Center     Atomic      CM5         Hirshfeld
 Number     Number      Charge      Charge
 -----------------------------------------------
    1          8       -0.403308   -0.208154
    2          6        0.055708    0.039815
    3          6       -0.119733   -0.069598
    4          6       -0.114569   -0.063362
    5          6       -0.053042   -0.051543
    6          6        0.106325    0.073166
    7          8       -0.379888   -0.336010
    8          6       -0.052739   -0.056116
    9          6        0.071350    0.056733
   10          8       -0.383273   -0.185644
   11          6       -0.130848   -0.079513
   12          6       -0.128111   -0.078081
   13          6        0.068897    0.053178
   14          8       -0.421003   -0.236081
   15          6       -0.055211   -0.056857
   16          6        0.077825    0.053375
   17          8       -0.371894   -0.267421
   18          6       -0.051646   -0.053340
   19          6        0.061739    0.043050
   20          8       -0.410408   -0.222103
   21          1        0.329878    0.147126
   22          1        0.096464    0.038019
   23          1        0.088030    0.026560
   24          1        0.331176    0.156060
   25          1        0.095484    0.037200
   26          1        0.095685    0.036661
   27          1        0.296236    0.097661
   28          1        0.300583    0.104926
 -----------------------------------------------

 Dipole moment (in Debye)
 -----------------------------------------------
                 X        Y        Z     Total
 -----------------------------------------------
 CM5         -2.5966  -0.3050  -0.4701   2.6564
 Hirshfeld   -1.3647   0.2352  -0.4545   1.4575
 -----------------------------------------------

    9    -990.0311150966      5.80e-06  
Hirshfeld: reading atomic densities from disk.

 Charges (in A.U.) from CM5PAC (Nov. 11, 2011)
 -----------------------------------------------
 Center     Atomic      CM5         Hirshfeld
 Number     Number      Charge      Charge
 -----------------------------------------------
    1          8       -0.403066   -0.207912
    2          6        0.055392    0.039499
    3          6       -0.120055   -0.069921
    4          6       -0.114029   -0.062822
    5          6       -0.052553   -0.051054
    6          6        0.107475    0.074316
    7          8       -0.379871   -0.335994
    8          6       -0.052910   -0.056287
    9          6        0.071473    0.056856
   10          8       -0.383248   -0.185618
   11          6       -0.131023   -0.079687
   12          6       -0.128271   -0.078242
   13          6        0.069148    0.053429
   14          8       -0.420695   -0.235773
   15          6       -0.055397   -0.057043
   16          6        0.078057    0.053606
   17          8       -0.372811   -0.268338
   18          6       -0.052075   -0.053768
   19          6        0.061169    0.042481
   20          8       -0.410142   -0.221837
   21          1        0.329807    0.147055
   22          1        0.096437    0.037993
   23          1        0.087987    0.026518
   24          1        0.331130    0.156014
   25          1        0.095441    0.037157
   26          1        0.095635    0.036611
   27          1        0.296159    0.097584
   28          1        0.300543    0.104886
 -----------------------------------------------

 Dipole moment (in Debye)
 -----------------------------------------------
                 X        Y        Z     Total
 -----------------------------------------------
 CM5         -2.6002  -0.2842  -0.4690   2.6574
 Hirshfeld   -1.3683   0.2561  -0.4535   1.4640
 -----------------------------------------------

   10    -990.0311460565      4.49e-06  
Hirshfeld: reading atomic densities from disk.

 Charges (in A.U.) from CM5PAC (Nov. 11, 2011)
 -----------------------------------------------
 Center     Atomic      CM5         Hirshfeld
 Number     Number      Charge      Charge
 -----------------------------------------------
    1          8       -0.403055   -0.207901
    2          6        0.055376    0.039483
    3          6       -0.119966   -0.069831
    4          6       -0.114205   -0.062997
    5          6       -0.052867   -0.051369
    6          6        0.107314    0.074156
    7          8       -0.379575   -0.335698
    8          6       -0.053105   -0.056481
    9          6        0.071472    0.056854
   10          8       -0.383213   -0.185583
   11          6       -0.130873   -0.079538
   12          6       -0.128142   -0.078112
   13          6        0.069103    0.053384
   14          8       -0.420787   -0.235865
   15          6       -0.055494   -0.057141
   16          6        0.078166    0.053716
   17          8       -0.372742   -0.268270
   18          6       -0.052068   -0.053761
   19          6        0.061287    0.042598
   20          8       -0.410033   -0.221729
   21          1        0.329785    0.147033
   22          1        0.096453    0.038008
   23          1        0.088027    0.026557
   24          1        0.331129    0.156014
   25          1        0.095433    0.037149
   26          1        0.095626    0.036602
   27          1        0.296153    0.097578
   28          1        0.300509    0.104852
 -----------------------------------------------

 Dipole moment (in Debye)
 -----------------------------------------------
                 X        Y        Z     Total
 -----------------------------------------------
 CM5         -2.6013  -0.2843  -0.4690   2.6585
 Hirshfeld   -1.3693   0.2559  -0.4535   1.4650
 -----------------------------------------------

   11    -990.0311801764      1.09e-06  
Hirshfeld: reading atomic densities from disk.

 Charges (in A.U.) from CM5PAC (Nov. 11, 2011)
 -----------------------------------------------
 Center     Atomic      CM5         Hirshfeld
 Number     Number      Charge      Charge
 -----------------------------------------------
    1          8       -0.403100   -0.207946
    2          6        0.055401    0.039508
    3          6       -0.120011   -0.069877
    4          6       -0.114088   -0.062880
    5          6       -0.052637   -0.051139
    6          6        0.107399    0.074240
    7          8       -0.379502   -0.335625
    8          6       -0.052905   -0.056281
    9          6        0.071482    0.056865
   10          8       -0.383242   -0.185613
   11          6       -0.130979   -0.079643
   12          6       -0.128249   -0.078219
   13          6        0.069087    0.053368
   14          8       -0.420772   -0.235849
   15          6       -0.055425   -0.057071
   16          6        0.078010    0.053559
   17          8       -0.372824   -0.268352
   18          6       -0.052070   -0.053763
   19          6        0.061210    0.042522
   20          8       -0.410197   -0.221893
   21          1        0.329797    0.147045
   22          1        0.096436    0.037992
   23          1        0.088002    0.026532
   24          1        0.331128    0.156012
   25          1        0.095440    0.037155
   26          1        0.095633    0.036609
   27          1        0.296152    0.097577
   28          1        0.300530    0.104874
 -----------------------------------------------

 Dipole moment (in Debye)
 -----------------------------------------------
                 X        Y        Z     Total
 -----------------------------------------------
 CM5         -2.6014  -0.2770  -0.4687   2.6577
 Hirshfeld   -1.3694   0.2632  -0.4531   1.4663
 -----------------------------------------------

   12    -990.0311688869      8.88e-07  
Hirshfeld: reading atomic densities from disk.

 Charges (in A.U.) from CM5PAC (Nov. 11, 2011)
 -----------------------------------------------
 Center     Atomic      CM5         Hirshfeld
 Number     Number      Charge      Charge
 -----------------------------------------------
    1          8       -0.403088   -0.207933
    2          6        0.055429    0.039536
    3          6       -0.120025   -0.069890
    4          6       -0.114104   -0.062897
    5          6       -0.052664   -0.051166
    6          6        0.107382    0.074223
    7          8       -0.379536   -0.335659
    8          6       -0.052956   -0.056332
    9          6        0.071488    0.056870
   10          8       -0.383239   -0.185609
   11          6       -0.130958   -0.079622
   12          6       -0.128230   -0.078200
   13          6        0.069116    0.053398
   14          8       -0.420767   -0.235845
   15          6       -0.055462   -0.057109
   16          6        0.078007    0.053557
   17          8       -0.372802   -0.268330
   18          6       -0.052106   -0.053800
   19          6        0.061236    0.042548
   20          8       -0.410135   -0.221831
   21          1        0.329795    0.147043
   22          1        0.096437    0.037993
   23          1        0.088006    0.026537
   24          1        0.331138    0.156022
   25          1        0.095445    0.037160
   26          1        0.095631    0.036607
   27          1        0.296149    0.097574
   28          1        0.300518    0.104862
 -----------------------------------------------

 Dipole moment (in Debye)
 -----------------------------------------------
                 X        Y        Z     Total
 -----------------------------------------------
 CM5         -2.6012  -0.2789  -0.4688   2.6578
 Hirshfeld   -1.3692   0.2614  -0.4532   1.4658
 -----------------------------------------------

   13    -990.0311817560      4.13e-07  
Hirshfeld: reading atomic densities from disk.

 Charges (in A.U.) from CM5PAC (Nov. 11, 2011)
 -----------------------------------------------
 Center     Atomic      CM5         Hirshfeld
 Number     Number      Charge      Charge
 -----------------------------------------------
    1          8       -0.403086   -0.207932
    2          6        0.055383    0.039490
    3          6       -0.120006   -0.069872
    4          6       -0.114108   -0.062900
    5          6       -0.052669   -0.051171
    6          6        0.107409    0.074250
    7          8       -0.379533   -0.335656
    8          6       -0.052938   -0.056315
    9          6        0.071483    0.056866
   10          8       -0.383227   -0.185598
   11          6       -0.130949   -0.079614
   12          6       -0.128226   -0.078196
   13          6        0.069078    0.053359
   14          8       -0.420789   -0.235867
   15          6       -0.055449   -0.057095
   16          6        0.078051    0.053600
   17          8       -0.372819   -0.268347
   18          6       -0.052072   -0.053765
   19          6        0.061212    0.042524
   20          8       -0.410166   -0.221862
   21          1        0.329797    0.147045
   22          1        0.096439    0.037995
   23          1        0.088010    0.026540
   24          1        0.331134    0.156018
   25          1        0.095443    0.037158
   26          1        0.095631    0.036607
   27          1        0.296151    0.097576
   28          1        0.300523    0.104867
 -----------------------------------------------

 Dipole moment (in Debye)
 -----------------------------------------------
                 X        Y        Z     Total
 -----------------------------------------------
 CM5         -2.6018  -0.2776  -0.4687   2.6582
 Hirshfeld   -1.3698   0.2627  -0.4532   1.4665
 -----------------------------------------------

   14    -990.0311775789      1.87e-07  
Hirshfeld: reading atomic densities from disk.

 Charges (in A.U.) from CM5PAC (Nov. 11, 2011)
 -----------------------------------------------
 Center     Atomic      CM5         Hirshfeld
 Number     Number      Charge      Charge
 -----------------------------------------------
    1          8       -0.403090   -0.207936
    2          6        0.055403    0.039510
    3          6       -0.120005   -0.069870
    4          6       -0.114105   -0.062897
    5          6       -0.052669   -0.051171
    6          6        0.107405    0.074246
    7          8       -0.379534   -0.335656
    8          6       -0.052939   -0.056315
    9          6        0.071484    0.056867
   10          8       -0.383233   -0.185603
   11          6       -0.130949   -0.079613
   12          6       -0.128224   -0.078194
   13          6        0.069091    0.053372
   14          8       -0.420777   -0.235855
   15          6       -0.055454   -0.057101
   16          6        0.078020    0.053569
   17          8       -0.372820   -0.268348
   18          6       -0.052087   -0.053780
   19          6        0.061221    0.042533
   20          8       -0.410161   -0.221856
   21          1        0.329796    0.147044
   22          1        0.096439    0.037995
   23          1        0.088011    0.026542
   24          1        0.331137    0.156022
   25          1        0.095444    0.037159
   26          1        0.095631    0.036607
   27          1        0.296148    0.097573
   28          1        0.300521    0.104864
 -----------------------------------------------

 Dipole moment (in Debye)
 -----------------------------------------------
                 X        Y        Z     Total
 -----------------------------------------------
 CM5         -2.6017  -0.2776  -0.4687   2.6581
 Hirshfeld   -1.3697   0.2626  -0.4532   1.4665
 -----------------------------------------------

   15    -990.0311792548      1.07e-07  
Hirshfeld: reading atomic densities from disk.

 Charges (in A.U.) from CM5PAC (Nov. 11, 2011)
 -----------------------------------------------
 Center     Atomic      CM5         Hirshfeld
 Number     Number      Charge      Charge
 -----------------------------------------------
    1          8       -0.403088   -0.207934
    2          6        0.055401    0.039508
    3          6       -0.120015   -0.069880
    4          6       -0.114105   -0.062897
    5          6       -0.052663   -0.051164
    6          6        0.107401    0.074243
    7          8       -0.379529   -0.335651
    8          6       -0.052940   -0.056316
    9          6        0.071487    0.056870
   10          8       -0.383229   -0.185600
   11          6       -0.130954   -0.079618
   12          6       -0.128227   -0.078198
   13          6        0.069090    0.053371
   14          8       -0.420785   -0.235863
   15          6       -0.055452   -0.057098
   16          6        0.078026    0.053575
   17          8       -0.372821   -0.268349
   18          6       -0.052082   -0.053775
   19          6        0.061221    0.042533
   20          8       -0.410159   -0.221854
   21          1        0.329796    0.147043
   22          1        0.096439    0.037995
   23          1        0.088011    0.026541
   24          1        0.331137    0.156021
   25          1        0.095444    0.037159
   26          1        0.095632    0.036608
   27          1        0.296149    0.097574
   28          1        0.300520    0.104863
 -----------------------------------------------

 Dipole moment (in Debye)
 -----------------------------------------------
                 X        Y        Z     Total
 -----------------------------------------------
 CM5         -2.6016  -0.2775  -0.4687   2.6580
 Hirshfeld   -1.3697   0.2627  -0.4532   1.4664
 -----------------------------------------------

   16    -990.0311785419      3.66e-08  
Hirshfeld: reading atomic densities from disk.

 Charges (in A.U.) from CM5PAC (Nov. 11, 2011)
 -----------------------------------------------
 Center     Atomic      CM5         Hirshfeld
 Number     Number      Charge      Charge
 -----------------------------------------------
    1          8       -0.403088   -0.207934
    2          6        0.055402    0.039510
    3          6       -0.120008   -0.069874
    4          6       -0.114105   -0.062897
    5          6       -0.052668   -0.051170
    6          6        0.107404    0.074246
    7          8       -0.379528   -0.335651
    8          6       -0.052941   -0.056317
    9          6        0.071486    0.056869
   10          8       -0.383231   -0.185601
   11          6       -0.130950   -0.079614
   12          6       -0.128224   -0.078194
   13          6        0.069089    0.053370
   14          8       -0.420782   -0.235860
   15          6       -0.055454   -0.057101
   16          6        0.078023    0.053572
   17          8       -0.372821   -0.268349
   18          6       -0.052085   -0.053778
   19          6        0.061220    0.042531
   20          8       -0.410161   -0.221857
   21          1        0.329796    0.147044
   22          1        0.096439    0.037995
   23          1        0.088011    0.026541
   24          1        0.331137    0.156021
   25          1        0.095444    0.037159
   26          1        0.095632    0.036608
   27          1        0.296149    0.097574
   28          1        0.300521    0.104864
 -----------------------------------------------

 Dipole moment (in Debye)
 -----------------------------------------------
                 X        Y        Z     Total
 -----------------------------------------------
 CM5         -2.6017  -0.2775  -0.4687   2.6581
 Hirshfeld   -1.3697   0.2628  -0.4532   1.4665
 -----------------------------------------------

   17    -990.0311788886      2.47e-08  
   18    -990.0311786556      8.44e-09  Convergence criterion met
 ---------------------------------------
 SCF time:   CPU 6272.74s  wall 804.00s 
<S^2> =          0.761298361
(1)  E-EN(liq) elect-nuc energy of solute               -990.031178656 a.u.
(2)  G-P(liq) polarization free energy of solvation           -42.1731 kcal/mol
(3)  G-ENP(liq) elect-nuc-pol free energy of system     -990.098385842 a.u.
(4)  G-CDS(liq) cavity-dispersion-solvent structure 
     free energy                                              -16.0087 kcal/mol
(5)  G-P-CDS(liq) = G-P(liq) + G-CDS(liq) = (2) + (4)         -58.1818 kcal/mol
(6)  G-S(liq) free energy of system = (1) + (5)         -990.123897324 a.u.
 SCF   energy in the final basis set =     -990.1238973237
 Total energy in the final basis set =     -990.1238973237
 
 --------------------------------------------------------------
 
                    Orbital Energies (a.u.)
 --------------------------------------------------------------
 
 Alpha MOs
 -- Occupied --
-19.1587 -19.1504 -19.1440 -19.1302 -19.1024 -19.0753 -10.2393 -10.2390
-10.2384 -10.2359 -10.2356 -10.2352 -10.1869 -10.1860 -10.1850 -10.1819
-10.1807 -10.1776 -10.1756 -10.1755  -1.0794  -1.0620  -1.0566  -1.0478
 -1.0075  -1.0053  -0.8670  -0.8517  -0.7957  -0.7551  -0.7480  -0.7404
 -0.6805  -0.6554  -0.6499  -0.6084  -0.5932  -0.5629  -0.5577  -0.5371
 -0.5284  -0.5008  -0.4927  -0.4841  -0.4672  -0.4556  -0.4512  -0.4350
 -0.4308  -0.4305  -0.4190  -0.4092  -0.4046  -0.4024  -0.3923  -0.3911
 -0.3783  -0.3774  -0.3654  -0.3627  -0.3619  -0.3537  -0.3276  -0.3117
 -0.2763  -0.2696  -0.2534  -0.2348  -0.2276  -0.2175  -0.1460
 -- Virtual --
 -0.0482  -0.0289  -0.0227  -0.0214  -0.0153  -0.0078  -0.0005   0.0062
  0.0112   0.0233   0.0259   0.0300   0.0419   0.0422   0.0440   0.0459
  0.0501   0.0542   0.0662   0.0671   0.0742   0.0749   0.0782   0.0789
  0.0854   0.0882   0.0912   0.0920   0.1031   0.1106   0.1126   0.1145
  0.1173   0.1207   0.1208   0.1271   0.1288   0.1347   0.1376   0.1528
  0.1548   0.1559   0.1613   0.1638   0.1667   0.1692   0.1714   0.1727
  0.1817   0.1864   0.1901   0.1960   0.1967   0.2065   0.2067   0.2124
  0.2196   0.2268   0.2274   0.2281   0.2337   0.2371   0.2427   0.2462
  0.2540   0.2542   0.2594   0.2640   0.2687   0.2706   0.2752   0.2779
  0.2787   0.2810   0.2879   0.2906   0.2931   0.2978   0.3005   0.3041
  0.3100   0.3120   0.3148   0.3166   0.3182   0.3230   0.3306   0.3354
  0.3403   0.3446   0.3456   0.3523   0.3559   0.3597   0.3656   0.3718
  0.3755   0.3821   0.3914   0.3934   0.4008   0.4133   0.4253   0.4361
  0.4429   0.4582   0.4782   0.4847   0.4889   0.4991   0.5070   0.5278
  0.5318   0.5394   0.5444   0.5551   0.5590   0.5687   0.5737   0.5872
  0.5878   0.5941   0.5964   0.6031   0.6082   0.6139   0.6239   0.6333
  0.6365   0.6444   0.6493   0.6507   0.6555   0.6635   0.6646   0.6678
  0.6765   0.6817   0.6961   0.6964   0.7073   0.7260   0.7428   0.7547
  0.7624   0.7682   0.7900   0.8000   0.8002   0.8098   0.8217   0.8321
  0.8434   0.8538   0.8683   0.8776   0.8903   0.8914   0.8984   0.9149
  0.9249   0.9294   0.9393   0.9462   0.9500   0.9757   0.9762   0.9783
  0.9906   0.9974   1.0011   1.0083   1.0290   1.0328   1.0490   1.0531
  1.0641   1.0677   1.0841   1.0865   1.0898   1.0952   1.1128   1.1148
  1.1184   1.1255   1.1303   1.1549   1.1745   1.1788   1.1892   1.2008
  1.2023   1.2197   1.2288   1.2289   1.2313   1.2458   1.2488   1.2522
  1.2640   1.2643   1.2829   1.2974   1.3206   1.3344   1.3537   1.3602
  1.3886   1.4132   1.4192   1.4266   1.4417   1.4501   1.4599   1.4714
  1.4803   1.4919   1.5071   1.5156   1.5201   1.5236   1.5326   1.5514
  1.5673   1.5863   1.5912   1.5919   1.6190   1.6305   1.6389   1.6560
  1.6662   1.6690   1.6929   1.6959   1.7225   1.7261   1.7492   1.7570
  1.7706   1.7779   1.7877   1.8126   1.8397   1.8500   1.8559   1.8716
  1.8853   1.8891   1.8894   1.9189   1.9275   1.9307   1.9405   1.9418
  1.9486   1.9640   1.9695   1.9763   1.9830   1.9976   2.0195   2.0403
  2.0529   2.0604   2.0928   2.0982   2.1089   2.1281   2.1394   2.1489
  2.1610   2.1706   2.1988   2.2113   2.2260   2.2642   2.3129   2.3159
  2.3339   2.3579   2.3718   2.4148   2.4295   2.4417   2.4883   2.5152
  2.5393   2.5553   2.6071   2.6138   2.6157   2.6399   2.6505   2.6621
  2.6624   2.7002   2.7082   2.7330   2.7382   2.7429   2.7442   2.7653
  2.7756   2.7785   2.7841   2.8051   2.8175   2.8192   2.8458   2.8537
  2.8643   2.8718   2.9027   2.9169   2.9453   2.9670   3.0156   3.0273
  3.0369   3.0825   3.0838   3.0861   3.1029   3.1063   3.1080   3.1211
  3.1272   3.1302   3.1399   3.1548   3.1697   3.2013   3.2017   3.2071
  3.2077   3.2211   3.2342   3.2608   3.2683   3.2842   3.3621   3.3635
  3.3787   3.3946   3.4140   3.4490   3.4531   3.4673   3.4788   3.5238
  3.5505   3.5712   3.6011   3.6152   3.6373   3.6657   3.7146   3.7325
  3.8285   3.8614   3.8971   3.9137   3.9285   3.9522   3.9711   4.0850
  4.0917   4.1446   4.1582   4.2138   4.2398   4.2944   4.3283   4.4987
  4.8255   4.8381   4.8632   4.9735   5.0073   5.0303   5.0454   5.0735
  5.0961   5.2910   5.3726   5.4503   5.5003   5.5275   5.5482   5.6830
  5.7315   5.7772   5.8145   5.8508   5.8712  23.4990  23.6568  23.8599
 23.8800  23.9060  23.9309  23.9545  23.9644  23.9916  24.0439  24.0479
 24.0523  24.1653  24.1727  49.9205  49.9555  50.0023  50.0276  50.0597
 50.1187
 
 Beta MOs
 -- Occupied --
-19.1586 -19.1502 -19.1435 -19.1296 -19.0976 -19.0708 -10.2396 -10.2375
-10.2356 -10.2355 -10.2347 -10.2347 -10.1873 -10.1863 -10.1839 -10.1813
-10.1791 -10.1767 -10.1757 -10.1750  -1.0786  -1.0616  -1.0543  -1.0468
 -0.9999  -0.9974  -0.8646  -0.8501  -0.7918  -0.7530  -0.7456  -0.7383
 -0.6738  -0.6539  -0.6479  -0.6070  -0.5912  -0.5616  -0.5570  -0.5357
 -0.5272  -0.4994  -0.4900  -0.4831  -0.4656  -0.4547  -0.4443  -0.4337
 -0.4283  -0.4260  -0.4177  -0.4062  -0.4007  -0.3967  -0.3903  -0.3841
 -0.3764  -0.3708  -0.3647  -0.3607  -0.3520  -0.3492  -0.3211  -0.3043
 -0.2661  -0.2601  -0.2490  -0.2306  -0.2178  -0.2095
 -- Virtual --
 -0.0916  -0.0366  -0.0227  -0.0214  -0.0191  -0.0152  -0.0078  -0.0003
  0.0102   0.0112   0.0234   0.0262   0.0317   0.0423   0.0440   0.0441
  0.0508   0.0542   0.0543   0.0664   0.0729   0.0745   0.0778   0.0784
  0.0829   0.0856   0.0883   0.0912   0.0923   0.1036   0.1109   0.1147
  0.1157   0.1176   0.1209   0.1219   0.1281   0.1290   0.1350   0.1378
  0.1535   0.1553   0.1563   0.1626   0.1640   0.1696   0.1710   0.1725
  0.1729   0.1821   0.1871   0.1914   0.1970   0.1974   0.2068   0.2072
  0.2130   0.2199   0.2269   0.2285   0.2337   0.2343   0.2373   0.2441
  0.2467   0.2546   0.2550   0.2601   0.2644   0.2705   0.2712   0.2772
  0.2786   0.2793   0.2819   0.2886   0.2924   0.2939   0.2991   0.3011
  0.3052   0.3107   0.3129   0.3162   0.3173   0.3201   0.3235   0.3315
  0.3364   0.3409   0.3463   0.3464   0.3527   0.3566   0.3607   0.3663
  0.3724   0.3764   0.3825   0.3926   0.3946   0.4014   0.4143   0.4277
  0.4369   0.4439   0.4590   0.4793   0.4859   0.4900   0.5008   0.5089
  0.5286   0.5340   0.5404   0.5470   0.5598   0.5599   0.5703   0.5744
  0.5885   0.5897   0.5944   0.6007   0.6048   0.6103   0.6146   0.6247
  0.6342   0.6410   0.6454   0.6500   0.6543   0.6561   0.6646   0.6653
  0.6688   0.6793   0.6822   0.6970   0.6997   0.7082   0.7275   0.7453
  0.7552   0.7631   0.7690   0.7903   0.8007   0.8021   0.8104   0.8226
  0.8335   0.8446   0.8555   0.8699   0.8787   0.8913   0.8921   0.8992
  0.9165   0.9260   0.9311   0.9407   0.9506   0.9511   0.9765   0.9778
  0.9808   0.9921   0.9998   1.0024   1.0093   1.0299   1.0352   1.0502
  1.0568   1.0659   1.0691   1.0860   1.0881   1.0927   1.1045   1.1145
  1.1155   1.1231   1.1312   1.1314   1.1555   1.1759   1.1822   1.1902
  1.2026   1.2034   1.2205   1.2298   1.2306   1.2365   1.2499   1.2508
  1.2527   1.2659   1.2683   1.2847   1.2984   1.3219   1.3362   1.3540
  1.3621   1.3893   1.4138   1.4198   1.4280   1.4442   1.4512   1.4615
  1.4744   1.4815   1.4956   1.5077   1.5165   1.5209   1.5265   1.5333
  1.5551   1.5685   1.5880   1.5922   1.5946   1.6210   1.6330   1.6397
  1.6569   1.6689   1.6703   1.6936   1.6988   1.7251   1.7274   1.7504
  1.7583   1.7720   1.7811   1.7890   1.8138   1.8410   1.8512   1.8583
  1.8738   1.8888   1.8904   1.8920   1.9220   1.9292   1.9317   1.9427
  1.9445   1.9501   1.9657   1.9741   1.9779   1.9841   1.9994   2.0210
  2.0419   2.0542   2.0624   2.0957   2.0998   2.1098   2.1296   2.1402
  2.1519   2.1632   2.1715   2.2003   2.2143   2.2278   2.2653   2.3156
  2.3193   2.3363   2.3611   2.3737   2.4157   2.4310   2.4424   2.4896
  2.5167   2.5402   2.5564   2.6102   2.6143   2.6206   2.6403   2.6517
  2.6625   2.6684   2.7007   2.7137   2.7335   2.7416   2.7432   2.7446
  2.7656   2.7792   2.7800   2.7844   2.8097   2.8183   2.8232   2.8544
  2.8615   2.8659   2.8784   2.9032   2.9210   2.9538   2.9765   3.0214
  3.0288   3.0379   3.0841   3.0853   3.0886   3.1052   3.1084   3.1094
  3.1233   3.1308   3.1334   3.1409   3.1559   3.1702   3.2030   3.2037
  3.2088   3.2088   3.2225   3.2365   3.2665   3.2824   3.2860   3.3630
  3.3748   3.3793   3.3959   3.4148   3.4503   3.4541   3.4681   3.4801
  3.5253   3.5521   3.5720   3.6025   3.6163   3.6392   3.6671   3.7157
  3.7336   3.8323   3.8633   3.8977   3.9144   3.9305   3.9530   3.9729
  4.0869   4.0928   4.1455   4.1591   4.2149   4.2406   4.2964   4.3310
  4.5014   4.8290   4.8400   4.8645   4.9747   5.0085   5.0337   5.0491
  5.0899   5.1149   5.2943   5.3755   5.4506   5.5009   5.5281   5.5493
  5.6844   5.7321   5.7798   5.8162   5.8537   5.8718  23.4998  23.6574
 23.8613  23.8810  23.9070  23.9316  23.9560  23.9647  23.9925  24.0444
 24.0485  24.0532  24.1663  24.1731  49.9207  49.9557  50.0030  50.0282
 50.0642  50.1233
 --------------------------------------------------------------
 
          Ground-State Mulliken Net Atomic Charges

     Atom                 Charge (a.u.)    Spin (a.u.)
  --------------------------------------------------------
      1 O                    -0.197474       0.004280
      2 C                     0.724764       0.021945
      3 C                     0.841597       0.051028
      4 C                    -0.079144       0.008143
      5 C                    -0.723606       0.062311
      6 C                    -1.828281       0.007914
      7 O                    -0.297320       0.172691
      8 C                    -0.778263       0.067047
      9 C                     0.209896       0.000467
     10 O                    -0.154832       0.004619
     11 C                     1.792673       0.121070
     12 C                     0.975502       0.033190
     13 C                    -0.334939       0.082387
     14 O                    -0.357392       0.020215
     15 C                    -0.724505      -0.057130
     16 C                    -1.481550       0.204831
     17 O                    -0.434969       0.169115
     18 C                    -0.570692      -0.049313
     19 C                     0.218068       0.084307
     20 O                    -0.395010       0.015364
     21 H                     0.332170      -0.000102
     22 H                     0.315235      -0.003916
     23 H                     0.149319      -0.000812
     24 H                     0.351032      -0.000522
     25 H                     0.359976      -0.009756
     26 H                     0.270015      -0.003709
     27 H                     0.378025      -0.002906
     28 H                     0.439705      -0.002757
  --------------------------------------------------------
  Sum of atomic charges =    -1.000000
  Sum of spin   charges =     1.000000

 -----------------------------------------------------------------
                    Cartesian Multipole Moments
 -----------------------------------------------------------------
    Charge (ESU x 10^10)
                -4.8032
    Dipole Moment (Debye)
         X      -2.6362      Y      -0.2789      Z      -0.4665
       Tot       2.6917
    Quadrupole Moments (Debye-Ang)
        XX    -131.1422     XY      -7.6876     YY    -149.0462
        XZ      -0.5448     YZ      -1.3071     ZZ    -121.1443
    Octopole Moments (Debye-Ang^2)
       XXX    -161.8627    XXY      59.3826    XYY      12.3201
       YYY     -24.8082    XXZ      -9.0116    XYZ      -0.3780
       YYZ     -15.8393    XZZ      -5.7063    YZZ      -2.4986
       ZZZ     -36.2150
    Hexadecapole Moments (Debye-Ang^3)
      XXXX   -5013.0787   XXXY     -47.6150   XXYY   -1084.9835
      XYYY      66.6344   YYYY   -2423.0608   XXXZ      -0.3193
      XXYZ      -2.3253   XYYZ       5.3765   YYYZ     -62.5634
      XXZZ    -891.7146   XYZZ      45.2313   YYZZ    -394.5390
      XZZZ      24.1856   YZZZ     -51.3126   ZZZZ    -148.1289
 -----------------------------------------------------------------
 Total job time:  811.47s(wall), 6280.53s(cpu) 
 Sat Feb  3 13:05:15 2024

        *************************************************************
        *                                                           *
        *  Thank you very much for using Q-Chem.  Have a nice day.  *
        *                                                           *
        *************************************************************


