
Running Job 1 of 1 004-COSMO.in
qchem 004-COSMO.in_3758197.0 /expanse/lustre/scratch/selhajj/temp_project/qcscratch/28868358/qchem3758197/ 0
/cm/shared/apps/spack/cpu/opt/spack/linux-centos8-zen2/gcc-10.2.0/qchem-5.4-akfmr7b3t57bfs6qan3padb2wnb2i7cl/exe/qcprog.exe_s 004-COSMO.in_3758197.0 /expanse/lustre/scratch/selhajj/temp_project/qcscratch/28868358/qchem3758197/
                  Welcome to Q-Chem
     A Quantum Leap Into The Future Of Chemistry


 Q-Chem 5.4, Q-Chem, Inc., Pleasanton, CA (2021)

 License issued to: University of California, San Diego (site)

 E. Epifanovsky,  A. T. B. Gilbert,  Xintian Feng,  Joonho Lee,  Yuezhi Mao,  
 N. Mardirossian,  P. Pokhilko,  A. White,  M. Wormit,  M. P. Coons,  
 A. L. Dempwolff,  Zhengting Gan,  D. Hait,  P. R. Horn,  L. D. Jacobson,  
 I. Kaliman,  J. Kussmann,  A. W. Lange,  Ka Un Lao,  D. S. Levine,  Jie Liu,  
 S. C. McKenzie,  A. F. Morrison,  K. Nanda,  F. Plasser,  D. R. Rehn,  
 M. L. Vidal,  Zhi-Qiang You,  Ying Zhu,  B. Alam,  B. Albrecht,  
 A. Aldossary,  E. Alguire,  J. H. Andersen,  D. Barton,  K. Begam,  A. Behn,  
 Y. A. Bernard,  E. J. Berquist,  H. Burton,  A. Carreras,  K. Carter-Fenk,  
 R. Chakraborty,  A. D. Chien,  K. D. Closser,  V. Cofer-Shabica,  
 S. Dasgupta,  Jia Deng,  M. de Wergifosse,  M. Diedenhofen,  Hainam Do,  
 S. Ehlert,  Po-Tung Fang,  S. Fatehi,  Qingguo Feng,  J. Gayvert,  
 Qinghui Ge,  G. Gidofalvi,  M. Goldey,  J. Gomes,  C. Gonzalez-Espinoza,  
 S. Gulania,  A. Gunina,  M. W. D. Hanson-Heine,  P. H. P. Harbach,  
 A. W. Hauser,  M. F. Herbst,  M. Hernandez Vera,  M. Hodecker,  
 Z. C. Holden,  S. Houck,  Xunkun Huang,  Kerwin Hui,  B. C. Huynh,  
 M. Ivanov,  Hyunjun Ji,  Hanjie Jiang,  B. Kaduk,  S. Kaehler,  
 K. Khistyaev,  Jaehoon Kim,  P. Klunzinger,  Z. Koczor-Benda,  
 Joong Hoon Koh,  D. Kosenkov,  L. Koulias,  T. Kowalczyk,  C. M. Krauter,  
 K. Kue,  A. Kunitsa,  T. Kus,  A. Landau,  K. V. Lawler,  D. Lefrancois,  
 S. Lehtola,  Rain Li,  Yi-Pei Li,  Jiashu Liang,  M. Liebenthal,  
 Hung-Hsuan Lin,  You-Sheng Lin,  Fenglai Liu,  Kuan-Yu Liu,  
 M. Loipersberger,  A. Luenser,  A. Manjanath,  P. Manohar,  E. Mansoor,  
 S. F. Manzer,  Shan-Ping Mao,  A. V. Marenich,  T. Markovich,  S. Mason,  
 S. A. Maurer,  P. F. McLaughlin,  M. F. S. J. Menger,  J.-M. Mewes,  
 S. A. Mewes,  P. Morgante,  J. W. Mullinax,  T. S. Nguyen-Beck,  
 K. J. Oosterbaan,  G. Paran,  Alexander C. Paul,  Suranjan K. Paul,  
 F. Pavosevic,  Zheng Pei,  S. Prager,  E. I. Proynov,  E. Ramos,  B. Rana,  
 A. E. Rask,  A. Rettig,  R. M. Richard,  F. Rob,  E. Rossomme,  T. Scheele,  
 M. Scheurer,  M. Schneider,  N. Sergueev,  S. M. Sharada,  W. Skomorowski,  
 D. W. Small,  C. J. Stein,  Yu-Chuan Su,  E. J. Sundstrom,  Zhen Tao,  
 J. Thirman,  T. Tsuchimochi,  N. M. Tubman,  S. P. Veccham,  O. Vydrov,  
 J. Wenzel,  J. Witte,  A. Yamada,  Kun Yao,  S. Yeganeh,  S. R. Yost,  
 A. Zech,  Igor Ying Zhang,  Xing Zhang,  Yu Zhang,  D. Zuev,  
 A. Aspuru-Guzik,  A. T. Bell,  N. A. Besley,  K. B. Bravaya,  B. R. Brooks,  
 D. Casanova,  Jeng-Da Chai,  S. Coriani,  C. J. Cramer,  
 A. E. DePrince, III,  R. A. DiStasio Jr.,  A. Dreuw,  B. D. Dunietz,  
 T. R. Furlani,  W. A. Goddard III,  S. Grimme,  S. Hammes-Schiffer,  
 T. Head-Gordon,  W. J. Hehre,  Chao-Ping Hsu,  T.-C. Jagau,  Yousung Jung,  
 A. Klamt,  Jing Kong,  D. S. Lambrecht,  WanZhen Liang,  N. J. Mayhall,  
 C. W. McCurdy,  J. B. Neaton,  C. Ochsenfeld,  J. A. Parkhill,  R. Peverati,  
 V. A. Rassolov,  Yihan Shao,  L. V. Slipchenko,  T. Stauch,  R. P. Steele,  
 J. E. Subotnik,  A. J. W. Thom,  A. Tkatchenko,  D. G. Truhlar,  
 T. Van Voorhis,  T. A. Wesolowski,  K. B. Whaley,  H. L. Woodcock III,  
 P. M. Zimmerman,  S. Faraji,  P. M. W. Gill,  M. Head-Gordon,  
 J. M. Herbert,  A. I. Krylov

 Contributors to earlier versions of Q-Chem not listed above: 
 R. D. Adamson,  B. Austin,  R. Baer,  J. Baker,  G. J. O. Beran,  
 K. Brandhorst,  S. T. Brown,  E. F. C. Byrd,  A. K. Chakraborty,  
 G. K. L. Chan,  Chun-Min Chang,  Yunqing Chen,  C.-L. Cheng,  
 Siu Hung Chien,  D. M. Chipman,  D. L. Crittenden,  H. Dachsel,  
 R. J. Doerksen,  A. D. Dutoi,  R. G. Edgar,  J. Fosso-Tande,  
 L. Fusti-Molnar,  D. Ghosh,  A. Ghysels,  A. Golubeva-Zadorozhnaya,  
 J. Gonthier,  M. S. Gordon,  S. R. Gwaltney,  G. Hawkins,  J. E. Herr,  
 A. Heyden,  S. Hirata,  E. G. Hohenstein,  G. Kedziora,  F. J. Keil,  
 C. Kelley,  Jihan Kim,  R. A. King,  R. Z. Khaliullin,  P. P. Korambath,  
 W. Kurlancheek,  A. Laurent,  A. M. Lee,  M. S. Lee,  S. V. Levchenko,  
 Ching Yeh Lin,  D. Liotard,  E. Livshits,  R. C. Lochan,  I. Lotan,  
 L. A. Martinez-Martinez,  P. E. Maslen,  N. Nair,  D. P. O'Neill,  
 D. Neuhauser,  E. Neuscamman,  C. M. Oana,  R. Olivares-Amaya,  R. Olson,  
 T. M. Perrine,  B. Peters,  P. A. Pieniazek,  A. Prociuk,  Y. M. Rhee,  
 J. Ritchie,  M. A. Rohrdanz,  E. Rosta,  N. J. Russ,  H. F. Schaefer III,  
 M. W. Schmidt,  N. E. Schultz,  S. Sharma,  N. Shenvi,  C. D. Sherrill,  
 A. C. Simmonett,  A. Sodt,  T. Stein,  D. Stuck,  K. S. Thanthiriwatte,  
 V. Vanovschi,  L. Vogt,  Tao Wang,  A. Warshel,  M. A. Watson,  
 C. F. Williams,  Q. Wu,  X. Xu,  Jun Yang,  W. Zhang,  Yan Zhao

 Please cite Q-Chem as follows:
 Y. Shao et al., Mol. Phys. 113, 184-215 (2015)
 DOI: 10.1080/00268976.2014.952696

 Q-Chem 5.4.0 for Intel X86 EM64T Linux

 Parts of Q-Chem use Armadillo 9.800.1 (Horizon Scraper).
 http://arma.sourceforge.net/

 Q-Chem begins on Thu Feb 22 02:53:54 2024  

 Host: 
0

     Scratch files written to /expanse/lustre/scratch/selhajj/temp_project/qcscratch/28868358/qchem3758197//
 May1621 |scratch|qcdevops|jenkins|workspace|build_RNUM    
 Processing $rem in /cm/shared/apps/spack/cpu/opt/spack/linux-centos8-zen2/gcc-10.2.0/qchem-5.4-akfmr7b3t57bfs6qan3padb2wnb2i7cl/config/preferences:
 Processing $rem in /home/selhajj/.qchemrc:

 Checking the input file for inconsistencies... 
 Q-Chem warning in module libgen/CheckREMs.C, line 172:

 Found a $solvent section, which is only used for PCM and Kirkwood-Onsager solvation models

	...done.

--------------------------------------------------------------
User input:
--------------------------------------------------------------
$molecule
0 1
C                 -1.0743710000      1.5710550000      1.0141940000
C                 -2.3931890000      0.9035660000      0.9207090000
C                 -2.7191880000     -0.0453960000      0.0224490000
C                 -1.6521990000     -0.4540800000     -0.9603910000
C                 -0.3206070000      0.2018430000     -0.8860520000
C                 -0.0386070000      1.1411940000      0.0232270000
Br                 1.6586090000      1.9796260000      0.1212870000
C                 -4.0968450000     -0.7105610000     -0.0404350000
C                 -4.7429910000     -0.4406610000     -1.4229250000
C                 -5.0381760000     -0.1553040000      1.0443210000
C                 -3.9495720000     -2.2367020000      0.1849460000
O                 -0.8610750000      2.4202130000      1.8561760000
O                 -1.8335390000     -1.3026450000     -1.8177300000
H                 -3.0952980000      1.2586910000      1.6636740000
H                  0.3989410000     -0.1379210000     -1.6205880000
H                 -4.8529710000      0.6334400000     -1.5990070000
H                 -5.7413430000     -0.8865710000     -1.4476820000
H                 -4.1561560000     -0.8698630000     -2.2334360000
H                 -5.2116520000      0.9181510000      0.9281310000
H                 -4.6565010000     -0.3375430000      2.0527830000
H                 -6.0069160000     -0.6541910000      0.9653710000
H                 -3.3459190000     -2.7030670000     -0.5919800000
H                 -4.9402550000     -2.6999170000      0.1752400000
H                 -3.4934210000     -2.4450070000      1.1572280000
$end
$rem
MAX_SCF_CYCLES=200
BASIS  =  6-311++G(d,p)
GUI  =  2
JOB_TYPE  =  SP
METHOD  =  B3LYP
SOLVENT_METHOD = COSMO
$end
$solvent
dielectric 37.219
opticaldielectric 1.43
$end





--------------------------------------------------------------
 ----------------------------------------------------------------
             Standard Nuclear Orientation (Angstroms)
    I     Atom           X                Y                Z
 ----------------------------------------------------------------
    1      C       0.7731679433    -1.2095525410    -0.0000951993
    2      C      -0.7078309187    -1.2238417468    -0.0004369111
    3      C      -1.4930865578    -0.1297444856    -0.0003044344
    4      C      -0.8020986012     1.2096577020    -0.0001398383
    5      C       0.6836097073     1.2492715246     0.0001613244
    6      C       1.4262240873     0.1369692004     0.0000091852
    7      Br      3.3212044948     0.1836102552    -0.0000014510
    8      C      -3.0230702780    -0.1887987328     0.0000056444
    9      C      -3.5711269856     0.5111580418     1.2693848716
   10      C      -3.5285561564    -1.6433068405    -0.0003924402
   11      C      -3.5720030647     0.5121478170    -1.2684339535
   12      O       1.4089580868    -2.2445738133     0.0001056044
   13      O      -1.4103498428     2.2670163644    -0.0001827849
   14      H      -1.1164316813    -2.2258962381    -0.0005708997
   15      H       1.1152807379     2.2424442770     0.0003626168
   16      H      -3.1916370043     0.0291317987     2.1751616014
   17      H      -4.6619339599     0.4328173172     1.2819637675
   18      H      -3.3033444715     1.5661945736     1.2959968399
   19      H      -3.2014658671    -2.1926311416     0.8868247996
   20      H      -3.2016553110    -2.1921890722    -0.8879433386
   21      H      -4.6210643955    -1.6412481367    -0.0001970786
   22      H      -3.3038606753     1.5670976611    -1.2946589882
   23      H      -4.6628280564     0.4341645057    -1.2800352378
   24      H      -3.1934576367     0.0304554794    -2.1747853457
 ----------------------------------------------------------------
 Molecular Point Group                 C1    NOp =  1
 Largest Abelian Subgroup              C1    NOp =  1
 Nuclear Repulsion Energy =        1061.41011256 hartrees
 There are       61 alpha and       61 beta electrons
 Requested basis set is 6-311++G(d,p)
 There are 146 shells and 389 basis functions

 Total QAlloc Memory Limit   8000 MB
 Mega-Array Size       188 MB
 MEM_STATIC part       192 MB
 A cutoff of  1.0D-08 yielded   7930 shell pairs
 There are     57756 function pairs (     61871 Cartesian)
 Smallest overlap matrix eigenvalue = 6.01E-07

 Q-Chem warning in module stvman/mkSTV.C, line 323:

 Overlap eigenvalue is smaller than square root of threshold
 Use THRESH >= 12 to get rid of this warning

 Linear dependence detected in AO basis
 Tighter screening thresholds may be required for diffuse basis sets
 Use S2THRESH > 14 and THRESH = 14 in case of SCF convergence issues
 Number of orthogonalized atomic orbitals = 387
 Maximum deviation from orthogonality = 7.312E-11

 Scale SEOQF with 1.000000e-01/1.000000e-01/1.000000e-01

 Standard Electronic Orientation quadrupole field applied
 Nucleus-field energy     =     0.0000000389 hartrees
 Guess from superposition of atomic densities
 Warning:  Energy on first SCF cycle will be non-variational
 SAD guess density has 122.000000 electrons

 -----------------------------------------------------------------------
  General SCF calculation program by
  Eric Jon Sundstrom, Paul Horn, Yuezhi Mao, Dmitri Zuev, Alec White,
  David Stuck, Shaama M.S., Shane Yost, Joonho Lee, David Small,
  Daniel Levine, Susi Lehtola, Hugh Burton, Evgeny Epifanovsky,
  Bang C. Huynh
 -----------------------------------------------------------------------
 Exchange:     0.2000 Hartree-Fock + 0.0800 Slater + 0.7200 B88
 Correlation:  0.1900 VWN1RPA + 0.8100 LYP
 Using SG-1 standard quadrature grid
 using 8 threads for integral computing
 -------------------------------------------------------
 OpenMP Integral computing Module                
 Release: version 1.0, May 2013, Q-Chem Inc. Pittsburgh 
 -------------------------------------------------------
 A restricted SCF calculation will be
 performed using DIIS
 SCF converges when DIIS error is below 1.0e-05
 ---------------------------------------
  Cycle       Energy         DIIS error
 ---------------------------------------
    1   -3114.9367953386      3.13e-02  
    2   -3112.1189908368      4.12e-03  
    3   -3111.6490225961      6.98e-03  
    4   -3112.3449022626      1.80e-03  
    5   -3112.3968039630      3.71e-04  
    6   -3112.3984840831      2.08e-04  
    7   -3112.3990284935      8.25e-05  
    8   -3112.3991472915      2.28e-05  
    9   -3112.3991539185      3.93e-06  Convergence criterion met
 ---------------------------------------
 SCF time:   CPU 176.81s  wall 22.00s 
 SCF   energy in the final basis set =    -3112.3991539185
 Total energy in the final basis set =    -3112.3991539185
 Exchange:     0.2000 Hartree-Fock + 0.0800 Slater + 0.7200 B88
 Correlation:  0.1900 VWN1RPA + 0.8100 LYP
 Using SG-1 standard quadrature grid
 in get_qchem_info
 IBasis=      401111
 IBasis=      401111
 USING 1082 GRID
 MICHARGE=           0
 Set epsilon to    37.2190017700195     
==== cosmo data ====
outfile: 004-COSMO.out.cosmo.0
phsran:    0.00000D+00
ampran:    0.10000D-04
volume:   1608.6050136
area:    785.7650301
routf:      0.8500000
rsolv [a.u]:      2.4566438
disex:     10.0000000
disex2:   4531.3232445
fepsi:      0.9602322
eps :    37.2190018
lcavity:     1
nppa:  1082
nspa:    92
nsph:    32
maxnps:  1548
natoms:    24
Atom   Radius [a.u.] nuc. charge
    1      3.7794520    6
    2      3.7794520    6
    3      3.7794520    6
    4      3.7794520    6
    5      3.7794520    6
    6      3.7794520    6
    7      4.0818081   35
    8      3.7794520    6
    9      3.7794520    6
   10      3.7794520    6
   11      3.7794520    6
   12      3.2503287    8
   13      3.2503287    8
   14      2.4566438    1
   15      2.4566438    1
   16      2.4566438    1
   17      2.4566438    1
   18      2.4566438    1
   19      2.4566438    1
   20      2.4566438    1
   21      2.4566438    1
   22      2.4566438    1
   23      2.4566438    1
   24      2.4566438    1
=== end cosmo data ===
 number of segments:          837
 f_epsilon=  0.960232245562971     
Ediel:   -0.0101066
 A restricted SCF calculation will be
 performed using Roothaan-Hall, DIIS
 SCF converges when DIIS error is below 1.0e-05
 ---------------------------------------
  Cycle       Energy         DIIS error
 ---------------------------------------
 number of segments:          837
 f_epsilon=  0.960232245562971     
Ediel:   -0.0156249
    1   -3112.4092611887      1.89e-04  Roothaan Step
 ---------------------------------------
  Cycle       Energy         DIIS error
 ---------------------------------------
 number of segments:          837
 f_epsilon=  0.960232245562971     
Ediel:   -0.0109224
    1   -3112.4096204773      3.05e-04  
 number of segments:          837
 f_epsilon=  0.960232245562971     
Ediel:   -0.0139730
    2   -3112.4039354472      7.06e-04  
 number of segments:          837
 f_epsilon=  0.960232245562971     
Ediel:   -0.0141039
    3   -3112.4110279354      2.19e-05  
 number of segments:          837
 f_epsilon=  0.960232245562971     
Ediel:   -0.0141126
    4   -3112.4110353241      1.25e-05  
    5   -3112.4110371925      3.41e-06  Convergence criterion met
 ---------------------------------------
 SCF time:   CPU 128.25s  wall 17.00s 
before final oc correction, ETot:     -3112.4110371925
 number of outlayer segments:          370
SCF energy after oc correction:     -3112.4110875571
 SCF   energy in the final basis set =    -3112.4110875571
 Total energy in the final basis set =    -3112.4110371925
 
 --------------------------------------------------------------
 
                    Orbital Energies (a.u.)
 --------------------------------------------------------------
 
 Alpha MOs
 -- Occupied --
******** -62.5042 -56.3248 -56.3210 -56.3206 -19.1517 -19.1487 -10.3002
-10.2965 -10.2661 -10.2234 -10.2194 -10.2084 -10.2049 -10.1607 -10.1594
-10.1594  -8.7130  -6.5447  -6.5318  -6.5307  -2.6556  -2.6521  -2.6513
 -2.6410  -2.6409  -1.0856  -1.0808  -0.8854  -0.8513  -0.8071  -0.7653
 -0.7112  -0.6916  -0.6896  -0.6414  -0.6143  -0.5581  -0.5373  -0.5052
 -0.4907  -0.4709  -0.4646  -0.4562  -0.4461  -0.4431  -0.4339  -0.4278
 -0.4076  -0.3896  -0.3835  -0.3695  -0.3613  -0.3570  -0.3437  -0.3401
 -0.3115  -0.3045  -0.2992  -0.2833  -0.2813
 -- Virtual --
 -0.1417  -0.0357  -0.0254  -0.0115  -0.0049   0.0078   0.0141   0.0209
  0.0274   0.0334   0.0390   0.0405   0.0501   0.0522   0.0562   0.0648
  0.0651   0.0736   0.0816   0.0843   0.0857   0.0858   0.0989   0.1023
  0.1078   0.1138   0.1170   0.1210   0.1230   0.1242   0.1298   0.1338
  0.1372   0.1377   0.1473   0.1486   0.1489   0.1544   0.1568   0.1570
  0.1578   0.1646   0.1712   0.1760   0.1825   0.1835   0.1901   0.1936
  0.1948   0.1974   0.1978   0.2037   0.2051   0.2122   0.2198   0.2246
  0.2284   0.2407   0.2480   0.2547   0.2613   0.2648   0.2691   0.2699
  0.2785   0.2817   0.2832   0.2922   0.3018   0.3024   0.3126   0.3199
  0.3232   0.3247   0.3267   0.3359   0.3423   0.3476   0.3586   0.3623
  0.3760   0.3802   0.3883   0.3999   0.4096   0.4299   0.4302   0.4412
  0.4451   0.4489   0.4673   0.4913   0.4999   0.5062   0.5172   0.5232
  0.5353   0.5522   0.5560   0.5694   0.5728   0.5762   0.5904   0.5913
  0.5979   0.5998   0.6153   0.6169   0.6256   0.6376   0.6440   0.6569
  0.6608   0.6626   0.6772   0.6830   0.6890   0.6897   0.6947   0.7081
  0.7198   0.7269   0.7437   0.7463   0.7529   0.7749   0.7839   0.7938
  0.7974   0.8231   0.8335   0.8351   0.8570   0.8793   0.8816   0.9028
  0.9057   0.9174   0.9323   0.9509   0.9588   0.9606   0.9935   1.0125
  1.0299   1.0378   1.0622   1.0704   1.0789   1.0910   1.1173   1.1192
  1.1618   1.1787   1.1971   1.2000   1.2148   1.2282   1.2466   1.2581
  1.2631   1.2683   1.2955   1.3112   1.4089   1.4274   1.4409   1.4447
  1.4585   1.4639   1.4875   1.4877   1.5014   1.5154   1.5278   1.5415
  1.5558   1.5679   1.5959   1.6012   1.6215   1.6390   1.6459   1.6526
  1.6732   1.6787   1.6947   1.6961   1.7158   1.7179   1.7503   1.7599
  1.7660   1.7827   1.7853   1.7949   1.8077   1.8184   1.8379   1.8531
  1.8950   1.9178   1.9325   1.9696   1.9704   1.9764   1.9931   1.9999
  2.0365   2.0564   2.0700   2.0940   2.1013   2.1233   2.1278   2.1468
  2.1761   2.1966   2.2141   2.2144   2.2414   2.2678   2.2785   2.2894
  2.3516   2.3930   2.4347   2.4550   2.4746   2.5034   2.5189   2.5209
  2.5280   2.5456   2.5532   2.5765   2.5776   2.5879   2.6130   2.6171
  2.6375   2.6693   2.6814   2.7016   2.7070   2.7339   2.7346   2.7553
  2.7773   2.8026   2.8248   2.8292   2.8439   2.8562   2.8847   2.8996
  2.9088   2.9386   2.9438   2.9876   3.0148   3.0416   3.0469   3.0774
  3.0953   3.1574   3.1915   3.2007   3.2151   3.2626   3.2975   3.3155
  3.3375   3.4119   3.4727   3.5471   3.5899   3.6241   3.6861   3.7542
  3.7757   3.7911   3.8000   3.8138   3.8219   3.8515   3.8796   3.9965
  4.0491   4.0642   4.0780   4.1091   4.1560   4.2419   4.2610   4.2707
  4.3911   4.4166   4.6727   5.0258   5.0484   5.1966   5.2476   5.6901
  5.7812   6.7675   7.5560   7.6674   7.7450  23.5590  23.7109  23.7875
 23.8387  23.8866  23.9768  23.9903  24.0060  24.1533  24.2025  48.0175
 49.9768  50.0203 289.7525 289.8638 289.96871020.8370
 --------------------------------------------------------------
 
          Ground-State Mulliken Net Atomic Charges

     Atom                 Charge (a.u.)
  ----------------------------------------
      1 C                    -0.866964
      2 C                    -0.414666
      3 C                     1.222553
      4 C                    -0.597338
      5 C                    -0.480940
      6 C                     1.042382
      7 Br                   -0.103033
      8 C                     0.531503
      9 C                    -0.701519
     10 C                    -0.499860
     11 C                    -0.700894
     12 O                    -0.247254
     13 O                    -0.250980
     14 H                     0.261835
     15 H                     0.287579
     16 H                     0.158475
     17 H                     0.175296
     18 H                     0.178064
     19 H                     0.151397
     20 H                     0.151408
     21 H                     0.191189
     22 H                     0.178109
     23 H                     0.175133
     24 H                     0.158524
  ----------------------------------------
  Sum of atomic charges =     0.000000

 -----------------------------------------------------------------
                    Cartesian Multipole Moments
 -----------------------------------------------------------------
    Charge (ESU x 10^10)
                -0.0000
    Dipole Moment (Debye)
         X      -2.8524      Y       0.2691      Z      -0.0001
       Tot       2.8651
    Quadrupole Moments (Debye-Ang)
        XX     -87.3657     XY      13.0765     YY    -101.9177
        XZ      -0.0004     YZ       0.0026     ZZ     -89.6561
    Octopole Moments (Debye-Ang^2)
       XXX      80.8745    XXY       1.8438    XYY      32.8420
       YYY       8.6095    XXZ       0.0071    XYZ      -0.0030
       YYZ      -0.0006    XZZ      34.0584    YZZ       0.7284
       ZZZ      -0.0018
    Hexadecapole Moments (Debye-Ang^3)
      XXXX   -3481.4876   XXXY      47.1482   XXYY    -804.6989
      XYYY      86.7678   YYYY    -957.5641   XXXZ      -0.0365
      XXYZ       0.0160   XYYZ       0.0014   YYYZ       0.0152
      XXZZ    -675.3715   XYZZ       1.3060   YYZZ    -189.1676
      XZZZ       0.0110   YZZZ      -0.0006   ZZZZ    -283.3807
 -----------------------------------------------------------------
 Total job time:  41.99s(wall), 315.37s(cpu) 
 Thu Feb 22 02:54:36 2024

        *************************************************************
        *                                                           *
        *  Thank you very much for using Q-Chem.  Have a nice day.  *
        *                                                           *
        *************************************************************


