
Running Job 1 of 1 017-COSMO.in
qchem 017-COSMO.in_315535.0 /expanse/lustre/scratch/selhajj/temp_project/qcscratch/28868371/qchem315535/ 0
/cm/shared/apps/spack/cpu/opt/spack/linux-centos8-zen2/gcc-10.2.0/qchem-5.4-akfmr7b3t57bfs6qan3padb2wnb2i7cl/exe/qcprog.exe_s 017-COSMO.in_315535.0 /expanse/lustre/scratch/selhajj/temp_project/qcscratch/28868371/qchem315535/
                  Welcome to Q-Chem
     A Quantum Leap Into The Future Of Chemistry


 Q-Chem 5.4, Q-Chem, Inc., Pleasanton, CA (2021)

 License issued to: University of California, San Diego (site)

 E. Epifanovsky,  A. T. B. Gilbert,  Xintian Feng,  Joonho Lee,  Yuezhi Mao,  
 N. Mardirossian,  P. Pokhilko,  A. White,  M. Wormit,  M. P. Coons,  
 A. L. Dempwolff,  Zhengting Gan,  D. Hait,  P. R. Horn,  L. D. Jacobson,  
 I. Kaliman,  J. Kussmann,  A. W. Lange,  Ka Un Lao,  D. S. Levine,  Jie Liu,  
 S. C. McKenzie,  A. F. Morrison,  K. Nanda,  F. Plasser,  D. R. Rehn,  
 M. L. Vidal,  Zhi-Qiang You,  Ying Zhu,  B. Alam,  B. Albrecht,  
 A. Aldossary,  E. Alguire,  J. H. Andersen,  D. Barton,  K. Begam,  A. Behn,  
 Y. A. Bernard,  E. J. Berquist,  H. Burton,  A. Carreras,  K. Carter-Fenk,  
 R. Chakraborty,  A. D. Chien,  K. D. Closser,  V. Cofer-Shabica,  
 S. Dasgupta,  Jia Deng,  M. de Wergifosse,  M. Diedenhofen,  Hainam Do,  
 S. Ehlert,  Po-Tung Fang,  S. Fatehi,  Qingguo Feng,  J. Gayvert,  
 Qinghui Ge,  G. Gidofalvi,  M. Goldey,  J. Gomes,  C. Gonzalez-Espinoza,  
 S. Gulania,  A. Gunina,  M. W. D. Hanson-Heine,  P. H. P. Harbach,  
 A. W. Hauser,  M. F. Herbst,  M. Hernandez Vera,  M. Hodecker,  
 Z. C. Holden,  S. Houck,  Xunkun Huang,  Kerwin Hui,  B. C. Huynh,  
 M. Ivanov,  Hyunjun Ji,  Hanjie Jiang,  B. Kaduk,  S. Kaehler,  
 K. Khistyaev,  Jaehoon Kim,  P. Klunzinger,  Z. Koczor-Benda,  
 Joong Hoon Koh,  D. Kosenkov,  L. Koulias,  T. Kowalczyk,  C. M. Krauter,  
 K. Kue,  A. Kunitsa,  T. Kus,  A. Landau,  K. V. Lawler,  D. Lefrancois,  
 S. Lehtola,  Rain Li,  Yi-Pei Li,  Jiashu Liang,  M. Liebenthal,  
 Hung-Hsuan Lin,  You-Sheng Lin,  Fenglai Liu,  Kuan-Yu Liu,  
 M. Loipersberger,  A. Luenser,  A. Manjanath,  P. Manohar,  E. Mansoor,  
 S. F. Manzer,  Shan-Ping Mao,  A. V. Marenich,  T. Markovich,  S. Mason,  
 S. A. Maurer,  P. F. McLaughlin,  M. F. S. J. Menger,  J.-M. Mewes,  
 S. A. Mewes,  P. Morgante,  J. W. Mullinax,  T. S. Nguyen-Beck,  
 K. J. Oosterbaan,  G. Paran,  Alexander C. Paul,  Suranjan K. Paul,  
 F. Pavosevic,  Zheng Pei,  S. Prager,  E. I. Proynov,  E. Ramos,  B. Rana,  
 A. E. Rask,  A. Rettig,  R. M. Richard,  F. Rob,  E. Rossomme,  T. Scheele,  
 M. Scheurer,  M. Schneider,  N. Sergueev,  S. M. Sharada,  W. Skomorowski,  
 D. W. Small,  C. J. Stein,  Yu-Chuan Su,  E. J. Sundstrom,  Zhen Tao,  
 J. Thirman,  T. Tsuchimochi,  N. M. Tubman,  S. P. Veccham,  O. Vydrov,  
 J. Wenzel,  J. Witte,  A. Yamada,  Kun Yao,  S. Yeganeh,  S. R. Yost,  
 A. Zech,  Igor Ying Zhang,  Xing Zhang,  Yu Zhang,  D. Zuev,  
 A. Aspuru-Guzik,  A. T. Bell,  N. A. Besley,  K. B. Bravaya,  B. R. Brooks,  
 D. Casanova,  Jeng-Da Chai,  S. Coriani,  C. J. Cramer,  
 A. E. DePrince, III,  R. A. DiStasio Jr.,  A. Dreuw,  B. D. Dunietz,  
 T. R. Furlani,  W. A. Goddard III,  S. Grimme,  S. Hammes-Schiffer,  
 T. Head-Gordon,  W. J. Hehre,  Chao-Ping Hsu,  T.-C. Jagau,  Yousung Jung,  
 A. Klamt,  Jing Kong,  D. S. Lambrecht,  WanZhen Liang,  N. J. Mayhall,  
 C. W. McCurdy,  J. B. Neaton,  C. Ochsenfeld,  J. A. Parkhill,  R. Peverati,  
 V. A. Rassolov,  Yihan Shao,  L. V. Slipchenko,  T. Stauch,  R. P. Steele,  
 J. E. Subotnik,  A. J. W. Thom,  A. Tkatchenko,  D. G. Truhlar,  
 T. Van Voorhis,  T. A. Wesolowski,  K. B. Whaley,  H. L. Woodcock III,  
 P. M. Zimmerman,  S. Faraji,  P. M. W. Gill,  M. Head-Gordon,  
 J. M. Herbert,  A. I. Krylov

 Contributors to earlier versions of Q-Chem not listed above: 
 R. D. Adamson,  B. Austin,  R. Baer,  J. Baker,  G. J. O. Beran,  
 K. Brandhorst,  S. T. Brown,  E. F. C. Byrd,  A. K. Chakraborty,  
 G. K. L. Chan,  Chun-Min Chang,  Yunqing Chen,  C.-L. Cheng,  
 Siu Hung Chien,  D. M. Chipman,  D. L. Crittenden,  H. Dachsel,  
 R. J. Doerksen,  A. D. Dutoi,  R. G. Edgar,  J. Fosso-Tande,  
 L. Fusti-Molnar,  D. Ghosh,  A. Ghysels,  A. Golubeva-Zadorozhnaya,  
 J. Gonthier,  M. S. Gordon,  S. R. Gwaltney,  G. Hawkins,  J. E. Herr,  
 A. Heyden,  S. Hirata,  E. G. Hohenstein,  G. Kedziora,  F. J. Keil,  
 C. Kelley,  Jihan Kim,  R. A. King,  R. Z. Khaliullin,  P. P. Korambath,  
 W. Kurlancheek,  A. Laurent,  A. M. Lee,  M. S. Lee,  S. V. Levchenko,  
 Ching Yeh Lin,  D. Liotard,  E. Livshits,  R. C. Lochan,  I. Lotan,  
 L. A. Martinez-Martinez,  P. E. Maslen,  N. Nair,  D. P. O'Neill,  
 D. Neuhauser,  E. Neuscamman,  C. M. Oana,  R. Olivares-Amaya,  R. Olson,  
 T. M. Perrine,  B. Peters,  P. A. Pieniazek,  A. Prociuk,  Y. M. Rhee,  
 J. Ritchie,  M. A. Rohrdanz,  E. Rosta,  N. J. Russ,  H. F. Schaefer III,  
 M. W. Schmidt,  N. E. Schultz,  S. Sharma,  N. Shenvi,  C. D. Sherrill,  
 A. C. Simmonett,  A. Sodt,  T. Stein,  D. Stuck,  K. S. Thanthiriwatte,  
 V. Vanovschi,  L. Vogt,  Tao Wang,  A. Warshel,  M. A. Watson,  
 C. F. Williams,  Q. Wu,  X. Xu,  Jun Yang,  W. Zhang,  Yan Zhao

 Please cite Q-Chem as follows:
 Y. Shao et al., Mol. Phys. 113, 184-215 (2015)
 DOI: 10.1080/00268976.2014.952696

 Q-Chem 5.4.0 for Intel X86 EM64T Linux

 Parts of Q-Chem use Armadillo 9.800.1 (Horizon Scraper).
 http://arma.sourceforge.net/

 Q-Chem begins on Thu Feb 22 02:54:55 2024  

 Host: 
0

     Scratch files written to /expanse/lustre/scratch/selhajj/temp_project/qcscratch/28868371/qchem315535//
 May1621 |scratch|qcdevops|jenkins|workspace|build_RNUM    
 Processing $rem in /cm/shared/apps/spack/cpu/opt/spack/linux-centos8-zen2/gcc-10.2.0/qchem-5.4-akfmr7b3t57bfs6qan3padb2wnb2i7cl/config/preferences:
 Processing $rem in /home/selhajj/.qchemrc:

 Checking the input file for inconsistencies... 
 Q-Chem warning in module libgen/CheckREMs.C, line 172:

 Found a $solvent section, which is only used for PCM and Kirkwood-Onsager solvation models

	...done.

--------------------------------------------------------------
User input:
--------------------------------------------------------------
$molecule
0 1
C                  2.5611520000     -0.9114090000     -0.1425140000
C                  1.3133130000     -0.0959360000     -0.0072950000
C                  1.2609480000      1.2268610000      0.2365470000
Cl                 2.6864550000      2.2046480000      0.4354950000
C                 -0.0252260000      1.9856640000      0.3606760000
O                 -0.0491980000      3.1748040000      0.5765730000
C                 -1.2775590000      1.1845590000      0.2017060000
C                 -1.2885320000     -0.1392570000     -0.0384780000
C                 -2.5365810000     -0.9530850000     -0.1988140000
C                  0.0256920000     -0.8485020000     -0.1552560000
O                  0.0568750000     -2.0474580000     -0.3720390000
Cl                -2.7520930000      2.0915180000      0.3507730000
H                  2.5994650000     -1.6697390000      0.6448210000
H                  2.5521070000     -1.4547720000     -1.0904590000
H                  3.4534050000     -0.2932000000     -0.0861300000
H                 -3.1603240000     -0.8799610000      0.6963790000
H                 -3.1343870000     -0.5782680000     -1.0344020000
H                 -2.2855120000     -1.9964660000     -0.3775840000
$end
$rem
MAX_SCF_CYCLES=200
BASIS  =  6-311++G(d,p)
GUI  =  2
JOB_TYPE  =  SP
METHOD  =  B3LYP
SOLVENT_METHOD = COSMO
$end
$solvent
dielectric 37.219
opticaldielectric 1.43
$end





--------------------------------------------------------------
 ----------------------------------------------------------------
             Standard Nuclear Orientation (Angstroms)
    I     Atom           X                Y                Z
 ----------------------------------------------------------------
    1      C       2.5333765865     1.7937309378     0.0041565232
    2      C       1.3024882189     0.9420875953     0.0040834945
    3      C       1.2774480614    -0.4037792627     0.0012010687
    4      Cl      2.7230332797    -1.3722726034    -0.0034847396
    5      C       0.0070556007    -1.1984719679     0.0014454852
    6      O       0.0075941598    -2.4072891541     0.0023572431
    7      C      -1.2616477006    -0.4074160395     0.0004080061
    8      C      -1.2998948993     0.9375122873    -0.0011762517
    9      C      -2.5645640264     1.7414141585    -0.0031084559
   10      C      -0.0004621503     1.6827114818     0.0005514159
   11      O       0.0060189120     2.9014886390    -0.0011735240
   12      Cl     -2.7173253845    -1.3561249079     0.0006889124
   13      H       2.5692674991     2.3991865158    -0.9060984206
   14      H       2.5010041280     2.4979896517     0.8389598370
   15      H       3.4373350265     1.1936610378     0.0693653647
   16      H      -3.1740363230     1.4962970084    -0.8773132712
   17      H      -3.1673976024     1.5104782324     0.8796867529
   18      H      -2.3349096650     2.8048142231    -0.0119086685
 ----------------------------------------------------------------
 Molecular Point Group                 C1    NOp =  1
 Largest Abelian Subgroup              C1    NOp =  1
 Nuclear Repulsion Energy =         863.35088632 hartrees
 There are       52 alpha and       52 beta electrons
 Requested basis set is 6-311++G(d,p)
 There are 116 shells and 322 basis functions

 Total QAlloc Memory Limit   8000 MB
 Mega-Array Size       188 MB
 MEM_STATIC part       192 MB
 A cutoff of  1.0D-08 yielded   5071 shell pairs
 There are     41766 function pairs (     44800 Cartesian)
 Smallest overlap matrix eigenvalue = 7.03E-07

 Q-Chem warning in module stvman/mkSTV.C, line 323:

 Overlap eigenvalue is smaller than square root of threshold
 Use THRESH >= 12 to get rid of this warning

 Linear dependence detected in AO basis
 Tighter screening thresholds may be required for diffuse basis sets
 Use S2THRESH > 14 and THRESH = 14 in case of SCF convergence issues
 Number of orthogonalized atomic orbitals = 320
 Maximum deviation from orthogonality = 8.038E-11

 Scale SEOQF with 1.000000e-01/1.000000e-01/1.000000e-01

 Standard Electronic Orientation quadrupole field applied
 Nucleus-field energy     =     0.0000000345 hartrees
 Guess from superposition of atomic densities
 Warning:  Energy on first SCF cycle will be non-variational
 SAD guess density has 104.000000 electrons

 -----------------------------------------------------------------------
  General SCF calculation program by
  Eric Jon Sundstrom, Paul Horn, Yuezhi Mao, Dmitri Zuev, Alec White,
  David Stuck, Shaama M.S., Shane Yost, Joonho Lee, David Small,
  Daniel Levine, Susi Lehtola, Hugh Burton, Evgeny Epifanovsky,
  Bang C. Huynh
 -----------------------------------------------------------------------
 Exchange:     0.2000 Hartree-Fock + 0.0800 Slater + 0.7200 B88
 Correlation:  0.1900 VWN1RPA + 0.8100 LYP
 Using SG-1 standard quadrature grid
 using 8 threads for integral computing
 -------------------------------------------------------
 OpenMP Integral computing Module                
 Release: version 1.0, May 2013, Q-Chem Inc. Pittsburgh 
 -------------------------------------------------------
 A restricted SCF calculation will be
 performed using DIIS
 SCF converges when DIIS error is below 1.0e-05
 ---------------------------------------
  Cycle       Energy         DIIS error
 ---------------------------------------
    1   -1381.9610129020      3.46e-02  
    2   -1379.2478070155      4.43e-03  
    3   -1378.6819953535      8.68e-03  
    4   -1379.4266815249      1.70e-03  
    5   -1379.4597625590      4.95e-04  
    6   -1379.4617869558      2.75e-04  
    7   -1379.4623998598      9.85e-05  
    8   -1379.4625086213      2.31e-05  
    9   -1379.4625138830      1.07e-05  
   10   -1379.4625148249      2.93e-06  Convergence criterion met
 ---------------------------------------
 SCF time:   CPU 89.02s  wall 12.00s 
 SCF   energy in the final basis set =    -1379.4625148249
 Total energy in the final basis set =    -1379.4625148249
 Exchange:     0.2000 Hartree-Fock + 0.0800 Slater + 0.7200 B88
 Correlation:  0.1900 VWN1RPA + 0.8100 LYP
 Using SG-1 standard quadrature grid
 in get_qchem_info
 IBasis=      401111
 IBasis=      401111
 USING 1082 GRID
 MICHARGE=           0
 Set epsilon to    37.2190017700195     
==== cosmo data ====
outfile: 017-COSMO.out.cosmo.0
phsran:    0.00000D+00
ampran:    0.10000D-04
volume:   1422.1293654
area:    718.9455870
routf:      0.8500000
rsolv [a.u]:      2.4566438
disex:     10.0000000
disex2:   4836.9844877
fepsi:      0.9602322
eps :    37.2190018
lcavity:     1
nppa:  1082
nspa:    92
nsph:    32
maxnps:  1296
natoms:    18
Atom   Radius [a.u.] nuc. charge
    1      3.7794520    6
    2      3.7794520    6
    3      3.7794520    6
    4      3.8739383   17
    5      3.7794520    6
    6      3.2503287    8
    7      3.7794520    6
    8      3.7794520    6
    9      3.7794520    6
   10      3.7794520    6
   11      3.2503287    8
   12      3.8739383   17
   13      2.4566438    1
   14      2.4566438    1
   15      2.4566438    1
   16      2.4566438    1
   17      2.4566438    1
   18      2.4566438    1
=== end cosmo data ===
 number of segments:          729
 f_epsilon=  0.960232245562971     
Ediel:   -0.0099374
 A restricted SCF calculation will be
 performed using Roothaan-Hall, DIIS
 SCF converges when DIIS error is below 1.0e-05
 ---------------------------------------
  Cycle       Energy         DIIS error
 ---------------------------------------
 number of segments:          729
 f_epsilon=  0.960232245562971     
Ediel:   -0.0163312
    1   -1379.4724531140      2.40e-04  Roothaan Step
 ---------------------------------------
  Cycle       Energy         DIIS error
 ---------------------------------------
 number of segments:          729
 f_epsilon=  0.960232245562971     
Ediel:   -0.0102935
    1   -1379.4725985503      4.06e-04  
 number of segments:          729
 f_epsilon=  0.960232245562971     
Ediel:   -0.0141334
    2   -1379.4656352593      9.35e-04  
 number of segments:          729
 f_epsilon=  0.960232245562971     
Ediel:   -0.0143143
    3   -1379.4743495868      3.32e-05  
 number of segments:          729
 f_epsilon=  0.960232245562971     
Ediel:   -0.0143096
    4   -1379.4743615395      1.64e-05  
    5   -1379.4743641655      5.31e-06  Convergence criterion met
 ---------------------------------------
 SCF time:   CPU 62.70s  wall 8.00s 
before final oc correction, ETot:     -1379.4743641655
 number of outlayer segments:          348
SCF energy after oc correction:     -1379.4744237015
 SCF   energy in the final basis set =    -1379.4744237015
 Total energy in the final basis set =    -1379.4743641655
 
 --------------------------------------------------------------
 
                    Orbital Energies (a.u.)
 --------------------------------------------------------------
 
 Alpha MOs
 -- Occupied --
********-101.5764 -19.1560 -19.1523 -10.3096 -10.3002 -10.2709 -10.2696
-10.2334 -10.2327 -10.1802 -10.1792  -9.4919  -9.4911  -7.2565  -7.2557
 -7.2471  -7.2462  -7.2459  -7.2451  -1.0950  -1.0855  -0.9182  -0.9054
 -0.8399  -0.8065  -0.7533  -0.7045  -0.6850  -0.6079  -0.6051  -0.5620
 -0.5093  -0.4881  -0.4820  -0.4610  -0.4602  -0.4446  -0.4424  -0.4364
 -0.4257  -0.4062  -0.4016  -0.3914  -0.3807  -0.3680  -0.3423  -0.3336
 -0.3105  -0.3005  -0.2947  -0.2750
 -- Virtual --
 -0.1433  -0.0347  -0.0180  -0.0119   0.0034   0.0049   0.0209   0.0226
  0.0321   0.0356   0.0454   0.0462   0.0487   0.0632   0.0643   0.0753
  0.0821   0.0848   0.0891   0.0929   0.0996   0.1007   0.1100   0.1147
  0.1187   0.1254   0.1256   0.1274   0.1332   0.1371   0.1459   0.1489
  0.1561   0.1574   0.1637   0.1725   0.1741   0.1816   0.1887   0.1908
  0.1922   0.1964   0.1994   0.2062   0.2075   0.2126   0.2188   0.2201
  0.2267   0.2381   0.2441   0.2516   0.2531   0.2560   0.2735   0.2889
  0.2918   0.2929   0.2995   0.3112   0.3150   0.3179   0.3213   0.3337
  0.3457   0.3497   0.3602   0.3861   0.3959   0.4005   0.4110   0.4197
  0.4292   0.4349   0.4527   0.4597   0.4705   0.4770   0.4846   0.4850
  0.5082   0.5129   0.5312   0.5607   0.5614   0.5755   0.5854   0.5899
  0.6044   0.6205   0.6216   0.6265   0.6383   0.6408   0.6478   0.6545
  0.6623   0.6751   0.6775   0.7055   0.7242   0.7353   0.7522   0.7884
  0.8160   0.8221   0.8292   0.8433   0.8468   0.8481   0.8493   0.8633
  0.8675   0.8848   0.9004   0.9080   0.9388   0.9435   0.9503   0.9591
  0.9723   0.9876   0.9985   1.0039   1.0209   1.0485   1.0524   1.1009
  1.1159   1.1572   1.1780   1.1789   1.1882   1.1979   1.2133   1.2298
  1.2491   1.2693   1.2801   1.2987   1.3120   1.3214   1.3407   1.3565
  1.4081   1.4202   1.4395   1.4497   1.4581   1.5092   1.5444   1.5556
  1.5657   1.5753   1.5961   1.6270   1.6296   1.6513   1.6607   1.6969
  1.7224   1.7272   1.7439   1.7707   1.7802   1.7973   1.8223   1.8387
  1.8429   1.8450   1.8588   1.8885   1.9346   1.9617   2.0293   2.0744
  2.1017   2.1281   2.1402   2.1419   2.1968   2.2165   2.2279   2.2544
  2.3021   2.3144   2.3210   2.3346   2.3588   2.4341   2.4494   2.4885
  2.4914   2.5337   2.5348   2.5401   2.5418   2.5449   2.5585   2.5632
  2.5817   2.5961   2.6641   2.6741   2.7314   2.7359   2.7408   2.7632
  2.8128   2.8236   2.8256   2.8678   2.8913   2.9414   2.9527   2.9774
  3.0244   3.0373   3.0779   3.1105   3.1571   3.2025   3.2083   3.2772
  3.3093   3.3378   3.3615   3.4880   3.5084   3.5585   3.5845   3.7404
  3.7814   3.7826   3.8277   3.8530   3.8923   3.9788   4.1555   4.2487
  4.3038   4.6757   5.0211   5.0414   5.1930   5.2408   5.6769   5.7544
  9.7699   9.7973  23.4712  23.6351  23.8066  23.8700  23.9630  23.9691
 24.1005  24.1386  25.8213  25.8598  26.1630  26.2659  26.6130  26.6696
 49.9773  50.0255 215.7625 215.7941
 --------------------------------------------------------------
 
          Ground-State Mulliken Net Atomic Charges

     Atom                 Charge (a.u.)
  ----------------------------------------
      1 C                    -0.533698
      2 C                     0.492013
      3 C                     0.318790
      4 Cl                    0.395763
      5 C                    -1.128005
      6 O                    -0.199559
      7 C                     0.250141
      8 C                     0.573631
      9 C                    -0.635543
     10 C                    -0.901908
     11 O                    -0.249391
     12 Cl                    0.469080
     13 H                     0.211950
     14 H                     0.201930
     15 H                     0.139067
     16 H                     0.198914
     17 H                     0.201018
     18 H                     0.195806
  ----------------------------------------
  Sum of atomic charges =     0.000000

 -----------------------------------------------------------------
                    Cartesian Multipole Moments
 -----------------------------------------------------------------
    Charge (ESU x 10^10)
                 0.0000
    Dipole Moment (Debye)
         X      -0.0850      Y       3.2745      Z      -0.0108
       Tot       3.2757
    Quadrupole Moments (Debye-Ang)
        XX     -75.2789     XY       0.3430     YY    -100.5197
        XZ      -0.0299     YZ       0.0029     ZZ     -81.3453
    Octopole Moments (Debye-Ang^2)
       XXX      -1.0998    XXY      15.5403    XYY       1.4238
       YYY     -11.1563    XXZ      -0.0636    XYZ      -0.1291
       YYZ       0.0311    XZZ      -0.9166    YZZ       0.0668
       ZZZ      -0.1622
    Hexadecapole Moments (Debye-Ang^3)
      XXXX   -1933.0962   XXXY      -1.3263   XXYY    -522.2427
      XYYY       3.7932   YYYY   -1553.9729   XXXZ       0.0936
      XXYZ      -0.3793   XYYZ      -0.1967   YYYZ       0.6645
      XXZZ    -354.8007   XYZZ       2.1295   YYZZ    -236.1751
      XZZZ      -0.5770   YZZZ      -0.3118   ZZZZ    -100.4330
 -----------------------------------------------------------------
 Total job time:  21.21s(wall), 157.98s(cpu) 
 Thu Feb 22 02:55:16 2024

        *************************************************************
        *                                                           *
        *  Thank you very much for using Q-Chem.  Have a nice day.  *
        *                                                           *
        *************************************************************


