
Running Job 1 of 1 155-an-SM12.in
qchem 155-an-SM12.in_1637429.0 /expanse/lustre/scratch/selhajj/temp_project/qcscratch/28445656/qchem1637429/ 0
/cm/shared/apps/spack/cpu/opt/spack/linux-centos8-zen2/gcc-10.2.0/qchem-5.4-akfmr7b3t57bfs6qan3padb2wnb2i7cl/exe/qcprog.exe_s 155-an-SM12.in_1637429.0 /expanse/lustre/scratch/selhajj/temp_project/qcscratch/28445656/qchem1637429/
                  Welcome to Q-Chem
     A Quantum Leap Into The Future Of Chemistry


 Q-Chem 5.4, Q-Chem, Inc., Pleasanton, CA (2021)

 License issued to: University of California, San Diego (site)

 E. Epifanovsky,  A. T. B. Gilbert,  Xintian Feng,  Joonho Lee,  Yuezhi Mao,  
 N. Mardirossian,  P. Pokhilko,  A. White,  M. Wormit,  M. P. Coons,  
 A. L. Dempwolff,  Zhengting Gan,  D. Hait,  P. R. Horn,  L. D. Jacobson,  
 I. Kaliman,  J. Kussmann,  A. W. Lange,  Ka Un Lao,  D. S. Levine,  Jie Liu,  
 S. C. McKenzie,  A. F. Morrison,  K. Nanda,  F. Plasser,  D. R. Rehn,  
 M. L. Vidal,  Zhi-Qiang You,  Ying Zhu,  B. Alam,  B. Albrecht,  
 A. Aldossary,  E. Alguire,  J. H. Andersen,  D. Barton,  K. Begam,  A. Behn,  
 Y. A. Bernard,  E. J. Berquist,  H. Burton,  A. Carreras,  K. Carter-Fenk,  
 R. Chakraborty,  A. D. Chien,  K. D. Closser,  V. Cofer-Shabica,  
 S. Dasgupta,  Jia Deng,  M. de Wergifosse,  M. Diedenhofen,  Hainam Do,  
 S. Ehlert,  Po-Tung Fang,  S. Fatehi,  Qingguo Feng,  J. Gayvert,  
 Qinghui Ge,  G. Gidofalvi,  M. Goldey,  J. Gomes,  C. Gonzalez-Espinoza,  
 S. Gulania,  A. Gunina,  M. W. D. Hanson-Heine,  P. H. P. Harbach,  
 A. W. Hauser,  M. F. Herbst,  M. Hernandez Vera,  M. Hodecker,  
 Z. C. Holden,  S. Houck,  Xunkun Huang,  Kerwin Hui,  B. C. Huynh,  
 M. Ivanov,  Hyunjun Ji,  Hanjie Jiang,  B. Kaduk,  S. Kaehler,  
 K. Khistyaev,  Jaehoon Kim,  P. Klunzinger,  Z. Koczor-Benda,  
 Joong Hoon Koh,  D. Kosenkov,  L. Koulias,  T. Kowalczyk,  C. M. Krauter,  
 K. Kue,  A. Kunitsa,  T. Kus,  A. Landau,  K. V. Lawler,  D. Lefrancois,  
 S. Lehtola,  Rain Li,  Yi-Pei Li,  Jiashu Liang,  M. Liebenthal,  
 Hung-Hsuan Lin,  You-Sheng Lin,  Fenglai Liu,  Kuan-Yu Liu,  
 M. Loipersberger,  A. Luenser,  A. Manjanath,  P. Manohar,  E. Mansoor,  
 S. F. Manzer,  Shan-Ping Mao,  A. V. Marenich,  T. Markovich,  S. Mason,  
 S. A. Maurer,  P. F. McLaughlin,  M. F. S. J. Menger,  J.-M. Mewes,  
 S. A. Mewes,  P. Morgante,  J. W. Mullinax,  T. S. Nguyen-Beck,  
 K. J. Oosterbaan,  G. Paran,  Alexander C. Paul,  Suranjan K. Paul,  
 F. Pavosevic,  Zheng Pei,  S. Prager,  E. I. Proynov,  E. Ramos,  B. Rana,  
 A. E. Rask,  A. Rettig,  R. M. Richard,  F. Rob,  E. Rossomme,  T. Scheele,  
 M. Scheurer,  M. Schneider,  N. Sergueev,  S. M. Sharada,  W. Skomorowski,  
 D. W. Small,  C. J. Stein,  Yu-Chuan Su,  E. J. Sundstrom,  Zhen Tao,  
 J. Thirman,  T. Tsuchimochi,  N. M. Tubman,  S. P. Veccham,  O. Vydrov,  
 J. Wenzel,  J. Witte,  A. Yamada,  Kun Yao,  S. Yeganeh,  S. R. Yost,  
 A. Zech,  Igor Ying Zhang,  Xing Zhang,  Yu Zhang,  D. Zuev,  
 A. Aspuru-Guzik,  A. T. Bell,  N. A. Besley,  K. B. Bravaya,  B. R. Brooks,  
 D. Casanova,  Jeng-Da Chai,  S. Coriani,  C. J. Cramer,  
 A. E. DePrince, III,  R. A. DiStasio Jr.,  A. Dreuw,  B. D. Dunietz,  
 T. R. Furlani,  W. A. Goddard III,  S. Grimme,  S. Hammes-Schiffer,  
 T. Head-Gordon,  W. J. Hehre,  Chao-Ping Hsu,  T.-C. Jagau,  Yousung Jung,  
 A. Klamt,  Jing Kong,  D. S. Lambrecht,  WanZhen Liang,  N. J. Mayhall,  
 C. W. McCurdy,  J. B. Neaton,  C. Ochsenfeld,  J. A. Parkhill,  R. Peverati,  
 V. A. Rassolov,  Yihan Shao,  L. V. Slipchenko,  T. Stauch,  R. P. Steele,  
 J. E. Subotnik,  A. J. W. Thom,  A. Tkatchenko,  D. G. Truhlar,  
 T. Van Voorhis,  T. A. Wesolowski,  K. B. Whaley,  H. L. Woodcock III,  
 P. M. Zimmerman,  S. Faraji,  P. M. W. Gill,  M. Head-Gordon,  
 J. M. Herbert,  A. I. Krylov

 Contributors to earlier versions of Q-Chem not listed above: 
 R. D. Adamson,  B. Austin,  R. Baer,  J. Baker,  G. J. O. Beran,  
 K. Brandhorst,  S. T. Brown,  E. F. C. Byrd,  A. K. Chakraborty,  
 G. K. L. Chan,  Chun-Min Chang,  Yunqing Chen,  C.-L. Cheng,  
 Siu Hung Chien,  D. M. Chipman,  D. L. Crittenden,  H. Dachsel,  
 R. J. Doerksen,  A. D. Dutoi,  R. G. Edgar,  J. Fosso-Tande,  
 L. Fusti-Molnar,  D. Ghosh,  A. Ghysels,  A. Golubeva-Zadorozhnaya,  
 J. Gonthier,  M. S. Gordon,  S. R. Gwaltney,  G. Hawkins,  J. E. Herr,  
 A. Heyden,  S. Hirata,  E. G. Hohenstein,  G. Kedziora,  F. J. Keil,  
 C. Kelley,  Jihan Kim,  R. A. King,  R. Z. Khaliullin,  P. P. Korambath,  
 W. Kurlancheek,  A. Laurent,  A. M. Lee,  M. S. Lee,  S. V. Levchenko,  
 Ching Yeh Lin,  D. Liotard,  E. Livshits,  R. C. Lochan,  I. Lotan,  
 L. A. Martinez-Martinez,  P. E. Maslen,  N. Nair,  D. P. O'Neill,  
 D. Neuhauser,  E. Neuscamman,  C. M. Oana,  R. Olivares-Amaya,  R. Olson,  
 T. M. Perrine,  B. Peters,  P. A. Pieniazek,  A. Prociuk,  Y. M. Rhee,  
 J. Ritchie,  M. A. Rohrdanz,  E. Rosta,  N. J. Russ,  H. F. Schaefer III,  
 M. W. Schmidt,  N. E. Schultz,  S. Sharma,  N. Shenvi,  C. D. Sherrill,  
 A. C. Simmonett,  A. Sodt,  T. Stein,  D. Stuck,  K. S. Thanthiriwatte,  
 V. Vanovschi,  L. Vogt,  Tao Wang,  A. Warshel,  M. A. Watson,  
 C. F. Williams,  Q. Wu,  X. Xu,  Jun Yang,  W. Zhang,  Yan Zhao

 Please cite Q-Chem as follows:
 Y. Shao et al., Mol. Phys. 113, 184-215 (2015)
 DOI: 10.1080/00268976.2014.952696

 Q-Chem 5.4.0 for Intel X86 EM64T Linux

 Parts of Q-Chem use Armadillo 9.800.1 (Horizon Scraper).
 http://arma.sourceforge.net/

 Q-Chem begins on Sat Feb  3 11:23:27 2024  

 Host: 
0

     Scratch files written to /expanse/lustre/scratch/selhajj/temp_project/qcscratch/28445656/qchem1637429//
 May1621 |scratch|qcdevops|jenkins|workspace|build_RNUM    
 Processing $rem in /cm/shared/apps/spack/cpu/opt/spack/linux-centos8-zen2/gcc-10.2.0/qchem-5.4-akfmr7b3t57bfs6qan3padb2wnb2i7cl/config/preferences:
 Processing $rem in /home/selhajj/.qchemrc:
 Symmetry turned off for PCM/SM12/SMD calculation
 Method-specific promolecule density matrix will be built for SM12 calculation

 Checking the input file for inconsistencies... 	...done.

--------------------------------------------------------------
User input:
--------------------------------------------------------------
$molecule
-2 1
C                 -2.2347270000      3.2377730000      4.0998050000
C                 -3.4582550000      2.6862760000      4.3756490000
C                 -3.8926800000      1.5322970000      3.6715340000
C                 -3.0848650000      0.9694400000      2.6928060000
C                 -1.7970950000      1.5172300000      2.3557230000
C                 -1.3745000000      2.6869280000      3.1101590000
C                 -0.1108660000      3.3509770000      2.9045020000
C                 -0.9330590000      0.9469130000      1.3313700000
C                  0.7373220000      2.8144310000      1.8671690000
C                  0.3458130000      1.6373370000      1.1325490000
C                  2.0189120000      3.4054150000      1.5618060000
C                  2.8635100000      2.8167130000      0.6282080000
C                  2.4716780000      1.6447850000     -0.0616950000
C                  1.2368260000      1.0834510000      0.1790860000
O                  0.2234020000      4.3789290000      3.6339980000
O                 -1.2136180000     -0.0809320000      0.6393260000
N                  2.3871500000      4.6081780000      2.1875220000
O                 -3.4973750000     -0.1451140000      2.0009700000
C                 -4.7489220000     -0.7086280000      2.3005770000
H                 -1.8706170000      4.1160880000      4.6196700000
H                 -4.1061030000      3.1196090000      5.1354010000
H                 -4.8631340000      1.1101880000      3.8975360000
H                  3.8178390000      3.2941320000      0.4091590000
H                  3.1467850000      1.1996080000     -0.7908940000
H                  0.8986570000      0.1936230000     -0.3391800000
H                  1.7362990000      4.7923570000      2.9742190000
H                  3.3724120000      4.6594390000      2.4092890000
H                 -4.8431980000     -1.5914090000      1.6631790000
H                 -5.5841340000     -0.0245950000      2.0838030000
H                 -4.8327590000     -1.0246090000      3.3519920000
$end

$rem
BASIS  =  6-311++G(d,p)
GUI  =  2
JOB_TYPE  =  SP
METHOD  =  B3LYP
SCF_CONVERGENCE  = 8
SOLVENT_METHOD = sm12
$end

$smx
solvent dimethylformamide
charges CM5
$end





--------------------------------------------------------------
 ----------------------------------------------------------------
             Standard Nuclear Orientation (Angstroms)
    I     Atom           X                Y                Z
 ----------------------------------------------------------------
    1      C      -2.2347270000     3.2377730000     4.0998050000
    2      C      -3.4582550000     2.6862760000     4.3756490000
    3      C      -3.8926800000     1.5322970000     3.6715340000
    4      C      -3.0848650000     0.9694400000     2.6928060000
    5      C      -1.7970950000     1.5172300000     2.3557230000
    6      C      -1.3745000000     2.6869280000     3.1101590000
    7      C      -0.1108660000     3.3509770000     2.9045020000
    8      C      -0.9330590000     0.9469130000     1.3313700000
    9      C       0.7373220000     2.8144310000     1.8671690000
   10      C       0.3458130000     1.6373370000     1.1325490000
   11      C       2.0189120000     3.4054150000     1.5618060000
   12      C       2.8635100000     2.8167130000     0.6282080000
   13      C       2.4716780000     1.6447850000    -0.0616950000
   14      C       1.2368260000     1.0834510000     0.1790860000
   15      O       0.2234020000     4.3789290000     3.6339980000
   16      O      -1.2136180000    -0.0809320000     0.6393260000
   17      N       2.3871500000     4.6081780000     2.1875220000
   18      O      -3.4973750000    -0.1451140000     2.0009700000
   19      C      -4.7489220000    -0.7086280000     2.3005770000
   20      H      -1.8706170000     4.1160880000     4.6196700000
   21      H      -4.1061030000     3.1196090000     5.1354010000
   22      H      -4.8631340000     1.1101880000     3.8975360000
   23      H       3.8178390000     3.2941320000     0.4091590000
   24      H       3.1467850000     1.1996080000    -0.7908940000
   25      H       0.8986570000     0.1936230000    -0.3391800000
   26      H       1.7362990000     4.7923570000     2.9742190000
   27      H       3.3724120000     4.6594390000     2.4092890000
   28      H      -4.8431980000    -1.5914090000     1.6631790000
   29      H      -5.5841340000    -0.0245950000     2.0838030000
   30      H      -4.8327590000    -1.0246090000     3.3519920000
 ----------------------------------------------------------------
 Nuclear Repulsion Energy =        1349.63499046 hartrees
 There are       67 alpha and       67 beta electrons
 Requested basis set is 6-311++G(d,p)
 There are 169 shells and 495 basis functions

 Total QAlloc Memory Limit   8000 MB
 Mega-Array Size       188 MB
 MEM_STATIC part       192 MB
 A cutoff of  1.0D-11 yielded  10758 shell pairs
 There are     96474 function pairs (    103444 Cartesian)
 Smallest overlap matrix eigenvalue = 5.72E-08

 Q-Chem warning in module stvman/mkSTV.C, line 323:

 Overlap eigenvalue is smaller than square root of threshold
 Use THRESH >= 12 to get rid of this warning

 Linear dependence detected in AO basis
 Tighter screening thresholds may be required for diffuse basis sets
 Use S2THRESH > 14 and THRESH = 14 in case of SCF convergence issues
 Number of orthogonalized atomic orbitals = 487
 Maximum deviation from orthogonality = 9.344E-11

 Scale SEOQF with 1.000000e-02/1.000000e-01/1.000000e-02

 Standard Electronic Orientation quadrupole field applied
 Nucleus-field energy     =     0.0000000550 hartrees
 ================ Generating on-the-fly Promolecule Density  ================
Attempting to make child job directory: /expanse/lustre/scratch/selhajj/temp_project/qcscratch/28445656/qchem1637429//Frg1/
Attempting to make child job directory: /expanse/lustre/scratch/selhajj/temp_project/qcscratch/28445656/qchem1637429//Frg2/
Attempting to make child job directory: /expanse/lustre/scratch/selhajj/temp_project/qcscratch/28445656/qchem1637429//Frg3/
Attempting to make child job directory: /expanse/lustre/scratch/selhajj/temp_project/qcscratch/28445656/qchem1637429//Frg4/
Creating input file /expanse/lustre/scratch/selhajj/temp_project/qcscratch/28445656/qchem1637429/Frg1.input
using default PutDataFrgm: nothing
calling putenv with: QCSCRATCH=/expanse/lustre/scratch/selhajj/temp_project/qcscratch/28445656/qchem1637429/ 
Spawning Job For Fragment 0
Done Job For Fragment 0
calling putenv with: QCSCRATCH=/expanse/lustre/scratch/selhajj/temp_project/qcscratch/28445656 
calling putenv with: QCTHREADS=8 
Creating input file /expanse/lustre/scratch/selhajj/temp_project/qcscratch/28445656/qchem1637429/Frg2.input
using default PutDataFrgm: nothing
calling putenv with: QCSCRATCH=/expanse/lustre/scratch/selhajj/temp_project/qcscratch/28445656/qchem1637429/ 
Spawning Job For Fragment 1
Done Job For Fragment 1
calling putenv with: QCSCRATCH=/expanse/lustre/scratch/selhajj/temp_project/qcscratch/28445656 
calling putenv with: QCTHREADS=8 
Creating input file /expanse/lustre/scratch/selhajj/temp_project/qcscratch/28445656/qchem1637429/Frg3.input
using default PutDataFrgm: nothing
calling putenv with: QCSCRATCH=/expanse/lustre/scratch/selhajj/temp_project/qcscratch/28445656/qchem1637429/ 
Spawning Job For Fragment 2
Done Job For Fragment 2
calling putenv with: QCSCRATCH=/expanse/lustre/scratch/selhajj/temp_project/qcscratch/28445656 
calling putenv with: QCTHREADS=8 
Creating input file /expanse/lustre/scratch/selhajj/temp_project/qcscratch/28445656/qchem1637429/Frg4.input
using default PutDataFrgm: nothing
calling putenv with: QCSCRATCH=/expanse/lustre/scratch/selhajj/temp_project/qcscratch/28445656/qchem1637429/ 
Spawning Job For Fragment 3
Done Job For Fragment 3
calling putenv with: QCSCRATCH=/expanse/lustre/scratch/selhajj/temp_project/qcscratch/28445656 
calling putenv with: QCTHREADS=8 
 Time for running child jobs:  CPU 0.01 s  wall 26.20 s
 ============= Method Specific Promolecule Density Constructed =============
 Guess from superposition of atomic densities
 Warning:  Energy on first SCF cycle will be non-variational
 SAD guess density has 132.000000 electrons

 -----------------------------------------------------------------------
  General SCF calculation program by
  Eric Jon Sundstrom, Paul Horn, Yuezhi Mao, Dmitri Zuev, Alec White,
  David Stuck, Shaama M.S., Shane Yost, Joonho Lee, David Small,
  Daniel Levine, Susi Lehtola, Hugh Burton, Evgeny Epifanovsky,
  Bang C. Huynh
 -----------------------------------------------------------------------
 Exchange:     0.2000 Hartree-Fock + 0.0800 Slater + 0.7200 B88
 Correlation:  0.1900 VWN1RPA + 0.8100 LYP
 Using SG-1 standard quadrature grid
 using 8 threads for integral computing
 -------------------------------------------------------
 OpenMP Integral computing Module                
 Release: version 1.0, May 2013, Q-Chem Inc. Pittsburgh 
 -------------------------------------------------------
 
 SM12 calculation using CM5 charges
 Citation of the SM12 model:
 Marenich, A.V.; Cramer, C.J.; Truhlar, D.G.
 J. Chem. Theory Comput. 2013, 9, 609-612.
 iSolventCode=          91
 Solvent: dimethylformamide                                               
 
Hirshfeld: reading atomic densities from disk.
warning:  vdwdata pointer should have been initialzed before dftman
 Inaccurate integrated density:
   Number of electrons =   134
   Numerical integral  =   131.996721498757
   Relative error      =    -1.4949839562 %

 Charges (in A.U.) from CM5PAC (Nov. 11, 2011)
 -----------------------------------------------
 Center     Atomic      CM5         Hirshfeld
 Number     Number      Charge      Charge
 -----------------------------------------------
    1          6       -0.051488   -0.000077
    2          6       -0.057141   -0.002421
    3          6       -0.051456    0.000333
    4          6        0.026738    0.007449
    5          6        0.006418    0.003017
    6          6       -0.001414    0.000247
    7          6        0.034596    0.007455
    8          6        0.039297    0.008422
    9          6        0.006264    0.001759
   10          6       -0.001202    0.000317
   11          6        0.053681    0.002872
   12          6       -0.048075   -0.000607
   13          6       -0.056929   -0.002589
   14          6       -0.051471   -0.000157
   15          8       -0.085968   -0.020357
   16          8       -0.057317   -0.014835
   17          7       -0.453114   -0.018027
   18          8       -0.114038   -0.027107
   19          6       -0.116647    0.002928
   20          1        0.068567    0.005716
   21          1        0.058263    0.003068
   22          1        0.062870    0.002701
   23          1        0.061914    0.003614
   24          1        0.058153    0.003042
   25          1        0.068192    0.005664
   26          1        0.217209    0.009943
   27          1        0.197344    0.007812
   28          1        0.065178    0.004758
   29          1        0.062421    0.004223
   30          1        0.062435    0.004117
 -----------------------------------------------

 Dipole moment (in Debye)
 -----------------------------------------------
                 X        Y        Z     Total
 -----------------------------------------------
 CM5         -0.2088  -0.2359   0.9290   0.9809
 Hirshfeld   -0.0522   0.0194   0.0833   0.1002
 -----------------------------------------------

 A restricted SCF calculation will be
 performed using DIIS
 SCF converges when DIIS error is below 1.0e-08
 ---------------------------------------
  Cycle       Energy         DIIS error
 ---------------------------------------
Hirshfeld: reading atomic densities from disk.

 Charges (in A.U.) from CM5PAC (Nov. 11, 2011)
 -----------------------------------------------
 Center     Atomic      CM5         Hirshfeld
 Number     Number      Charge      Charge
 -----------------------------------------------
    1          6       -0.270314   -0.218902
    2          6       -0.215568   -0.160848
    3          6       -0.279548   -0.227759
    4          6        0.199914    0.180625
    5          6       -0.118719   -0.122120
    6          6       -0.130602   -0.128941
    7          6        0.112528    0.085387
    8          6        0.126773    0.095898
    9          6       -0.118324   -0.122829
   10          6       -0.136204   -0.134686
   11          6        0.134564    0.083755
   12          6       -0.279172   -0.231704
   13          6       -0.219851   -0.165512
   14          6       -0.274870   -0.223556
   15          8       -0.695684   -0.630073
   16          8       -0.750191   -0.707708
   17          7       -0.783497   -0.348411
   18          8       -0.272942   -0.186011
   19          6       -0.209860   -0.090286
   20          1        0.156776    0.093926
   21          1        0.176937    0.121742
   22          1        0.169687    0.109519
   23          1        0.173717    0.115417
   24          1        0.176192    0.121081
   25          1        0.156118    0.093590
   26          1        0.333507    0.126241
   27          1        0.390845    0.201313
   28          1        0.152077    0.091657
   29          1        0.148078    0.089879
   30          1        0.148388    0.090070
 -----------------------------------------------

 Dipole moment (in Debye)
 -----------------------------------------------
                 X        Y        Z     Total
 -----------------------------------------------
 CM5          2.4168 -21.3884 -17.7284  27.8855
 Hirshfeld    2.5734 -21.1331 -18.5741  28.2529
 -----------------------------------------------

    1    -863.2801876913      2.99e-02  
Hirshfeld: reading atomic densities from disk.

 Charges (in A.U.) from CM5PAC (Nov. 11, 2011)
 -----------------------------------------------
 Center     Atomic      CM5         Hirshfeld
 Number     Number      Charge      Charge
 -----------------------------------------------
    1          6       -0.247479   -0.196067
    2          6       -0.258699   -0.203978
    3          6       -0.043368    0.008421
    4          6       -0.124649   -0.143938
    5          6        0.086014    0.082614
    6          6        0.128311    0.129972
    7          6        0.043979    0.016839
    8          6        0.018852   -0.012023
    9          6        0.072764    0.068259
   10          6        0.151143    0.152661
   11          6       -0.072494   -0.123303
   12          6       -0.341729   -0.294261
   13          6       -0.460945   -0.406605
   14          6       -0.325817   -0.274502
   15          8        1.492988    1.558599
   16          8        1.794971    1.837453
   17          7       -0.422971    0.012116
   18          8       -0.087993   -0.001062
   19          6       -0.035038    0.084537
   20          1       -0.677559   -0.740410
   21          1       -0.386218   -0.441413
   22          1       -0.033902   -0.094070
   23          1       -0.756336   -0.814636
   24          1       -0.788464   -0.843575
   25          1       -0.799726   -0.862254
   26          1        0.123989   -0.083276
   27          1       -0.129735   -0.319267
   28          1        0.043244   -0.017176
   29          1        0.019870   -0.038329
   30          1        0.019097   -0.039221
 -----------------------------------------------

 Dipole moment (in Debye)
 -----------------------------------------------
                 X        Y        Z     Total
 -----------------------------------------------
 CM5        -33.6140 -29.5551  -4.6748  45.0029
 Hirshfeld  -33.4574 -29.2999  -5.5205  44.8147
 -----------------------------------------------

    2    -858.3251016934      4.04e-03  
Hirshfeld: reading atomic densities from disk.

 Charges (in A.U.) from CM5PAC (Nov. 11, 2011)
 -----------------------------------------------
 Center     Atomic      CM5         Hirshfeld
 Number     Number      Charge      Charge
 -----------------------------------------------
    1          6       -0.069168   -0.017757
    2          6       -0.013539    0.041181
    3          6       -0.007103    0.044686
    4          6        0.022626    0.003337
    5          6       -0.040731   -0.044132
    6          6       -0.048387   -0.046726
    7          6       -0.080463   -0.107604
    8          6       -0.070179   -0.101054
    9          6       -0.059284   -0.063789
   10          6       -0.082229   -0.080711
   11          6        0.034671   -0.016138
   12          6       -0.063691   -0.016223
   13          6       -0.072196   -0.017857
   14          6       -0.098643   -0.047329
   15          8       -0.787547   -0.721936
   16          8       -0.833772   -0.791290
   17          7       -0.531497   -0.096410
   18          8       -0.199239   -0.112308
   19          6       -0.041424    0.078150
   20          1        0.046322   -0.016528
   21          1        0.053400   -0.001795
   22          1        0.066754    0.006586
   23          1        0.041560   -0.016740
   24          1        0.039422   -0.015689
   25          1        0.041190   -0.021338
   26          1        0.238710    0.031445
   27          1        0.271176    0.081644
   28          1        0.093926    0.033506
   29          1        0.074938    0.016740
   30          1        0.074892    0.016574
 -----------------------------------------------

 Dipole moment (in Debye)
 -----------------------------------------------
                 X        Y        Z     Total
 -----------------------------------------------
 CM5          0.6338 -20.8207 -16.7589  26.7351
 Hirshfeld    0.7904 -20.5654 -17.6046  27.0829
 -----------------------------------------------

    3    -853.0455390350      1.05e-02  
Hirshfeld: reading atomic densities from disk.

 Charges (in A.U.) from CM5PAC (Nov. 11, 2011)
 -----------------------------------------------
 Center     Atomic      CM5         Hirshfeld
 Number     Number      Charge      Charge
 -----------------------------------------------
    1          6       -0.158267   -0.106856
    2          6       -0.147476   -0.092755
    3          6       -0.171387   -0.119598
    4          6        0.105005    0.085716
    5          6       -0.079675   -0.083075
    6          6       -0.097736   -0.096075
    7          6        0.026795   -0.000346
    8          6        0.050883    0.020008
    9          6       -0.089859   -0.094364
   10          6       -0.115756   -0.114237
   11          6        0.072704    0.021895
   12          6       -0.193410   -0.145942
   13          6       -0.180367   -0.126028
   14          6       -0.168753   -0.117439
   15          8       -0.592439   -0.526828
   16          8       -0.623036   -0.580553
   17          7       -0.653231   -0.218144
   18          8       -0.214664   -0.127733
   19          6       -0.101519    0.018056
   20          1        0.075960    0.013110
   21          1        0.090723    0.035528
   22          1        0.092981    0.032813
   23          1        0.072208    0.013908
   24          1        0.072561    0.017450
   25          1        0.067415    0.004887
   26          1        0.263701    0.056436
   27          1        0.296706    0.107174
   28          1        0.112128    0.051708
   29          1        0.094207    0.036008
   30          1        0.094153    0.035835
 -----------------------------------------------

 Dipole moment (in Debye)
 -----------------------------------------------
                 X        Y        Z     Total
 -----------------------------------------------
 CM5          0.4590 -21.9947 -17.4354  28.0708
 Hirshfeld    0.6156 -21.7394 -18.2811  28.4109
 -----------------------------------------------

    4    -858.4903656356      3.36e-03  
Hirshfeld: reading atomic densities from disk.

 Charges (in A.U.) from CM5PAC (Nov. 11, 2011)
 -----------------------------------------------
 Center     Atomic      CM5         Hirshfeld
 Number     Number      Charge      Charge
 -----------------------------------------------
    1          6       -0.145736   -0.094325
    2          6       -0.128492   -0.073771
    3          6       -0.149873   -0.098084
    4          6        0.042777    0.023488
    5          6       -0.093755   -0.097155
    6          6       -0.062882   -0.061221
    7          6        0.000659   -0.026482
    8          6       -0.005918   -0.036794
    9          6       -0.078294   -0.082799
   10          6       -0.065857   -0.064338
   11          6        0.055144    0.004335
   12          6       -0.170641   -0.123173
   13          6       -0.140372   -0.086033
   14          6       -0.172722   -0.121407
   15          8       -0.512422   -0.446811
   16          8       -0.523619   -0.481137
   17          7       -0.647162   -0.212076
   18          8       -0.238543   -0.151612
   19          6       -0.126702   -0.007127
   20          1        0.058460   -0.004391
   21          1        0.063077    0.007881
   22          1        0.075246    0.015078
   23          1        0.050222   -0.008078
   24          1        0.048154   -0.006957
   25          1        0.049023   -0.013505
   26          1        0.258681    0.051415
   27          1        0.267634    0.078102
   28          1        0.109152    0.048732
   29          1        0.092696    0.034497
   30          1        0.092560    0.034242
 -----------------------------------------------

 Dipole moment (in Debye)
 -----------------------------------------------
                 X        Y        Z     Total
 -----------------------------------------------
 CM5          1.8575 -21.3680 -17.8223  27.8868
 Hirshfeld    2.0141 -21.1127 -18.6680  28.2541
 -----------------------------------------------

    5    -858.7839313653      1.06e-03  
Hirshfeld: reading atomic densities from disk.

 Charges (in A.U.) from CM5PAC (Nov. 11, 2011)
 -----------------------------------------------
 Center     Atomic      CM5         Hirshfeld
 Number     Number      Charge      Charge
 -----------------------------------------------
    1          6       -0.157353   -0.105941
    2          6       -0.161932   -0.107211
    3          6       -0.187986   -0.136197
    4          6        0.086452    0.067163
    5          6       -0.066252   -0.069652
    6          6       -0.086706   -0.085045
    7          6        0.018005   -0.009135
    8          6        0.052072    0.021197
    9          6       -0.083661   -0.088166
   10          6       -0.097108   -0.095589
   11          6        0.058031    0.007222
   12          6       -0.191760   -0.144292
   13          6       -0.182083   -0.127743
   14          6       -0.157488   -0.106173
   15          8       -0.501282   -0.435671
   16          8       -0.512199   -0.469717
   17          7       -0.644956   -0.209869
   18          8       -0.192414   -0.105483
   19          6       -0.110607    0.008968
   20          1        0.056183   -0.006668
   21          1        0.062768    0.007573
   22          1        0.067778    0.007610
   23          1        0.053560   -0.004740
   24          1        0.052910   -0.002201
   25          1        0.049671   -0.012857
   26          1        0.255725    0.048460
   27          1        0.265263    0.075731
   28          1        0.096976    0.036556
   29          1        0.079458    0.021259
   30          1        0.079430    0.021113
 -----------------------------------------------

 Dipole moment (in Debye)
 -----------------------------------------------
                 X        Y        Z     Total
 -----------------------------------------------
 CM5          1.5614 -22.2071 -18.3751  28.8659
 Hirshfeld    1.7180 -21.9519 -19.2208  29.2280
 -----------------------------------------------

    6    -858.8223070113      4.85e-04  
Hirshfeld: reading atomic densities from disk.

 Charges (in A.U.) from CM5PAC (Nov. 11, 2011)
 -----------------------------------------------
 Center     Atomic      CM5         Hirshfeld
 Number     Number      Charge      Charge
 -----------------------------------------------
    1          6       -0.150233   -0.098822
    2          6       -0.157775   -0.103055
    3          6       -0.177903   -0.126114
    4          6        0.069531    0.050241
    5          6       -0.089986   -0.093387
    6          6       -0.085731   -0.084070
    7          6        0.024572   -0.002568
    8          6        0.032882    0.002006
    9          6       -0.079055   -0.083560
   10          6       -0.089483   -0.087965
   11          6        0.061672    0.010862
   12          6       -0.185923   -0.138454
   13          6       -0.168250   -0.113910
   14          6       -0.164115   -0.112800
   15          8       -0.484221   -0.418610
   16          8       -0.498702   -0.456220
   17          7       -0.656779   -0.221692
   18          8       -0.223764   -0.136833
   19          6       -0.110384    0.009191
   20          1        0.056616   -0.006234
   21          1        0.062044    0.006848
   22          1        0.069730    0.009562
   23          1        0.053595   -0.004705
   24          1        0.053256   -0.001855
   25          1        0.049646   -0.012882
   26          1        0.255890    0.048624
   27          1        0.266703    0.077171
   28          1        0.100259    0.039839
   29          1        0.083217    0.025018
   30          1        0.083199    0.024881
 -----------------------------------------------

 Dipole moment (in Debye)
 -----------------------------------------------
                 X        Y        Z     Total
 -----------------------------------------------
 CM5          2.0847 -21.7382 -18.2690  28.4719
 Hirshfeld    2.2413 -21.4830 -19.1147  28.8429
 -----------------------------------------------

    7    -858.8308797306      2.49e-04  
Hirshfeld: reading atomic densities from disk.

 Charges (in A.U.) from CM5PAC (Nov. 11, 2011)
 -----------------------------------------------
 Center     Atomic      CM5         Hirshfeld
 Number     Number      Charge      Charge
 -----------------------------------------------
    1          6       -0.156511   -0.105100
    2          6       -0.157659   -0.102939
    3          6       -0.182723   -0.130934
    4          6        0.071479    0.052190
    5          6       -0.082294   -0.085694
    6          6       -0.080879   -0.079218
    7          6        0.016581   -0.010560
    8          6        0.035194    0.004319
    9          6       -0.081888   -0.086394
   10          6       -0.084981   -0.083463
   11          6        0.059287    0.008478
   12          6       -0.187466   -0.139997
   13          6       -0.168632   -0.114292
   14          6       -0.165984   -0.114670
   15          8       -0.488997   -0.423386
   16          8       -0.493774   -0.451292
   17          7       -0.653782   -0.218695
   18          8       -0.215206   -0.128275
   19          6       -0.118464    0.001111
   20          1        0.056564   -0.006287
   21          1        0.061924    0.006728
   22          1        0.069287    0.009119
   23          1        0.054587   -0.003713
   24          1        0.053806   -0.001305
   25          1        0.049857   -0.012671
   26          1        0.256404    0.049139
   27          1        0.266419    0.076887
   28          1        0.100935    0.040515
   29          1        0.083739    0.025540
   30          1        0.083689    0.025372
 -----------------------------------------------

 Dipole moment (in Debye)
 -----------------------------------------------
                 X        Y        Z     Total
 -----------------------------------------------
 CM5          2.0846 -21.9385 -18.4462  28.7386
 Hirshfeld    2.2412 -21.6832 -19.2919  29.1095
 -----------------------------------------------

    8    -858.8323971425      7.86e-05  
Hirshfeld: reading atomic densities from disk.

 Charges (in A.U.) from CM5PAC (Nov. 11, 2011)
 -----------------------------------------------
 Center     Atomic      CM5         Hirshfeld
 Number     Number      Charge      Charge
 -----------------------------------------------
    1          6       -0.155122   -0.103710
    2          6       -0.159268   -0.104547
    3          6       -0.182136   -0.130347
    4          6        0.071487    0.052198
    5          6       -0.083685   -0.087086
    6          6       -0.082864   -0.081203
    7          6        0.020456   -0.006685
    8          6        0.034536    0.003661
    9          6       -0.080674   -0.085179
   10          6       -0.086785   -0.085267
   11          6        0.060261    0.009451
   12          6       -0.187482   -0.140013
   13          6       -0.168894   -0.114554
   14          6       -0.164949   -0.113635
   15          8       -0.484624   -0.419013
   16          8       -0.498219   -0.455736
   17          7       -0.653667   -0.218581
   18          8       -0.215544   -0.128613
   19          6       -0.116770    0.002804
   20          1        0.056153   -0.006698
   21          1        0.061439    0.006244
   22          1        0.069050    0.008882
   23          1        0.054557   -0.003743
   24          1        0.054081   -0.001030
   25          1        0.050004   -0.012524
   26          1        0.256239    0.048974
   27          1        0.265948    0.076416
   28          1        0.100393    0.039973
   29          1        0.083313    0.025114
   30          1        0.083274    0.024957
 -----------------------------------------------

 Dipole moment (in Debye)
 -----------------------------------------------
                 X        Y        Z     Total
 -----------------------------------------------
 CM5          2.1715 -21.8212 -18.3990  28.6252
 Hirshfeld    2.3281 -21.5659 -19.2447  28.9977
 -----------------------------------------------

    9    -858.8329624434      3.35e-05  
Hirshfeld: reading atomic densities from disk.

 Charges (in A.U.) from CM5PAC (Nov. 11, 2011)
 -----------------------------------------------
 Center     Atomic      CM5         Hirshfeld
 Number     Number      Charge      Charge
 -----------------------------------------------
    1          6       -0.154925   -0.103514
    2          6       -0.158991   -0.104270
    3          6       -0.182275   -0.130486
    4          6        0.071557    0.052267
    5          6       -0.084027   -0.087427
    6          6       -0.083281   -0.081620
    7          6        0.019596   -0.007545
    8          6        0.035568    0.004693
    9          6       -0.080738   -0.085243
   10          6       -0.086908   -0.085389
   11          6        0.059996    0.009187
   12          6       -0.186801   -0.139333
   13          6       -0.169058   -0.114719
   14          6       -0.164532   -0.113218
   15          8       -0.486829   -0.421218
   16          8       -0.495564   -0.453081
   17          7       -0.654084   -0.218998
   18          8       -0.216215   -0.129284
   19          6       -0.115975    0.003600
   20          1        0.056116   -0.006735
   21          1        0.061304    0.006108
   22          1        0.068895    0.008727
   23          1        0.054684   -0.003615
   24          1        0.054111   -0.001000
   25          1        0.049946   -0.012582
   26          1        0.256378    0.049112
   27          1        0.266142    0.076611
   28          1        0.100199    0.039779
   29          1        0.083128    0.024929
   30          1        0.083093    0.024775
 -----------------------------------------------

 Dipole moment (in Debye)
 -----------------------------------------------
                 X        Y        Z     Total
 -----------------------------------------------
 CM5          2.1725 -21.8788 -18.4484  28.7009
 Hirshfeld    2.3291 -21.6235 -19.2941  29.0734
 -----------------------------------------------

   10    -858.8330802463      1.78e-05  
Hirshfeld: reading atomic densities from disk.

 Charges (in A.U.) from CM5PAC (Nov. 11, 2011)
 -----------------------------------------------
 Center     Atomic      CM5         Hirshfeld
 Number     Number      Charge      Charge
 -----------------------------------------------
    1          6       -0.155155   -0.103744
    2          6       -0.159136   -0.104415
    3          6       -0.182498   -0.130709
    4          6        0.071533    0.052243
    5          6       -0.083764   -0.087164
    6          6       -0.082938   -0.081277
    7          6        0.019565   -0.007575
    8          6        0.035410    0.004535
    9          6       -0.080813   -0.085319
   10          6       -0.086608   -0.085090
   11          6        0.059999    0.009190
   12          6       -0.186895   -0.139426
   13          6       -0.168757   -0.114418
   14          6       -0.164804   -0.113490
   15          8       -0.486273   -0.420662
   16          8       -0.496013   -0.453530
   17          7       -0.654110   -0.219023
   18          8       -0.216118   -0.129187
   19          6       -0.116140    0.003435
   20          1        0.056053   -0.006797
   21          1        0.061212    0.006017
   22          1        0.068826    0.008658
   23          1        0.054806   -0.003494
   24          1        0.054230   -0.000881
   25          1        0.050011   -0.012517
   26          1        0.256307    0.049041
   27          1        0.266172    0.076640
   28          1        0.100207    0.039786
   29          1        0.083119    0.024920
   30          1        0.083084    0.024766
 -----------------------------------------------

 Dipole moment (in Debye)
 -----------------------------------------------
                 X        Y        Z     Total
 -----------------------------------------------
 CM5          2.1925 -21.8692 -18.4522  28.6976
 Hirshfeld    2.3491 -21.6140 -19.2978  29.0704
 -----------------------------------------------

   11    -858.8330892172      5.32e-06  
Hirshfeld: reading atomic densities from disk.

 Charges (in A.U.) from CM5PAC (Nov. 11, 2011)
 -----------------------------------------------
 Center     Atomic      CM5         Hirshfeld
 Number     Number      Charge      Charge
 -----------------------------------------------
    1          6       -0.155162   -0.103751
    2          6       -0.159173   -0.104452
    3          6       -0.182454   -0.130665
    4          6        0.071512    0.052222
    5          6       -0.084000   -0.087400
    6          6       -0.083178   -0.081517
    7          6        0.019636   -0.007504
    8          6        0.035293    0.004418
    9          6       -0.080689   -0.085194
   10          6       -0.086653   -0.085134
   11          6        0.060101    0.009291
   12          6       -0.186860   -0.139392
   13          6       -0.168792   -0.114452
   14          6       -0.164678   -0.113364
   15          8       -0.486304   -0.420693
   16          8       -0.495912   -0.453430
   17          7       -0.653984   -0.218897
   18          8       -0.216027   -0.129096
   19          6       -0.116270    0.003305
   20          1        0.056055   -0.006795
   21          1        0.061202    0.006007
   22          1        0.068820    0.008652
   23          1        0.054824   -0.003476
   24          1        0.054270   -0.000841
   25          1        0.050019   -0.012509
   26          1        0.256312    0.049046
   27          1        0.266135    0.076603
   28          1        0.100227    0.039807
   29          1        0.083139    0.024940
   30          1        0.083103    0.024785
 -----------------------------------------------

 Dipole moment (in Debye)
 -----------------------------------------------
                 X        Y        Z     Total
 -----------------------------------------------
 CM5          2.2005 -21.8681 -18.4563  28.7000
 Hirshfeld    2.3571 -21.6128 -19.3020  29.0730
 -----------------------------------------------

   12    -858.8331225375      1.43e-06  
Hirshfeld: reading atomic densities from disk.

 Charges (in A.U.) from CM5PAC (Nov. 11, 2011)
 -----------------------------------------------
 Center     Atomic      CM5         Hirshfeld
 Number     Number      Charge      Charge
 -----------------------------------------------
    1          6       -0.155141   -0.103729
    2          6       -0.159203   -0.104482
    3          6       -0.182478   -0.130689
    4          6        0.071521    0.052231
    5          6       -0.083888   -0.087289
    6          6       -0.083090   -0.081429
    7          6        0.019616   -0.007524
    8          6        0.035366    0.004490
    9          6       -0.080745   -0.085251
   10          6       -0.086655   -0.085137
   11          6        0.060039    0.009229
   12          6       -0.186825   -0.139357
   13          6       -0.168776   -0.114436
   14          6       -0.164673   -0.113359
   15          8       -0.486313   -0.420702
   16          8       -0.495982   -0.453499
   17          7       -0.654030   -0.218944
   18          8       -0.216086   -0.129155
   19          6       -0.116240    0.003334
   20          1        0.056031   -0.006820
   21          1        0.061175    0.005980
   22          1        0.068803    0.008635
   23          1        0.054844   -0.003456
   24          1        0.054288   -0.000823
   25          1        0.050029   -0.012499
   26          1        0.256325    0.049060
   27          1        0.266153    0.076621
   28          1        0.100217    0.039797
   29          1        0.083134    0.024935
   30          1        0.083097    0.024779
 -----------------------------------------------

 Dipole moment (in Debye)
 -----------------------------------------------
                 X        Y        Z     Total
 -----------------------------------------------
 CM5          2.2020 -21.8685 -18.4574  28.7012
 Hirshfeld    2.3586 -21.6132 -19.3031  29.0741
 -----------------------------------------------

   13    -858.8331198912      9.51e-07  
Hirshfeld: reading atomic densities from disk.

 Charges (in A.U.) from CM5PAC (Nov. 11, 2011)
 -----------------------------------------------
 Center     Atomic      CM5         Hirshfeld
 Number     Number      Charge      Charge
 -----------------------------------------------
    1          6       -0.155169   -0.103758
    2          6       -0.159195   -0.104474
    3          6       -0.182496   -0.130707
    4          6        0.071518    0.052229
    5          6       -0.083917   -0.087318
    6          6       -0.083112   -0.081451
    7          6        0.019608   -0.007533
    8          6        0.035355    0.004480
    9          6       -0.080724   -0.085230
   10          6       -0.086627   -0.085108
   11          6        0.060061    0.009252
   12          6       -0.186823   -0.139355
   13          6       -0.168746   -0.114407
   14          6       -0.164702   -0.113388
   15          8       -0.486314   -0.420703
   16          8       -0.495980   -0.453497
   17          7       -0.654027   -0.218940
   18          8       -0.216060   -0.129129
   19          6       -0.116218    0.003357
   20          1        0.056032   -0.006819
   21          1        0.061174    0.005978
   22          1        0.068803    0.008635
   23          1        0.054847   -0.003453
   24          1        0.054291   -0.000820
   25          1        0.050031   -0.012497
   26          1        0.256323    0.049057
   27          1        0.266153    0.076621
   28          1        0.100210    0.039790
   29          1        0.083127    0.024928
   30          1        0.083090    0.024773
 -----------------------------------------------

 Dipole moment (in Debye)
 -----------------------------------------------
                 X        Y        Z     Total
 -----------------------------------------------
 CM5          2.2032 -21.8686 -18.4583  28.7019
 Hirshfeld    2.3598 -21.6133 -19.3040  29.0749
 -----------------------------------------------

   14    -858.8331260708      2.58e-07  
Hirshfeld: reading atomic densities from disk.

 Charges (in A.U.) from CM5PAC (Nov. 11, 2011)
 -----------------------------------------------
 Center     Atomic      CM5         Hirshfeld
 Number     Number      Charge      Charge
 -----------------------------------------------
    1          6       -0.155162   -0.103750
    2          6       -0.159199   -0.104479
    3          6       -0.182492   -0.130703
    4          6        0.071520    0.052230
    5          6       -0.083909   -0.087310
    6          6       -0.083104   -0.081443
    7          6        0.019611   -0.007529
    8          6        0.035353    0.004477
    9          6       -0.080732   -0.085238
   10          6       -0.086636   -0.085118
   11          6        0.060056    0.009246
   12          6       -0.186827   -0.139359
   13          6       -0.168754   -0.114415
   14          6       -0.164690   -0.113376
   15          8       -0.486314   -0.420703
   16          8       -0.495980   -0.453497
   17          7       -0.654021   -0.218934
   18          8       -0.216066   -0.129135
   19          6       -0.116225    0.003349
   20          1        0.056030   -0.006821
   21          1        0.061171    0.005975
   22          1        0.068800    0.008632
   23          1        0.054850   -0.003450
   24          1        0.054294   -0.000817
   25          1        0.050033   -0.012495
   26          1        0.256322    0.049056
   27          1        0.266153    0.076621
   28          1        0.100212    0.039792
   29          1        0.083128    0.024929
   30          1        0.083092    0.024774
 -----------------------------------------------

 Dipole moment (in Debye)
 -----------------------------------------------
                 X        Y        Z     Total
 -----------------------------------------------
 CM5          2.2033 -21.8685 -18.4583  28.7019
 Hirshfeld    2.3599 -21.6133 -19.3040  29.0749
 -----------------------------------------------

   15    -858.8331253124      1.29e-07  
Hirshfeld: reading atomic densities from disk.

 Charges (in A.U.) from CM5PAC (Nov. 11, 2011)
 -----------------------------------------------
 Center     Atomic      CM5         Hirshfeld
 Number     Number      Charge      Charge
 -----------------------------------------------
    1          6       -0.155162   -0.103751
    2          6       -0.159201   -0.104480
    3          6       -0.182493   -0.130704
    4          6        0.071519    0.052230
    5          6       -0.083910   -0.087311
    6          6       -0.083108   -0.081447
    7          6        0.019609   -0.007531
    8          6        0.035356    0.004481
    9          6       -0.080729   -0.085235
   10          6       -0.086633   -0.085115
   11          6        0.060055    0.009246
   12          6       -0.186822   -0.139354
   13          6       -0.168753   -0.114413
   14          6       -0.164689   -0.113375
   15          8       -0.486313   -0.420702
   16          8       -0.495980   -0.453497
   17          7       -0.654025   -0.218938
   18          8       -0.216065   -0.129134
   19          6       -0.116227    0.003348
   20          1        0.056030   -0.006820
   21          1        0.061171    0.005975
   22          1        0.068800    0.008632
   23          1        0.054849   -0.003451
   24          1        0.054293   -0.000818
   25          1        0.050032   -0.012496
   26          1        0.256322    0.049056
   27          1        0.266153    0.076622
   28          1        0.100212    0.039792
   29          1        0.083128    0.024930
   30          1        0.083092    0.024774
 -----------------------------------------------

 Dipole moment (in Debye)
 -----------------------------------------------
                 X        Y        Z     Total
 -----------------------------------------------
 CM5          2.2034 -21.8686 -18.4584  28.7020
 Hirshfeld    2.3600 -21.6133 -19.3041  29.0750
 -----------------------------------------------

   16    -858.8331256987      3.46e-08  
Hirshfeld: reading atomic densities from disk.

 Charges (in A.U.) from CM5PAC (Nov. 11, 2011)
 -----------------------------------------------
 Center     Atomic      CM5         Hirshfeld
 Number     Number      Charge      Charge
 -----------------------------------------------
    1          6       -0.155162   -0.103751
    2          6       -0.159201   -0.104480
    3          6       -0.182493   -0.130704
    4          6        0.071519    0.052230
    5          6       -0.083910   -0.087310
    6          6       -0.083107   -0.081446
    7          6        0.019610   -0.007530
    8          6        0.035355    0.004480
    9          6       -0.080730   -0.085236
   10          6       -0.086635   -0.085117
   11          6        0.060056    0.009246
   12          6       -0.186824   -0.139356
   13          6       -0.168753   -0.114413
   14          6       -0.164690   -0.113376
   15          8       -0.486313   -0.420702
   16          8       -0.495979   -0.453496
   17          7       -0.654024   -0.218937
   18          8       -0.216066   -0.129135
   19          6       -0.116226    0.003348
   20          1        0.056030   -0.006821
   21          1        0.061171    0.005975
   22          1        0.068800    0.008632
   23          1        0.054849   -0.003450
   24          1        0.054294   -0.000817
   25          1        0.050033   -0.012496
   26          1        0.256322    0.049056
   27          1        0.266153    0.076621
   28          1        0.100212    0.039792
   29          1        0.083128    0.024929
   30          1        0.083092    0.024774
 -----------------------------------------------

 Dipole moment (in Debye)
 -----------------------------------------------
                 X        Y        Z     Total
 -----------------------------------------------
 CM5          2.2034 -21.8686 -18.4584  28.7019
 Hirshfeld    2.3600 -21.6133 -19.3041  29.0749
 -----------------------------------------------

   17    -858.8331259390      2.10e-08  
   18    -858.8331259027      4.86e-09  Convergence criterion met
 ---------------------------------------
 SCF time:   CPU 7051.23s  wall 892.00s 
(1)  E-EN(liq) elect-nuc energy of solute               -858.833125903 a.u.
(2)  G-P(liq) polarization free energy of solvation          -173.5804 kcal/mol
(3)  G-ENP(liq) elect-nuc-pol free energy of system     -859.109743875 a.u.
(4)  G-CDS(liq) cavity-dispersion-solvent structure 
     free energy                                               -7.2016 kcal/mol
(5)  G-P-CDS(liq) = G-P(liq) + G-CDS(liq) = (2) + (4)        -180.7820 kcal/mol
(6)  G-S(liq) free energy of system = (1) + (5)         -859.121220324 a.u.
 SCF   energy in the final basis set =     -859.1212203241
 Total energy in the final basis set =     -859.1212203241
 
 --------------------------------------------------------------
 
                    Orbital Energies (a.u.)
 --------------------------------------------------------------
 
 Alpha MOs
 -- Occupied --
-19.1410 -19.0323 -19.0214 -14.2984 -10.2299 -10.2170 -10.2089 -10.1906
-10.1879 -10.1695 -10.1682 -10.1604 -10.1598 -10.1573 -10.1560 -10.1550
-10.1545 -10.1514 -10.1491  -1.0585  -0.9524  -0.9469  -0.8995  -0.8377
 -0.8238  -0.7676  -0.7474  -0.7255  -0.7174  -0.6891  -0.6492  -0.6192
 -0.6129  -0.5698  -0.5463  -0.5364  -0.5182  -0.4953  -0.4727  -0.4697
 -0.4601  -0.4585  -0.4524  -0.4364  -0.4284  -0.4119  -0.3980  -0.3939
 -0.3829  -0.3754  -0.3701  -0.3640  -0.3521  -0.3392  -0.3377  -0.3327
 -0.3235  -0.3196  -0.3048  -0.2930  -0.2361  -0.2343  -0.2186  -0.2146
 -0.2039  -0.1920  -0.1138
 -- Virtual --
 -0.0712  -0.0622  -0.0602  -0.0501  -0.0451  -0.0348  -0.0300  -0.0246
 -0.0206  -0.0103  -0.0052  -0.0033   0.0049   0.0057   0.0088   0.0160
  0.0181   0.0254   0.0293   0.0350   0.0360   0.0391   0.0414   0.0448
  0.0479   0.0505   0.0568   0.0604   0.0640   0.0670   0.0695   0.0715
  0.0789   0.0792   0.0814   0.0858   0.0872   0.0912   0.0994   0.1031
  0.1059   0.1129   0.1185   0.1194   0.1256   0.1274   0.1310   0.1331
  0.1375   0.1435   0.1474   0.1499   0.1539   0.1573   0.1598   0.1639
  0.1694   0.1730   0.1803   0.1837   0.1884   0.1986   0.1992   0.2068
  0.2086   0.2118   0.2171   0.2225   0.2267   0.2286   0.2355   0.2426
  0.2459   0.2483   0.2534   0.2557   0.2588   0.2639   0.2702   0.2725
  0.2799   0.2832   0.2860   0.2884   0.2926   0.2945   0.2999   0.3021
  0.3057   0.3134   0.3145   0.3202   0.3247   0.3322   0.3353   0.3402
  0.3431   0.3500   0.3533   0.3604   0.3694   0.3746   0.3864   0.3970
  0.4103   0.4221   0.4320   0.4526   0.4590   0.4621   0.4662   0.4841
  0.5055   0.5112   0.5292   0.5321   0.5328   0.5409   0.5481   0.5530
  0.5555   0.5715   0.5748   0.5785   0.5816   0.5877   0.5954   0.6036
  0.6105   0.6165   0.6193   0.6240   0.6282   0.6425   0.6465   0.6540
  0.6598   0.6651   0.6675   0.6706   0.6737   0.6817   0.6895   0.6945
  0.7084   0.7124   0.7187   0.7408   0.7478   0.7522   0.7618   0.7710
  0.7727   0.7769   0.7909   0.7986   0.8000   0.8146   0.8201   0.8301
  0.8403   0.8471   0.8617   0.8627   0.8754   0.8891   0.8922   0.9031
  0.9104   0.9123   0.9333   0.9388   0.9497   0.9542   0.9624   0.9709
  0.9826   0.9912   0.9976   1.0108   1.0164   1.0258   1.0311   1.0418
  1.0489   1.0530   1.0644   1.0741   1.0797   1.1006   1.1060   1.1179
  1.1227   1.1402   1.1418   1.1509   1.1577   1.1659   1.1918   1.2015
  1.2289   1.2548   1.2602   1.2672   1.2832   1.2925   1.2987   1.3112
  1.3125   1.3281   1.3486   1.3688   1.4136   1.4213   1.4343   1.4532
  1.4667   1.4773   1.4920   1.4955   1.5071   1.5095   1.5186   1.5265
  1.5436   1.5441   1.5635   1.5686   1.5753   1.5825   1.5850   1.5906
  1.6027   1.6094   1.6276   1.6451   1.6511   1.6843   1.6911   1.6983
  1.7080   1.7246   1.7339   1.7381   1.7452   1.7480   1.7507   1.7640
  1.7674   1.8043   1.8064   1.8272   1.8281   1.8661   1.8813   1.8990
  1.9043   1.9117   1.9221   1.9294   1.9313   1.9420   1.9459   1.9532
  1.9749   1.9805   1.9846   1.9983   2.0026   2.0081   2.0190   2.0293
  2.0558   2.0589   2.0700   2.0960   2.1135   2.1186   2.1324   2.1502
  2.1636   2.1855   2.2055   2.2154   2.2293   2.2501   2.2679   2.3159
  2.3294   2.3325   2.3587   2.3849   2.3878   2.4186   2.4467   2.4551
  2.4707   2.4776   2.4897   2.5065   2.5401   2.5449   2.5645   2.5843
  2.5972   2.6139   2.6498   2.6624   2.6761   2.6936   2.7086   2.7194
  2.7291   2.7324   2.7396   2.7525   2.7604   2.7680   2.7778   2.7879
  2.7920   2.7968   2.8143   2.8163   2.8223   2.8419   2.8503   2.8610
  2.8660   2.8915   2.9003   2.9197   2.9239   2.9245   2.9496   2.9937
  2.9990   3.0160   3.0454   3.0603   3.0804   3.0871   3.0992   3.1130
  3.1311   3.1551   3.1779   3.1942   3.2189   3.2378   3.2490   3.2552
  3.2594   3.2968   3.3362   3.3381   3.3650   3.3878   3.3934   3.4220
  3.4304   3.4557   3.4882   3.5145   3.5236   3.5351   3.5702   3.5898
  3.5938   3.6746   3.6799   3.7658   3.7868   3.8393   3.8604   3.8968
  3.9761   4.0529   4.0634   4.0781   4.1402   4.1557   4.1661   4.2604
  4.3214   4.3530   4.5269   4.8017   4.8404   4.8445   4.8645   5.0122
  5.0516   5.1364   5.1538   5.3171   5.3902   5.5018   5.7930   5.8320
  5.8787  23.5483  23.7118  23.8866  23.9005  23.9244  23.9327  23.9510
 23.9679  23.9882  23.9979  24.0380  24.0929  24.1017  24.1898  24.2018
 35.6672  49.9986  50.1019  50.1604
 --------------------------------------------------------------
 
          Ground-State Mulliken Net Atomic Charges

     Atom                 Charge (a.u.)
  ----------------------------------------
      1 C                    -1.011053
      2 C                     1.519140
      3 C                     2.829058
      4 C                     0.268087
      5 C                     0.110224
      6 C                    -2.117307
      7 C                    -2.921723
      8 C                    -2.355689
      9 C                    -2.500620
     10 C                    -0.860356
     11 C                    -0.728257
     12 C                     2.686246
     13 C                     1.272115
     14 C                    -0.851342
     15 O                    -0.295376
     16 O                    -0.290997
     17 N                    -0.203601
     18 O                    -0.032949
     19 C                     0.345124
     20 H                     0.086350
     21 H                     0.387199
     22 H                     0.419630
     23 H                     0.321747
     24 H                     0.375410
     25 H                     0.078281
     26 H                     0.293202
     27 H                     0.384758
     28 H                     0.335488
     29 H                     0.229141
     30 H                     0.228071
  ----------------------------------------
  Sum of atomic charges =    -2.000000

 -----------------------------------------------------------------
                    Cartesian Multipole Moments
 -----------------------------------------------------------------
    Charge (ESU x 10^10)
                -9.6064
    Dipole Moment (Debye)
         X       2.5058      Y     -21.8350      Z     -18.6071
       Tot      28.7970
    Quadrupole Moments (Debye-Ang)
        XX    -140.0179     XY       1.5887     YY    -204.9876
        XZ      14.0059     YZ     -60.3111     ZZ    -183.5032
    Octopole Moments (Debye-Ang^2)
       XXX     258.2482    XXY    -304.8528    XYY      76.9938
       YYY   -1095.2128    XXZ    -292.3116    XYZ      42.8672
       YYZ    -493.6503    XZZ     147.0784    YZZ    -460.5021
       ZZZ   -1015.0322
    Hexadecapole Moments (Debye-Ang^3)
      XXXX   -4591.4710   XXXY      42.9868   XXYY   -1712.8829
      XYYY    -243.2195   YYYY   -6451.0755   XXXZ    1301.1606
      XXYZ    -730.8486   XYYZ     520.5106   YYYZ   -2835.7900
      XXZZ   -1696.6402   XYZZ     105.9152   YYZZ   -2414.3202
      XZZZ    1504.3792   YZZZ   -2642.3240   ZZZZ   -5786.5857
 -----------------------------------------------------------------
 Total job time:  922.24s(wall), 7060.16s(cpu) 
 Sat Feb  3 11:38:49 2024

        *************************************************************
        *                                                           *
        *  Thank you very much for using Q-Chem.  Have a nice day.  *
        *                                                           *
        *************************************************************


