
Running Job 1 of 1 016-rad-COSMO.in
qchem 016-rad-COSMO.in_2604075.0 /expanse/lustre/scratch/selhajj/temp_project/qcscratch/28868431/qchem2604075/ 0
/cm/shared/apps/spack/cpu/opt/spack/linux-centos8-zen2/gcc-10.2.0/qchem-5.4-akfmr7b3t57bfs6qan3padb2wnb2i7cl/exe/qcprog.exe_s 016-rad-COSMO.in_2604075.0 /expanse/lustre/scratch/selhajj/temp_project/qcscratch/28868431/qchem2604075/
                  Welcome to Q-Chem
     A Quantum Leap Into The Future Of Chemistry


 Q-Chem 5.4, Q-Chem, Inc., Pleasanton, CA (2021)

 License issued to: University of California, San Diego (site)

 E. Epifanovsky,  A. T. B. Gilbert,  Xintian Feng,  Joonho Lee,  Yuezhi Mao,  
 N. Mardirossian,  P. Pokhilko,  A. White,  M. Wormit,  M. P. Coons,  
 A. L. Dempwolff,  Zhengting Gan,  D. Hait,  P. R. Horn,  L. D. Jacobson,  
 I. Kaliman,  J. Kussmann,  A. W. Lange,  Ka Un Lao,  D. S. Levine,  Jie Liu,  
 S. C. McKenzie,  A. F. Morrison,  K. Nanda,  F. Plasser,  D. R. Rehn,  
 M. L. Vidal,  Zhi-Qiang You,  Ying Zhu,  B. Alam,  B. Albrecht,  
 A. Aldossary,  E. Alguire,  J. H. Andersen,  D. Barton,  K. Begam,  A. Behn,  
 Y. A. Bernard,  E. J. Berquist,  H. Burton,  A. Carreras,  K. Carter-Fenk,  
 R. Chakraborty,  A. D. Chien,  K. D. Closser,  V. Cofer-Shabica,  
 S. Dasgupta,  Jia Deng,  M. de Wergifosse,  M. Diedenhofen,  Hainam Do,  
 S. Ehlert,  Po-Tung Fang,  S. Fatehi,  Qingguo Feng,  J. Gayvert,  
 Qinghui Ge,  G. Gidofalvi,  M. Goldey,  J. Gomes,  C. Gonzalez-Espinoza,  
 S. Gulania,  A. Gunina,  M. W. D. Hanson-Heine,  P. H. P. Harbach,  
 A. W. Hauser,  M. F. Herbst,  M. Hernandez Vera,  M. Hodecker,  
 Z. C. Holden,  S. Houck,  Xunkun Huang,  Kerwin Hui,  B. C. Huynh,  
 M. Ivanov,  Hyunjun Ji,  Hanjie Jiang,  B. Kaduk,  S. Kaehler,  
 K. Khistyaev,  Jaehoon Kim,  P. Klunzinger,  Z. Koczor-Benda,  
 Joong Hoon Koh,  D. Kosenkov,  L. Koulias,  T. Kowalczyk,  C. M. Krauter,  
 K. Kue,  A. Kunitsa,  T. Kus,  A. Landau,  K. V. Lawler,  D. Lefrancois,  
 S. Lehtola,  Rain Li,  Yi-Pei Li,  Jiashu Liang,  M. Liebenthal,  
 Hung-Hsuan Lin,  You-Sheng Lin,  Fenglai Liu,  Kuan-Yu Liu,  
 M. Loipersberger,  A. Luenser,  A. Manjanath,  P. Manohar,  E. Mansoor,  
 S. F. Manzer,  Shan-Ping Mao,  A. V. Marenich,  T. Markovich,  S. Mason,  
 S. A. Maurer,  P. F. McLaughlin,  M. F. S. J. Menger,  J.-M. Mewes,  
 S. A. Mewes,  P. Morgante,  J. W. Mullinax,  T. S. Nguyen-Beck,  
 K. J. Oosterbaan,  G. Paran,  Alexander C. Paul,  Suranjan K. Paul,  
 F. Pavosevic,  Zheng Pei,  S. Prager,  E. I. Proynov,  E. Ramos,  B. Rana,  
 A. E. Rask,  A. Rettig,  R. M. Richard,  F. Rob,  E. Rossomme,  T. Scheele,  
 M. Scheurer,  M. Schneider,  N. Sergueev,  S. M. Sharada,  W. Skomorowski,  
 D. W. Small,  C. J. Stein,  Yu-Chuan Su,  E. J. Sundstrom,  Zhen Tao,  
 J. Thirman,  T. Tsuchimochi,  N. M. Tubman,  S. P. Veccham,  O. Vydrov,  
 J. Wenzel,  J. Witte,  A. Yamada,  Kun Yao,  S. Yeganeh,  S. R. Yost,  
 A. Zech,  Igor Ying Zhang,  Xing Zhang,  Yu Zhang,  D. Zuev,  
 A. Aspuru-Guzik,  A. T. Bell,  N. A. Besley,  K. B. Bravaya,  B. R. Brooks,  
 D. Casanova,  Jeng-Da Chai,  S. Coriani,  C. J. Cramer,  
 A. E. DePrince, III,  R. A. DiStasio Jr.,  A. Dreuw,  B. D. Dunietz,  
 T. R. Furlani,  W. A. Goddard III,  S. Grimme,  S. Hammes-Schiffer,  
 T. Head-Gordon,  W. J. Hehre,  Chao-Ping Hsu,  T.-C. Jagau,  Yousung Jung,  
 A. Klamt,  Jing Kong,  D. S. Lambrecht,  WanZhen Liang,  N. J. Mayhall,  
 C. W. McCurdy,  J. B. Neaton,  C. Ochsenfeld,  J. A. Parkhill,  R. Peverati,  
 V. A. Rassolov,  Yihan Shao,  L. V. Slipchenko,  T. Stauch,  R. P. Steele,  
 J. E. Subotnik,  A. J. W. Thom,  A. Tkatchenko,  D. G. Truhlar,  
 T. Van Voorhis,  T. A. Wesolowski,  K. B. Whaley,  H. L. Woodcock III,  
 P. M. Zimmerman,  S. Faraji,  P. M. W. Gill,  M. Head-Gordon,  
 J. M. Herbert,  A. I. Krylov

 Contributors to earlier versions of Q-Chem not listed above: 
 R. D. Adamson,  B. Austin,  R. Baer,  J. Baker,  G. J. O. Beran,  
 K. Brandhorst,  S. T. Brown,  E. F. C. Byrd,  A. K. Chakraborty,  
 G. K. L. Chan,  Chun-Min Chang,  Yunqing Chen,  C.-L. Cheng,  
 Siu Hung Chien,  D. M. Chipman,  D. L. Crittenden,  H. Dachsel,  
 R. J. Doerksen,  A. D. Dutoi,  R. G. Edgar,  J. Fosso-Tande,  
 L. Fusti-Molnar,  D. Ghosh,  A. Ghysels,  A. Golubeva-Zadorozhnaya,  
 J. Gonthier,  M. S. Gordon,  S. R. Gwaltney,  G. Hawkins,  J. E. Herr,  
 A. Heyden,  S. Hirata,  E. G. Hohenstein,  G. Kedziora,  F. J. Keil,  
 C. Kelley,  Jihan Kim,  R. A. King,  R. Z. Khaliullin,  P. P. Korambath,  
 W. Kurlancheek,  A. Laurent,  A. M. Lee,  M. S. Lee,  S. V. Levchenko,  
 Ching Yeh Lin,  D. Liotard,  E. Livshits,  R. C. Lochan,  I. Lotan,  
 L. A. Martinez-Martinez,  P. E. Maslen,  N. Nair,  D. P. O'Neill,  
 D. Neuhauser,  E. Neuscamman,  C. M. Oana,  R. Olivares-Amaya,  R. Olson,  
 T. M. Perrine,  B. Peters,  P. A. Pieniazek,  A. Prociuk,  Y. M. Rhee,  
 J. Ritchie,  M. A. Rohrdanz,  E. Rosta,  N. J. Russ,  H. F. Schaefer III,  
 M. W. Schmidt,  N. E. Schultz,  S. Sharma,  N. Shenvi,  C. D. Sherrill,  
 A. C. Simmonett,  A. Sodt,  T. Stein,  D. Stuck,  K. S. Thanthiriwatte,  
 V. Vanovschi,  L. Vogt,  Tao Wang,  A. Warshel,  M. A. Watson,  
 C. F. Williams,  Q. Wu,  X. Xu,  Jun Yang,  W. Zhang,  Yan Zhao

 Please cite Q-Chem as follows:
 Y. Shao et al., Mol. Phys. 113, 184-215 (2015)
 DOI: 10.1080/00268976.2014.952696

 Q-Chem 5.4.0 for Intel X86 EM64T Linux

 Parts of Q-Chem use Armadillo 9.800.1 (Horizon Scraper).
 http://arma.sourceforge.net/

 Q-Chem begins on Thu Feb 22 02:55:56 2024  

 Host: 
0

     Scratch files written to /expanse/lustre/scratch/selhajj/temp_project/qcscratch/28868431/qchem2604075//
 May1621 |scratch|qcdevops|jenkins|workspace|build_RNUM    
 Processing $rem in /cm/shared/apps/spack/cpu/opt/spack/linux-centos8-zen2/gcc-10.2.0/qchem-5.4-akfmr7b3t57bfs6qan3padb2wnb2i7cl/config/preferences:
 Processing $rem in /home/selhajj/.qchemrc:

 Checking the input file for inconsistencies... 
 Q-Chem warning in module libgen/CheckREMs.C, line 172:

 Found a $solvent section, which is only used for PCM and Kirkwood-Onsager solvation models

	...done.

--------------------------------------------------------------
User input:
--------------------------------------------------------------
$molecule
-1 2
C                 -1.7548970000      1.4676680000      1.0452310000
C                 -2.9564850000      0.6946390000      0.8071560000
C                 -3.0034310000     -0.5302170000      0.2003500000
C                 -1.7575910000     -1.1536650000     -0.2651010000
C                 -0.5320410000     -0.3853450000     -0.0323550000
C                 -0.5210690000      0.8435810000      0.5806530000
O                 -1.7294970000     -2.2751530000     -0.8291650000
O                 -1.7962560000      2.5866160000      1.6098220000
I                  1.2191360000      1.9958370000      0.9410810000
I                  1.2156260000     -1.3595140000     -0.7352950000
H                 -3.8551510000      1.1828590000      1.1622340000
C                 -4.3303060000     -1.2839020000     -0.0131470000
C                 -5.5391990000     -0.4972260000      0.5296020000
C                 -4.2874070000     -2.6450910000      0.7230470000
C                 -4.5644960000     -1.5196890000     -1.5251500000
H                 -5.6547200000      0.4697390000      0.0315570000
H                 -5.4608020000     -0.3183370000      1.6058350000
H                 -6.4527190000     -1.0746580000      0.3530400000
H                 -4.1538630000     -2.4938270000      1.7991970000
H                 -3.4660970000     -3.2569760000      0.3524280000
H                 -5.2305400000     -3.1841620000      0.5715050000
H                 -4.6295870000     -0.5640530000     -2.0555620000
H                 -5.5077520000     -2.0576340000     -1.6799760000
H                 -3.7501170000     -2.1018720000     -1.9543080000
$end
$rem
MAX_SCF_CYCLES=200
BASIS  =  6-311++G(d,p)
GUI  =  2
JOB_TYPE  =  SP
METHOD  =  B3LYP
SOLVENT_METHOD = COSMO
$end
$solvent
dielectric 37.219
opticaldielectric 1.43
$end





--------------------------------------------------------------
 ----------------------------------------------------------------
             Standard Nuclear Orientation (Angstroms)
    I     Atom           X                Y                Z
 ----------------------------------------------------------------
    1      C      -0.3486045921    -2.0450113829    -0.0006327644
    2      C      -1.7734874691    -1.7846730473    -0.0006186594
    3      C      -2.3525822316    -0.5455851464    -0.0003038235
    4      C      -1.4995153873     0.6501264855    -0.0002911781
    5      C      -0.0550359590     0.4053034749    -0.0002901904
    6      C       0.4932990754    -0.8538577504    -0.0003618158
    7      O      -1.9654601905     1.8161403118    -0.0002761873
    8      O       0.1042496578    -3.2143877957    -0.0007891194
    9      I       2.5711631840    -1.2642186161     0.0002552553
   10      I       1.0979953193     2.1851879241    -0.0000754253
   11      H      -2.3719557573    -2.6868234975    -0.0007035770
   12      C      -3.8822940664    -0.3606506829     0.0002067415
   13      C      -4.6304263659    -1.7079278965    -0.0000453482
   14      C      -4.3191681154     0.4188954415    -1.2639555617
   15      C      -4.3180996228     0.4177612847     1.2654110188
   16      H      -4.3957330645    -2.3060468605     0.8851597094
   17      H      -4.3965922391    -2.3052763835    -0.8860031465
   18      H      -5.7092677631    -1.5202540121     0.0005852287
   19      H      -4.0458422530    -0.1347327528    -2.1681692618
   20      H      -3.8416897592     1.3972950323    -1.2965204614
   21      H      -5.4077866117     0.5529492161    -1.2652714299
   22      H      -4.0445205962    -0.1370498686     2.1688228811
   23      H      -5.4066638347     0.5523393902     1.2675287771
   24      H      -3.8401761296     1.3959216040     1.2988522301
 ----------------------------------------------------------------
 Molecular Point Group                 C1    NOp =  1
 Largest Abelian Subgroup              C1    NOp =  1
 Nuclear Repulsion Energy =        2174.16846946 hartrees
 There are       97 alpha and       96 beta electrons
 Requested basis set is 6-311++G(d,p)
 There are 170 shells and 458 basis functions

 Total QAlloc Memory Limit   8000 MB
 Mega-Array Size       188 MB
 MEM_STATIC part       192 MB
 A cutoff of  1.0D-08 yielded   9554 shell pairs
 There are     71344 function pairs (     77458 Cartesian)
 Smallest overlap matrix eigenvalue = 6.95E-07

 Q-Chem warning in module stvman/mkSTV.C, line 323:

 Overlap eigenvalue is smaller than square root of threshold
 Use THRESH >= 12 to get rid of this warning

 Linear dependence detected in AO basis
 Tighter screening thresholds may be required for diffuse basis sets
 Use S2THRESH > 14 and THRESH = 14 in case of SCF convergence issues
 Number of orthogonalized atomic orbitals = 456
 Maximum deviation from orthogonality = 6.365E-11

 Scale SEOQF with 1.000000e-02/1.000000e-01/1.000000e-01

 Standard Electronic Orientation quadrupole field applied
 Nucleus-field energy     =     0.0000000392 hartrees
 Guess from superposition of atomic densities
 Warning:  Energy on first SCF cycle will be non-variational
 SAD guess density has 192.000000 electrons

 -----------------------------------------------------------------------
  General SCF calculation program by
  Eric Jon Sundstrom, Paul Horn, Yuezhi Mao, Dmitri Zuev, Alec White,
  David Stuck, Shaama M.S., Shane Yost, Joonho Lee, David Small,
  Daniel Levine, Susi Lehtola, Hugh Burton, Evgeny Epifanovsky,
  Bang C. Huynh
 -----------------------------------------------------------------------
 Exchange:     0.2000 Hartree-Fock + 0.0800 Slater + 0.7200 B88
 Correlation:  0.1900 VWN1RPA + 0.8100 LYP
 Using SG-1 standard quadrature grid
 using 8 threads for integral computing
 -------------------------------------------------------
 OpenMP Integral computing Module                
 Release: version 1.0, May 2013, Q-Chem Inc. Pittsburgh 
 -------------------------------------------------------
 A unrestricted SCF calculation will be
 performed using DIIS
 SCF converges when DIIS error is below 1.0e-05
 ---------------------------------------
  Cycle       Energy         DIIS error
 ---------------------------------------
    1  -14379.2434347794      1.38e-02  
    2  -14376.4191931215      1.87e-03  
    3  -14375.0221307613      4.02e-03  
    4  -14376.6583962792      1.07e-03  
    5  -14376.7631261469      3.14e-04  
    6  -14376.7688157071      2.53e-04  
    7  -14376.7760844844      4.99e-05  
    8  -14376.7763433065      3.03e-05  
    9  -14376.7764263637      1.78e-05  
   10  -14376.7764673175      1.02e-05  
   11  -14376.7764777980      3.63e-06  Convergence criterion met
 ---------------------------------------
 SCF time:   CPU 352.68s  wall 45.00s 
<S^2> =          0.760209745
 SCF   energy in the final basis set =   -14376.7764777980
 Total energy in the final basis set =   -14376.7764777980
 Exchange:     0.2000 Hartree-Fock + 0.0800 Slater + 0.7200 B88
 Correlation:  0.1900 VWN1RPA + 0.8100 LYP
 Using SG-1 standard quadrature grid
 in get_qchem_info
 IBasis=      401111
 IBasis=      401111
 USING 1082 GRID
 MICHARGE=          -1
 Set epsilon to    37.2190017700195     
==== cosmo data ====
outfile: 016-rad-COSMO.out.cosmo.0
phsran:    0.00000D+00
ampran:    0.10000D-04
volume:   1923.5642646
area:    904.6440246
routf:      0.8500000
rsolv [a.u]:      2.4566438
disex:     10.0000000
disex2:   5105.4796663
fepsi:      0.9731320
eps :    37.2190018
lcavity:     1
nppa:  1082
nspa:    92
nsph:    32
maxnps:  1608
natoms:    24
Atom   Radius [a.u.] nuc. charge
    1      3.7794520    6
    2      3.7794520    6
    3      3.7794520    6
    4      3.7794520    6
    5      3.7794520    6
    6      3.7794520    6
    7      3.2503287    8
    8      3.2503287    8
    9      4.3841643   53
   10      4.3841643   53
   11      2.4566438    1
   12      3.7794520    6
   13      3.7794520    6
   14      3.7794520    6
   15      3.7794520    6
   16      2.4566438    1
   17      2.4566438    1
   18      2.4566438    1
   19      2.4566438    1
   20      2.4566438    1
   21      2.4566438    1
   22      2.4566438    1
   23      2.4566438    1
   24      2.4566438    1
=== end cosmo data ===
 number of segments:          867
 f_epsilon=  0.973132003749614     
Ediel:   -0.0711011
 A unrestricted SCF calculation will be
 performed using Roothaan-Hall, DIIS
 SCF converges when DIIS error is below 1.0e-05
 ---------------------------------------
  Cycle       Energy         DIIS error
 ---------------------------------------
 number of segments:          867
 f_epsilon=  0.973132003749614     
Ediel:   -0.0826533
    1  -14376.8475817341      1.12e-04  Roothaan Step
 ---------------------------------------
  Cycle       Energy         DIIS error
 ---------------------------------------
 number of segments:          867
 f_epsilon=  0.973132003749614     
Ediel:   -0.0776967
    1  -14376.8505791663      1.17e-04  
 number of segments:          867
 f_epsilon=  0.973132003749614     
Ediel:   -0.0806605
    2  -14376.8479693178      2.17e-04  
 number of segments:          867
 f_epsilon=  0.973132003749614     
Ediel:   -0.0809907
    3  -14376.8518833934      2.26e-05  
    4  -14376.8519314225      8.82e-06  Convergence criterion met
 ---------------------------------------
 SCF time:   CPU 218.29s  wall 29.00s 
<S^2> =          0.758907178
before final oc correction, ETot:    -14376.8519314225
 number of outlayer segments:          396
SCF energy after oc correction:    -14376.8580129947
 SCF   energy in the final basis set =   -14376.8580129947
 Total energy in the final basis set =   -14376.8519314225
 
 --------------------------------------------------------------
 
                    Orbital Energies (a.u.)
 --------------------------------------------------------------
 
 Alpha MOs
 -- Occupied --
*****************-176.2939-176.2932-165.6975-165.6968-165.6956-165.6954
********-165.6947 -35.7903 -35.7897 -31.2832 -31.2825 -31.2778 -31.2773
-31.2772 -31.2767 -22.9338 -22.9331 -22.9326 -22.9323 -22.9320 -22.9316
-22.9285 -22.9285 -22.9279 -22.9278 -19.0921 -19.0887 -10.2400 -10.2393
-10.2209 -10.2197 -10.1857 -10.1836 -10.1686 -10.1503 -10.1464 -10.1464
 -6.3397  -6.3391  -4.7513  -4.7506  -4.7382  -4.7377  -4.7371  -4.7364
 -2.0173  -2.0165  -2.0133  -2.0128  -2.0124  -2.0117  -2.0011  -2.0011
 -2.0006  -2.0003  -1.0197  -1.0170  -0.8472  -0.8149  -0.7544  -0.7068
 -0.6806  -0.6763  -0.6553  -0.6434  -0.5853  -0.5682  -0.5275  -0.4979
 -0.4698  -0.4431  -0.4365  -0.4288  -0.4255  -0.4244  -0.3993  -0.3986
 -0.3813  -0.3737  -0.3673  -0.3568  -0.3532  -0.3373  -0.3288  -0.3218
 -0.3214  -0.2807  -0.2787  -0.2734  -0.2615  -0.2546  -0.2399  -0.2327
 -0.1731
 -- Virtual --
 -0.0517  -0.0219  -0.0010   0.0007   0.0120   0.0181   0.0198   0.0261
  0.0396   0.0432   0.0432   0.0449   0.0600   0.0655   0.0722   0.0749
  0.0834   0.0855   0.0868   0.0987   0.1033   0.1094   0.1168   0.1202
  0.1213   0.1270   0.1275   0.1282   0.1349   0.1364   0.1429   0.1457
  0.1528   0.1543   0.1585   0.1608   0.1642   0.1673   0.1739   0.1749
  0.1818   0.1832   0.1923   0.1941   0.1953   0.2015   0.2025   0.2033
  0.2096   0.2107   0.2190   0.2205   0.2252   0.2314   0.2466   0.2469
  0.2470   0.2615   0.2677   0.2680   0.2744   0.2764   0.2802   0.2854
  0.2886   0.3010   0.3081   0.3094   0.3226   0.3265   0.3283   0.3312
  0.3329   0.3362   0.3473   0.3510   0.3516   0.3585   0.3712   0.3858
  0.3927   0.4017   0.4103   0.4185   0.4275   0.4330   0.4399   0.4439
  0.4538   0.4662   0.4667   0.4805   0.4931   0.5058   0.5092   0.5148
  0.5229   0.5255   0.5358   0.5468   0.5599   0.5738   0.5842   0.5867
  0.5877   0.6030   0.6123   0.6173   0.6306   0.6323   0.6395   0.6509
  0.6583   0.6654   0.6735   0.6785   0.6865   0.6894   0.7012   0.7022
  0.7092   0.7142   0.7231   0.7391   0.7557   0.7685   0.7793   0.7900
  0.7982   0.8019   0.8044   0.8112   0.8354   0.8466   0.8642   0.8754
  0.8988   0.9064   0.9373   0.9395   0.9506   0.9749   0.9853   0.9962
  1.0191   1.0311   1.0492   1.0810   1.0872   1.1029   1.1063   1.1158
  1.1453   1.1719   1.1857   1.2058   1.2077   1.2223   1.2315   1.2545
  1.2776   1.2825   1.2862   1.2927   1.3064   1.3323   1.3612   1.3842
  1.4125   1.4489   1.4586   1.4640   1.4642   1.4664   1.4679   1.4770
  1.4896   1.5011   1.5315   1.5354   1.5580   1.5590   1.5667   1.5874
  1.6028   1.6051   1.6201   1.6451   1.6545   1.6591   1.6823   1.7015
  1.7126   1.7216   1.7377   1.7425   1.7601   1.7861   1.7929   1.7993
  1.8022   1.8188   1.8218   1.8331   1.8534   1.8634   1.8830   1.9078
  1.9325   1.9539   1.9628   1.9882   2.0002   2.0298   2.0691   2.1183
  2.1189   2.1269   2.1287   2.1844   2.2101   2.2233   2.2425   2.2428
  2.2644   2.2927   2.3135   2.3556   2.3875   2.4515   2.4708   2.4798
  2.5167   2.5320   2.5404   2.5532   2.5542   2.5711   2.5893   2.5973
  2.6033   2.6353   2.6425   2.6538   2.6920   2.6936   2.7332   2.7566
  2.7759   2.7901   2.8186   2.8376   2.8456   2.8629   2.8880   2.8904
  2.9167   2.9419   2.9545   2.9791   2.9923   3.0332   3.0385   3.0847
  3.0867   3.1185   3.1416   3.1874   3.2149   3.2295   3.2543   3.2956
  3.3222   3.3349   3.3446   3.4683   3.5092   3.5359   3.5799   3.6448
  3.7240   3.7812   3.8015   3.8141   3.8270   3.8329   3.8629   3.8963
  3.9858   3.9858   3.9947   4.0311   4.0392   4.0472   4.0794   4.1181
  4.1689   4.1798   4.2469   4.2583   4.2820   4.2959   4.3543   4.4154
  4.4463   4.5684   4.7778   5.0654   5.0997   5.2309   5.2950   5.7139
  5.8157   6.0201   6.0514   6.1194   6.1505   6.1547   6.2293  23.4974
 23.7860  23.8118  23.8988  23.9326  23.9881  23.9977  24.0152  24.0373
 24.1685  27.8817  27.9751  28.3622  28.3859  28.4292  28.4395  28.4626
 28.4645  28.5537  28.5583  28.5727  28.5767  28.5822  28.5938  28.6304
 28.6598  28.7189  28.7846  50.0208  50.0654 127.9055 127.9234 127.9659
127.9765 127.9814 128.0212 151.6784 151.75981901.84141901.9262
 
 Beta MOs
 -- Occupied --
*****************-176.2938-176.2932-165.6975-165.6968-165.6956-165.6954
********-165.6947 -35.7903 -35.7896 -31.2832 -31.2825 -31.2778 -31.2773
-31.2772 -31.2767 -22.9338 -22.9331 -22.9326 -22.9323 -22.9319 -22.9316
-22.9285 -22.9285 -22.9278 -22.9278 -19.0854 -19.0820 -10.2386 -10.2380
-10.2194 -10.2181 -10.1857 -10.1827 -10.1679 -10.1503 -10.1463 -10.1463
 -6.3397  -6.3390  -4.7513  -4.7506  -4.7381  -4.7376  -4.7371  -4.7364
 -2.0173  -2.0165  -2.0132  -2.0128  -2.0125  -2.0118  -2.0011  -2.0010
 -2.0005  -2.0003  -1.0081  -1.0051  -0.8420  -0.8128  -0.7522  -0.6984
 -0.6802  -0.6761  -0.6518  -0.6422  -0.5825  -0.5644  -0.5253  -0.4957
 -0.4674  -0.4392  -0.4327  -0.4239  -0.4232  -0.4120  -0.3959  -0.3839
 -0.3795  -0.3664  -0.3630  -0.3523  -0.3516  -0.3356  -0.3277  -0.3213
 -0.3068  -0.2802  -0.2701  -0.2581  -0.2569  -0.2492  -0.2344  -0.2299
 -- Virtual --
 -0.1031  -0.0504  -0.0071  -0.0005   0.0026   0.0185   0.0200   0.0219
  0.0397   0.0398   0.0433   0.0435   0.0456   0.0605   0.0657   0.0724
  0.0751   0.0843   0.0857   0.0877   0.0993   0.1036   0.1097   0.1171
  0.1210   0.1214   0.1272   0.1286   0.1297   0.1365   0.1421   0.1430
  0.1461   0.1530   0.1546   0.1591   0.1619   0.1647   0.1677   0.1751
  0.1754   0.1825   0.1859   0.1927   0.1946   0.1955   0.2026   0.2029
  0.2040   0.2103   0.2120   0.2200   0.2212   0.2255   0.2332   0.2475
  0.2476   0.2477   0.2623   0.2684   0.2699   0.2749   0.2772   0.2812
  0.2860   0.2895   0.3019   0.3105   0.3122   0.3229   0.3271   0.3292
  0.3339   0.3360   0.3370   0.3478   0.3519   0.3531   0.3594   0.3723
  0.3874   0.3939   0.4031   0.4112   0.4198   0.4293   0.4338   0.4430
  0.4443   0.4550   0.4667   0.4674   0.4822   0.4941   0.5081   0.5097
  0.5152   0.5245   0.5262   0.5362   0.5472   0.5615   0.5749   0.5851
  0.5893   0.5906   0.6036   0.6137   0.6216   0.6330   0.6347   0.6404
  0.6532   0.6608   0.6661   0.6753   0.6791   0.6879   0.6898   0.7026
  0.7027   0.7115   0.7152   0.7256   0.7397   0.7569   0.7690   0.7799
  0.7902   0.8005   0.8026   0.8050   0.8129   0.8356   0.8490   0.8659
  0.8783   0.8994   0.9100   0.9393   0.9420   0.9515   0.9757   0.9890
  0.9978   1.0195   1.0345   1.0506   1.0833   1.0905   1.1084   1.1144
  1.1248   1.1464   1.1764   1.1951   1.2103   1.2120   1.2269   1.2330
  1.2639   1.2798   1.2878   1.2884   1.2949   1.3089   1.3349   1.3626
  1.3857   1.4147   1.4503   1.4592   1.4642   1.4649   1.4671   1.4691
  1.4776   1.4901   1.5031   1.5325   1.5367   1.5596   1.5596   1.5677
  1.5888   1.6038   1.6055   1.6234   1.6463   1.6555   1.6599   1.6835
  1.7034   1.7145   1.7227   1.7385   1.7474   1.7622   1.7889   1.7964
  1.8006   1.8039   1.8206   1.8272   1.8394   1.8537   1.8670   1.8864
  1.9124   1.9398   1.9547   1.9649   1.9895   2.0004   2.0308   2.0704
  2.1201   2.1207   2.1283   2.1308   2.1877   2.2120   2.2235   2.2435
  2.2488   2.2664   2.2954   2.3160   2.3564   2.3889   2.4518   2.4715
  2.4805   2.5169   2.5322   2.5405   2.5545   2.5549   2.5716   2.5897
  2.6000   2.6041   2.6416   2.6427   2.6556   2.6926   2.6960   2.7424
  2.7624   2.7776   2.7916   2.8211   2.8400   2.8466   2.8733   2.8923
  2.9035   2.9262   2.9568   2.9598   2.9916   2.9984   3.0341   3.0466
  3.0859   3.0936   3.1193   3.1434   3.1893   3.2154   3.2328   3.2567
  3.2966   3.3362   3.3393   3.3616   3.4711   3.5119   3.5414   3.5827
  3.6464   3.7278   3.7812   3.8016   3.8153   3.8296   3.8329   3.8631
  3.8968   3.9859   3.9899   3.9948   4.0312   4.0395   4.0477   4.0796
  4.1201   4.1700   4.1813   4.2486   4.2586   4.2822   4.2963   4.3548
  4.4165   4.4466   4.5686   4.7830   5.0929   5.1275   5.2365   5.3005
  5.7195   5.8212   6.0202   6.0515   6.1194   6.1505   6.1547   6.2293
 23.4990  23.7873  23.8119  23.9002  23.9343  23.9881  23.9977  24.0153
 24.0389  24.1694  27.8818  27.9751  28.3623  28.3859  28.4292  28.4395
 28.4626  28.4645  28.5537  28.5583  28.5728  28.5768  28.5822  28.5938
 28.6304  28.6598  28.7189  28.7846  50.0275  50.0721 127.9055 127.9235
127.9659 127.9765 127.9814 128.0212 151.6784 151.75981901.84141901.9262
 --------------------------------------------------------------
 
          Ground-State Mulliken Net Atomic Charges

     Atom                 Charge (a.u.)    Spin (a.u.)
  --------------------------------------------------------
      1 C                    -0.984584       0.090403
      2 C                    -0.443464       0.051185
      3 C                     1.117594       0.099420
      4 C                    -0.878642       0.083942
      5 C                    -0.169983       0.083112
      6 C                     0.839252       0.117432
      7 O                    -0.358524       0.245681
      8 O                    -0.430356       0.233099
      9 I                    -0.013400       0.003956
     10 I                    -0.007978       0.003646
     11 H                     0.211413      -0.005979
     12 C                     0.602486      -0.025213
     13 C                    -0.507158       0.000987
     14 C                    -0.701605       0.009674
     15 C                    -0.701983       0.009675
     16 H                     0.141844      -0.000241
     17 H                     0.141826      -0.000241
     18 H                     0.180288       0.000115
     19 H                     0.142209       0.000513
     20 H                     0.179131      -0.000998
     21 H                     0.160090       0.000156
     22 H                     0.142177       0.000512
     23 H                     0.160132       0.000159
     24 H                     0.179231      -0.000998
  --------------------------------------------------------
  Sum of atomic charges =    -1.000000
  Sum of spin   charges =     1.000000

 -----------------------------------------------------------------
                    Cartesian Multipole Moments
 -----------------------------------------------------------------
    Charge (ESU x 10^10)
                -4.8032
    Dipole Moment (Debye)
         X       0.0551      Y       2.4997      Z       0.0028
       Tot       2.5003
    Quadrupole Moments (Debye-Ang)
        XX    -137.7022     XY      12.3288     YY    -168.8662
        XZ      -0.0014     YZ      -0.0009     ZZ    -134.2047
    Octopole Moments (Debye-Ang^2)
       XXX     178.8256    XXY      -4.8438    XYY      69.9277
       YYY     124.6865    XXZ       0.0183    XYZ      -0.0067
       YYZ       0.0293    XZZ      59.5396    YZZ      13.4679
       ZZZ       0.0050
    Hexadecapole Moments (Debye-Ang^3)
      XXXX   -5146.6583   XXXY     -22.1914   XXYY   -1287.1950
      XYYY      45.2937   YYYY   -2638.2208   XXXZ      -0.0070
      XXYZ       0.0089   XYYZ       0.0014   YYYZ      -0.0583
      XXZZ    -969.6192   XYZZ     -10.6124   YYZZ    -449.0063
      XZZZ       0.0486   YZZZ      -0.0159   ZZZZ    -361.8080
 -----------------------------------------------------------------
 Total job time:  76.97s(wall), 578.57s(cpu) 
 Thu Feb 22 02:57:13 2024

        *************************************************************
        *                                                           *
        *  Thank you very much for using Q-Chem.  Have a nice day.  *
        *                                                           *
        *************************************************************


