 Entering Gaussian System, Link 0=g16
 Input=274-rad.com
 Output=274-rad.log
 Initial command:
 /sysapps/ubuntu-applications/gaussian/Gaussian/AVX2/g16/l1.exe "/scratch/selhajj1/4233053/Gau-3351475.inp" -scrdir="/scratch/selhajj1/4233053/"
 Entering Link 1 = /sysapps/ubuntu-applications/gaussian/Gaussian/AVX2/g16/l1.exe PID=   3351482.
  
 Copyright (c) 1988,1990,1992,1993,1995,1998,2003,2009,2016,
            Gaussian, Inc.  All Rights Reserved.
  
 This is part of the Gaussian(R) 16 program.  It is based on
 the Gaussian(R) 09 system (copyright 2009, Gaussian, Inc.),
 the Gaussian(R) 03 system (copyright 2003, Gaussian, Inc.),
 the Gaussian(R) 98 system (copyright 1998, Gaussian, Inc.),
 the Gaussian(R) 94 system (copyright 1995, Gaussian, Inc.),
 the Gaussian 92(TM) system (copyright 1992, Gaussian, Inc.),
 the Gaussian 90(TM) system (copyright 1990, Gaussian, Inc.),
 the Gaussian 88(TM) system (copyright 1988, Gaussian, Inc.),
 the Gaussian 86(TM) system (copyright 1986, Carnegie Mellon
 University), and the Gaussian 82(TM) system (copyright 1983,
 Carnegie Mellon University). Gaussian is a federally registered
 trademark of Gaussian, Inc.
  
 This software contains proprietary and confidential information,
 including trade secrets, belonging to Gaussian, Inc.
  
 This software is provided under written license and may be
 used, copied, transmitted, or stored only in accord with that
 written license.
  
 The following legend is applicable only to US Government
 contracts under FAR:
  
                    RESTRICTED RIGHTS LEGEND
  
 Use, reproduction and disclosure by the US Government is
 subject to restrictions as set forth in subparagraphs (a)
 and (c) of the Commercial Computer Software - Restricted
 Rights clause in FAR 52.227-19.
  
 Gaussian, Inc.
 340 Quinnipiac St., Bldg. 40, Wallingford CT 06492
  
  
 ---------------------------------------------------------------
 Warning -- This program may not be used in any manner that
 competes with the business of Gaussian, Inc. or will provide
 assistance to any competitor of Gaussian, Inc.  The licensee
 of this program is prohibited from giving any competitor of
 Gaussian, Inc. access to this program.  By using this program,
 the user acknowledges that Gaussian, Inc. is engaged in the
 business of creating and licensing software in the field of
 computational chemistry and represents and warrants to the
 licensee that it is not a competitor of Gaussian, Inc. and that
 it will not use this program in any manner prohibited above.
 ---------------------------------------------------------------
  

 Cite this work as:
 Gaussian 16, Revision A.03,
 M. J. Frisch, G. W. Trucks, H. B. Schlegel, G. E. Scuseria, 
 M. A. Robb, J. R. Cheeseman, G. Scalmani, V. Barone, 
 G. A. Petersson, H. Nakatsuji, X. Li, M. Caricato, A. V. Marenich, 
 J. Bloino, B. G. Janesko, R. Gomperts, B. Mennucci, H. P. Hratchian, 
 J. V. Ortiz, A. F. Izmaylov, J. L. Sonnenberg, D. Williams-Young, 
 F. Ding, F. Lipparini, F. Egidi, J. Goings, B. Peng, A. Petrone, 
 T. Henderson, D. Ranasinghe, V. G. Zakrzewski, J. Gao, N. Rega, 
 G. Zheng, W. Liang, M. Hada, M. Ehara, K. Toyota, R. Fukuda, 
 J. Hasegawa, M. Ishida, T. Nakajima, Y. Honda, O. Kitao, H. Nakai, 
 T. Vreven, K. Throssell, J. A. Montgomery, Jr., J. E. Peralta, 
 F. Ogliaro, M. J. Bearpark, J. J. Heyd, E. N. Brothers, K. N. Kudin, 
 V. N. Staroverov, T. A. Keith, R. Kobayashi, J. Normand, 
 K. Raghavachari, A. P. Rendell, J. C. Burant, S. S. Iyengar, 
 J. Tomasi, M. Cossi, J. M. Millam, M. Klene, C. Adamo, R. Cammi, 
 J. W. Ochterski, R. L. Martin, K. Morokuma, O. Farkas, 
 J. B. Foresman, and D. J. Fox, Gaussian, Inc., Wallingford CT, 2016.
 
 ******************************************
 Gaussian 16:  ES64L-G16RevA.03 25-Dec-2016
                26-Dec-2023 
 ******************************************
 %chk=274-rad.chk
 %nproc=8
 Will use up to    8 processors via shared memory.
 %mem=30GB
 --------------------------------------
 #P UB3LYP/6-311++G(d,p) nosym opt freq
 --------------------------------------
 1/18=20,19=15,26=3,38=1/1,3;
 2/9=110,12=2,15=1,17=6,18=5,40=1/2;
 3/5=4,6=6,7=1111,11=2,25=1,30=1,71=1,74=-5,116=2/1,2,3;
 4//1;
 5/5=2,38=5/2;
 6/7=2,8=2,9=2,10=2,28=1/1;
 7/30=1/1,2,3,16;
 1/18=20,19=15,26=3/3(2);
 2/9=110,15=1/2;
 99//99;
 2/9=110,15=1/2;
 3/5=4,6=6,7=1111,11=2,25=1,30=1,71=1,74=-5,116=2/1,2,3;
 4/5=5,16=3,69=1/1;
 5/5=2,38=5/2;
 7/30=1/1,2,3,16;
 1/18=20,19=15,26=3/3(-5);
 2/9=110,15=1/2;
 6/7=2,8=2,9=2,10=2,19=2,28=1/1;
 99/9=1/99;
 Leave Link    1 at Tue Dec 26 20:02:23 2023, MaxMem=  4026531840 cpu:               0.3 elap:               0.0
 (Enter /sysapps/ubuntu-applications/gaussian/Gaussian/AVX2/g16/l101.exe)
 -------
 Radical
 -------
 Symbolic Z-matrix:
 Charge = -1 Multiplicity = 2
 C                    -1.76183   3.09051   0.17963 
 C                    -2.958     2.37084   0.12197 
 C                    -2.93326   0.9829   -0.01946 
 C                    -0.52296   2.4262    0.08931 
 C                    -0.5032    1.02816  -0.05948 
 C                    -1.7125    0.31155  -0.1091 
 C                     0.75994   3.17884   0.15573 
 C                     2.08912   2.47116   0.00034 
 C                     2.05482   1.11645  -0.14386 
 C                     0.79686   0.34107  -0.16154 
 O                     0.70993   4.37568   0.39623 
 O                     0.84743  -0.87541  -0.28065 
 N                     3.36438   3.18275   0.00264 
 C                     3.48594   4.60914  -0.28111 
 C                     4.64072   2.52459   0.27016 
 H                    -1.80715   4.16686   0.29057 
 H                    -3.90573   2.88951   0.18814 
 H                    -3.86109   0.42693  -0.061 
 H                    -1.71385  -0.76598  -0.21932 
 H                     2.94903   0.52836  -0.27955 
 H                     2.55843   5.09367  -0.61442 
 H                     4.1975    4.75924  -1.12046 
 H                     3.87911   5.13835   0.61384 
 H                     4.56288   1.46558   0.56364 
 H                     5.14775   3.02904   1.11947 
 H                     5.29463   2.5958   -0.62609 
 
 ITRead=  0  0  0  0  0  0  0  0  0  0  0  0  0  0  0  0  0  0  0  0
 ITRead=  0  0  0  0  0  0
 MicOpt= -1 -1 -1 -1 -1 -1 -1 -1 -1 -1 -1 -1 -1 -1 -1 -1 -1 -1 -1 -1
 MicOpt= -1 -1 -1 -1 -1 -1
 NAtoms=     26 NQM=       26 NQMF=       0 NMMI=      0 NMMIF=      0
                NMic=       0 NMicF=      0.
                    Isotopes and Nuclear Properties:
 (Nuclear quadrupole moments (NQMom) in fm**2, nuclear magnetic moments (NMagM)
  in nuclear magnetons)

  Atom         1           2           3           4           5           6           7           8           9          10
 IAtWgt=          12          12          12          12          12          12          12          12          12          12
 AtmWgt=  12.0000000  12.0000000  12.0000000  12.0000000  12.0000000  12.0000000  12.0000000  12.0000000  12.0000000  12.0000000
 NucSpn=           0           0           0           0           0           0           0           0           0           0
 AtZEff=  -0.0000000  -0.0000000  -0.0000000  -0.0000000  -0.0000000  -0.0000000  -0.0000000  -0.0000000  -0.0000000  -0.0000000
 NQMom=    0.0000000   0.0000000   0.0000000   0.0000000   0.0000000   0.0000000   0.0000000   0.0000000   0.0000000   0.0000000
 NMagM=    0.0000000   0.0000000   0.0000000   0.0000000   0.0000000   0.0000000   0.0000000   0.0000000   0.0000000   0.0000000
 AtZNuc=   6.0000000   6.0000000   6.0000000   6.0000000   6.0000000   6.0000000   6.0000000   6.0000000   6.0000000   6.0000000

  Atom        11          12          13          14          15          16          17          18          19          20
 IAtWgt=          16          16          14          12          12           1           1           1           1           1
 AtmWgt=  15.9949146  15.9949146  14.0030740  12.0000000  12.0000000   1.0078250   1.0078250   1.0078250   1.0078250   1.0078250
 NucSpn=           0           0           2           0           0           1           1           1           1           1
 AtZEff=  -0.0000000  -0.0000000  -0.0000000  -0.0000000  -0.0000000  -0.0000000  -0.0000000  -0.0000000  -0.0000000  -0.0000000
 NQMom=    0.0000000   0.0000000   2.0440000   0.0000000   0.0000000   0.0000000   0.0000000   0.0000000   0.0000000   0.0000000
 NMagM=    0.0000000   0.0000000   0.4037610   0.0000000   0.0000000   2.7928460   2.7928460   2.7928460   2.7928460   2.7928460
 AtZNuc=   8.0000000   8.0000000   7.0000000   6.0000000   6.0000000   1.0000000   1.0000000   1.0000000   1.0000000   1.0000000

  Atom        21          22          23          24          25          26
 IAtWgt=           1           1           1           1           1           1
 AtmWgt=   1.0078250   1.0078250   1.0078250   1.0078250   1.0078250   1.0078250
 NucSpn=           1           1           1           1           1           1
 AtZEff=  -0.0000000  -0.0000000  -0.0000000  -0.0000000  -0.0000000  -0.0000000
 NQMom=    0.0000000   0.0000000   0.0000000   0.0000000   0.0000000   0.0000000
 NMagM=    2.7928460   2.7928460   2.7928460   2.7928460   2.7928460   2.7928460
 AtZNuc=   1.0000000   1.0000000   1.0000000   1.0000000   1.0000000   1.0000000
 Leave Link  101 at Tue Dec 26 20:02:24 2023, MaxMem=  4026531840 cpu:               5.3 elap:               0.9
 (Enter /sysapps/ubuntu-applications/gaussian/Gaussian/AVX2/g16/l103.exe)

 GradGradGradGradGradGradGradGradGradGradGradGradGradGradGradGradGradGrad
 Berny optimization.
 Initialization pass.
                           ----------------------------
                           !    Initial Parameters    !
                           ! (Angstroms and Degrees)  !
 --------------------------                            --------------------------
 ! Name  Definition              Value          Derivative Info.                !
 --------------------------------------------------------------------------------
 ! R1    R(1,2)                  1.3972         estimate D2E/DX2                !
 ! R2    R(1,4)                  1.4086         estimate D2E/DX2                !
 ! R3    R(1,16)                 1.083          estimate D2E/DX2                !
 ! R4    R(2,3)                  1.3953         estimate D2E/DX2                !
 ! R5    R(2,17)                 1.0824         estimate D2E/DX2                !
 ! R6    R(3,6)                  1.3961         estimate D2E/DX2                !
 ! R7    R(3,18)                 1.0824         estimate D2E/DX2                !
 ! R8    R(4,5)                  1.4061         estimate D2E/DX2                !
 ! R9    R(4,7)                  1.4889         estimate D2E/DX2                !
 ! R10   R(5,6)                  1.4066         estimate D2E/DX2                !
 ! R11   R(5,10)                 1.474          estimate D2E/DX2                !
 ! R12   R(6,19)                 1.0832         estimate D2E/DX2                !
 ! R13   R(7,8)                  1.5138         estimate D2E/DX2                !
 ! R14   R(7,11)                 1.2218         estimate D2E/DX2                !
 ! R15   R(8,9)                  1.3628         estimate D2E/DX2                !
 ! R16   R(8,13)                 1.4604         estimate D2E/DX2                !
 ! R17   R(9,10)                 1.4778         estimate D2E/DX2                !
 ! R18   R(9,20)                 1.0788         estimate D2E/DX2                !
 ! R19   R(10,12)                1.2233         estimate D2E/DX2                !
 ! R20   R(13,14)                1.4594         estimate D2E/DX2                !
 ! R21   R(13,15)                1.4607         estimate D2E/DX2                !
 ! R22   R(14,21)                1.0982         estimate D2E/DX2                !
 ! R23   R(14,22)                1.1106         estimate D2E/DX2                !
 ! R24   R(14,23)                1.1116         estimate D2E/DX2                !
 ! R25   R(15,24)                1.1017         estimate D2E/DX2                !
 ! R26   R(15,25)                1.1103         estimate D2E/DX2                !
 ! R27   R(15,26)                1.1117         estimate D2E/DX2                !
 ! A1    A(2,1,4)              120.4905         estimate D2E/DX2                !
 ! A2    A(2,1,16)             118.707          estimate D2E/DX2                !
 ! A3    A(4,1,16)             120.802          estimate D2E/DX2                !
 ! A4    A(1,2,3)              120.0901         estimate D2E/DX2                !
 ! A5    A(1,2,17)             120.0181         estimate D2E/DX2                !
 ! A6    A(3,2,17)             119.8917         estimate D2E/DX2                !
 ! A7    A(2,3,6)              120.0229         estimate D2E/DX2                !
 ! A8    A(2,3,18)             119.9727         estimate D2E/DX2                !
 ! A9    A(6,3,18)             120.0043         estimate D2E/DX2                !
 ! A10   A(1,4,5)              119.2123         estimate D2E/DX2                !
 ! A11   A(1,4,7)              121.1016         estimate D2E/DX2                !
 ! A12   A(5,4,7)              119.6853         estimate D2E/DX2                !
 ! A13   A(4,5,6)              119.8822         estimate D2E/DX2                !
 ! A14   A(4,5,10)             118.8946         estimate D2E/DX2                !
 ! A15   A(6,5,10)             121.2232         estimate D2E/DX2                !
 ! A16   A(3,6,5)              120.3003         estimate D2E/DX2                !
 ! A17   A(3,6,19)             118.9361         estimate D2E/DX2                !
 ! A18   A(5,6,19)             120.7635         estimate D2E/DX2                !
 ! A19   A(4,7,8)              121.0421         estimate D2E/DX2                !
 ! A20   A(4,7,11)             117.9501         estimate D2E/DX2                !
 ! A21   A(8,7,11)             120.9357         estimate D2E/DX2                !
 ! A22   A(7,8,9)              116.9663         estimate D2E/DX2                !
 ! A23   A(7,8,13)             122.6011         estimate D2E/DX2                !
 ! A24   A(9,8,13)             120.4326         estimate D2E/DX2                !
 ! A25   A(8,9,10)             122.9735         estimate D2E/DX2                !
 ! A26   A(8,9,20)             122.2986         estimate D2E/DX2                !
 ! A27   A(10,9,20)            114.7107         estimate D2E/DX2                !
 ! A28   A(5,10,9)             120.3561         estimate D2E/DX2                !
 ! A29   A(5,10,12)            120.4461         estimate D2E/DX2                !
 ! A30   A(9,10,12)            119.19           estimate D2E/DX2                !
 ! A31   A(8,13,14)            123.2762         estimate D2E/DX2                !
 ! A32   A(8,13,15)            122.9394         estimate D2E/DX2                !
 ! A33   A(14,13,15)           113.7782         estimate D2E/DX2                !
 ! A34   A(13,14,21)           114.8262         estimate D2E/DX2                !
 ! A35   A(13,14,22)           109.4152         estimate D2E/DX2                !
 ! A36   A(13,14,23)           109.77           estimate D2E/DX2                !
 ! A37   A(21,14,22)           104.6022         estimate D2E/DX2                !
 ! A38   A(21,14,23)           109.4524         estimate D2E/DX2                !
 ! A39   A(22,14,23)           108.5135         estimate D2E/DX2                !
 ! A40   A(13,15,24)           114.845          estimate D2E/DX2                !
 ! A41   A(13,15,25)           109.5347         estimate D2E/DX2                !
 ! A42   A(13,15,26)           109.7207         estimate D2E/DX2                !
 ! A43   A(24,15,25)           105.38           estimate D2E/DX2                !
 ! A44   A(24,15,26)           108.5356         estimate D2E/DX2                !
 ! A45   A(25,15,26)           108.5998         estimate D2E/DX2                !
 ! D1    D(4,1,2,3)              0.3155         estimate D2E/DX2                !
 ! D2    D(4,1,2,17)          -179.7545         estimate D2E/DX2                !
 ! D3    D(16,1,2,3)          -179.9447         estimate D2E/DX2                !
 ! D4    D(16,1,2,17)           -0.0147         estimate D2E/DX2                !
 ! D5    D(2,1,4,5)             -0.015          estimate D2E/DX2                !
 ! D6    D(2,1,4,7)           -179.704          estimate D2E/DX2                !
 ! D7    D(16,1,4,5)          -179.7493         estimate D2E/DX2                !
 ! D8    D(16,1,4,7)             0.5617         estimate D2E/DX2                !
 ! D9    D(1,2,3,6)             -0.2621         estimate D2E/DX2                !
 ! D10   D(1,2,3,18)           179.8203         estimate D2E/DX2                !
 ! D11   D(17,2,3,6)           179.8078         estimate D2E/DX2                !
 ! D12   D(17,2,3,18)           -0.1097         estimate D2E/DX2                !
 ! D13   D(2,3,6,5)             -0.091          estimate D2E/DX2                !
 ! D14   D(2,3,6,19)          -179.953          estimate D2E/DX2                !
 ! D15   D(18,3,6,5)           179.8265         estimate D2E/DX2                !
 ! D16   D(18,3,6,19)           -0.0355         estimate D2E/DX2                !
 ! D17   D(1,4,5,6)             -0.3358         estimate D2E/DX2                !
 ! D18   D(1,4,5,10)           179.6316         estimate D2E/DX2                !
 ! D19   D(7,4,5,6)            179.3577         estimate D2E/DX2                !
 ! D20   D(7,4,5,10)            -0.6749         estimate D2E/DX2                !
 ! D21   D(1,4,7,8)           -177.4069         estimate D2E/DX2                !
 ! D22   D(1,4,7,11)             5.6513         estimate D2E/DX2                !
 ! D23   D(5,4,7,8)              2.9056         estimate D2E/DX2                !
 ! D24   D(5,4,7,11)          -174.0363         estimate D2E/DX2                !
 ! D25   D(4,5,6,3)              0.3912         estimate D2E/DX2                !
 ! D26   D(4,5,6,19)          -179.7493         estimate D2E/DX2                !
 ! D27   D(10,5,6,3)          -179.5754         estimate D2E/DX2                !
 ! D28   D(10,5,6,19)            0.2841         estimate D2E/DX2                !
 ! D29   D(4,5,10,9)            -1.6256         estimate D2E/DX2                !
 ! D30   D(4,5,10,12)          179.4002         estimate D2E/DX2                !
 ! D31   D(6,5,10,9)           178.3414         estimate D2E/DX2                !
 ! D32   D(6,5,10,12)           -0.6328         estimate D2E/DX2                !
 ! D33   D(4,7,8,9)             -2.7391         estimate D2E/DX2                !
 ! D34   D(4,7,8,13)           177.32           estimate D2E/DX2                !
 ! D35   D(11,7,8,9)           174.1114         estimate D2E/DX2                !
 ! D36   D(11,7,8,13)           -5.8296         estimate D2E/DX2                !
 ! D37   D(7,8,9,10)             0.401          estimate D2E/DX2                !
 ! D38   D(7,8,9,20)           178.8113         estimate D2E/DX2                !
 ! D39   D(13,8,9,10)         -179.6567         estimate D2E/DX2                !
 ! D40   D(13,8,9,20)           -1.2464         estimate D2E/DX2                !
 ! D41   D(7,8,13,14)          -20.5654         estimate D2E/DX2                !
 ! D42   D(7,8,13,15)          160.3987         estimate D2E/DX2                !
 ! D43   D(9,8,13,14)          159.4956         estimate D2E/DX2                !
 ! D44   D(9,8,13,15)          -19.5402         estimate D2E/DX2                !
 ! D45   D(8,9,10,5)             1.7927         estimate D2E/DX2                !
 ! D46   D(8,9,10,12)         -179.2203         estimate D2E/DX2                !
 ! D47   D(20,9,10,5)         -176.7281         estimate D2E/DX2                !
 ! D48   D(20,9,10,12)           2.259          estimate D2E/DX2                !
 ! D49   D(8,13,14,21)          -6.8452         estimate D2E/DX2                !
 ! D50   D(8,13,14,22)        -124.0761         estimate D2E/DX2                !
 ! D51   D(8,13,14,23)         116.9479         estimate D2E/DX2                !
 ! D52   D(15,13,14,21)        172.2705         estimate D2E/DX2                !
 ! D53   D(15,13,14,22)         55.0396         estimate D2E/DX2                !
 ! D54   D(15,13,14,23)        -63.9363         estimate D2E/DX2                !
 ! D55   D(8,13,15,24)          -5.4384         estimate D2E/DX2                !
 ! D56   D(8,13,15,25)        -123.7587         estimate D2E/DX2                !
 ! D57   D(8,13,15,26)         117.1171         estimate D2E/DX2                !
 ! D58   D(14,13,15,24)        175.4425         estimate D2E/DX2                !
 ! D59   D(14,13,15,25)         57.1222         estimate D2E/DX2                !
 ! D60   D(14,13,15,26)        -62.0021         estimate D2E/DX2                !
 --------------------------------------------------------------------------------
 Trust Radius=3.00D-01 FncErr=1.00D-07 GrdErr=1.00D-06 EigMax=2.50D+02 EigMin=1.00D-04
 Number of steps in this run=    142 maximum allowed number of steps=    156.
 GradGradGradGradGradGradGradGradGradGradGradGradGradGradGradGradGradGrad

 Leave Link  103 at Tue Dec 26 20:02:25 2023, MaxMem=  4026531840 cpu:               0.2 elap:               0.1
 (Enter /sysapps/ubuntu-applications/gaussian/Gaussian/AVX2/g16/l202.exe)
                          Input orientation:                          
 ---------------------------------------------------------------------
 Center     Atomic      Atomic             Coordinates (Angstroms)
 Number     Number       Type             X           Y           Z
 ---------------------------------------------------------------------
      1          6           0       -1.761830    3.090510    0.179630
      2          6           0       -2.958000    2.370840    0.121970
      3          6           0       -2.933260    0.982900   -0.019460
      4          6           0       -0.522960    2.426200    0.089310
      5          6           0       -0.503200    1.028160   -0.059480
      6          6           0       -1.712500    0.311550   -0.109100
      7          6           0        0.759940    3.178840    0.155730
      8          6           0        2.089120    2.471160    0.000340
      9          6           0        2.054820    1.116450   -0.143860
     10          6           0        0.796860    0.341070   -0.161540
     11          8           0        0.709930    4.375680    0.396230
     12          8           0        0.847430   -0.875410   -0.280650
     13          7           0        3.364380    3.182750    0.002640
     14          6           0        3.485940    4.609140   -0.281110
     15          6           0        4.640720    2.524590    0.270160
     16          1           0       -1.807150    4.166860    0.290570
     17          1           0       -3.905730    2.889510    0.188140
     18          1           0       -3.861090    0.426930   -0.061000
     19          1           0       -1.713850   -0.765980   -0.219320
     20          1           0        2.949030    0.528360   -0.279550
     21          1           0        2.558430    5.093670   -0.614420
     22          1           0        4.197500    4.759240   -1.120460
     23          1           0        3.879110    5.138350    0.613840
     24          1           0        4.562880    1.465580    0.563640
     25          1           0        5.147750    3.029040    1.119470
     26          1           0        5.294630    2.595800   -0.626090
 ---------------------------------------------------------------------
                    Distance matrix (angstroms):
                    1          2          3          4          5
     1  C    0.000000
     2  C    1.397166   0.000000
     3  C    2.419484   1.395347   0.000000
     4  C    1.408639   2.435888   2.811493   0.000000
     5  C    2.427882   2.803882   2.430811   1.406074   0.000000
     6  C    2.794355   2.417714   1.396066   2.434362   1.406556
     7  C    2.523430   3.804876   4.300299   1.488862   2.503450
     8  C    3.904556   5.049582   5.238283   2.613981   2.967482
     9  C    4.309104   5.174217   4.991418   2.900821   2.560934
    10  C    3.771301   4.277770   3.787602   2.480447   1.473996
    11  O    2.794311   4.189071   4.995657   2.326949   3.589603
    12  O    4.769551   5.018121   4.220800   3.593810   2.344503
    13  N    5.130094   6.375416   6.670839   3.961224   4.427673
    14  C    5.482482   6.833507   7.377276   4.579707   5.365238
    15  C    6.428150   7.601720   7.734718   5.167783   5.367297
    16  H    1.083001   2.139759   3.391437   2.172452   3.416761
    17  H    2.153319   1.082400   2.150339   3.415780   3.886277
    18  H    3.399920   2.151240   1.082449   3.893942   3.411291
    19  H    3.877367   3.391759   2.141375   3.421036   2.170290
    20  H    5.382161   6.200722   5.905556   3.973987   3.495157
    21  H    4.827816   6.195730   6.885569   4.135891   5.119561
    22  H    6.323647   7.645212   8.143751   5.402718   6.094524
    23  H    6.016842   7.392369   8.004825   5.197029   6.045797
    24  H    6.541393   7.588030   7.534262   5.197456   5.122966
    25  H    6.973476   8.193376   8.413476   5.794963   6.109556
    26  H    7.119519   8.289518   8.406404   5.863865   6.032692
                    6          7          8          9         10
     6  C    0.000000
     7  C    3.795319   0.000000
     8  C    4.373581   1.513828   0.000000
     9  C    3.852502   2.453553   1.362795   0.000000
    10  C    2.510081   2.855689   2.496683   1.477833   0.000000
    11  O    4.758222   1.221789   2.384552   3.566932   4.073910
    12  O    2.826932   4.078606   3.580542   2.333240   1.223343
    13  N    5.833608   2.608938   1.460361   2.450715   3.833309
    14  C    6.747047   3.109287   2.569295   3.777013   5.045976
    15  C    6.738308   3.937206   2.566383   2.973407   4.441777
    16  H    3.877127   2.753964   4.259173   4.940500   4.649940
    17  H    3.397718   4.674745   6.012363   6.227529   5.360147
    18  H    2.152223   5.382741   6.291871   5.956534   4.659826
    19  H    1.083153   4.671392   4.998991   4.213325   2.744551
    20  H    4.669681   3.465058   2.142955   1.078830   2.163525
    21  H    6.431552   2.737567   2.734180   4.036500   5.088756
    22  H    7.465447   3.992887   3.307079   4.337597   5.657217
    23  H    7.422044   3.711976   3.270222   4.480828   5.754596
    24  H    6.415977   4.190943   2.729100   2.629223   3.996663
    25  H    7.480452   4.494898   3.304376   3.849704   5.272230
    26  H    7.388163   4.638382   3.268523   3.594077   5.052677
                   11         12         13         14         15
    11  O    0.000000
    12  O    5.296321   0.000000
    13  N    2.936682   4.783717   0.000000
    14  C    2.866971   6.086216   1.459411   0.000000
    15  C    4.346670   5.123714   1.460748   2.445969   0.000000
    16  H    2.527936   5.726917   5.272201   5.342212   6.653758
    17  H    4.853485   6.081687   7.278386   7.603559   8.554630
    18  H    6.057715   4.890245   7.733435   8.456842   8.763026
    19  H    5.717541   2.564350   6.436626   7.478874   7.172726
    20  H    4.502457   2.527310   2.701469   4.115949   2.673748
    21  H    2.225730   6.218427   2.163778   1.098244   3.423242
    22  H    3.822383   6.608898   2.107312   1.110566   2.669069
    23  H    3.266913   6.793858   2.112554   1.111567   2.744068
    24  H    4.831349   4.471871   2.167901   3.428611   1.101677
    25  H    4.693694   5.974765   2.109821   2.686997   1.110350
    26  H    5.023205   5.652098   2.113215   2.728353   1.111725
                   16         17         18         19         20
    16  H    0.000000
    17  H    2.458893   0.000000
    18  H    4.281279   2.475553   0.000000
    19  H    4.960000   4.281702   2.461451   0.000000
    20  H    6.015394   7.265088   6.814381   4.839565   0.000000
    21  H    4.553710   6.876612   7.955814   7.262505   4.594210
    22  H    6.196591   8.418471   9.210442   8.141509   4.490674
    23  H    5.777703   8.114323   9.086451   8.175357   4.786983
    24  H    6.924505   8.595693   8.510713   6.707475   2.047892
    25  H    7.095939   9.102326   9.451121   7.954627   3.611790
    26  H    7.331015   9.240988   9.426056   7.783689   3.145829
                   21         22         23         24         25
    21  H    0.000000
    22  H    1.747704   0.000000
    23  H    1.804110   1.803578   0.000000
    24  H    4.309139   3.717242   3.736215   0.000000
    25  H    3.738135   2.985608   2.512827   1.759383   0.000000
    26  H    3.704900   2.475595   3.163176   1.796751   1.804508
                   26
    26  H    0.000000
 Symmetry turned off by external request.
 Stoichiometry    C12H11NO2(1-,2)
 Framework group  C1[X(C12H11NO2)]
 Deg. of freedom    72
 Full point group                 C1      NOp   1
 Rotational constants (GHZ):           1.1501670           0.4382172           0.3208600
 Leave Link  202 at Tue Dec 26 20:02:25 2023, MaxMem=  4026531840 cpu:               0.4 elap:               0.1
 (Enter /sysapps/ubuntu-applications/gaussian/Gaussian/AVX2/g16/l301.exe)
 Standard basis: 6-311++G(d,p) (5D, 7F)
 Ernie: Thresh=  0.10000D-02 Tol=  0.10000D-05 Strict=F.
   407 basis functions,   639 primitive gaussians,   422 cartesian basis functions
    54 alpha electrons       53 beta electrons
       nuclear repulsion energy       931.3625315812 Hartrees.
 IExCor=  402 DFT=T Ex+Corr=B3LYP ExCW=0 ScaHFX=  0.200000
 ScaDFX=  0.800000  0.720000  1.000000  0.810000 ScalE2=  1.000000  1.000000
 IRadAn=      5 IRanWt=     -1 IRanGd=            0 ICorTp=0 IEmpDi=  4
 NAtoms=   26 NActive=   26 NUniq=   26 SFac= 1.00D+00 NAtFMM=   60 NAOKFM=F Big=F
 Integral buffers will be    131072 words long.
 Raffenetti 2 integral format.
 Two-electron integral symmetry is turned off.
 Leave Link  301 at Tue Dec 26 20:02:25 2023, MaxMem=  4026531840 cpu:               0.4 elap:               0.1
 (Enter /sysapps/ubuntu-applications/gaussian/Gaussian/AVX2/g16/l302.exe)
 NPDir=0 NMtPBC=     1 NCelOv=     1 NCel=       1 NClECP=     1 NCelD=      1
         NCelK=      1 NCelE2=     1 NClLst=     1 CellRange=     0.0.
 One-electron integrals computed using PRISM.
 NBasis=   407 RedAO= T EigKep=  1.32D-06  NBF=   407
 NBsUse=   404 1.00D-06 EigRej=  8.17D-07 NBFU=   404
 Precomputing XC quadrature grid using
 IXCGrd= 4 IRadAn=           5 IRanWt=          -1 IRanGd=           0 AccXCQ= 0.00D+00.
 Generated NRdTot=       0 NPtTot=           0 NUsed=           0 NTot=          32
 NSgBfM=   422   422   422   422   422 MxSgAt=    26 MxSgA2=    26.
 Leave Link  302 at Tue Dec 26 20:02:26 2023, MaxMem=  4026531840 cpu:               4.8 elap:               0.7
 (Enter /sysapps/ubuntu-applications/gaussian/Gaussian/AVX2/g16/l303.exe)
 DipDrv:  MaxL=1.
 Leave Link  303 at Tue Dec 26 20:02:26 2023, MaxMem=  4026531840 cpu:               1.7 elap:               0.4
 (Enter /sysapps/ubuntu-applications/gaussian/Gaussian/AVX2/g16/l401.exe)
 ExpMin= 3.60D-02 ExpMax= 8.59D+03 ExpMxC= 1.30D+03 IAcc=3 IRadAn=         5 AccDes= 0.00D+00
 Harris functional with IExCor=  402 and IRadAn=       5 diagonalized for initial guess.
 HarFok:  IExCor=  402 AccDes= 0.00D+00 IRadAn=         5 IDoV= 1 UseB2=F ITyADJ=14
 ICtDFT=  3500011 ScaDFX=  1.000000  1.000000  1.000000  1.000000
 FoFCou: FMM=F IPFlag=           0 FMFlag=      100000 FMFlg1=           0
         NFxFlg=           0 DoJE=T BraDBF=F KetDBF=T FulRan=T
         wScrn=  0.000000 ICntrl=       500 IOpCl=  0 I1Cent=   200000004 NGrid=           0
         NMat0=    1 NMatS0=      1 NMatT0=    0 NMatD0=    1 NMtDS0=    0 NMtDT0=    0
 Symmetry not used in FoFCou.
 Harris En= -669.493953292315    
 JPrj=0 DoOrth=F DoCkMO=F.
 Initial guess <Sx>= 0.0000 <Sy>= 0.0000 <Sz>= 0.5000 <S**2>= 0.7500 S= 0.5000
 Leave Link  401 at Tue Dec 26 20:02:34 2023, MaxMem=  4026531840 cpu:              58.6 elap:               7.6
 (Enter /sysapps/ubuntu-applications/gaussian/Gaussian/AVX2/g16/l502.exe)
 Two-electron integral symmetry not used.
 UHF open shell SCF:
 Using DIIS extrapolation, IDIIS=  1040.
 NGot=  4026531840 LenX=  4026169208 LenY=  4025990683
 Requested convergence on RMS density matrix=1.00D-08 within 128 cycles.
 Requested convergence on MAX density matrix=1.00D-06.
 Requested convergence on             energy=1.00D-06.
 No special actions if energy rises.
 Fock matrices will be formed incrementally for  20 cycles.

 Cycle   1  Pass 1  IDiag  1:
 FoFJK:  IHMeth= 1 ICntrl=       0 DoSepK=F KAlg= 0 I1Cent=           0 FoldK=F
 IRaf= 870000000 NMat=       1 IRICut=       1 DoRegI=T DoRafI=F ISym2E= 0 IDoP0=0 IntGTp=1.
 FoFCou: FMM=F IPFlag=           0 FMFlag=      100000 FMFlg1=           0
         NFxFlg=           0 DoJE=F BraDBF=F KetDBF=F FulRan=T
         wScrn=  0.000000 ICntrl=         0 IOpCl=  1 I1Cent=           0 NGrid=           0
         NMat0=    1 NMatS0=      1 NMatT0=    0 NMatD0=    1 NMtDS0=    0 NMtDT0=    0
 Symmetry not used in FoFCou.
 E= -668.840728391622    
 DIIS: error= 4.20D-02 at cycle   1 NSaved=   1.
 NSaved= 1 IEnMin= 1 EnMin= -668.840728391622     IErMin= 1 ErrMin= 4.20D-02
 ErrMax= 4.20D-02  0.00D+00 EMaxC= 1.00D-01 BMatC= 2.11D+00 BMatP= 2.11D+00
 IDIUse=3 WtCom= 5.80D-01 WtEn= 4.20D-01
 Coeff-Com:  0.100D+01
 Coeff-En:   0.100D+01
 Coeff:      0.100D+01
 Gap=     0.109 Goal=   None    Shift=    0.000
 Gap=     0.171 Goal=   None    Shift=    0.000
 GapD=    0.109 DampG=1.000 DampE=0.500 DampFc=0.5000 IDamp=-1.
 Damping current iteration by 5.00D-01
 RMSDP=7.31D-01 MaxDP=1.09D+02              OVMax= 9.92D-01

 Cycle   2  Pass 1  IDiag  1:
 RMSU=  3.44D-01    CP:  2.77D+00
 E= -668.400553038174     Delta-E=        0.440175353447 Rises=F Damp=T
 DIIS: error= 3.28D-02 at cycle   2 NSaved=   2.
 NSaved= 2 IEnMin= 1 EnMin= -668.840728391622     IErMin= 2 ErrMin= 3.28D-02
 ErrMax= 3.28D-02  0.00D+00 EMaxC= 1.00D-01 BMatC= 1.02D+00 BMatP= 2.11D+00
 IDIUse=3 WtCom= 6.72D-01 WtEn= 3.28D-01
 Coeff-Com:  0.377D+00 0.623D+00
 Coeff-En:   0.709D+00 0.291D+00
 Coeff:      0.486D+00 0.514D+00
 Gap=     0.017 Goal=   None    Shift=    0.000
 Gap=     0.142 Goal=   None    Shift=    0.000
 RMSDP=3.62D-01 MaxDP=5.17D+01 DE= 4.40D-01 OVMax= 7.10D-01

 Cycle   3  Pass 1  IDiag  1:
 RMSU=  1.51D-02    CP:  1.12D+00  3.39D-03
 E= -668.929853508098     Delta-E=       -0.529300469923 Rises=F Damp=F
 DIIS: error= 4.75D-02 at cycle   3 NSaved=   3.
 NSaved= 3 IEnMin= 3 EnMin= -668.929853508098     IErMin= 2 ErrMin= 3.28D-02
 ErrMax= 4.75D-02  0.00D+00 EMaxC= 1.00D-01 BMatC= 1.39D+00 BMatP= 1.02D+00
 IDIUse=2 WtCom= 0.00D+00 WtEn= 1.00D+00
 EnCoef did     3 forward-backward iterations
 Coeff-En:   0.269D+00 0.209D+00 0.522D+00
 Coeff:      0.269D+00 0.209D+00 0.522D+00
 Gap=     0.098 Goal=   None    Shift=    0.000
 Gap=     0.162 Goal=   None    Shift=    0.000
 RMSDP=3.70D-02 MaxDP=4.55D+00 DE=-5.29D-01 OVMax= 6.73D-01

 Cycle   4  Pass 1  IDiag  1:
 RMSU=  3.56D-02    CP:  1.12D+00 -4.02D-03  3.54D-01
 E= -668.941669245928     Delta-E=       -0.011815737830 Rises=F Damp=F
 DIIS: error= 5.13D-02 at cycle   4 NSaved=   4.
 NSaved= 4 IEnMin= 4 EnMin= -668.941669245928     IErMin= 2 ErrMin= 3.28D-02
 ErrMax= 5.13D-02  0.00D+00 EMaxC= 1.00D-01 BMatC= 1.50D+00 BMatP= 1.02D+00
 IDIUse=2 WtCom= 0.00D+00 WtEn= 1.00D+00
 Coeff-En:   0.000D+00 0.000D+00 0.494D+00 0.506D+00
 Coeff:      0.000D+00 0.000D+00 0.494D+00 0.506D+00
 Gap=     0.171 Goal=   None    Shift=    0.000
 Gap=     0.169 Goal=   None    Shift=    0.000
 RMSDP=3.44D-02 MaxDP=6.69D+00 DE=-1.18D-02 OVMax= 3.74D-01

 Cycle   5  Pass 1  IDiag  1:
 RMSU=  1.57D-02    CP:  1.05D+00 -1.98D-03  1.37D-01  1.55D-01
 E= -669.274504985360     Delta-E=       -0.332835739432 Rises=F Damp=F
 DIIS: error= 1.02D-02 at cycle   5 NSaved=   5.
 NSaved= 5 IEnMin= 5 EnMin= -669.274504985360     IErMin= 5 ErrMin= 1.02D-02
 ErrMax= 1.02D-02  0.00D+00 EMaxC= 1.00D-01 BMatC= 1.51D-01 BMatP= 1.02D+00
 IDIUse=3 WtCom= 8.98D-01 WtEn= 1.02D-01
 Coeff-Com:  0.245D-02 0.844D-01 0.210D+00 0.208D+00 0.495D+00
 Coeff-En:   0.000D+00 0.000D+00 0.000D+00 0.396D-01 0.960D+00
 Coeff:      0.220D-02 0.758D-01 0.188D+00 0.191D+00 0.542D+00
 Gap=     0.083 Goal=   None    Shift=    0.000
 Gap=     0.128 Goal=   None    Shift=    0.000
 RMSDP=1.05D-02 MaxDP=5.52D-01 DE=-3.33D-01 OVMax= 1.04D-01

 Cycle   6  Pass 1  IDiag  1:
 RMSU=  4.78D-03    CP:  1.01D+00 -2.07D-03  3.84D-01  1.56D-01  4.80D-01
 E= -669.298392079034     Delta-E=       -0.023887093674 Rises=F Damp=F
 DIIS: error= 6.43D-03 at cycle   6 NSaved=   6.
 NSaved= 6 IEnMin= 6 EnMin= -669.298392079034     IErMin= 6 ErrMin= 6.43D-03
 ErrMax= 6.43D-03  0.00D+00 EMaxC= 1.00D-01 BMatC= 3.63D-02 BMatP= 1.51D-01
 IDIUse=3 WtCom= 9.36D-01 WtEn= 6.43D-02
 Coeff-Com: -0.468D-01 0.477D-01-0.917D-02 0.212D-01 0.385D+00 0.602D+00
 Coeff-En:   0.000D+00 0.000D+00 0.000D+00 0.000D+00 0.212D+00 0.788D+00
 Coeff:     -0.438D-01 0.446D-01-0.858D-02 0.198D-01 0.374D+00 0.614D+00
 Gap=     0.073 Goal=   None    Shift=    0.000
 Gap=     0.134 Goal=   None    Shift=    0.000
 RMSDP=4.03D-03 MaxDP=2.18D-01 DE=-2.39D-02 OVMax= 6.21D-02

 Cycle   7  Pass 1  IDiag  1:
 RMSU=  1.54D-03    CP:  1.03D+00 -2.40D-03  3.27D-01  1.60D-01  6.68D-01
                    CP:  6.33D-01
 E= -669.306714408537     Delta-E=       -0.008322329503 Rises=F Damp=F
 DIIS: error= 3.66D-03 at cycle   7 NSaved=   7.
 NSaved= 7 IEnMin= 7 EnMin= -669.306714408537     IErMin= 7 ErrMin= 3.66D-03
 ErrMax= 3.66D-03  0.00D+00 EMaxC= 1.00D-01 BMatC= 6.49D-03 BMatP= 3.63D-02
 IDIUse=3 WtCom= 9.63D-01 WtEn= 3.66D-02
 Coeff-Com: -0.303D-01 0.283D-01-0.250D-01 0.788D-02 0.199D+00 0.388D+00
 Coeff-Com:  0.432D+00
 Coeff-En:   0.000D+00 0.000D+00 0.000D+00 0.000D+00 0.000D+00 0.712D-01
 Coeff-En:   0.929D+00
 Coeff:     -0.292D-01 0.273D-01-0.241D-01 0.759D-02 0.192D+00 0.376D+00
 Coeff:      0.450D+00
 Gap=     0.071 Goal=   None    Shift=    0.000
 Gap=     0.137 Goal=   None    Shift=    0.000
 RMSDP=7.67D-04 MaxDP=5.72D-02 DE=-8.32D-03 OVMax= 2.51D-02

 Cycle   8  Pass 1  IDiag  1:
 RMSU=  3.74D-04    CP:  1.03D+00 -2.44D-03  3.07D-01  1.67D-01  6.82D-01
                    CP:  6.88D-01  7.77D-01
 E= -669.308535624041     Delta-E=       -0.001821215503 Rises=F Damp=F
 DIIS: error= 1.28D-03 at cycle   8 NSaved=   8.
 NSaved= 8 IEnMin= 8 EnMin= -669.308535624041     IErMin= 8 ErrMin= 1.28D-03
 ErrMax= 1.28D-03  0.00D+00 EMaxC= 1.00D-01 BMatC= 9.10D-04 BMatP= 6.49D-03
 IDIUse=3 WtCom= 9.87D-01 WtEn= 1.28D-02
 Coeff-Com: -0.553D-02 0.721D-02-0.134D-01 0.627D-02 0.817D-03 0.121D-01
 Coeff-Com:  0.158D+00 0.835D+00
 Coeff-En:   0.000D+00 0.000D+00 0.000D+00 0.000D+00 0.000D+00 0.000D+00
 Coeff-En:   0.000D+00 0.100D+01
 Coeff:     -0.546D-02 0.712D-02-0.132D-01 0.619D-02 0.806D-03 0.120D-01
 Coeff:      0.156D+00 0.837D+00
 Gap=     0.069 Goal=   None    Shift=    0.000
 Gap=     0.138 Goal=   None    Shift=    0.000
 RMSDP=9.67D-04 MaxDP=7.63D-02 DE=-1.82D-03 OVMax= 1.29D-02

 Cycle   9  Pass 1  IDiag  1:
 RMSU=  2.29D-04    CP:  1.03D+00 -2.46D-03  2.89D-01  1.79D-01  7.29D-01
                    CP:  6.84D-01  7.55D-01  1.56D+00
 E= -669.308829858583     Delta-E=       -0.000294234542 Rises=F Damp=F
 DIIS: error= 5.22D-04 at cycle   9 NSaved=   9.
 NSaved= 9 IEnMin= 9 EnMin= -669.308829858583     IErMin= 9 ErrMin= 5.22D-04
 ErrMax= 5.22D-04  0.00D+00 EMaxC= 1.00D-01 BMatC= 9.66D-05 BMatP= 9.10D-04
 IDIUse=3 WtCom= 9.95D-01 WtEn= 5.22D-03
 Coeff-Com:  0.120D-02 0.172D-02-0.378D-02 0.145D-02-0.297D-01-0.600D-01
 Coeff-Com:  0.450D-02 0.439D+00 0.646D+00
 Coeff-En:   0.000D+00 0.000D+00 0.000D+00 0.000D+00 0.000D+00 0.000D+00
 Coeff-En:   0.000D+00 0.000D+00 0.100D+01
 Coeff:      0.120D-02 0.171D-02-0.376D-02 0.144D-02-0.295D-01-0.597D-01
 Coeff:      0.447D-02 0.437D+00 0.648D+00
 Gap=     0.069 Goal=   None    Shift=    0.000
 Gap=     0.139 Goal=   None    Shift=    0.000
 RMSDP=2.24D-04 MaxDP=1.70D-02 DE=-2.94D-04 OVMax= 3.13D-03

 Cycle  10  Pass 1  IDiag  1:
 RMSU=  1.14D-04    CP:  1.03D+00 -2.49D-03  2.88D-01  1.79D-01  7.34D-01
                    CP:  6.86D-01  8.20D-01  1.69D+00  9.58D-01
 E= -669.308859051357     Delta-E=       -0.000029192774 Rises=F Damp=F
 DIIS: error= 1.94D-04 at cycle  10 NSaved=  10.
 NSaved=10 IEnMin=10 EnMin= -669.308859051357     IErMin=10 ErrMin= 1.94D-04
 ErrMax= 1.94D-04  0.00D+00 EMaxC= 1.00D-01 BMatC= 2.12D-05 BMatP= 9.66D-05
 IDIUse=3 WtCom= 9.98D-01 WtEn= 1.94D-03
 Coeff-Com:  0.140D-02-0.820D-03 0.101D-02-0.228D-03-0.121D-01-0.321D-01
 Coeff-Com: -0.316D-01 0.326D-01 0.377D+00 0.665D+00
 Coeff-En:   0.000D+00 0.000D+00 0.000D+00 0.000D+00 0.000D+00 0.000D+00
 Coeff-En:   0.000D+00 0.000D+00 0.000D+00 0.100D+01
 Coeff:      0.140D-02-0.818D-03 0.101D-02-0.227D-03-0.121D-01-0.320D-01
 Coeff:     -0.315D-01 0.325D-01 0.376D+00 0.666D+00
 Gap=     0.069 Goal=   None    Shift=    0.000
 Gap=     0.139 Goal=   None    Shift=    0.000
 RMSDP=1.23D-04 MaxDP=7.71D-03 DE=-2.92D-05 OVMax= 2.48D-03

 Cycle  11  Pass 1  IDiag  1:
 RMSU=  4.78D-05    CP:  1.03D+00 -2.47D-03  2.87D-01  1.79D-01  7.39D-01
                    CP:  6.76D-01  8.32D-01  1.79D+00  1.05D+00  1.03D+00
 E= -669.308867142865     Delta-E=       -0.000008091509 Rises=F Damp=F
 DIIS: error= 7.57D-05 at cycle  11 NSaved=  11.
 NSaved=11 IEnMin=11 EnMin= -669.308867142865     IErMin=11 ErrMin= 7.57D-05
 ErrMax= 7.57D-05  0.00D+00 EMaxC= 1.00D-01 BMatC= 5.46D-06 BMatP= 2.12D-05
 IDIUse=1 WtCom= 1.00D+00 WtEn= 0.00D+00
 Coeff-Com:  0.342D-03-0.342D-03 0.134D-02-0.993D-03 0.167D-02-0.362D-03
 Coeff-Com: -0.104D-01-0.581D-01 0.177D-01 0.222D+00 0.827D+00
 Coeff:      0.342D-03-0.342D-03 0.134D-02-0.993D-03 0.167D-02-0.362D-03
 Coeff:     -0.104D-01-0.581D-01 0.177D-01 0.222D+00 0.827D+00
 Gap=     0.069 Goal=   None    Shift=    0.000
 Gap=     0.138 Goal=   None    Shift=    0.000
 RMSDP=5.77D-05 MaxDP=7.54D-03 DE=-8.09D-06 OVMax= 9.43D-04

 Cycle  12  Pass 1  IDiag  1:
 RMSU=  2.83D-05    CP:  1.03D+00 -2.45D-03  2.87D-01  1.78D-01  7.38D-01
                    CP:  6.73D-01  8.37D-01  1.79D+00  1.03D+00  1.14D+00
                    CP:  1.23D+00
 E= -669.308869330024     Delta-E=       -0.000002187158 Rises=F Damp=F
 DIIS: error= 5.43D-05 at cycle  12 NSaved=  12.
 NSaved=12 IEnMin=12 EnMin= -669.308869330024     IErMin=12 ErrMin= 5.43D-05
 ErrMax= 5.43D-05  0.00D+00 EMaxC= 1.00D-01 BMatC= 2.21D-06 BMatP= 5.46D-06
 IDIUse=1 WtCom= 1.00D+00 WtEn= 0.00D+00
 Coeff-Com: -0.165D-03-0.459D-05 0.718D-03-0.627D-03 0.460D-02 0.885D-02
 Coeff-Com:  0.403D-02-0.380D-01-0.107D+00-0.887D-01 0.532D+00 0.685D+00
 Coeff:     -0.165D-03-0.459D-05 0.718D-03-0.627D-03 0.460D-02 0.885D-02
 Coeff:      0.403D-02-0.380D-01-0.107D+00-0.887D-01 0.532D+00 0.685D+00
 Gap=     0.069 Goal=   None    Shift=    0.000
 Gap=     0.139 Goal=   None    Shift=    0.000
 RMSDP=3.05D-05 MaxDP=5.36D-03 DE=-2.19D-06 OVMax= 5.64D-04

 Cycle  13  Pass 1  IDiag  1:
 RMSU=  1.83D-05    CP:  1.03D+00 -2.44D-03  2.87D-01  1.77D-01  7.38D-01
                    CP:  6.72D-01  8.34D-01  1.80D+00  1.03D+00  1.15D+00
                    CP:  1.43D+00  1.17D+00
 E= -669.308870183650     Delta-E=       -0.000000853627 Rises=F Damp=F
 DIIS: error= 1.61D-05 at cycle  13 NSaved=  13.
 NSaved=13 IEnMin=13 EnMin= -669.308870183650     IErMin=13 ErrMin= 1.61D-05
 ErrMax= 1.61D-05  0.00D+00 EMaxC= 1.00D-01 BMatC= 2.42D-07 BMatP= 2.21D-06
 IDIUse=1 WtCom= 1.00D+00 WtEn= 0.00D+00
 Coeff-Com: -0.991D-04 0.286D-04 0.138D-03-0.190D-03 0.126D-02 0.290D-02
 Coeff-Com:  0.312D-02-0.569D-02-0.509D-01-0.824D-01 0.564D-01 0.293D+00
 Coeff-Com:  0.783D+00
 Coeff:     -0.991D-04 0.286D-04 0.138D-03-0.190D-03 0.126D-02 0.290D-02
 Coeff:      0.312D-02-0.569D-02-0.509D-01-0.824D-01 0.564D-01 0.293D+00
 Coeff:      0.783D+00
 Gap=     0.069 Goal=   None    Shift=    0.000
 Gap=     0.139 Goal=   None    Shift=    0.000
 RMSDP=2.19D-05 MaxDP=1.47D-03 DE=-8.54D-07 OVMax= 2.92D-04

 Cycle  14  Pass 1  IDiag  1:
 RMSU=  4.96D-06    CP:  1.03D+00 -2.44D-03  2.87D-01  1.77D-01  7.39D-01
                    CP:  6.71D-01  8.39D-01  1.81D+00  1.03D+00  1.21D+00
                    CP:  1.57D+00  1.24D+00  8.11D-01
 E= -669.308870317057     Delta-E=       -0.000000133407 Rises=F Damp=F
 DIIS: error= 8.18D-06 at cycle  14 NSaved=  14.
 NSaved=14 IEnMin=14 EnMin= -669.308870317057     IErMin=14 ErrMin= 8.18D-06
 ErrMax= 8.18D-06  0.00D+00 EMaxC= 1.00D-01 BMatC= 8.03D-08 BMatP= 2.42D-07
 IDIUse=1 WtCom= 1.00D+00 WtEn= 0.00D+00
 Coeff-Com: -0.459D-04 0.730D-04-0.133D-04-0.273D-04 0.107D-03 0.413D-03
 Coeff-Com:  0.150D-02 0.272D-02-0.137D-01-0.334D-01-0.444D-01 0.697D-01
 Coeff-Com:  0.456D+00 0.561D+00
 Coeff:     -0.459D-04 0.730D-04-0.133D-04-0.273D-04 0.107D-03 0.413D-03
 Coeff:      0.150D-02 0.272D-02-0.137D-01-0.334D-01-0.444D-01 0.697D-01
 Coeff:      0.456D+00 0.561D+00
 Gap=     0.069 Goal=   None    Shift=    0.000
 Gap=     0.139 Goal=   None    Shift=    0.000
 RMSDP=9.10D-06 MaxDP=6.33D-04 DE=-1.33D-07 OVMax= 8.80D-05

 Cycle  15  Pass 1  IDiag  1:
 RMSU=  2.32D-06    CP:  1.03D+00 -2.44D-03  2.87D-01  1.77D-01  7.39D-01
                    CP:  6.72D-01  8.37D-01  1.80D+00  1.03D+00  1.20D+00
                    CP:  1.56D+00  1.24D+00  1.05D+00  9.57D-01
 E= -669.308870345015     Delta-E=       -0.000000027957 Rises=F Damp=F
 DIIS: error= 5.61D-06 at cycle  15 NSaved=  15.
 NSaved=15 IEnMin=15 EnMin= -669.308870345015     IErMin=15 ErrMin= 5.61D-06
 ErrMax= 5.61D-06  0.00D+00 EMaxC= 1.00D-01 BMatC= 1.85D-08 BMatP= 8.03D-08
 IDIUse=1 WtCom= 1.00D+00 WtEn= 0.00D+00
 Coeff-Com:  0.924D-05 0.643D-05-0.504D-04 0.523D-04-0.347D-03-0.733D-03
 Coeff-Com: -0.474D-03 0.109D-02 0.913D-02 0.147D-01-0.313D-01-0.600D-01
 Coeff-Com: -0.672D-01 0.249D+00 0.886D+00
 Coeff:      0.924D-05 0.643D-05-0.504D-04 0.523D-04-0.347D-03-0.733D-03
 Coeff:     -0.474D-03 0.109D-02 0.913D-02 0.147D-01-0.313D-01-0.600D-01
 Coeff:     -0.672D-01 0.249D+00 0.886D+00
 Gap=     0.069 Goal=   None    Shift=    0.000
 Gap=     0.139 Goal=   None    Shift=    0.000
 RMSDP=3.88D-06 MaxDP=1.92D-04 DE=-2.80D-08 OVMax= 8.71D-05

 Cycle  16  Pass 1  IDiag  1:
 RMSU=  1.22D-06    CP:  1.03D+00 -2.44D-03  2.87D-01  1.77D-01  7.39D-01
                    CP:  6.71D-01  8.37D-01  1.80D+00  1.03D+00  1.20D+00
                    CP:  1.56D+00  1.26D+00  9.96D-01  1.05D+00  1.18D+00
 E= -669.308870359035     Delta-E=       -0.000000014021 Rises=F Damp=F
 DIIS: error= 2.79D-06 at cycle  16 NSaved=  16.
 NSaved=16 IEnMin=16 EnMin= -669.308870359035     IErMin=16 ErrMin= 2.79D-06
 ErrMax= 2.79D-06  0.00D+00 EMaxC= 1.00D-01 BMatC= 3.27D-09 BMatP= 1.85D-08
 IDIUse=1 WtCom= 1.00D+00 WtEn= 0.00D+00
 Coeff-Com:  0.692D-05-0.410D-05-0.208D-04 0.309D-04-0.965D-04-0.250D-03
 Coeff-Com: -0.399D-03-0.671D-04 0.576D-02 0.113D-01-0.819D-06-0.336D-01
 Coeff-Com: -0.126D+00-0.826D-01 0.280D+00 0.946D+00
 Coeff:      0.692D-05-0.410D-05-0.208D-04 0.309D-04-0.965D-04-0.250D-03
 Coeff:     -0.399D-03-0.671D-04 0.576D-02 0.113D-01-0.819D-06-0.336D-01
 Coeff:     -0.126D+00-0.826D-01 0.280D+00 0.946D+00
 Gap=     0.069 Goal=   None    Shift=    0.000
 Gap=     0.139 Goal=   None    Shift=    0.000
 RMSDP=1.65D-06 MaxDP=1.31D-04 DE=-1.40D-08 OVMax= 5.63D-05

 Cycle  17  Pass 1  IDiag  1:
 RMSU=  6.97D-07    CP:  1.03D+00 -2.44D-03  2.87D-01  1.77D-01  7.39D-01
                    CP:  6.71D-01  8.37D-01  1.80D+00  1.03D+00  1.21D+00
                    CP:  1.57D+00  1.26D+00  1.01D+00  1.12D+00  1.49D+00
                    CP:  1.32D+00
 E= -669.308870362868     Delta-E=       -0.000000003833 Rises=F Damp=F
 DIIS: error= 1.78D-06 at cycle  17 NSaved=  17.
 NSaved=17 IEnMin=17 EnMin= -669.308870362868     IErMin=17 ErrMin= 1.78D-06
 ErrMax= 1.78D-06  0.00D+00 EMaxC= 1.00D-01 BMatC= 1.75D-09 BMatP= 3.27D-09
 IDIUse=1 WtCom= 1.00D+00 WtEn= 0.00D+00
 Coeff-Com:  0.130D-05-0.396D-05 0.286D-05-0.529D-06 0.392D-04 0.413D-04
 Coeff-Com: -0.125D-03-0.391D-03 0.118D-02 0.334D-02 0.919D-02-0.499D-02
 Coeff-Com: -0.619D-01-0.141D+00-0.795D-01 0.588D+00 0.686D+00
 Coeff:      0.130D-05-0.396D-05 0.286D-05-0.529D-06 0.392D-04 0.413D-04
 Coeff:     -0.125D-03-0.391D-03 0.118D-02 0.334D-02 0.919D-02-0.499D-02
 Coeff:     -0.619D-01-0.141D+00-0.795D-01 0.588D+00 0.686D+00
 Gap=     0.069 Goal=   None    Shift=    0.000
 Gap=     0.139 Goal=   None    Shift=    0.000
 RMSDP=8.24D-07 MaxDP=7.08D-05 DE=-3.83D-09 OVMax= 3.68D-05

 Cycle  18  Pass 1  IDiag  1:
 RMSU=  3.59D-07    CP:  1.03D+00 -2.44D-03  2.87D-01  1.77D-01  7.39D-01
                    CP:  6.72D-01  8.37D-01  1.80D+00  1.03D+00  1.21D+00
                    CP:  1.57D+00  1.25D+00  1.01D+00  1.15D+00  1.64D+00
                    CP:  1.50D+00  1.15D+00
 E= -669.308870364018     Delta-E=       -0.000000001150 Rises=F Damp=F
 DIIS: error= 7.44D-07 at cycle  18 NSaved=  18.
 NSaved=18 IEnMin=18 EnMin= -669.308870364018     IErMin=18 ErrMin= 7.44D-07
 ErrMax= 7.44D-07  0.00D+00 EMaxC= 1.00D-01 BMatC= 3.88D-10 BMatP= 1.75D-09
 IDIUse=1 WtCom= 1.00D+00 WtEn= 0.00D+00
 Coeff-Com: -0.172D-05-0.422D-06 0.648D-05-0.585D-05 0.382D-04 0.584D-04
 Coeff-Com:  0.426D-04-0.646D-04-0.419D-03-0.505D-03 0.380D-02 0.275D-02
 Coeff-Com: -0.568D-02-0.554D-01-0.788D-01 0.100D+00 0.340D+00 0.694D+00
 Coeff:     -0.172D-05-0.422D-06 0.648D-05-0.585D-05 0.382D-04 0.584D-04
 Coeff:      0.426D-04-0.646D-04-0.419D-03-0.505D-03 0.380D-02 0.275D-02
 Coeff:     -0.568D-02-0.554D-01-0.788D-01 0.100D+00 0.340D+00 0.694D+00
 Gap=     0.069 Goal=   None    Shift=    0.000
 Gap=     0.139 Goal=   None    Shift=    0.000
 RMSDP=4.71D-07 MaxDP=7.20D-05 DE=-1.15D-09 OVMax= 1.36D-05

 Cycle  19  Pass 1  IDiag  1:
 RMSU=  2.02D-07    CP:  1.03D+00 -2.44D-03  2.87D-01  1.77D-01  7.39D-01
                    CP:  6.72D-01  8.37D-01  1.80D+00  1.03D+00  1.21D+00
                    CP:  1.57D+00  1.26D+00  1.01D+00  1.15D+00  1.71D+00
                    CP:  1.55D+00  1.34D+00  9.35D-01
 E= -669.308870364195     Delta-E=       -0.000000000177 Rises=F Damp=F
 DIIS: error= 5.51D-07 at cycle  19 NSaved=  19.
 NSaved=19 IEnMin=19 EnMin= -669.308870364195     IErMin=19 ErrMin= 5.51D-07
 ErrMax= 5.51D-07  0.00D+00 EMaxC= 1.00D-01 BMatC= 1.42D-10 BMatP= 3.88D-10
 IDIUse=1 WtCom= 1.00D+00 WtEn= 0.00D+00
 Coeff-Com: -0.475D-06 0.462D-06 0.484D-05-0.583D-05 0.470D-05 0.733D-05
 Coeff-Com:  0.567D-04 0.641D-04-0.564D-03-0.116D-02-0.268D-03 0.294D-02
 Coeff-Com:  0.143D-01 0.380D-02-0.249D-01-0.116D+00 0.227D-01 0.469D+00
 Coeff-Com:  0.630D+00
 Coeff:     -0.475D-06 0.462D-06 0.484D-05-0.583D-05 0.470D-05 0.733D-05
 Coeff:      0.567D-04 0.641D-04-0.564D-03-0.116D-02-0.268D-03 0.294D-02
 Coeff:      0.143D-01 0.380D-02-0.249D-01-0.116D+00 0.227D-01 0.469D+00
 Coeff:      0.630D+00
 Gap=     0.069 Goal=   None    Shift=    0.000
 Gap=     0.139 Goal=   None    Shift=    0.000
 RMSDP=2.04D-07 MaxDP=2.09D-05 DE=-1.77D-10 OVMax= 7.98D-06

 Cycle  20  Pass 1  IDiag  1:
 RMSU=  9.02D-08    CP:  1.03D+00 -2.44D-03  2.87D-01  1.77D-01  7.39D-01
                    CP:  6.72D-01  8.37D-01  1.80D+00  1.03D+00  1.21D+00
                    CP:  1.57D+00  1.26D+00  1.02D+00  1.15D+00  1.73D+00
                    CP:  1.54D+00  1.40D+00  1.14D+00  1.19D+00
 E= -669.308870364260     Delta-E=       -0.000000000065 Rises=F Damp=F
 DIIS: error= 1.50D-07 at cycle  20 NSaved=  20.
 NSaved=20 IEnMin=20 EnMin= -669.308870364260     IErMin=20 ErrMin= 1.50D-07
 ErrMax= 1.50D-07  0.00D+00 EMaxC= 1.00D-01 BMatC= 8.42D-12 BMatP= 1.42D-10
 IDIUse=1 WtCom= 1.00D+00 WtEn= 0.00D+00
 Coeff-Com:  0.582D-06-0.602D-06 0.834D-07-0.460D-07-0.802D-05-0.100D-04
 Coeff-Com:  0.680D-05-0.101D-05-0.592D-04-0.213D-03-0.766D-03 0.247D-03
 Coeff-Com:  0.467D-02 0.147D-01 0.130D-01-0.535D-01-0.759D-01-0.601D-01
 Coeff-Com:  0.959D-01 0.106D+01
 Coeff:      0.582D-06-0.602D-06 0.834D-07-0.460D-07-0.802D-05-0.100D-04
 Coeff:      0.680D-05-0.101D-05-0.592D-04-0.213D-03-0.766D-03 0.247D-03
 Coeff:      0.467D-02 0.147D-01 0.130D-01-0.535D-01-0.759D-01-0.601D-01
 Coeff:      0.959D-01 0.106D+01
 Gap=     0.069 Goal=   None    Shift=    0.000
 Gap=     0.139 Goal=   None    Shift=    0.000
 RMSDP=1.22D-07 MaxDP=2.05D-05 DE=-6.46D-11 OVMax= 5.07D-06

 Cycle  21  Pass 1  IDiag  1:
 Restarting incremental Fock formation.
 E= -669.308870364269     Delta-E=       -0.000000000010 Rises=F Damp=F
 DIIS: error= 8.35D-08 at cycle  21 NSaved=  20.
 NSaved=20 IEnMin=20 EnMin= -669.308870364269     IErMin=20 ErrMin= 8.35D-08
 ErrMax= 8.35D-08  0.00D+00 EMaxC= 1.00D-01 BMatC= 4.01D-12 BMatP= 8.42D-12
 IDIUse=1 WtCom= 1.00D+00 WtEn= 0.00D+00
 Coeff-Com:  0.284D-06-0.760D-06 0.586D-06-0.370D-05-0.285D-05-0.112D-05
 Coeff-Com: -0.118D-04 0.524D-04 0.171D-04-0.347D-03-0.284D-03 0.729D-03
 Coeff-Com:  0.736D-02 0.105D-01-0.138D-01-0.414D-01-0.935D-01-0.477D-01
 Coeff-Com:  0.553D+00 0.625D+00
 Coeff:      0.284D-06-0.760D-06 0.586D-06-0.370D-05-0.285D-05-0.112D-05
 Coeff:     -0.118D-04 0.524D-04 0.171D-04-0.347D-03-0.284D-03 0.729D-03
 Coeff:      0.736D-02 0.105D-01-0.138D-01-0.414D-01-0.935D-01-0.477D-01
 Coeff:      0.553D+00 0.625D+00
 Gap=     0.069 Goal=   None    Shift=    0.000
 Gap=     0.139 Goal=   None    Shift=    0.000
 RMSDP=7.40D-08 MaxDP=5.14D-06 DE=-9.55D-12 OVMax= 1.15D-06

 Cycle  22  Pass 1  IDiag  1:
 RMSU=  7.16D-08    CP:  1.00D+00
 E= -669.308870364286     Delta-E=       -0.000000000017 Rises=F Damp=F
 DIIS: error= 2.84D-08 at cycle  22 NSaved=  20.
 NSaved=20 IEnMin=20 EnMin= -669.308870364286     IErMin=20 ErrMin= 2.84D-08
 ErrMax= 2.84D-08  0.00D+00 EMaxC= 1.00D-01 BMatC= 1.12D-12 BMatP= 4.01D-12
 IDIUse=1 WtCom= 1.00D+00 WtEn= 0.00D+00
 Coeff-Com: -0.480D-06 0.398D-06-0.566D-07 0.141D-05-0.348D-05-0.115D-04
 Coeff-Com:  0.409D-04 0.431D-04 0.649D-04-0.189D-03-0.670D-03-0.189D-03
 Coeff-Com:  0.189D-02 0.635D-02-0.104D-02-0.329D-01-0.581D-01 0.338D-02
 Coeff-Com:  0.331D+00 0.750D+00
 Coeff:     -0.480D-06 0.398D-06-0.566D-07 0.141D-05-0.348D-05-0.115D-04
 Coeff:      0.409D-04 0.431D-04 0.649D-04-0.189D-03-0.670D-03-0.189D-03
 Coeff:      0.189D-02 0.635D-02-0.104D-02-0.329D-01-0.581D-01 0.338D-02
 Coeff:      0.331D+00 0.750D+00
 Gap=     0.069 Goal=   None    Shift=    0.000
 Gap=     0.139 Goal=   None    Shift=    0.000
 RMSDP=2.67D-08 MaxDP=2.32D-06 DE=-1.71D-11 OVMax= 6.22D-07

 Cycle  23  Pass 1  IDiag  1:
 RMSU=  2.23D-08    CP:  1.00D+00  1.10D+00
 E= -669.308870364284     Delta-E=        0.000000000003 Rises=F Damp=F
 DIIS: error= 1.25D-08 at cycle  23 NSaved=  20.
 NSaved=20 IEnMin=19 EnMin= -669.308870364286     IErMin=20 ErrMin= 1.25D-08
 ErrMax= 1.25D-08  0.00D+00 EMaxC= 1.00D-01 BMatC= 1.70D-13 BMatP= 1.12D-12
 IDIUse=1 WtCom= 1.00D+00 WtEn= 0.00D+00
 Coeff-Com:  0.727D-07 0.215D-06 0.330D-06-0.232D-05-0.265D-05 0.101D-04
 Coeff-Com:  0.103D-04 0.885D-04-0.248D-04-0.229D-03-0.125D-02-0.122D-02
 Coeff-Com:  0.365D-02 0.643D-02 0.720D-02-0.824D-02-0.966D-01-0.151D-02
 Coeff-Com:  0.239D+00 0.852D+00
 Coeff:      0.727D-07 0.215D-06 0.330D-06-0.232D-05-0.265D-05 0.101D-04
 Coeff:      0.103D-04 0.885D-04-0.248D-04-0.229D-03-0.125D-02-0.122D-02
 Coeff:      0.365D-02 0.643D-02 0.720D-02-0.824D-02-0.966D-01-0.151D-02
 Coeff:      0.239D+00 0.852D+00
 Gap=     0.069 Goal=   None    Shift=    0.000
 Gap=     0.139 Goal=   None    Shift=    0.000
 RMSDP=1.46D-08 MaxDP=1.35D-06 DE= 2.73D-12 OVMax= 2.03D-07

 Cycle  24  Pass 1  IDiag  1:
 RMSU=  8.70D-09    CP:  1.00D+00  1.09D+00  1.50D+00
 E= -669.308870364280     Delta-E=        0.000000000004 Rises=F Damp=F
 DIIS: error= 5.76D-09 at cycle  24 NSaved=  20.
 NSaved=20 IEnMin=18 EnMin= -669.308870364286     IErMin=20 ErrMin= 5.76D-09
 ErrMax= 5.76D-09  0.00D+00 EMaxC= 1.00D-01 BMatC= 4.70D-14 BMatP= 1.70D-13
 IDIUse=1 WtCom= 1.00D+00 WtEn= 0.00D+00
 Coeff-Com: -0.797D-07-0.346D-06-0.104D-05 0.154D-05 0.498D-05 0.542D-05
 Coeff-Com:  0.287D-04-0.127D-04-0.829D-04-0.630D-03-0.856D-03 0.130D-02
 Coeff-Com:  0.344D-02 0.828D-02 0.446D-02-0.536D-01-0.539D-01 0.194D-01
 Coeff-Com:  0.511D+00 0.561D+00
 Coeff:     -0.797D-07-0.346D-06-0.104D-05 0.154D-05 0.498D-05 0.542D-05
 Coeff:      0.287D-04-0.127D-04-0.829D-04-0.630D-03-0.856D-03 0.130D-02
 Coeff:      0.344D-02 0.828D-02 0.446D-02-0.536D-01-0.539D-01 0.194D-01
 Coeff:      0.511D+00 0.561D+00
 Gap=     0.069 Goal=   None    Shift=    0.000
 Gap=     0.139 Goal=   None    Shift=    0.000
 RMSDP=3.71D-09 MaxDP=3.53D-07 DE= 3.87D-12 OVMax= 8.11D-08

 SCF Done:  E(UB3LYP) =  -669.308870364     A.U. after   24 cycles
            NFock= 24  Conv=0.37D-08     -V/T= 2.0043
 <Sx>= 0.0000 <Sy>= 0.0000 <Sz>= 0.5000 <S**2>= 0.7586 S= 0.5043
 <L.S>=  0.00000000000    
 KE= 6.664510694450D+02 PE=-3.439196351873D+03 EE= 1.172073880482D+03
 Annihilation of the first spin contaminant:
 S**2 before annihilation     0.7586,   after     0.7500
 Leave Link  502 at Tue Dec 26 20:10:17 2023, MaxMem=  4026531840 cpu:            3672.4 elap:             463.7
 (Enter /sysapps/ubuntu-applications/gaussian/Gaussian/AVX2/g16/l601.exe)
 Copying SCF densities to generalized density rwf, IOpCl= 1 IROHF=0.

 **********************************************************************

            Population analysis using the SCF density.

 **********************************************************************

 Alpha  occ. eigenvalues --  -18.93107 -18.92527 -14.20773 -10.09714 -10.08662
 Alpha  occ. eigenvalues --  -10.08045 -10.07954 -10.07952 -10.04707 -10.04490
 Alpha  occ. eigenvalues --  -10.04271 -10.04239 -10.03812 -10.03350 -10.01612
 Alpha  occ. eigenvalues --   -0.88019  -0.86987  -0.80239  -0.72477  -0.66166
 Alpha  occ. eigenvalues --   -0.61652  -0.61537  -0.59959  -0.54149  -0.50930
 Alpha  occ. eigenvalues --   -0.48684  -0.46061  -0.42589  -0.38614  -0.38052
 Alpha  occ. eigenvalues --   -0.35375  -0.34874  -0.33384  -0.32534  -0.30322
 Alpha  occ. eigenvalues --   -0.29613  -0.28734  -0.28547  -0.28057  -0.27816
 Alpha  occ. eigenvalues --   -0.26189  -0.25811  -0.25052  -0.23960  -0.22632
 Alpha  occ. eigenvalues --   -0.22212  -0.20822  -0.16844  -0.12815  -0.12296
 Alpha  occ. eigenvalues --   -0.09980  -0.09133  -0.07717   0.00668
 Alpha virt. eigenvalues --    0.07562   0.08736   0.09432   0.09849   0.10561
 Alpha virt. eigenvalues --    0.10664   0.11880   0.12016   0.12962   0.13349
 Alpha virt. eigenvalues --    0.13754   0.14192   0.15244   0.16036   0.16652
 Alpha virt. eigenvalues --    0.17180   0.18175   0.18467   0.18788   0.19021
 Alpha virt. eigenvalues --    0.19672   0.19919   0.20087   0.20629   0.20997
 Alpha virt. eigenvalues --    0.21527   0.21665   0.21723   0.21996   0.22698
 Alpha virt. eigenvalues --    0.22857   0.23295   0.23616   0.23982   0.24909
 Alpha virt. eigenvalues --    0.25263   0.25703   0.25953   0.26080   0.26307
 Alpha virt. eigenvalues --    0.26580   0.26996   0.27557   0.27974   0.28348
 Alpha virt. eigenvalues --    0.29315   0.29907   0.30293   0.30752   0.31644
 Alpha virt. eigenvalues --    0.32352   0.32992   0.33232   0.33550   0.33834
 Alpha virt. eigenvalues --    0.34306   0.34813   0.35417   0.35846   0.36290
 Alpha virt. eigenvalues --    0.36586   0.37138   0.37493   0.37958   0.38342
 Alpha virt. eigenvalues --    0.38884   0.39275   0.39836   0.40523   0.40630
 Alpha virt. eigenvalues --    0.41438   0.41531   0.42120   0.42309   0.42986
 Alpha virt. eigenvalues --    0.43763   0.44036   0.44669   0.45211   0.45870
 Alpha virt. eigenvalues --    0.46047   0.46243   0.46814   0.47517   0.48155
 Alpha virt. eigenvalues --    0.49544   0.49680   0.50718   0.51624   0.52469
 Alpha virt. eigenvalues --    0.53394   0.54147   0.54873   0.56089   0.57045
 Alpha virt. eigenvalues --    0.59056   0.60483   0.62806   0.64220   0.65056
 Alpha virt. eigenvalues --    0.65673   0.66526   0.67382   0.68495   0.68528
 Alpha virt. eigenvalues --    0.69405   0.70369   0.70903   0.71324   0.72212
 Alpha virt. eigenvalues --    0.73276   0.73329   0.74902   0.76378   0.76799
 Alpha virt. eigenvalues --    0.77557   0.77772   0.78468   0.79329   0.79460
 Alpha virt. eigenvalues --    0.80012   0.80852   0.81614   0.82357   0.83229
 Alpha virt. eigenvalues --    0.83850   0.84594   0.85251   0.86244   0.87611
 Alpha virt. eigenvalues --    0.88220   0.89098   0.89732   0.90826   0.91968
 Alpha virt. eigenvalues --    0.93383   0.95118   0.95825   0.97580   0.99572
 Alpha virt. eigenvalues --    0.99950   1.02138   1.03053   1.03308   1.05554
 Alpha virt. eigenvalues --    1.05907   1.07341   1.07835   1.08269   1.09841
 Alpha virt. eigenvalues --    1.10400   1.11327   1.13842   1.14304   1.15148
 Alpha virt. eigenvalues --    1.16457   1.17303   1.17872   1.19096   1.20083
 Alpha virt. eigenvalues --    1.21634   1.23138   1.24348   1.25404   1.26608
 Alpha virt. eigenvalues --    1.28219   1.28768   1.31149   1.34216   1.36294
 Alpha virt. eigenvalues --    1.38642   1.39352   1.40422   1.41944   1.43831
 Alpha virt. eigenvalues --    1.45441   1.46154   1.48323   1.51396   1.51670
 Alpha virt. eigenvalues --    1.53309   1.55922   1.56979   1.58316   1.61428
 Alpha virt. eigenvalues --    1.62436   1.64172   1.64398   1.65794   1.66082
 Alpha virt. eigenvalues --    1.66860   1.68090   1.68340   1.69649   1.69863
 Alpha virt. eigenvalues --    1.70132   1.71823   1.73687   1.74550   1.77164
 Alpha virt. eigenvalues --    1.78548   1.79956   1.80563   1.81112   1.84577
 Alpha virt. eigenvalues --    1.85342   1.86529   1.86992   1.89181   1.89594
 Alpha virt. eigenvalues --    1.91071   1.92211   1.92749   1.94315   1.96593
 Alpha virt. eigenvalues --    1.97879   1.98458   2.00836   2.01289   2.04582
 Alpha virt. eigenvalues --    2.05927   2.06905   2.08527   2.09689   2.10451
 Alpha virt. eigenvalues --    2.10728   2.12907   2.15415   2.16127   2.16746
 Alpha virt. eigenvalues --    2.18210   2.19101   2.20960   2.24005   2.25139
 Alpha virt. eigenvalues --    2.27145   2.27644   2.29202   2.30655   2.33715
 Alpha virt. eigenvalues --    2.36238   2.40522   2.44103   2.45233   2.49143
 Alpha virt. eigenvalues --    2.50648   2.53421   2.54303   2.55364   2.55861
 Alpha virt. eigenvalues --    2.60297   2.61813   2.61904   2.63579   2.65570
 Alpha virt. eigenvalues --    2.66508   2.68023   2.68792   2.70117   2.74932
 Alpha virt. eigenvalues --    2.76470   2.77849   2.78807   2.80462   2.81038
 Alpha virt. eigenvalues --    2.81919   2.83331   2.84004   2.85979   2.87483
 Alpha virt. eigenvalues --    2.89176   2.89897   2.90514   2.90902   2.91353
 Alpha virt. eigenvalues --    2.94044   2.96366   2.97065   2.98419   3.00860
 Alpha virt. eigenvalues --    3.01745   3.02240   3.03352   3.04104   3.08569
 Alpha virt. eigenvalues --    3.09514   3.12326   3.12786   3.15229   3.18442
 Alpha virt. eigenvalues --    3.21323   3.24063   3.24598   3.35271   3.36330
 Alpha virt. eigenvalues --    3.38015   3.40897   3.47633   3.49350   3.51637
 Alpha virt. eigenvalues --    3.53832   3.54335   3.60401   3.65677   3.69507
 Alpha virt. eigenvalues --    3.70608   3.71378   3.72638   3.75889   3.82594
 Alpha virt. eigenvalues --    3.84563   3.84828   3.86678   3.88744   3.91885
 Alpha virt. eigenvalues --    3.94539   3.97835   4.09618   4.15528   4.17480
 Alpha virt. eigenvalues --    4.20361   4.30119   4.34133   4.39422   4.51054
 Alpha virt. eigenvalues --    4.88225   4.98218   4.98777   5.14318   5.23190
 Alpha virt. eigenvalues --    5.24587   5.41689   5.45496   5.91599   5.98306
 Alpha virt. eigenvalues --   23.71858  23.87832  24.00867  24.04797  24.05615
 Alpha virt. eigenvalues --   24.08194  24.10382  24.11358  24.19717  24.21390
 Alpha virt. eigenvalues --   24.30755  24.31308  35.66764  50.20809  50.24652
  Beta  occ. eigenvalues --  -18.92445 -18.92006 -14.20721 -10.09717 -10.08447
  Beta  occ. eigenvalues --  -10.07955 -10.07948 -10.07834 -10.04683 -10.04408
  Beta  occ. eigenvalues --  -10.04277 -10.04260 -10.03731 -10.03226 -10.01543
  Beta  occ. eigenvalues --   -0.86898  -0.86101  -0.80096  -0.72281  -0.65747
  Beta  occ. eigenvalues --   -0.61452  -0.61363  -0.59935  -0.53889  -0.50223
  Beta  occ. eigenvalues --   -0.48538  -0.45730  -0.42378  -0.38446  -0.37859
  Beta  occ. eigenvalues --   -0.35182  -0.34764  -0.33119  -0.32452  -0.30101
  Beta  occ. eigenvalues --   -0.29507  -0.28632  -0.28411  -0.27770  -0.26674
  Beta  occ. eigenvalues --   -0.25970  -0.25363  -0.24724  -0.22480  -0.21638
  Beta  occ. eigenvalues --   -0.21373  -0.20631  -0.15635  -0.11742  -0.11213
  Beta  occ. eigenvalues --   -0.09385  -0.08608  -0.06820
  Beta virt. eigenvalues --    0.07032   0.07559   0.08722   0.09748   0.10103
  Beta virt. eigenvalues --    0.10595   0.10695   0.11889   0.12822   0.13138
  Beta virt. eigenvalues --    0.13485   0.13764   0.14199   0.15313   0.16041
  Beta virt. eigenvalues --    0.16715   0.17199   0.18268   0.18510   0.18967
  Beta virt. eigenvalues --    0.19468   0.19947   0.20037   0.20651   0.20731
  Beta virt. eigenvalues --    0.21047   0.21624   0.21691   0.21796   0.22262
  Beta virt. eigenvalues --    0.22780   0.23120   0.23353   0.23800   0.24038
  Beta virt. eigenvalues --    0.24938   0.25450   0.25763   0.25980   0.26136
  Beta virt. eigenvalues --    0.26367   0.26689   0.27128   0.27589   0.28023
  Beta virt. eigenvalues --    0.28434   0.29383   0.29980   0.30341   0.30764
  Beta virt. eigenvalues --    0.31732   0.32481   0.33027   0.33391   0.33752
  Beta virt. eigenvalues --    0.33912   0.34384   0.35044   0.35492   0.36028
  Beta virt. eigenvalues --    0.36472   0.36780   0.37191   0.37698   0.38020
  Beta virt. eigenvalues --    0.38379   0.38964   0.39327   0.39916   0.40557
  Beta virt. eigenvalues --    0.40759   0.41514   0.41638   0.42218   0.42382
  Beta virt. eigenvalues --    0.43034   0.43893   0.44224   0.44853   0.45349
  Beta virt. eigenvalues --    0.46081   0.46206   0.46315   0.47003   0.47622
  Beta virt. eigenvalues --    0.48235   0.49607   0.49852   0.50779   0.51707
  Beta virt. eigenvalues --    0.52591   0.53560   0.54267   0.55035   0.56178
  Beta virt. eigenvalues --    0.57142   0.59449   0.60557   0.62976   0.64369
  Beta virt. eigenvalues --    0.65196   0.65760   0.66623   0.67535   0.68554
  Beta virt. eigenvalues --    0.68610   0.69508   0.70777   0.70989   0.71413
  Beta virt. eigenvalues --    0.72399   0.73357   0.73478   0.75042   0.76454
  Beta virt. eigenvalues --    0.76945   0.77701   0.78025   0.78803   0.79529
  Beta virt. eigenvalues --    0.79596   0.80228   0.80970   0.81850   0.82535
  Beta virt. eigenvalues --    0.83333   0.84144   0.84766   0.85323   0.86328
  Beta virt. eigenvalues --    0.87676   0.88305   0.89215   0.89919   0.90954
  Beta virt. eigenvalues --    0.92123   0.93513   0.95169   0.95979   0.97642
  Beta virt. eigenvalues --    0.99648   1.00023   1.02240   1.03167   1.03457
  Beta virt. eigenvalues --    1.05696   1.06082   1.07511   1.08050   1.08638
  Beta virt. eigenvalues --    1.10091   1.10735   1.11534   1.14005   1.14502
  Beta virt. eigenvalues --    1.15234   1.16569   1.17540   1.18007   1.19320
  Beta virt. eigenvalues --    1.20346   1.21857   1.23290   1.24654   1.25787
  Beta virt. eigenvalues --    1.26894   1.28509   1.29786   1.32179   1.34443
  Beta virt. eigenvalues --    1.36605   1.39291   1.39671   1.40908   1.42413
  Beta virt. eigenvalues --    1.44112   1.45667   1.46355   1.48578   1.51662
  Beta virt. eigenvalues --    1.51965   1.53538   1.56077   1.57058   1.58367
  Beta virt. eigenvalues --    1.61496   1.62500   1.64463   1.64673   1.65894
  Beta virt. eigenvalues --    1.66191   1.67153   1.68194   1.68444   1.69765
  Beta virt. eigenvalues --    1.69891   1.70254   1.71865   1.73823   1.74834
  Beta virt. eigenvalues --    1.77356   1.78685   1.80047   1.80932   1.81177
  Beta virt. eigenvalues --    1.84635   1.85574   1.86659   1.87125   1.89335
  Beta virt. eigenvalues --    1.89788   1.91251   1.92381   1.93050   1.94746
  Beta virt. eigenvalues --    1.96715   1.97986   1.98758   2.01061   2.01680
  Beta virt. eigenvalues --    2.04891   2.06245   2.07143   2.08740   2.09856
  Beta virt. eigenvalues --    2.10679   2.11072   2.13055   2.15489   2.16272
  Beta virt. eigenvalues --    2.16848   2.18366   2.19233   2.21095   2.24284
  Beta virt. eigenvalues --    2.25318   2.27311   2.27776   2.29495   2.30742
  Beta virt. eigenvalues --    2.33850   2.36438   2.40732   2.44465   2.45590
  Beta virt. eigenvalues --    2.49479   2.50887   2.53475   2.54392   2.55438
  Beta virt. eigenvalues --    2.55986   2.60315   2.61884   2.61973   2.63629
  Beta virt. eigenvalues --    2.65632   2.66591   2.68131   2.68848   2.70324
  Beta virt. eigenvalues --    2.75037   2.76627   2.77927   2.79180   2.80636
  Beta virt. eigenvalues --    2.81121   2.82318   2.83471   2.84078   2.86014
  Beta virt. eigenvalues --    2.87632   2.89260   2.90003   2.90620   2.91216
  Beta virt. eigenvalues --    2.91691   2.94517   2.96828   2.97147   2.98517
  Beta virt. eigenvalues --    3.01572   3.02430   3.02785   3.03656   3.04308
  Beta virt. eigenvalues --    3.09289   3.10516   3.13435   3.13956   3.16419
  Beta virt. eigenvalues --    3.19049   3.21407   3.24540   3.24818   3.35388
  Beta virt. eigenvalues --    3.36582   3.38320   3.41102   3.47817   3.49419
  Beta virt. eigenvalues --    3.53159   3.54465   3.55326   3.60518   3.65771
  Beta virt. eigenvalues --    3.69621   3.70762   3.71515   3.72772   3.76275
  Beta virt. eigenvalues --    3.82803   3.84604   3.84918   3.86768   3.88783
  Beta virt. eigenvalues --    3.91908   3.94998   3.98067   4.09875   4.15738
  Beta virt. eigenvalues --    4.17581   4.20481   4.30463   4.34269   4.39730
  Beta virt. eigenvalues --    4.51359   4.88711   4.98289   4.98908   5.14429
  Beta virt. eigenvalues --    5.25411   5.27249   5.42134   5.46025   5.92111
  Beta virt. eigenvalues --    5.98818  23.71937  23.87945  24.00880  24.04848
  Beta virt. eigenvalues --   24.05755  24.08295  24.10455  24.11471  24.19815
  Beta virt. eigenvalues --   24.21405  24.30818  24.31384  35.66818  50.21401
  Beta virt. eigenvalues --   50.25246
          Condensed to atoms (all electrons):
               1          2          3          4          5          6
     1  C   11.763444   0.279469  -1.059560   1.749327  -5.473855   1.791210
     2  C    0.279469   7.986370   0.142762  -0.806519  -0.236768  -0.579322
     3  C   -1.059560   0.142762   7.250689   0.333647   0.199488  -0.002989
     4  C    1.749327  -0.806519   0.333647  22.271619  -6.133604  -2.692567
     5  C   -5.473855  -0.236768   0.199488  -6.133604  32.058979  -2.070262
     6  C    1.791210  -0.579322  -0.002989  -2.692567  -2.070262  10.186506
     7  C   -0.270664  -0.470149  -0.188615   4.096931  -5.634656  -0.828505
     8  C   -2.401984  -0.676208  -0.174696  -7.130134   1.105702  -0.187492
     9  C   -1.232991  -0.099082  -0.113990  -5.476220  -0.790865   0.506699
    10  C    0.245478   0.536136  -0.382083   0.392388  -7.014517  -0.691384
    11  O    0.214131   0.059100  -0.011745  -0.467041  -0.354394  -0.005232
    12  O   -0.039785  -0.006829   0.090864  -0.377343   0.051927   0.208222
    13  N    0.034236   0.010047  -0.000831   0.108666  -0.122984  -0.008032
    14  C   -0.017490  -0.002301   0.000119  -0.089813  -0.026372  -0.006097
    15  C   -0.014561   0.001030  -0.000079  -0.102251   0.120254  -0.010395
    16  H    0.385740  -0.233438   0.004865  -0.000079   0.034583   0.037190
    17  H   -0.141975   0.521955  -0.061312   0.006435  -0.053432  -0.016543
    18  H   -0.032360  -0.073646   0.498959  -0.027496   0.051697  -0.109524
    19  H    0.043374   0.011405  -0.210503   0.047003  -0.133167   0.415429
    20  H   -0.006350   0.004081   0.002996   0.048868  -0.164083  -0.016691
    21  H   -0.001004  -0.000286  -0.000128   0.078478  -0.003383  -0.001715
    22  H   -0.015044  -0.003650   0.000970  -0.024584   0.023192   0.003492
    23  H    0.015426   0.003601  -0.000540   0.021995  -0.023337  -0.002810
    24  H    0.003841   0.000318  -0.000714  -0.009270   0.012514   0.000953
    25  H    0.010552   0.001675  -0.000383   0.047838  -0.026680  -0.004279
    26  H   -0.009456  -0.001222   0.000493  -0.041273   0.028103   0.004329
               7          8          9         10         11         12
     1  C   -0.270664  -2.401984  -1.232991   0.245478   0.214131  -0.039785
     2  C   -0.470149  -0.676208  -0.099082   0.536136   0.059100  -0.006829
     3  C   -0.188615  -0.174696  -0.113990  -0.382083  -0.011745   0.090864
     4  C    4.096931  -7.130134  -5.476220   0.392388  -0.467041  -0.377343
     5  C   -5.634656   1.105702  -0.790865  -7.014517  -0.354394   0.051927
     6  C   -0.828505  -0.187492   0.506699  -0.691384  -0.005232   0.208222
     7  C   18.835069  -3.466146  -5.973276  -0.684150   1.217378  -0.102155
     8  C   -3.466146  22.220964  -0.134153  -2.560469  -0.372090   0.060673
     9  C   -5.973276  -0.134153  16.980327   2.322333  -0.245509  -0.146109
    10  C   -0.684150  -2.560469   2.322333  14.126571  -0.017700   0.299154
    11  O    1.217378  -0.372090  -0.245509  -0.017700   8.365517   0.000271
    12  O   -0.102155   0.060673  -0.146109   0.299154   0.000271   8.367136
    13  N    0.041848  -0.041664  -0.201816  -0.025706   0.021280  -0.005295
    14  C   -0.052240   0.113137  -0.077676   0.014281  -0.044234   0.000024
    15  C   -0.127397   0.019909  -0.002733  -0.070788  -0.004936   0.006241
    16  H    0.079696   0.032485   0.008835  -0.016112  -0.004057   0.000496
    17  H    0.049239   0.019991  -0.006779  -0.016901   0.002339  -0.000151
    18  H   -0.032992  -0.009363   0.012934   0.018400  -0.000291   0.002730
    19  H    0.020355   0.005981   0.015033   0.124155   0.000353  -0.005243
    20  H    0.059112  -0.129316   0.419280   0.105360   0.000423  -0.025684
    21  H    0.171690  -0.203790  -0.048171  -0.002032  -0.005890  -0.000208
    22  H   -0.078752  -0.002481   0.095090   0.015631   0.012310   0.000066
    23  H    0.057568   0.022130  -0.072686  -0.007448  -0.008914  -0.000079
    24  H   -0.035261   0.131538  -0.055512  -0.039563  -0.000100   0.001746
    25  H    0.164888  -0.058975  -0.110346  -0.012453   0.000315   0.000221
    26  H   -0.153966  -0.013834   0.171290   0.022349  -0.000550  -0.000128
              13         14         15         16         17         18
     1  C    0.034236  -0.017490  -0.014561   0.385740  -0.141975  -0.032360
     2  C    0.010047  -0.002301   0.001030  -0.233438   0.521955  -0.073646
     3  C   -0.000831   0.000119  -0.000079   0.004865  -0.061312   0.498959
     4  C    0.108666  -0.089813  -0.102251  -0.000079   0.006435  -0.027496
     5  C   -0.122984  -0.026372   0.120254   0.034583  -0.053432   0.051697
     6  C   -0.008032  -0.006097  -0.010395   0.037190  -0.016543  -0.109524
     7  C    0.041848  -0.052240  -0.127397   0.079696   0.049239  -0.032992
     8  C   -0.041664   0.113137   0.019909   0.032485   0.019991  -0.009363
     9  C   -0.201816  -0.077676  -0.002733   0.008835  -0.006779   0.012934
    10  C   -0.025706   0.014281  -0.070788  -0.016112  -0.016901   0.018400
    11  O    0.021280  -0.044234  -0.004936  -0.004057   0.002339  -0.000291
    12  O   -0.005295   0.000024   0.006241   0.000496  -0.000151   0.002730
    13  N    7.153888   0.284566   0.273261  -0.001437  -0.000031   0.000071
    14  C    0.284566   5.157337  -0.071555   0.000003   0.000164  -0.000045
    15  C    0.273261  -0.071555   5.166288  -0.000432   0.000004   0.000009
    16  H   -0.001437   0.000003  -0.000432   0.540275  -0.022341   0.000450
    17  H   -0.000031   0.000164   0.000004  -0.022341   0.629881  -0.024334
    18  H    0.000071  -0.000045   0.000009   0.000450  -0.024334   0.626545
    19  H    0.000037   0.000033  -0.000561   0.001472   0.000866  -0.019750
    20  H   -0.039421  -0.004808  -0.023676  -0.000171  -0.000069  -0.000043
    21  H    0.001661   0.397483  -0.006400  -0.000884  -0.000022   0.000024
    22  H   -0.123326   0.388263  -0.006241   0.000474  -0.000060   0.000007
    23  H   -0.107299   0.394739   0.000130  -0.000520   0.000054  -0.000006
    24  H   -0.041772   0.006503   0.420429  -0.000061   0.000023  -0.000010
    25  H   -0.083197  -0.002112   0.377906  -0.000154   0.000007  -0.000000
    26  H   -0.121300   0.001445   0.423004   0.000084  -0.000008   0.000002
              19         20         21         22         23         24
     1  C    0.043374  -0.006350  -0.001004  -0.015044   0.015426   0.003841
     2  C    0.011405   0.004081  -0.000286  -0.003650   0.003601   0.000318
     3  C   -0.210503   0.002996  -0.000128   0.000970  -0.000540  -0.000714
     4  C    0.047003   0.048868   0.078478  -0.024584   0.021995  -0.009270
     5  C   -0.133167  -0.164083  -0.003383   0.023192  -0.023337   0.012514
     6  C    0.415429  -0.016691  -0.001715   0.003492  -0.002810   0.000953
     7  C    0.020355   0.059112   0.171690  -0.078752   0.057568  -0.035261
     8  C    0.005981  -0.129316  -0.203790  -0.002481   0.022130   0.131538
     9  C    0.015033   0.419280  -0.048171   0.095090  -0.072686  -0.055512
    10  C    0.124155   0.105360  -0.002032   0.015631  -0.007448  -0.039563
    11  O    0.000353   0.000423  -0.005890   0.012310  -0.008914  -0.000100
    12  O   -0.005243  -0.025684  -0.000208   0.000066  -0.000079   0.001746
    13  N    0.000037  -0.039421   0.001661  -0.123326  -0.107299  -0.041772
    14  C    0.000033  -0.004808   0.397483   0.388263   0.394739   0.006503
    15  C   -0.000561  -0.023676  -0.006400  -0.006241   0.000130   0.420429
    16  H    0.001472  -0.000171  -0.000884   0.000474  -0.000520  -0.000061
    17  H    0.000866  -0.000069  -0.000022  -0.000060   0.000054   0.000023
    18  H   -0.019750  -0.000043   0.000024   0.000007  -0.000006  -0.000010
    19  H    0.541243  -0.000125   0.000021  -0.000044   0.000039  -0.000031
    20  H   -0.000125   0.638249   0.000842  -0.001426   0.000930  -0.003449
    21  H    0.000021   0.000842   0.470083  -0.048434  -0.001255  -0.000991
    22  H   -0.000044  -0.001426  -0.048434   0.797647  -0.133114   0.000559
    23  H    0.000039   0.000930  -0.001255  -0.133114   0.705723  -0.001161
    24  H   -0.000031  -0.003449  -0.000991   0.000559  -0.001161   0.539328
    25  H   -0.000008   0.006742   0.009229  -0.030356   0.036710  -0.026979
    26  H   -0.000014  -0.007198  -0.005629   0.043890  -0.016199  -0.028687
              25         26
     1  C    0.010552  -0.009456
     2  C    0.001675  -0.001222
     3  C   -0.000383   0.000493
     4  C    0.047838  -0.041273
     5  C   -0.026680   0.028103
     6  C   -0.004279   0.004329
     7  C    0.164888  -0.153966
     8  C   -0.058975  -0.013834
     9  C   -0.110346   0.171290
    10  C   -0.012453   0.022349
    11  O    0.000315  -0.000550
    12  O    0.000221  -0.000128
    13  N   -0.083197  -0.121300
    14  C   -0.002112   0.001445
    15  C    0.377906   0.423004
    16  H   -0.000154   0.000084
    17  H    0.000007  -0.000008
    18  H   -0.000000   0.000002
    19  H   -0.000008  -0.000014
    20  H    0.006742  -0.007198
    21  H    0.009229  -0.005629
    22  H   -0.030356   0.043890
    23  H    0.036710  -0.016199
    24  H   -0.026979  -0.028687
    25  H    0.686485  -0.102963
    26  H   -0.102963   0.684064
          Atomic-Atomic Spin Densities.
               1          2          3          4          5          6
     1  C    0.043024   0.015501  -0.019564  -0.027409   0.076629  -0.023285
     2  C    0.015501   0.137829  -0.057913  -0.076222   0.191060  -0.051196
     3  C   -0.019564  -0.057913   0.120872   0.103942  -0.118234   0.023942
     4  C   -0.027409  -0.076222   0.103942   0.328989  -0.290156   0.085124
     5  C    0.076629   0.191060  -0.118234  -0.290156   0.090445  -0.088057
     6  C   -0.023285  -0.051196   0.023942   0.085124  -0.088057  -0.016059
     7  C    0.021446  -0.103469   0.037428   0.112085  -0.024530   0.038824
[...]
 .00021194,0.00001672,-0.00061547,-0.00014068,0.00076977,0.00126430,0.0
 0020468,-0.00094982,-0.00274599,-0.00053191,-0.00064537,-0.00020104,-0
 .00005682,0.00091687,0.00238245,0.00045605,0.00010042,0.00026565,0.000
 11544,0.00000418,-0.00009084,0.00001357,-0.00005073,0.00002117,-0.0000
 1019,0.00011295,-0.00002091,-0.00000689,-0.00008853,0.00131713,0.00026
 200,0.00116122,-0.00061780,-0.00013613,0.05550956,-0.00042028,0.000639
 89,0.00032187,0.00257886,0.00138671,-0.00126687,-0.00209739,-0.0078883
 9,-0.00216009,-0.00286928,0.00046449,-0.00108259,-0.00062967,-0.014490
 55,-0.00360321,0.01456181,-0.32137029,-0.05497408,0.00083109,-0.000328
 86,-0.00004135,0.00002610,-0.00006664,0.00000638,-0.00004958,0.0000867
 2,-0.00000570,0.00171375,-0.00313537,0.00002702,-0.00035579,-0.0004253
 1,-0.00008270,0.00219949,0.00193515,0.00052264,-0.00013944,-0.00005873
 ,-0.00002880,-0.00000413,0.00004813,-0.00003611,0.00004044,-0.00005579
 ,-0.00000960,0.00003533,-0.00013649,0.00015138,-0.00015323,-0.00042429
 ,-0.00014486,0.00041186,0.00063091,0.00101878,-0.01556799,0.34312903,-
 0.00008265,0.00028975,-0.00094352,0.00050836,-0.00126472,0.00763369,-0
 .00035289,-0.00223713,0.00278992,-0.00052914,-0.00111559,0.00584369,0.
 00001530,-0.00351603,0.00344418,0.00274870,-0.05502774,-0.04863863,0.0
 0016081,0.00001972,-0.00002842,0.00002389,-0.00002450,-0.00002601,-0.0
 0000526,0.00004413,0.00008306,0.00023985,0.00003342,-0.00324377,-0.000
 06279,-0.00006106,-0.00009448,0.00043361,0.00051415,-0.00069744,-0.000
 01106,-0.00002925,-0.00001534,-0.00000505,-0.00001415,0.00001592,0.000
 00917,-0.00000793,0.00002465,0.00000139,0.00016052,-0.00089931,-0.0000
 2794,-0.00014300,0.00029786,0.00006483,0.00102247,-0.00441824,-0.00310
 027,0.06137109,0.03872385,0.00014506,0.00014693,0.00002577,-0.00003473
 ,-0.00030854,-0.00006384,-0.00050016,-0.00010614,-0.00002411,0.0002962
 5,-0.00079932,-0.00014378,-0.00375742,-0.00441658,-0.00073948,-0.00055
 181,0.00124793,0.00018790,0.00206310,-0.00150452,-0.00032469,0.0018554
 0,-0.00006730,0.00030421,-0.26307179,0.11604647,0.03006916,-0.02189844
 ,0.01746509,0.00423399,-0.00015679,0.00060610,0.00014148,0.00419529,-0
 .00003025,-0.00016388,-0.00085154,0.00063668,-0.00066429,0.00009875,-0
 .00003095,0.00040852,-0.00236776,-0.00259441,-0.00170436,-0.00002533,0
 .00001966,0.00000513,-0.00003386,0.00001597,0.00000514,-0.00018989,0.0
 0005936,0.00001931,-0.00000519,-0.00008318,-0.00001195,0.28634121,0.00
 023804,0.00011498,0.00005927,-0.00004747,-0.00025568,-0.00009521,-0.00
 023963,0.00010499,0.00015075,-0.00034099,-0.00042781,0.00005826,-0.002
 52748,-0.00142165,-0.00111288,-0.00043561,0.00056447,0.00007284,-0.004
 07084,-0.00318069,-0.00170431,0.02867410,-0.00936493,-0.00320603,0.115
 88702,-0.11861656,-0.02122932,-0.01522915,0.00912198,0.00132442,0.0019
 9355,-0.00200018,-0.00031226,0.00119884,0.00180650,0.00105653,0.000589
 25,0.00152913,0.00084305,-0.00031176,-0.00002579,0.00001210,-0.0000717
 2,-0.00121295,-0.00031312,-0.00006346,-0.00000967,-0.00001151,0.000026
 33,0.00000093,-0.00000985,-0.00006421,0.00003485,0.00001252,0.00000121
 ,0.00004272,-0.00002418,-0.12363461,0.12269155,0.00006079,0.00001902,-
 0.00013495,-0.00001129,-0.00011399,0.00011854,-0.00006935,0.00018492,-
 0.00055625,-0.00015328,0.00015671,-0.00102167,-0.00048477,-0.00099580,
 0.00417794,-0.00005365,0.00004334,0.00010932,-0.00010852,-0.00199712,0
 .00617474,0.00278555,-0.00390128,0.00308992,0.03067242,-0.01961271,-0.
 03436874,-0.00208330,0.00002598,0.00446866,0.00027573,0.00017267,-0.00
 066493,-0.00012588,0.00132796,-0.00351631,-0.00001769,0.00076359,-0.00
 387613,0.00036488,0.00057019,0.00009228,0.00024399,-0.00117777,-0.0000
 9687,-0.00000190,-0.00000373,0.00002627,0.00000008,-0.00001827,0.00007
 613,-0.00000867,0.00001133,-0.00002496,0.00000338,-0.00002059,0.000158
 93,-0.03094851,0.02445574,0.02679251,-0.00010140,0.00012998,0.00002127
 ,0.00004417,-0.00016032,-0.00007315,-0.00018227,0.00021613,0.00004969,
 0.00060051,0.00059153,0.00015173,-0.00055187,-0.00003939,0.00009111,0.
 00036017,0.00007720,0.00004538,-0.00128176,-0.00599767,-0.00020466,0.0
 0185038,0.00128560,-0.00022247,-0.00025166,-0.00020222,0.00010246,0.00
 031035,-0.00052570,-0.00009142,-0.00489774,0.00240536,0.00152371,-0.00
 009951,0.00082870,0.00015802,0.00454150,-0.00358208,-0.00118378,-0.248
 86329,0.12645148,0.00410570,0.00035115,-0.00145013,0.00069369,-0.00007
 766,-0.00002175,0.00000752,0.00004329,-0.00001621,-0.00000374,0.000035
 31,0.00002664,0.00001126,-0.00000417,0.00002770,-0.00001034,-0.0000369
 7,0.00015065,0.00005721,0.26578249,-0.00000764,0.00010642,0.00008001,0
 .00001222,0.00000527,-0.00000830,-0.00002254,0.00004820,0.00000984,0.0
 0027825,0.00005250,0.00034155,-0.00011739,-0.00004366,-0.00005095,0.00
 009204,0.00004036,-0.00003031,-0.00171245,-0.00338346,-0.00002770,0.00
 148695,0.00059675,-0.00057629,-0.00008217,-0.00018477,-0.00002755,0.00
 013163,-0.00027062,0.00017446,0.00163958,0.00148128,-0.00118858,-0.000
 07615,0.00031583,0.00000380,0.02651961,-0.01972542,0.00284667,0.113910
 06,-0.12086160,-0.00573060,-0.00258108,-0.00475792,0.00234477,-0.00005
 887,0.00000865,-0.00002070,0.00002608,-0.00000343,-0.00000063,0.000013
 84,0.00001216,0.00000348,0.00000939,0.00001096,0.00000513,-0.00000468,
 0.00016831,0.00000682,-0.13088453,0.13788188,0.00004302,-0.00006030,-0
 .00004982,-0.00000977,0.00001808,-0.00000480,0.00005628,-0.00007974,-0
 .00001580,-0.00022262,-0.00070864,-0.00011224,0.00010356,0.00002548,-0
 .00002822,-0.00013456,-0.00007456,-0.00002497,-0.00010269,0.00384105,0
 .00119854,-0.00056663,-0.00144779,0.00051669,0.00020350,0.00012567,-0.
 00002638,-0.00017128,0.00023094,-0.00000224,0.00053921,-0.00261448,-0.
 00167812,0.00008446,-0.00034338,-0.00004889,-0.01777246,0.01198279,-0.
 00178104,0.01270433,-0.01076168,-0.04781301,0.00058666,0.00347229,-0.0
 0138258,0.00007386,0.00000685,0.00003511,-0.00002040,0.00000496,0.0000
 0712,-0.00001325,-0.00001382,-0.00000272,-0.00001393,-0.00001872,0.000
 00131,0.00003062,-0.00013488,-0.00006997,-0.00798557,0.00196047,0.0516
 6101,-0.00002889,-0.00005615,-0.00000810,-0.00000780,0.00000780,-0.000
 02248,-0.00006186,-0.00002261,-0.00000899,-0.00013300,-0.00009015,-0.0
 0014715,-0.00009994,-0.00008180,0.00004607,0.00003499,0.00000225,-0.00
 000056,-0.00036922,0.00115496,-0.00003324,0.00197124,0.00171554,0.0011
 8666,-0.00013287,-0.00062571,-0.00030600,0.00017361,0.00023264,-0.0000
 3754,-0.00159009,-0.00122202,0.00045038,-0.00003833,-0.00023372,-0.000
 05939,-0.00109263,-0.00330063,0.00696838,-0.06427905,0.01456132,0.0488
 8133,0.00051218,-0.00059113,-0.00199536,0.00003747,0.00000946,0.000026
 33,-0.00002166,0.00000404,0.00000775,-0.00001457,-0.00000887,0.0000031
 8,-0.00000085,-0.00001309,-0.00000400,0.00004016,-0.00001287,0.0001232
 4,-0.00200576,0.00536206,0.02604897,0.06074061,-0.00014570,0.00002377,
 0.00007326,0.00003372,0.00006592,-0.00000723,-0.00010571,-0.00001271,0
 .00000606,0.00038068,0.00044503,0.00018569,-0.00014223,-0.00015870,-0.
 00000364,0.00017285,0.00006056,0.00000727,-0.00071934,-0.00117665,-0.0
 0104411,0.00468255,0.00413404,0.00251660,0.00019183,-0.00101914,-0.000
 83887,0.00041825,0.00004251,-0.00017660,0.00111962,0.00161109,0.000033
 85,-0.00009713,0.00009157,0.00006931,-0.01054017,-0.00602760,0.0355979
 5,0.01301934,-0.06012077,-0.05027921,-0.00323239,0.00322101,0.00189685
 ,-0.00004097,0.00000220,-0.00001567,-0.00000256,0.00000283,0.00000254,
 -0.00000281,0.00000443,-0.00000578,0.00001724,0.00000410,0.00000372,-0
 .00002793,-0.00006064,0.00012502,0.00045283,-0.00267203,-0.01528246,-0
 .01059548,0.06533224,0.00034415,0.00002111,0.00000380,-0.00008008,-0.0
 0018046,-0.00002189,0.00030323,0.00017284,0.00004957,-0.00084468,-0.00
 073873,0.00010690,0.00033791,0.00055783,0.00009910,-0.00029672,-0.0001
 4128,-0.00002595,0.00166302,0.00107518,0.00049866,-0.00518769,-0.00308
 121,-0.00044992,0.00101761,0.00149321,0.00002918,-0.00082001,-0.000286
 69,-0.00036624,-0.00013242,-0.00109999,-0.00030799,0.00023498,0.000452
 28,0.00023675,0.00828876,0.01677982,-0.02086881,0.04968839,-0.05289460
 ,-0.24099521,0.00280631,-0.00168473,0.00125759,-0.00000642,-0.00002677
 ,-0.00002631,0.00006248,-0.00002509,-0.00001697,0.00004998,0.00002526,
 -0.00000658,-0.00002615,0.00003386,0.00000101,-0.00007288,0.00006074,0
 .00001453,0.00060448,-0.00167769,-0.00098643,-0.05884567,0.04512312,0.
 27504256,-0.00010359,-0.00008135,-0.00001240,0.00000367,0.00010636,0.0
 0002564,-0.00004831,-0.00011116,-0.00002127,0.00011191,0.00031715,-0.0
 0009899,0.00009041,-0.00017882,-0.00004203,-0.00001277,0.00003115,0.00
 002839,0.00009424,0.00064773,-0.00001722,0.00304732,-0.00057809,-0.000
 43131,-0.00070651,-0.00000166,0.00022418,0.00027661,0.00020786,0.00003
 393,-0.00099276,-0.00030436,0.00126261,-0.00010700,-0.00044608,-0.0001
 0100,-0.00626735,-0.00464059,0.00145599,-0.18233306,-0.09569383,-0.079
 34947,0.00036400,0.00200553,0.00015894,0.00001731,0.00001183,0.0000042
 1,-0.00004038,0.00001289,-0.00000061,-0.00002893,-0.00001556,-0.000006
 03,0.00000776,-0.00001590,-0.00000211,0.00010992,-0.00005775,-0.000011
 45,-0.01607027,-0.01557226,-0.01287902,0.00563661,0.00482638,0.0029885
 2,0.19589931,-0.00007413,-0.00003893,0.00001226,-0.00000668,0.00006541
 ,0.00000764,-0.00007079,-0.00004938,-0.00001027,0.00013411,0.00025810,
 0.00010960,-0.00002781,-0.00017500,-0.00002553,0.00006061,0.00005146,0
 .00001116,0.00015195,-0.00096557,-0.00048892,0.00330521,-0.00481971,0.
 00104897,-0.00181337,-0.00020963,0.00036283,0.00039013,-0.00011504,-0.
 00015969,0.00037615,0.00098925,-0.00044230,-0.00018282,-0.00034160,-0.
 00006467,-0.02538670,-0.02229479,-0.00436179,-0.09017105,-0.11169007,-
 0.05448392,-0.00321158,0.00046330,-0.00126000,-0.00000476,0.00001534,0
 .00000547,-0.00002368,0.00000672,0.00000217,-0.00001929,-0.00000740,-0
 .00000351,0.00000836,-0.00001226,-0.00000570,0.00011169,-0.00005796,-0
 .00000081,0.01009675,0.01134407,0.00822515,-0.00515127,-0.00351284,-0.
 00544207,0.10976473,0.13073582,0.00001553,-0.00000028,-0.00002215,0.00
 000906,0.00000631,0.00001651,0.00002009,-0.00001494,-0.00000895,0.0000
 1898,-0.00006629,0.00003780,0.00006334,0.00001963,-0.00004356,-0.00002
 406,-0.00001929,0.00001081,-0.00004467,0.00032626,0.00004998,-0.000436
 05,0.00338665,0.00009009,0.00111706,0.00050043,0.00010165,-0.00019896,
 0.00017841,0.00009951,-0.00006113,-0.00042611,-0.00007550,0.00009817,0
 .00003556,0.00001720,0.01598086,0.01334363,0.00701603,-0.08312267,-0.0
 5974210,-0.09625551,0.00099905,0.00025999,0.00029666,0.00001044,-0.000
 00093,-0.00000591,-0.00000312,0.00000298,-0.00000183,-0.00000257,-0.00
 000412,-0.00000035,-0.00000407,0.00000049,-0.00000306,-0.00001004,-0.0
 0001319,-0.00005971,0.00148225,0.00138775,0.00025225,-0.02266956,-0.01
 545654,-0.01361452,0.08679359,0.05666999,0.10213140,-0.00013162,0.0000
 3398,0.00001662,0.00008481,0.00011906,0.00001036,0.00006020,-0.0001220
 7,-0.00001607,0.00025624,0.00004448,0.00002359,0.00017799,-0.00010572,
 -0.00005079,-0.00010547,-0.00001627,-0.00003758,-0.00042657,0.00062367
 ,0.00027273,0.00250936,0.00179910,-0.00052240,0.00007878,-0.00136066,-
 0.00004061,-0.00062974,-0.00045229,0.00026246,0.00004341,-0.00039254,-
 0.00005262,0.00007867,0.00023583,-0.00000561,0.00075064,0.02616863,-0.
 02097689,-0.00529194,0.00128733,-0.00056190,-0.05311077,-0.02740424,0.
 02545874,-0.00000325,-0.00000492,-0.00000307,0.00001285,-0.00000096,0.
 00000037,0.00001119,0.00000138,0.00000705,-0.00000754,0.00000381,-0.00
 000106,-0.00113996,-0.00036770,-0.00144235,0.00046281,0.00143277,-0.00
 081036,-0.00003042,0.00006665,-0.00020038,0.00049096,0.00010044,0.0004
 7165,0.05804299,0.00006103,0.00000028,0.00001843,-0.00001307,0.0000229
 3,-0.00001269,0.00009519,-0.00002118,-0.00000451,-0.00011182,-0.000090
 19,0.00002038,0.00017668,0.00001086,0.00002020,-0.00013220,-0.00001385
 ,-0.00002462,0.00038225,-0.00000939,-0.00013943,-0.00156291,-0.0003671
 8,-0.00074159,-0.00025920,-0.00004799,-0.00055409,-0.00057769,0.000100
 93,-0.00000819,0.00020023,0.00014280,-0.00020121,0.00013039,0.00007005
 ,0.00001567,0.00149966,-0.01822592,0.01085040,0.00434050,-0.00063240,0
 .00019893,-0.02082394,-0.18619985,0.12696376,-0.00001029,-0.00000657,0
 .00000978,0.00001456,-0.00000367,-0.00000292,0.00000990,0.00000357,0.0
 0000761,-0.00000836,0.00000674,0.00000421,-0.00127358,0.00011563,-0.00
 085177,-0.00033550,-0.00070571,0.00102623,-0.00012051,-0.00001859,0.00
 047124,0.00017870,0.00047032,0.00001696,0.01940126,0.20862341,-0.00006
 004,-0.00000170,0.00000168,0.00004522,-0.00001163,-0.00000624,-0.00002
 485,0.00002060,0.00001324,0.00007078,-0.00000269,0.00002036,-0.0000069
 2,0.00020174,-0.00006278,0.00010921,-0.00005361,-0.00001249,-0.0004179
 1,0.00020561,-0.00012883,0.00119477,0.00122817,0.00052178,-0.00057131,
 0.00047769,0.00053645,0.00050708,-0.00060851,0.00007870,-0.00006079,-0
 .00038024,0.00001393,-0.00000359,0.00006732,0.00005399,-0.00245468,0.0
 0127282,-0.00012131,-0.00143388,-0.00047869,0.00058361,0.01937038,0.12
 838208,-0.16391277,0.00000666,-0.00000659,-0.00000440,0.00000556,-0.00
 000390,0.00000053,0.00001407,0.00000029,0.00000070,-0.00000596,0.00000
 487,-0.00000339,0.00002596,-0.00079592,-0.00092149,0.00043945,0.000204
 54,0.00013487,0.00017060,-0.00042613,0.00043712,0.00035076,0.00002353,
 0.00008374,-0.02180910,-0.14093647,0.17386701,-0.00015986,-0.00015742,
 -0.00001474,-0.00003184,0.00011175,-0.00001028,-0.00010465,-0.00006662
 ,0.00000032,-0.00009670,0.00058345,0.00041841,-0.00002316,-0.00013407,
 -0.00004943,0.00011442,0.00004583,0.00000129,-0.00078055,-0.00215157,-
 0.00076622,-0.00142173,0.00476021,-0.00240421,-0.00037287,0.00076788,0
 .00024264,0.00040698,0.00013771,0.00001222,0.00021710,0.00101035,0.000
 04091,-0.00010914,-0.00035454,-0.00008054,-0.03374829,-0.01564649,-0.0
 0720060,0.00051819,-0.00281326,0.00099862,-0.16740220,-0.10938328,-0.0
 5546571,0.00000410,0.00002194,0.00001282,-0.00004886,0.00000641,-0.000
 00257,-0.00002746,-0.00001450,-0.00000500,0.00000590,-0.00001894,-0.00
 000023,0.00032924,-0.00010106,0.00015197,0.00014668,0.00016311,0.00055
 875,0.00009823,0.00020745,-0.00035414,0.00062481,0.00117405,-0.0000798
 7,-0.00155292,-0.00191573,-0.00006943,0.19683513,0.00010367,0.00002149
 ,0.00002609,-0.00004293,-0.00003239,0.00002006,-0.00004116,0.00000778,
 -0.00000932,0.00004268,-0.00010234,-0.00014609,-0.00014361,-0.00021360
 ,0.00002362,-0.00001744,0.00007546,0.00004423,0.00074060,0.00041177,-0
 .00015453,0.00237230,-0.00252123,0.00014455,-0.00009305,-0.00080756,-0
 .00066597,-0.00002467,0.00081644,-0.00007546,-0.00021123,0.00027141,0.
 00015108,-0.00005907,-0.00023641,-0.00004322,0.01621285,0.01087803,0.0
 0726488,0.00238429,0.00112106,0.00119458,-0.11714205,-0.15154311,-0.05
 143427,0.00000300,0.00001192,-0.00000420,-0.00001291,0.00001057,-0.000
 00148,-0.00002551,-0.00000293,-0.00000789,0.00001388,-0.00000908,-0.00
 000027,-0.00088861,0.00048044,0.00047856,0.00030135,0.00050926,0.00007
 055,-0.00024472,-0.00050344,-0.00037799,-0.00015702,0.00007035,-0.0002
 8265,-0.01463257,-0.01271156,-0.00889829,0.11975801,0.16198080,-0.0000
 6188,-0.00001114,-0.00003068,0.00001217,0.00008238,0.00000737,0.000036
 88,-0.00007126,-0.00000708,0.00004558,0.00012490,0.00007456,0.00011904
 ,-0.00007996,-0.00009475,-0.00007556,0.00001086,-0.00000289,-0.0001760
 1,-0.00012619,0.00016325,0.00068998,0.00083070,0.00024699,0.00070694,-
 0.00015721,0.00061917,-0.00030271,-0.00000230,0.00017942,0.00006382,0.
 00009270,-0.00013468,0.00001329,-0.00000116,0.00003190,-0.00227686,0.0
 0050850,0.00016982,-0.00059126,-0.00098189,0.00012331,-0.05696503,-0.0
 4982358,-0.07407014,-0.00000216,0.00000363,0.00000399,-0.00000394,0.00
 000064,0.00000621,-0.00000443,-0.00000204,0.00000031,0.00000115,-0.000
 00102,-0.00000429,0.00006568,0.00031048,-0.00037725,0.00013880,0.00014
 208,0.00002780,-0.00012763,-0.00014783,-0.00035244,-0.00002665,0.00046
 807,0.00027672,0.01568856,0.01202192,0.00853385,0.06277785,0.05631659,
 0.07448006,-0.00028119,-0.00006556,0.00001424,0.00008320,0.00018776,0.
 00007445,-0.00004808,-0.00016730,-0.00004225,0.00038520,0.00051653,-0.
 00003975,0.00018623,-0.00024629,0.00004295,0.00003665,-0.00001276,0.00
 005157,-0.00150365,0.00060584,-0.00077222,0.00560884,0.00453917,0.0018
 9066,0.00012329,-0.00094937,0.00000733,0.00022522,-0.00016350,-0.00036
 734,-0.00014900,-0.00033235,-0.00010891,-0.00002813,-0.00027289,-0.000
 09717,-0.02267847,0.01904575,0.02448594,-0.00021216,-0.00294662,0.0029
 7795,-0.06025336,0.01872451,0.04765592,0.00001429,0.00000622,-0.000006
 13,-0.00002551,0.00001059,-0.00000256,-0.00001208,-0.00001095,-0.00001
 546,0.00000100,-0.00001232,0.00000084,-0.00085274,-0.00118267,0.000781
 35,-0.00010449,0.00004220,-0.00033070,0.00066182,0.00006302,-0.0015225
 8,-0.00006390,0.00046974,-0.00042329,-0.00063068,0.00065445,0.00460797
 ,0.00657944,-0.00819609,-0.01974560,0.07293825,0.00012891,0.00001609,0
 .00000221,-0.00001799,-0.00000129,-0.00002271,0.00019536,0.00000278,0.
 00000698,-0.00029476,-0.00032043,0.00001484,0.00033943,0.00017872,0.00
 001143,-0.00023770,-0.00007558,0.00002350,0.00078603,0.00040937,0.0002
 5385,-0.00352891,-0.00194724,-0.00039862,0.00088746,0.00115448,0.00059
 274,-0.00070295,-0.00011618,-0.00041241,0.00004337,-0.00039525,0.00005
 690,0.00015898,0.00028181,0.00016127,0.01696898,-0.01149156,-0.0118497
 9,0.00057978,0.00283279,-0.00416517,0.01876234,-0.07926747,-0.07292355
 ,-0.00000736,-0.00001108,0.00000638,0.00003173,-0.00001105,-0.00000266
 ,0.00002510,0.00001132,-0.00000628,-0.00001456,0.00001652,0.00000293,-
 0.00058529,-0.00014197,0.00035198,0.00017358,0.00002669,0.00054995,-0.
 00067934,0.00024180,0.00139082,-0.00025590,-0.00017997,-0.00010859,-0.
 00645845,0.00948653,0.02051512,0.00400931,-0.00798312,-0.01950788,-0.0
 3030711,0.08728329,0.00017481,0.00002758,0.00001817,-0.00005310,-0.000
 05216,-0.00000257,0.00017971,0.00004402,0.00001450,-0.00038322,-0.0003
 5948,-0.00002514,0.00015821,0.00007313,0.00000569,-0.00025914,-0.00002
 693,0.00004199,0.00081370,0.00070482,-0.00001862,-0.00317474,-0.001816
 64,0.00013679,0.00156613,-0.00038975,-0.00030131,-0.00091874,0.0002708
 2,-0.00036981,-0.00011237,-0.00036658,0.00000522,0.00008259,0.00041614
 ,0.00024321,0.01010048,-0.00175983,0.00916462,-0.00023577,0.00074591,0
 .00199944,0.04607292,-0.06940161,-0.22320496,-0.00001107,-0.00000911,-
 0.00000089,0.00003163,-0.00001010,-0.00000937,0.00001851,0.00001741,-0
 .00001056,-0.00000509,0.00001791,-0.00000217,-0.00065106,0.00054597,0.
 00038950,0.00009140,-0.00017206,0.00019254,0.00035281,-0.00195718,0.00
 026250,-0.00032722,-0.00019769,-0.00038928,0.00431867,-0.00816822,-0.0
 1970786,0.00128718,-0.00363313,-0.00987053,-0.05911723,0.08545676,0.24
 143892\\0.00000912,0.00000990,0.00000146,0.00000248,0.00000038,-0.0000
 0153,0.00000125,0.00000050,0.00000079,-0.00000037,0.00001665,0.0000018
 8,0.00000595,-0.00000533,-0.00000499,0.00000967,-0.00001021,-0.0000026
 1,-0.00004493,-0.00002749,0.00000370,0.00004490,0.00002571,-0.00000825
 ,0.00001797,-0.00000842,-0.00000341,-0.00001969,-0.00000171,0.00001326
 ,0.00000061,0.00000964,0.00000073,-0.00000056,0.00000135,-0.00000534,-
 0.00000140,-0.00001245,0.00000003,0.00001198,0.00000474,0.00002055,-0.
 00000433,0.00001793,-0.00001634,-0.00000476,0.00000006,-0.00000007,0.0
 0000003,-0.00000110,0.00000007,0.00000007,0.00000092,-0.00000084,-0.00
 000434,0.00000053,-0.00000044,-0.00000151,0.00000144,0.00000196,0.0000
 0018,-0.00001108,-0.00000168,-0.00000510,0.00000065,-0.00000838,-0.000
 00094,-0.00000750,0.00000244,-0.00000873,-0.00000170,0.00000553,-0.000
 00617,0.00000214,-0.00000035,-0.00000135,-0.00000554,0.00000184\\\@


 GOORD'S AXIOM:  A MEETING IS AN EVENT AT WHICH
 THE MINUTES ARE KEPT AND THE HOURS ARE LOST.
 Job cpu time:       0 days  9 hours 30 minutes 26.6 seconds.
 Elapsed time:       0 days  1 hours 11 minutes 41.0 seconds.
 File lengths (MBytes):  RWF=    753 Int=      0 D2E=      0 Chk=     20 Scr=      1
 Normal termination of Gaussian 16 at Tue Dec 26 23:03:05 2023.
