
Running Job 1 of 1 165-rad-COSMO.in
qchem 165-rad-COSMO.in_434149.0 /expanse/lustre/scratch/selhajj/temp_project/qcscratch/28869665/qchem434149/ 0
/cm/shared/apps/spack/cpu/opt/spack/linux-centos8-zen2/gcc-10.2.0/qchem-5.4-akfmr7b3t57bfs6qan3padb2wnb2i7cl/exe/qcprog.exe_s 165-rad-COSMO.in_434149.0 /expanse/lustre/scratch/selhajj/temp_project/qcscratch/28869665/qchem434149/
                  Welcome to Q-Chem
     A Quantum Leap Into The Future Of Chemistry


 Q-Chem 5.4, Q-Chem, Inc., Pleasanton, CA (2021)

 License issued to: University of California, San Diego (site)

 E. Epifanovsky,  A. T. B. Gilbert,  Xintian Feng,  Joonho Lee,  Yuezhi Mao,  
 N. Mardirossian,  P. Pokhilko,  A. White,  M. Wormit,  M. P. Coons,  
 A. L. Dempwolff,  Zhengting Gan,  D. Hait,  P. R. Horn,  L. D. Jacobson,  
 I. Kaliman,  J. Kussmann,  A. W. Lange,  Ka Un Lao,  D. S. Levine,  Jie Liu,  
 S. C. McKenzie,  A. F. Morrison,  K. Nanda,  F. Plasser,  D. R. Rehn,  
 M. L. Vidal,  Zhi-Qiang You,  Ying Zhu,  B. Alam,  B. Albrecht,  
 A. Aldossary,  E. Alguire,  J. H. Andersen,  D. Barton,  K. Begam,  A. Behn,  
 Y. A. Bernard,  E. J. Berquist,  H. Burton,  A. Carreras,  K. Carter-Fenk,  
 R. Chakraborty,  A. D. Chien,  K. D. Closser,  V. Cofer-Shabica,  
 S. Dasgupta,  Jia Deng,  M. de Wergifosse,  M. Diedenhofen,  Hainam Do,  
 S. Ehlert,  Po-Tung Fang,  S. Fatehi,  Qingguo Feng,  J. Gayvert,  
 Qinghui Ge,  G. Gidofalvi,  M. Goldey,  J. Gomes,  C. Gonzalez-Espinoza,  
 S. Gulania,  A. Gunina,  M. W. D. Hanson-Heine,  P. H. P. Harbach,  
 A. W. Hauser,  M. F. Herbst,  M. Hernandez Vera,  M. Hodecker,  
 Z. C. Holden,  S. Houck,  Xunkun Huang,  Kerwin Hui,  B. C. Huynh,  
 M. Ivanov,  Hyunjun Ji,  Hanjie Jiang,  B. Kaduk,  S. Kaehler,  
 K. Khistyaev,  Jaehoon Kim,  P. Klunzinger,  Z. Koczor-Benda,  
 Joong Hoon Koh,  D. Kosenkov,  L. Koulias,  T. Kowalczyk,  C. M. Krauter,  
 K. Kue,  A. Kunitsa,  T. Kus,  A. Landau,  K. V. Lawler,  D. Lefrancois,  
 S. Lehtola,  Rain Li,  Yi-Pei Li,  Jiashu Liang,  M. Liebenthal,  
 Hung-Hsuan Lin,  You-Sheng Lin,  Fenglai Liu,  Kuan-Yu Liu,  
 M. Loipersberger,  A. Luenser,  A. Manjanath,  P. Manohar,  E. Mansoor,  
 S. F. Manzer,  Shan-Ping Mao,  A. V. Marenich,  T. Markovich,  S. Mason,  
 S. A. Maurer,  P. F. McLaughlin,  M. F. S. J. Menger,  J.-M. Mewes,  
 S. A. Mewes,  P. Morgante,  J. W. Mullinax,  T. S. Nguyen-Beck,  
 K. J. Oosterbaan,  G. Paran,  Alexander C. Paul,  Suranjan K. Paul,  
 F. Pavosevic,  Zheng Pei,  S. Prager,  E. I. Proynov,  E. Ramos,  B. Rana,  
 A. E. Rask,  A. Rettig,  R. M. Richard,  F. Rob,  E. Rossomme,  T. Scheele,  
 M. Scheurer,  M. Schneider,  N. Sergueev,  S. M. Sharada,  W. Skomorowski,  
 D. W. Small,  C. J. Stein,  Yu-Chuan Su,  E. J. Sundstrom,  Zhen Tao,  
 J. Thirman,  T. Tsuchimochi,  N. M. Tubman,  S. P. Veccham,  O. Vydrov,  
 J. Wenzel,  J. Witte,  A. Yamada,  Kun Yao,  S. Yeganeh,  S. R. Yost,  
 A. Zech,  Igor Ying Zhang,  Xing Zhang,  Yu Zhang,  D. Zuev,  
 A. Aspuru-Guzik,  A. T. Bell,  N. A. Besley,  K. B. Bravaya,  B. R. Brooks,  
 D. Casanova,  Jeng-Da Chai,  S. Coriani,  C. J. Cramer,  
 A. E. DePrince, III,  R. A. DiStasio Jr.,  A. Dreuw,  B. D. Dunietz,  
 T. R. Furlani,  W. A. Goddard III,  S. Grimme,  S. Hammes-Schiffer,  
 T. Head-Gordon,  W. J. Hehre,  Chao-Ping Hsu,  T.-C. Jagau,  Yousung Jung,  
 A. Klamt,  Jing Kong,  D. S. Lambrecht,  WanZhen Liang,  N. J. Mayhall,  
 C. W. McCurdy,  J. B. Neaton,  C. Ochsenfeld,  J. A. Parkhill,  R. Peverati,  
 V. A. Rassolov,  Yihan Shao,  L. V. Slipchenko,  T. Stauch,  R. P. Steele,  
 J. E. Subotnik,  A. J. W. Thom,  A. Tkatchenko,  D. G. Truhlar,  
 T. Van Voorhis,  T. A. Wesolowski,  K. B. Whaley,  H. L. Woodcock III,  
 P. M. Zimmerman,  S. Faraji,  P. M. W. Gill,  M. Head-Gordon,  
 J. M. Herbert,  A. I. Krylov

 Contributors to earlier versions of Q-Chem not listed above: 
 R. D. Adamson,  B. Austin,  R. Baer,  J. Baker,  G. J. O. Beran,  
 K. Brandhorst,  S. T. Brown,  E. F. C. Byrd,  A. K. Chakraborty,  
 G. K. L. Chan,  Chun-Min Chang,  Yunqing Chen,  C.-L. Cheng,  
 Siu Hung Chien,  D. M. Chipman,  D. L. Crittenden,  H. Dachsel,  
 R. J. Doerksen,  A. D. Dutoi,  R. G. Edgar,  J. Fosso-Tande,  
 L. Fusti-Molnar,  D. Ghosh,  A. Ghysels,  A. Golubeva-Zadorozhnaya,  
 J. Gonthier,  M. S. Gordon,  S. R. Gwaltney,  G. Hawkins,  J. E. Herr,  
 A. Heyden,  S. Hirata,  E. G. Hohenstein,  G. Kedziora,  F. J. Keil,  
 C. Kelley,  Jihan Kim,  R. A. King,  R. Z. Khaliullin,  P. P. Korambath,  
 W. Kurlancheek,  A. Laurent,  A. M. Lee,  M. S. Lee,  S. V. Levchenko,  
 Ching Yeh Lin,  D. Liotard,  E. Livshits,  R. C. Lochan,  I. Lotan,  
 L. A. Martinez-Martinez,  P. E. Maslen,  N. Nair,  D. P. O'Neill,  
 D. Neuhauser,  E. Neuscamman,  C. M. Oana,  R. Olivares-Amaya,  R. Olson,  
 T. M. Perrine,  B. Peters,  P. A. Pieniazek,  A. Prociuk,  Y. M. Rhee,  
 J. Ritchie,  M. A. Rohrdanz,  E. Rosta,  N. J. Russ,  H. F. Schaefer III,  
 M. W. Schmidt,  N. E. Schultz,  S. Sharma,  N. Shenvi,  C. D. Sherrill,  
 A. C. Simmonett,  A. Sodt,  T. Stein,  D. Stuck,  K. S. Thanthiriwatte,  
 V. Vanovschi,  L. Vogt,  Tao Wang,  A. Warshel,  M. A. Watson,  
 C. F. Williams,  Q. Wu,  X. Xu,  Jun Yang,  W. Zhang,  Yan Zhao

 Please cite Q-Chem as follows:
 Y. Shao et al., Mol. Phys. 113, 184-215 (2015)
 DOI: 10.1080/00268976.2014.952696

 Q-Chem 5.4.0 for Intel X86 EM64T Linux

 Parts of Q-Chem use Armadillo 9.800.1 (Horizon Scraper).
 http://arma.sourceforge.net/

 Q-Chem begins on Thu Feb 22 04:35:57 2024  

 Host: 
0

     Scratch files written to /expanse/lustre/scratch/selhajj/temp_project/qcscratch/28869665/qchem434149//
 May1621 |scratch|qcdevops|jenkins|workspace|build_RNUM    
 Processing $rem in /cm/shared/apps/spack/cpu/opt/spack/linux-centos8-zen2/gcc-10.2.0/qchem-5.4-akfmr7b3t57bfs6qan3padb2wnb2i7cl/config/preferences:
 Processing $rem in /home/selhajj/.qchemrc:

 Checking the input file for inconsistencies... 
 Q-Chem warning in module libgen/CheckREMs.C, line 172:

 Found a $solvent section, which is only used for PCM and Kirkwood-Onsager solvation models

	...done.

--------------------------------------------------------------
User input:
--------------------------------------------------------------
$molecule
-1 2
N                 -4.5012680000     -0.0318300000      0.1831410000
C                 -3.1261000000     -0.3799420000      0.2402570000
C                 -2.7532370000     -1.6187580000      0.7921720000
C                 -1.4234120000     -1.9538090000      0.9272580000
C                 -0.4069580000     -1.0614310000      0.5386710000
C                  0.9838170000     -1.4838780000      0.7302800000
O                  1.2765030000     -2.5944360000      1.2365970000
C                  2.0137920000     -0.5432090000      0.2936500000
C                  3.3754850000     -0.8818950000      0.4453780000
C                  4.3760550000     -0.0218420000      0.0387450000
C                  4.0381540000      1.2220690000     -0.5406870000
C                  2.7130880000      1.5736010000     -0.6986160000
C                  1.6710430000      0.7086220000     -0.2895600000
C                  0.2857890000      1.1281820000     -0.4755930000
O                  0.0331940000      2.2576560000     -1.0067030000
C                 -0.7567400000      0.2043420000     -0.0324600000
C                 -2.1452900000      0.5200010000     -0.1927480000
N                 -2.5601850000      1.7529470000     -0.7416120000
H                 -5.0860350000     -0.7055950000     -0.2935840000
H                 -4.6627460000      0.9056540000     -0.1571470000
H                 -3.5329160000     -2.2929330000      1.1359640000
H                 -1.1195390000     -2.9017320000      1.3538290000
H                  3.6007720000     -1.8433670000      0.8925670000
H                  5.4190030000     -0.2981020000      0.1631140000
H                  4.8227780000      1.9016400000     -0.8608410000
H                  2.4286990000      2.5219330000     -1.1388460000
H                 -1.7329280000      2.2778070000     -1.0485710000
H                 -3.2308190000      1.6383040000     -1.4946530000
$end
$rem
MAX_SCF_CYCLES=200
BASIS  =  6-311++G(d,p)
GUI  =  2
JOB_TYPE  =  SP
METHOD  =  B3LYP
SOLVENT_METHOD = COSMO
$end
$solvent
dielectric 37.219
opticaldielectric 1.43
$end





--------------------------------------------------------------
 ----------------------------------------------------------------
             Standard Nuclear Orientation (Angstroms)
    I     Atom           X                Y                Z
 ----------------------------------------------------------------
    1      N       4.5853740757    -0.2185538964     0.1107770880
    2      C       3.2318863335     0.1996374256     0.0174058925
    3      C       2.9376066931     1.5748420171    -0.0052632642
    4      C       1.6307085280     2.0114901635    -0.0225118269
    5      C       0.5600059761     1.0985707102     0.0037789094
    6      C      -0.8017909507     1.6416467012     0.0009196724
    7      O      -1.0238030866     2.8769496198    -0.0089990644
    8      C      -1.8897100442     0.6655450557     0.0040896551
    9      C      -3.2278102982     1.1143342758     0.0004338400
   10      C      -4.2814509219     0.2221407488    -0.0033119312
   11      C      -4.0230419513    -1.1672684435    -0.0033806310
   12      C      -2.7223287143    -1.6281902806     0.0001344436
   13      C      -1.6269659385    -0.7329030646     0.0039362645
   14      C      -0.2703894177    -1.2706974067     0.0106373150
   15      O      -0.0900110585    -2.5312674962     0.0061340235
   16      C       0.8293619334    -0.3078035849     0.0204541809
   17      C       2.1952424380    -0.7409109860     0.0065842148
   18      N       2.5318650260    -2.1119348568     0.0294789618
   19      H       5.1916995033     0.1564327175    -0.6068112065
   20      H       4.6895631120    -1.2196748250     0.1982347851
   21      H       3.7595348709     2.2850397970     0.0203764895
   22      H       1.3871059035     3.0666375995    -0.0359759244
   23      H      -3.3917313364     2.1859172910    -0.0001790603
   24      H      -5.3052514712     0.5845684150    -0.0058394483
   25      H      -4.8495802649    -1.8720952636    -0.0053091146
   26      H      -2.4985483483    -2.6883477387     0.0014190681
   27      H       1.6710753083    -2.6687485145    -0.0257985550
   28      H       3.1880301810    -2.3643651854    -0.7024294653
 ----------------------------------------------------------------
 Molecular Point Group                 C1    NOp =  1
 Largest Abelian Subgroup              C1    NOp =  1
 Nuclear Repulsion Energy =        1221.59688235 hartrees
 There are       63 alpha and       62 beta electrons
 Requested basis set is 6-311++G(d,p)
 There are 158 shells and 466 basis functions

 Total QAlloc Memory Limit   8000 MB
 Mega-Array Size       188 MB
 MEM_STATIC part       192 MB
 A cutoff of  1.0D-08 yielded   8735 shell pairs
 There are     79373 function pairs (     84989 Cartesian)
 Smallest overlap matrix eigenvalue = 6.54E-08

 Q-Chem warning in module stvman/mkSTV.C, line 323:

 Overlap eigenvalue is smaller than square root of threshold
 Use THRESH >= 12 to get rid of this warning

 Linear dependence detected in AO basis
 Tighter screening thresholds may be required for diffuse basis sets
 Use S2THRESH > 14 and THRESH = 14 in case of SCF convergence issues
 Number of orthogonalized atomic orbitals = 459
 Maximum deviation from orthogonality = 2.418E-10

 Scale SEOQF with 1.000000e-02/1.000000e-01/1.000000e-01

 Standard Electronic Orientation quadrupole field applied
 Nucleus-field energy     =     0.0000000250 hartrees
 Guess from superposition of atomic densities
 Warning:  Energy on first SCF cycle will be non-variational
 SAD guess density has 124.000000 electrons

 -----------------------------------------------------------------------
  General SCF calculation program by
  Eric Jon Sundstrom, Paul Horn, Yuezhi Mao, Dmitri Zuev, Alec White,
  David Stuck, Shaama M.S., Shane Yost, Joonho Lee, David Small,
  Daniel Levine, Susi Lehtola, Hugh Burton, Evgeny Epifanovsky,
  Bang C. Huynh
 -----------------------------------------------------------------------
 Exchange:     0.2000 Hartree-Fock + 0.0800 Slater + 0.7200 B88
 Correlation:  0.1900 VWN1RPA + 0.8100 LYP
 Using SG-1 standard quadrature grid
 using 8 threads for integral computing
 -------------------------------------------------------
 OpenMP Integral computing Module                
 Release: version 1.0, May 2013, Q-Chem Inc. Pittsburgh 
 -------------------------------------------------------
 A unrestricted SCF calculation will be
 performed using DIIS
 SCF converges when DIIS error is below 1.0e-05
 ---------------------------------------
  Cycle       Energy         DIIS error
 ---------------------------------------
    1    -804.0823837281      1.57e-02  
    2    -799.3899880693      1.93e-03  
    3    -797.3844791579      4.18e-03  
    4    -799.3937819127      1.77e-03  
    5    -799.7533286069      3.64e-04  
    6    -799.7493746052      4.16e-04  
    7    -799.7685566354      8.78e-05  
    8    -799.7693786388      3.86e-05  
    9    -799.7695395601      1.68e-05  
   10    -799.7695733073      1.08e-05  
   11    -799.7695934419      4.77e-06  Convergence criterion met
 ---------------------------------------
 SCF time:   CPU 439.36s  wall 56.00s 
<S^2> =          0.759502050
 SCF   energy in the final basis set =     -799.7695934419
 Total energy in the final basis set =     -799.7695934419
 Exchange:     0.2000 Hartree-Fock + 0.0800 Slater + 0.7200 B88
 Correlation:  0.1900 VWN1RPA + 0.8100 LYP
 Using SG-1 standard quadrature grid
 in get_qchem_info
 IBasis=      401111
 IBasis=      401111
 USING 1082 GRID
 MICHARGE=          -1
 Set epsilon to    37.2190017700195     
==== cosmo data ====
outfile: 165-rad-COSMO.out.cosmo.0
phsran:    0.00000D+00
ampran:    0.10000D-04
volume:   1791.5829315
area:    874.6998293
routf:      0.8500000
rsolv [a.u]:      2.4566438
disex:     10.0000000
disex2:   4561.5350152
fepsi:      0.9731320
eps :    37.2190018
lcavity:     1
nppa:  1082
nspa:    92
nsph:    32
maxnps:  1976
natoms:    28
Atom   Radius [a.u.] nuc. charge
    1      3.4581986    7
    2      3.7794520    6
    3      3.7794520    6
    4      3.7794520    6
    5      3.7794520    6
    6      3.7794520    6
    7      3.2503287    8
    8      3.7794520    6
    9      3.7794520    6
   10      3.7794520    6
   11      3.7794520    6
   12      3.7794520    6
   13      3.7794520    6
   14      3.7794520    6
   15      3.2503287    8
   16      3.7794520    6
   17      3.7794520    6
   18      3.4581986    7
   19      2.4566438    1
   20      2.4566438    1
   21      2.4566438    1
   22      2.4566438    1
   23      2.4566438    1
   24      2.4566438    1
   25      2.4566438    1
   26      2.4566438    1
   27      2.4566438    1
   28      2.4566438    1
=== end cosmo data ===
 number of segments:         1069
 f_epsilon=  0.973132003749614     
Ediel:   -0.0811303
 A unrestricted SCF calculation will be
 performed using Roothaan-Hall, DIIS
 SCF converges when DIIS error is below 1.0e-05
 ---------------------------------------
  Cycle       Energy         DIIS error
 ---------------------------------------
 number of segments:         1069
 f_epsilon=  0.973132003749614     
Ediel:   -0.1020061
    1    -799.8507285149      1.45e-04  Roothaan Step
 ---------------------------------------
  Cycle       Energy         DIIS error
 ---------------------------------------
 number of segments:         1069
 f_epsilon=  0.973132003749614     
Ediel:   -0.0933265
    1    -799.8562601014      1.37e-04  
 number of segments:         1069
 f_epsilon=  0.973132003749614     
Ediel:   -0.0986345
    2    -799.8525977476      2.40e-04  
 number of segments:         1069
 f_epsilon=  0.973132003749614     
Ediel:   -0.0990789
    3    -799.8583687362      2.44e-05  
    4    -799.8584249924      8.62e-06  Convergence criterion met
 ---------------------------------------
 SCF time:   CPU 273.49s  wall 37.00s 
<S^2> =          0.758373670
before final oc correction, ETot:      -799.8584249924
 number of outlayer segments:          458
SCF energy after oc correction:      -799.8645337311
 SCF   energy in the final basis set =     -799.8645337311
 Total energy in the final basis set =     -799.8584249924
 
 --------------------------------------------------------------
 
                    Orbital Energies (a.u.)
 --------------------------------------------------------------
 
 Alpha MOs
 -- Occupied --
-19.0798 -19.0774 -14.3102 -14.2985 -10.2274 -10.2252 -10.2078 -10.2046
-10.1759 -10.1719 -10.1714 -10.1709 -10.1704 -10.1688 -10.1683 -10.1675
-10.1672 -10.1623  -1.0062  -1.0038  -0.9271  -0.8797  -0.8574  -0.8332
 -0.7777  -0.7500  -0.7330  -0.7234  -0.6639  -0.6349  -0.6183  -0.5850
 -0.5591  -0.5401  -0.5304  -0.5052  -0.4872  -0.4742  -0.4670  -0.4631
 -0.4461  -0.4350  -0.4240  -0.4220  -0.4155  -0.4145  -0.3980  -0.3859
 -0.3809  -0.3778  -0.3566  -0.3509  -0.3470  -0.3354  -0.3084  -0.3007
 -0.2645  -0.2570  -0.2500  -0.2413  -0.2339  -0.2067  -0.1394
 -- Virtual --
 -0.0491  -0.0182  -0.0037   0.0038   0.0051   0.0118   0.0212   0.0239
  0.0387   0.0415   0.0437   0.0450   0.0493   0.0568   0.0622   0.0647
  0.0679   0.0695   0.0756   0.0840   0.0906   0.0946   0.0969   0.1050
  0.1136   0.1165   0.1180   0.1203   0.1221   0.1243   0.1290   0.1314
  0.1341   0.1367   0.1416   0.1478   0.1503   0.1533   0.1570   0.1613
  0.1654   0.1689   0.1757   0.1771   0.1826   0.1835   0.1888   0.1917
  0.1928   0.2008   0.2053   0.2073   0.2099   0.2151   0.2213   0.2226
  0.2282   0.2291   0.2316   0.2375   0.2412   0.2430   0.2465   0.2504
  0.2522   0.2579   0.2593   0.2612   0.2654   0.2696   0.2763   0.2794
  0.2833   0.2873   0.2954   0.2974   0.3027   0.3049   0.3078   0.3112
  0.3144   0.3156   0.3219   0.3288   0.3330   0.3339   0.3388   0.3437
  0.3491   0.3509   0.3538   0.3586   0.3668   0.3734   0.3794   0.3926
  0.3949   0.4038   0.4079   0.4182   0.4334   0.4377   0.4413   0.4628
  0.4914   0.4955   0.5144   0.5165   0.5434   0.5484   0.5521   0.5549
  0.5595   0.5681   0.5692   0.5826   0.5886   0.5965   0.5969   0.6052
  0.6148   0.6188   0.6254   0.6309   0.6367   0.6441   0.6512   0.6532
  0.6606   0.6646   0.6671   0.6714   0.6795   0.6859   0.6878   0.6912
  0.7040   0.7310   0.7326   0.7485   0.7524   0.7639   0.7710   0.7788
  0.7827   0.7948   0.7984   0.8202   0.8267   0.8278   0.8344   0.8357
  0.8618   0.8677   0.8756   0.8820   0.8905   0.8953   0.9051   0.9090
  0.9163   0.9254   0.9394   0.9445   0.9526   0.9547   0.9612   0.9638
  0.9815   0.9903   0.9979   1.0001   1.0116   1.0169   1.0251   1.0286
  1.0408   1.0459   1.0648   1.0736   1.0892   1.0903   1.1059   1.1086
  1.1346   1.1498   1.1527   1.1672   1.1723   1.1923   1.2041   1.2262
  1.2342   1.2424   1.2589   1.2715   1.2940   1.3155   1.3247   1.3307
  1.3490   1.3632   1.3975   1.4238   1.4586   1.4670   1.4850   1.4917
  1.5050   1.5104   1.5215   1.5306   1.5335   1.5476   1.5559   1.5575
  1.5742   1.5761   1.5846   1.6047   1.6187   1.6255   1.6317   1.6598
  1.6622   1.6790   1.6826   1.6978   1.7099   1.7182   1.7275   1.7496
  1.7558   1.7731   1.7861   1.7917   1.8078   1.8245   1.8415   1.8559
  1.8639   1.8932   1.9029   1.9055   1.9139   1.9256   1.9404   1.9498
  1.9532   1.9623   1.9761   1.9815   1.9860   1.9933   1.9967   1.9991
  2.0239   2.0346   2.0493   2.0638   2.0831   2.0943   2.1042   2.1257
  2.1366   2.1641   2.1742   2.1974   2.2301   2.2463   2.2783   2.3005
  2.3112   2.3307   2.3404   2.3774   2.3902   2.4060   2.4524   2.4724
  2.4891   2.4990   2.5322   2.5516   2.5755   2.6107   2.6135   2.6376
  2.6455   2.6482   2.6677   2.6733   2.6839   2.7164   2.7272   2.7366
  2.7434   2.7506   2.7649   2.7689   2.7776   2.7783   2.7882   2.7898
  2.8033   2.8189   2.8246   2.8258   2.8414   2.8622   2.8632   2.8883
  2.8918   2.9063   2.9149   2.9199   2.9300   2.9452   2.9575   2.9691
  2.9917   3.0210   3.0421   3.0547   3.0724   3.1025   3.1213   3.1447
  3.1660   3.1818   3.2197   3.2329   3.2461   3.2654   3.2994   3.3175
  3.3305   3.3508   3.3586   3.3745   3.3941   3.4432   3.4751   3.4991
  3.5184   3.5295   3.5648   3.5742   3.5886   3.5998   3.6752   3.7635
  3.8245   3.8454   3.8873   3.9941   4.0501   4.0784   4.0914   4.1192
  4.1713   4.2077   4.2838   4.3164   4.4763   4.7718   4.7990   4.8249
  4.8464   4.8832   4.9281   5.0681   5.0773   5.0926   5.2873   5.3596
  5.7671   5.8428  23.5270  23.6933  23.8983  23.9171  23.9360  23.9490
 23.9642  23.9726  24.0172  24.0446  24.0539  24.1241  24.1941  24.1951
 35.6252  35.7023  50.0619  50.1150
 
 Beta MOs
 -- Occupied --
-19.0744 -19.0727 -14.3100 -14.2982 -10.2250 -10.2236 -10.2073 -10.2038
-10.1757 -10.1712 -10.1710 -10.1703 -10.1695 -10.1688 -10.1681 -10.1670
-10.1670 -10.1621  -0.9974  -0.9947  -0.9258  -0.8790  -0.8550  -0.8319
 -0.7741  -0.7477  -0.7314  -0.7211  -0.6569  -0.6332  -0.6159  -0.5841
 -0.5567  -0.5382  -0.5291  -0.5042  -0.4860  -0.4716  -0.4658  -0.4616
 -0.4453  -0.4335  -0.4220  -0.4134  -0.4123  -0.4099  -0.3956  -0.3810
 -0.3753  -0.3612  -0.3553  -0.3491  -0.3383  -0.3340  -0.3048  -0.2932
 -0.2503  -0.2482  -0.2454  -0.2366  -0.2296  -0.1986
 -- Virtual --
 -0.0835  -0.0390  -0.0089  -0.0035   0.0041   0.0086   0.0119   0.0214
  0.0239   0.0394   0.0416   0.0439   0.0451   0.0531   0.0607   0.0643
  0.0651   0.0694   0.0763   0.0796   0.0867   0.0909   0.0954   0.0973
  0.1053   0.1139   0.1169   0.1184   0.1209   0.1224   0.1247   0.1293
  0.1318   0.1354   0.1373   0.1431   0.1496   0.1509   0.1537   0.1571
  0.1615   0.1657   0.1691   0.1767   0.1775   0.1835   0.1841   0.1894
  0.1926   0.1935   0.2015   0.2073   0.2079   0.2099   0.2160   0.2219
  0.2239   0.2288   0.2298   0.2336   0.2386   0.2418   0.2438   0.2474
  0.2514   0.2538   0.2592   0.2608   0.2631   0.2659   0.2702   0.2770
  0.2800   0.2839   0.2877   0.2966   0.2981   0.3033   0.3057   0.3102
  0.3126   0.3150   0.3165   0.3226   0.3305   0.3336   0.3350   0.3407
  0.3452   0.3498   0.3517   0.3545   0.3593   0.3675   0.3743   0.3799
  0.3938   0.3957   0.4054   0.4085   0.4192   0.4345   0.4410   0.4419
  0.4640   0.4929   0.4970   0.5159   0.5177   0.5445   0.5499   0.5529
  0.5564   0.5635   0.5698   0.5708   0.5836   0.5894   0.5973   0.5988
  0.6068   0.6160   0.6203   0.6268   0.6317   0.6381   0.6454   0.6534
  0.6561   0.6627   0.6663   0.6688   0.6731   0.6802   0.6872   0.6887
  0.6930   0.7081   0.7316   0.7334   0.7514   0.7532   0.7647   0.7714
  0.7792   0.7833   0.7966   0.7993   0.8210   0.8272   0.8292   0.8348
  0.8361   0.8624   0.8688   0.8764   0.8827   0.8919   0.8961   0.9061
  0.9098   0.9179   0.9268   0.9410   0.9459   0.9538   0.9569   0.9627
  0.9657   0.9834   0.9923   0.9998   1.0020   1.0130   1.0181   1.0269
  1.0296   1.0430   1.0477   1.0682   1.0746   1.0906   1.0928   1.1112
  1.1143   1.1391   1.1534   1.1556   1.1698   1.1763   1.1959   1.2051
  1.2295   1.2421   1.2451   1.2647   1.2743   1.2954   1.3173   1.3267
  1.3331   1.3510   1.3639   1.3997   1.4256   1.4601   1.4679   1.4885
  1.4930   1.5059   1.5132   1.5225   1.5319   1.5373   1.5484   1.5577
  1.5586   1.5753   1.5769   1.5863   1.6062   1.6199   1.6270   1.6327
  1.6616   1.6641   1.6805   1.6841   1.6983   1.7117   1.7206   1.7291
  1.7509   1.7570   1.7752   1.7875   1.7951   1.8110   1.8261   1.8427
  1.8576   1.8649   1.8947   1.9057   1.9079   1.9159   1.9278   1.9421
  1.9515   1.9553   1.9638   1.9790   1.9849   1.9870   1.9950   1.9990
  2.0005   2.0253   2.0359   2.0502   2.0654   2.0844   2.0963   2.1062
  2.1276   2.1383   2.1650   2.1758   2.1994   2.2317   2.2480   2.2805
  2.3027   2.3135   2.3343   2.3435   2.3785   2.3936   2.4084   2.4537
  2.4739   2.4899   2.4992   2.5332   2.5529   2.5763   2.6119   2.6162
  2.6389   2.6485   2.6512   2.6692   2.6744   2.6873   2.7177   2.7275
  2.7373   2.7459   2.7513   2.7656   2.7693   2.7784   2.7844   2.7889
  2.7904   2.8047   2.8239   2.8279   2.8282   2.8423   2.8635   2.8694
  2.8937   2.8971   2.9078   2.9180   2.9230   2.9342   2.9492   2.9659
  2.9758   2.9979   3.0245   3.0471   3.0587   3.0738   3.1062   3.1248
  3.1463   3.1688   3.1864   3.2210   3.2338   3.2477   3.2665   3.3011
  3.3311   3.3320   3.3593   3.3639   3.3754   3.3953   3.4441   3.4760
  3.5003   3.5207   3.5316   3.5660   3.5754   3.5900   3.6011   3.6766
  3.7645   3.8260   3.8495   3.8893   3.9957   4.0511   4.0794   4.0928
  4.1204   4.1724   4.2088   4.2863   4.3196   4.4793   4.7721   4.8009
  4.8278   4.8477   4.8841   4.9290   5.0688   5.0978   5.1138   5.2913
  5.3640   5.7716   5.8475  23.5277  23.6939  23.8997  23.9183  23.9369
 23.9497  23.9658  23.9736  24.0177  24.0454  24.0547  24.1244  24.1944
 24.1955  35.6255  35.7025  50.0670  50.1201
 --------------------------------------------------------------
 
          Ground-State Mulliken Net Atomic Charges

     Atom                 Charge (a.u.)    Spin (a.u.)
  --------------------------------------------------------
      1 N                    -0.458752       0.009849
      2 C                    -0.289731       0.057500
      3 C                    -0.348072       0.017257
      4 C                    -0.040960       0.039686
      5 C                     0.430836       0.014460
      6 C                    -0.415253       0.095612
      7 O                    -0.499872       0.174238
      8 C                     0.015157       0.034141
      9 C                     0.066860       0.015556
     10 C                    -0.500902       0.050327
     11 C                    -0.514994       0.031009
     12 C                     0.135614       0.041775
     13 C                     0.118549       0.033658
     14 C                    -0.507526       0.127104
     15 O                    -0.489905       0.193788
     16 C                     0.412766      -0.006920
     17 C                     0.110598       0.071631
     18 N                    -0.517109       0.013747
     19 H                     0.284282       0.001530
     20 H                     0.279882      -0.000021
     21 H                     0.214241      -0.001976
     22 H                     0.172768      -0.002483
     23 H                     0.174127      -0.000503
     24 H                     0.199756      -0.004047
     25 H                     0.201418      -0.002686
     26 H                     0.178556      -0.001656
     27 H                     0.326651      -0.003231
     28 H                     0.261015       0.000656
  --------------------------------------------------------
  Sum of atomic charges =    -1.000000
  Sum of spin   charges =     1.000000

 -----------------------------------------------------------------
                    Cartesian Multipole Moments
 -----------------------------------------------------------------
    Charge (ESU x 10^10)
                -4.8032
    Dipole Moment (Debye)
         X       3.6198      Y      -2.4671      Z      -2.7472
       Tot       5.1707
    Quadrupole Moments (Debye-Ang)
        XX     -98.6940     XY       4.0828     YY    -138.1623
        XZ     -11.7710     YZ       3.1970     ZZ    -112.6850
    Octopole Moments (Debye-Ang^2)
       XXX      40.5539    XXY     -23.7497    XYY      36.3013
       YYY     -38.0447    XXZ     -53.5625    XYZ       8.7657
       YYZ      -9.4752    XZZ       8.9673    YZZ      -3.3509
       ZZZ      -3.6882
    Hexadecapole Moments (Debye-Ang^3)
      XXXX   -3943.0818   XXXY     -61.3623   XXYY    -940.6468
      XYYY      60.0962   YYYY   -1905.6247   XXXZ    -256.3394
      XXYZ      23.5020   XYYZ     -30.4189   YYYZ      26.3332
      XXZZ    -839.2158   XYZZ     -16.2206   YYZZ    -310.4640
      XZZZ     -15.6959   YZZZ       4.6361   ZZZZ    -137.9688
 -----------------------------------------------------------------
 Total job time:  96.46s(wall), 721.58s(cpu) 
 Thu Feb 22 04:37:34 2024

        *************************************************************
        *                                                           *
        *  Thank you very much for using Q-Chem.  Have a nice day.  *
        *                                                           *
        *************************************************************


