 Entering Gaussian System, Link 0=g16
 Input=101-rad.com
 Output=101-rad.log
 Initial command:
 /sysapps/ubuntu-applications/gaussian/Gaussian/AVX2/g16/l1.exe "/scratch/selhajj1/4219815/Gau-1445554.inp" -scrdir="/scratch/selhajj1/4219815/"
 Entering Link 1 = /sysapps/ubuntu-applications/gaussian/Gaussian/AVX2/g16/l1.exe PID=   1445576.
  
 Copyright (c) 1988,1990,1992,1993,1995,1998,2003,2009,2016,
            Gaussian, Inc.  All Rights Reserved.
  
 This is part of the Gaussian(R) 16 program.  It is based on
 the Gaussian(R) 09 system (copyright 2009, Gaussian, Inc.),
 the Gaussian(R) 03 system (copyright 2003, Gaussian, Inc.),
 the Gaussian(R) 98 system (copyright 1998, Gaussian, Inc.),
 the Gaussian(R) 94 system (copyright 1995, Gaussian, Inc.),
 the Gaussian 92(TM) system (copyright 1992, Gaussian, Inc.),
 the Gaussian 90(TM) system (copyright 1990, Gaussian, Inc.),
 the Gaussian 88(TM) system (copyright 1988, Gaussian, Inc.),
 the Gaussian 86(TM) system (copyright 1986, Carnegie Mellon
 University), and the Gaussian 82(TM) system (copyright 1983,
 Carnegie Mellon University). Gaussian is a federally registered
 trademark of Gaussian, Inc.
  
 This software contains proprietary and confidential information,
 including trade secrets, belonging to Gaussian, Inc.
  
 This software is provided under written license and may be
 used, copied, transmitted, or stored only in accord with that
 written license.
  
 The following legend is applicable only to US Government
 contracts under FAR:
  
                    RESTRICTED RIGHTS LEGEND
  
 Use, reproduction and disclosure by the US Government is
 subject to restrictions as set forth in subparagraphs (a)
 and (c) of the Commercial Computer Software - Restricted
 Rights clause in FAR 52.227-19.
  
 Gaussian, Inc.
 340 Quinnipiac St., Bldg. 40, Wallingford CT 06492
  
  
 ---------------------------------------------------------------
 Warning -- This program may not be used in any manner that
 competes with the business of Gaussian, Inc. or will provide
 assistance to any competitor of Gaussian, Inc.  The licensee
 of this program is prohibited from giving any competitor of
 Gaussian, Inc. access to this program.  By using this program,
 the user acknowledges that Gaussian, Inc. is engaged in the
 business of creating and licensing software in the field of
 computational chemistry and represents and warrants to the
 licensee that it is not a competitor of Gaussian, Inc. and that
 it will not use this program in any manner prohibited above.
 ---------------------------------------------------------------
  

 Cite this work as:
 Gaussian 16, Revision A.03,
 M. J. Frisch, G. W. Trucks, H. B. Schlegel, G. E. Scuseria, 
 M. A. Robb, J. R. Cheeseman, G. Scalmani, V. Barone, 
 G. A. Petersson, H. Nakatsuji, X. Li, M. Caricato, A. V. Marenich, 
 J. Bloino, B. G. Janesko, R. Gomperts, B. Mennucci, H. P. Hratchian, 
 J. V. Ortiz, A. F. Izmaylov, J. L. Sonnenberg, D. Williams-Young, 
 F. Ding, F. Lipparini, F. Egidi, J. Goings, B. Peng, A. Petrone, 
 T. Henderson, D. Ranasinghe, V. G. Zakrzewski, J. Gao, N. Rega, 
 G. Zheng, W. Liang, M. Hada, M. Ehara, K. Toyota, R. Fukuda, 
 J. Hasegawa, M. Ishida, T. Nakajima, Y. Honda, O. Kitao, H. Nakai, 
 T. Vreven, K. Throssell, J. A. Montgomery, Jr., J. E. Peralta, 
 F. Ogliaro, M. J. Bearpark, J. J. Heyd, E. N. Brothers, K. N. Kudin, 
 V. N. Staroverov, T. A. Keith, R. Kobayashi, J. Normand, 
 K. Raghavachari, A. P. Rendell, J. C. Burant, S. S. Iyengar, 
 J. Tomasi, M. Cossi, J. M. Millam, M. Klene, C. Adamo, R. Cammi, 
 J. W. Ochterski, R. L. Martin, K. Morokuma, O. Farkas, 
 J. B. Foresman, and D. J. Fox, Gaussian, Inc., Wallingford CT, 2016.
 
 ******************************************
 Gaussian 16:  ES64L-G16RevA.03 25-Dec-2016
                20-Dec-2023 
 ******************************************
 %chk=101-rad.chk
 %nproc=8
 Will use up to    8 processors via shared memory.
 %mem=30GB
 --------------------------------------
 #P UB3LYP/6-311++G(d,p) nosym opt freq
 --------------------------------------
 1/18=20,19=15,26=3,38=1/1,3;
 2/9=110,12=2,15=1,17=6,18=5,40=1/2;
 3/5=4,6=6,7=1111,11=2,25=1,30=1,71=1,74=-5,116=2/1,2,3;
 4//1;
 5/5=2,38=5/2;
 6/7=2,8=2,9=2,10=2,28=1/1;
 7/30=1/1,2,3,16;
 1/18=20,19=15,26=3/3(2);
 2/9=110,15=1/2;
 99//99;
 2/9=110,15=1/2;
 3/5=4,6=6,7=1111,11=2,25=1,30=1,71=1,74=-5,116=2/1,2,3;
 4/5=5,16=3,69=1/1;
 5/5=2,38=5/2;
 7/30=1/1,2,3,16;
 1/18=20,19=15,26=3/3(-5);
 2/9=110,15=1/2;
 6/7=2,8=2,9=2,10=2,19=2,28=1/1;
 99/9=1/99;
 Leave Link    1 at Wed Dec 20 01:21:57 2023, MaxMem=  4026531840 cpu:               1.4 elap:               0.2
 (Enter /sysapps/ubuntu-applications/gaussian/Gaussian/AVX2/g16/l101.exe)
 -------
 Radical
 -------
 Symbolic Z-matrix:
 Charge = -1 Multiplicity = 2
 C                    -2.20192  -4.99532   0.63818 
 C                    -0.98659  -5.55613  -0.00443 
 C                    -0.08676  -4.79438  -0.64729 
 C                    -0.36492  -3.31795  -0.75949 
 C                    -2.40908  -3.50786   0.6286 
 C                    -1.55266  -2.75387  -0.07635 
 O                    -3.05544  -5.69859   1.17816 
 O                     0.42277  -2.62496  -1.40433 
 N                    -3.56729  -3.0577    1.30434 
 N                     1.09382  -5.19716  -1.30291 
 C                    -3.50624  -2.74325   2.77154 
 C                    -2.62996  -1.53325   3.06332 
 C                    -4.93226  -2.44924   3.28602 
 C                     2.20101  -5.92942  -0.63166 
 C                     2.89338  -5.03144   0.38822 
 C                     3.2045   -6.42768  -1.6996 
 N                    -5.71571  -1.77019   2.37414 
 N                     2.58106  -6.88219  -2.84692 
 C                     3.33255  -7.29649  -4.00137 
 C                    -7.09741  -1.46636   2.63309 
 O                    -5.30377  -2.74897   4.41635 
 O                     4.41893  -6.46525  -1.53019 
 Cl                   -0.84592  -7.28334   0.06957 
 Cl                   -1.79651  -1.04806  -0.27295 
 H                    -4.23239  -3.84867   1.25791 
 H                     1.48901  -4.37001  -1.7805 
 H                    -3.13696  -3.62563   3.30792 
 H                    -2.65972  -1.28381   4.12992 
 H                    -2.96851  -0.64808   2.51424 
 H                    -1.58518  -1.72284   2.79898 
 H                     1.82832  -6.82566  -0.12821 
 H                     2.19527  -4.70063   1.16423 
 H                     3.31128  -4.13814  -0.08953 
 H                     3.71615  -5.55983   0.88166 
 H                    -5.35009  -1.70779   1.42728 
 H                     1.60573  -6.61479  -2.95041 
 H                     4.19456  -7.89647  -3.69779 
 H                     3.67907  -6.40519  -4.53094 
 H                     2.67836  -7.88238  -4.6508 
 H                    -7.69445  -2.35888   2.42884 
 H                    -7.40561  -0.65541   1.9694 
 H                    -7.23333  -1.16895   3.67622 
 
 ITRead=  0  0  0  0  0  0  0  0  0  0  0  0  0  0  0  0  0  0  0  0
 ITRead=  0  0  0  0  0  0  0  0  0  0  0  0  0  0  0  0  0  0  0  0
 ITRead=  0  0
 MicOpt= -1 -1 -1 -1 -1 -1 -1 -1 -1 -1 -1 -1 -1 -1 -1 -1 -1 -1 -1 -1
 MicOpt= -1 -1 -1 -1 -1 -1 -1 -1 -1 -1 -1 -1 -1 -1 -1 -1 -1 -1 -1 -1
 MicOpt= -1 -1
 NAtoms=     42 NQM=       42 NQMF=       0 NMMI=      0 NMMIF=      0
                NMic=       0 NMicF=      0.
                    Isotopes and Nuclear Properties:
 (Nuclear quadrupole moments (NQMom) in fm**2, nuclear magnetic moments (NMagM)
  in nuclear magnetons)

  Atom         1           2           3           4           5           6           7           8           9          10
 IAtWgt=          12          12          12          12          12          12          16          16          14          14
 AtmWgt=  12.0000000  12.0000000  12.0000000  12.0000000  12.0000000  12.0000000  15.9949146  15.9949146  14.0030740  14.0030740
 NucSpn=           0           0           0           0           0           0           0           0           2           2
 AtZEff=  -0.0000000  -0.0000000  -0.0000000  -0.0000000  -0.0000000  -0.0000000  -0.0000000  -0.0000000  -0.0000000  -0.0000000
 NQMom=    0.0000000   0.0000000   0.0000000   0.0000000   0.0000000   0.0000000   0.0000000   0.0000000   2.0440000   2.0440000
 NMagM=    0.0000000   0.0000000   0.0000000   0.0000000   0.0000000   0.0000000   0.0000000   0.0000000   0.4037610   0.4037610
 AtZNuc=   6.0000000   6.0000000   6.0000000   6.0000000   6.0000000   6.0000000   8.0000000   8.0000000   7.0000000   7.0000000

  Atom        11          12          13          14          15          16          17          18          19          20
 IAtWgt=          12          12          12          12          12          12          14          14          12          12
 AtmWgt=  12.0000000  12.0000000  12.0000000  12.0000000  12.0000000  12.0000000  14.0030740  14.0030740  12.0000000  12.0000000
 NucSpn=           0           0           0           0           0           0           2           2           0           0
 AtZEff=  -0.0000000  -0.0000000  -0.0000000  -0.0000000  -0.0000000  -0.0000000  -0.0000000  -0.0000000  -0.0000000  -0.0000000
 NQMom=    0.0000000   0.0000000   0.0000000   0.0000000   0.0000000   0.0000000   2.0440000   2.0440000   0.0000000   0.0000000
 NMagM=    0.0000000   0.0000000   0.0000000   0.0000000   0.0000000   0.0000000   0.4037610   0.4037610   0.0000000   0.0000000
 AtZNuc=   6.0000000   6.0000000   6.0000000   6.0000000   6.0000000   6.0000000   7.0000000   7.0000000   6.0000000   6.0000000

  Atom        21          22          23          24          25          26          27          28          29          30
 IAtWgt=          16          16          35          35           1           1           1           1           1           1
 AtmWgt=  15.9949146  15.9949146  34.9688527  34.9688527   1.0078250   1.0078250   1.0078250   1.0078250   1.0078250   1.0078250
 NucSpn=           0           0           3           3           1           1           1           1           1           1
 AtZEff=  -0.0000000  -0.0000000  -0.0000000  -0.0000000  -0.0000000  -0.0000000  -0.0000000  -0.0000000  -0.0000000  -0.0000000
 NQMom=    0.0000000   0.0000000  -8.1650000  -8.1650000   0.0000000   0.0000000   0.0000000   0.0000000   0.0000000   0.0000000
 NMagM=    0.0000000   0.0000000   0.8218740   0.8218740   2.7928460   2.7928460   2.7928460   2.7928460   2.7928460   2.7928460
 AtZNuc=   8.0000000   8.0000000  17.0000000  17.0000000   1.0000000   1.0000000   1.0000000   1.0000000   1.0000000   1.0000000

  Atom        31          32          33          34          35          36          37          38          39          40
 IAtWgt=           1           1           1           1           1           1           1           1           1           1
 AtmWgt=   1.0078250   1.0078250   1.0078250   1.0078250   1.0078250   1.0078250   1.0078250   1.0078250   1.0078250   1.0078250
 NucSpn=           1           1           1           1           1           1           1           1           1           1
 AtZEff=  -0.0000000  -0.0000000  -0.0000000  -0.0000000  -0.0000000  -0.0000000  -0.0000000  -0.0000000  -0.0000000  -0.0000000
 NQMom=    0.0000000   0.0000000   0.0000000   0.0000000   0.0000000   0.0000000   0.0000000   0.0000000   0.0000000   0.0000000
 NMagM=    2.7928460   2.7928460   2.7928460   2.7928460   2.7928460   2.7928460   2.7928460   2.7928460   2.7928460   2.7928460
 AtZNuc=   1.0000000   1.0000000   1.0000000   1.0000000   1.0000000   1.0000000   1.0000000   1.0000000   1.0000000   1.0000000

  Atom        41          42
 IAtWgt=           1           1
 AtmWgt=   1.0078250   1.0078250
 NucSpn=           1           1
 AtZEff=  -0.0000000  -0.0000000
 NQMom=    0.0000000   0.0000000
 NMagM=    2.7928460   2.7928460
 AtZNuc=   1.0000000   1.0000000
 Leave Link  101 at Wed Dec 20 01:21:58 2023, MaxMem=  4026531840 cpu:               3.6 elap:               0.5
 (Enter /sysapps/ubuntu-applications/gaussian/Gaussian/AVX2/g16/l103.exe)

 GradGradGradGradGradGradGradGradGradGradGradGradGradGradGradGradGradGrad
 Berny optimization.
 Initialization pass.
                           ----------------------------
                           !    Initial Parameters    !
                           ! (Angstroms and Degrees)  !
 --------------------------                            --------------------------
 ! Name  Definition              Value          Derivative Info.                !
 --------------------------------------------------------------------------------
 ! R1    R(1,2)                  1.4847         estimate D2E/DX2                !
 ! R2    R(1,5)                  1.5018         estimate D2E/DX2                !
 ! R3    R(1,7)                  1.2307         estimate D2E/DX2                !
 ! R4    R(2,3)                  1.3428         estimate D2E/DX2                !
 ! R5    R(2,23)                 1.7345         estimate D2E/DX2                !
 ! R6    R(3,4)                  1.5066         estimate D2E/DX2                !
 ! R7    R(3,10)                 1.4092         estimate D2E/DX2                !
 ! R8    R(4,6)                  1.4818         estimate D2E/DX2                !
 ! R9    R(4,8)                  1.2315         estimate D2E/DX2                !
 ! R10   R(5,6)                  1.3412         estimate D2E/DX2                !
 ! R11   R(5,9)                  1.4145         estimate D2E/DX2                !
 ! R12   R(6,24)                 1.7343         estimate D2E/DX2                !
 ! R13   R(9,11)                 1.5018         estimate D2E/DX2                !
 ! R14   R(9,25)                 1.0345         estimate D2E/DX2                !
 ! R15   R(10,14)                1.4875         estimate D2E/DX2                !
 ! R16   R(10,26)                1.0337         estimate D2E/DX2                !
 ! R17   R(11,12)                1.5222         estimate D2E/DX2                !
 ! R18   R(11,13)                1.5442         estimate D2E/DX2                !
 ! R19   R(11,27)                1.0967         estimate D2E/DX2                !
 ! R20   R(12,28)                1.0958         estimate D2E/DX2                !
 ! R21   R(12,29)                1.0953         estimate D2E/DX2                !
 ! R22   R(12,30)                1.0943         estimate D2E/DX2                !
 ! R23   R(13,17)                1.3807         estimate D2E/DX2                !
 ! R24   R(13,21)                1.227          estimate D2E/DX2                !
 ! R25   R(14,15)                1.5251         estimate D2E/DX2                !
 ! R26   R(14,16)                1.5478         estimate D2E/DX2                !
 ! R27   R(14,31)                1.0934         estimate D2E/DX2                !
 ! R28   R(15,32)                1.095          estimate D2E/DX2                !
 ! R29   R(15,33)                1.0958         estimate D2E/DX2                !
 ! R30   R(15,34)                1.0953         estimate D2E/DX2                !
 ! R31   R(16,18)                1.3826         estimate D2E/DX2                !
 ! R32   R(16,22)                1.2268         estimate D2E/DX2                !
 ! R33   R(17,20)                1.4382         estimate D2E/DX2                !
 ! R34   R(17,35)                1.0169         estimate D2E/DX2                !
 ! R35   R(18,19)                1.4384         estimate D2E/DX2                !
 ! R36   R(18,36)                1.0166         estimate D2E/DX2                !
 ! R37   R(19,37)                1.0933         estimate D2E/DX2                !
 ! R38   R(19,38)                1.0931         estimate D2E/DX2                !
 ! R39   R(19,39)                1.0922         estimate D2E/DX2                !
 ! R40   R(20,40)                1.0931         estimate D2E/DX2                !
 ! R41   R(20,41)                1.0923         estimate D2E/DX2                !
 ! R42   R(20,42)                1.0932         estimate D2E/DX2                !
 ! A1    A(2,1,5)              118.9628         estimate D2E/DX2                !
 ! A2    A(2,1,7)              122.8014         estimate D2E/DX2                !
 ! A3    A(5,1,7)              118.2354         estimate D2E/DX2                !
 ! A4    A(1,2,3)              122.7813         estimate D2E/DX2                !
 ! A5    A(1,2,23)             115.0901         estimate D2E/DX2                !
 ! A6    A(3,2,23)             122.0703         estimate D2E/DX2                !
 ! A7    A(2,3,4)              117.8945         estimate D2E/DX2                !
 ! A8    A(2,3,10)             128.4602         estimate D2E/DX2                !
 ! A9    A(4,3,10)             113.5862         estimate D2E/DX2                !
 ! A10   A(3,4,6)              119.1255         estimate D2E/DX2                !
 ! A11   A(3,4,8)              118.1884         estimate D2E/DX2                !
 ! A12   A(6,4,8)              122.6773         estimate D2E/DX2                !
 ! A13   A(1,5,6)              118.1676         estimate D2E/DX2                !
 ! A14   A(1,5,9)              115.1573         estimate D2E/DX2                !
 ! A15   A(6,5,9)              126.5151         estimate D2E/DX2                !
 ! A16   A(4,6,5)              122.6935         estimate D2E/DX2                !
 ! A17   A(4,6,24)             115.7767         estimate D2E/DX2                !
 ! A18   A(5,6,24)             121.5148         estimate D2E/DX2                !
 ! A19   A(5,9,11)             120.0061         estimate D2E/DX2                !
 ! A20   A(5,9,25)             105.1693         estimate D2E/DX2                !
 ! A21   A(11,9,25)            103.3021         estimate D2E/DX2                !
 ! A22   A(3,10,14)            123.6648         estimate D2E/DX2                !
 ! A23   A(3,10,26)            107.8507         estimate D2E/DX2                !
 ! A24   A(14,10,26)           108.5332         estimate D2E/DX2                !
 ! A25   A(9,11,12)            112.1552         estimate D2E/DX2                !
 ! A26   A(9,11,13)            109.1365         estimate D2E/DX2                !
 ! A27   A(9,11,27)            108.8482         estimate D2E/DX2                !
 ! A28   A(12,11,13)           108.4449         estimate D2E/DX2                !
 ! A29   A(12,11,27)           110.6087         estimate D2E/DX2                !
 ! A30   A(13,11,27)           107.5293         estimate D2E/DX2                !
 ! A31   A(11,12,28)           110.6031         estimate D2E/DX2                !
 ! A32   A(11,12,29)           111.6159         estimate D2E/DX2                !
 ! A33   A(11,12,30)           111.4451         estimate D2E/DX2                !
 ! A34   A(28,12,29)           107.1936         estimate D2E/DX2                !
 ! A35   A(28,12,30)           107.4882         estimate D2E/DX2                !
 ! A36   A(29,12,30)           108.3032         estimate D2E/DX2                !
 ! A37   A(11,13,17)           113.4272         estimate D2E/DX2                !
 ! A38   A(11,13,21)           122.6843         estimate D2E/DX2                !
 ! A39   A(17,13,21)           123.8306         estimate D2E/DX2                !
 ! A40   A(10,14,15)           110.4772         estimate D2E/DX2                !
 ! A41   A(10,14,16)           109.2495         estimate D2E/DX2                !
 ! A42   A(10,14,31)           110.951          estimate D2E/DX2                !
 ! A43   A(15,14,16)           110.8924         estimate D2E/DX2                !
 ! A44   A(15,14,31)           109.2353         estimate D2E/DX2                !
 ! A45   A(16,14,31)           105.9501         estimate D2E/DX2                !
 ! A46   A(14,15,32)           111.2462         estimate D2E/DX2                !
 ! A47   A(14,15,33)           111.196          estimate D2E/DX2                !
 ! A48   A(14,15,34)           110.9931         estimate D2E/DX2                !
 ! A49   A(32,15,33)           107.8077         estimate D2E/DX2                !
 ! A50   A(32,15,34)           107.7821         estimate D2E/DX2                !
 ! A51   A(33,15,34)           107.6499         estimate D2E/DX2                !
 ! A52   A(14,16,18)           112.7078         estimate D2E/DX2                !
 ! A53   A(14,16,22)           123.8061         estimate D2E/DX2                !
 ! A54   A(18,16,22)           123.4294         estimate D2E/DX2                !
 ! A55   A(13,17,20)           122.0125         estimate D2E/DX2                !
 ! A56   A(13,17,35)           116.1744         estimate D2E/DX2                !
 ! A57   A(20,17,35)           120.0062         estimate D2E/DX2                !
 ! A58   A(16,18,19)           121.6748         estimate D2E/DX2                !
 ! A59   A(16,18,36)           115.5068         estimate D2E/DX2                !
 ! A60   A(19,18,36)           119.6881         estimate D2E/DX2                !
 ! A61   A(18,19,37)           110.312          estimate D2E/DX2                !
 ! A62   A(18,19,38)           108.6372         estimate D2E/DX2                !
 ! A63   A(18,19,39)           108.5894         estimate D2E/DX2                !
 ! A64   A(37,19,38)           109.3934         estimate D2E/DX2                !
 ! A65   A(37,19,39)           110.0585         estimate D2E/DX2                !
 ! A66   A(38,19,39)           109.8273         estimate D2E/DX2                !
 ! A67   A(17,20,40)           108.5787         estimate D2E/DX2                !
 ! A68   A(17,20,41)           108.5729         estimate D2E/DX2                !
 ! A69   A(17,20,42)           110.4095         estimate D2E/DX2                !
 ! A70   A(40,20,41)           109.7893         estimate D2E/DX2                !
 ! A71   A(40,20,42)           109.423          estimate D2E/DX2                !
 ! A72   A(41,20,42)           110.0429         estimate D2E/DX2                !
 ! D1    D(5,1,2,3)             -2.9206         estimate D2E/DX2                !
 ! D2    D(5,1,2,23)           179.8065         estimate D2E/DX2                !
 ! D3    D(7,1,2,3)            176.829          estimate D2E/DX2                !
 ! D4    D(7,1,2,23)            -0.4439         estimate D2E/DX2                !
 ! D5    D(2,1,5,6)              6.4742         estimate D2E/DX2                !
 ! D6    D(2,1,5,9)           -177.822          estimate D2E/DX2                !
 ! D7    D(7,1,5,6)           -173.2869         estimate D2E/DX2                !
 ! D8    D(7,1,5,9)              2.4169         estimate D2E/DX2                !
 ! D9    D(1,2,3,4)             -2.4947         estimate D2E/DX2                !
 ! D10   D(1,2,3,10)          -179.5025         estimate D2E/DX2                !
 ! D11   D(23,2,3,4)           174.5907         estimate D2E/DX2                !
 ! D12   D(23,2,3,10)           -2.4172         estimate D2E/DX2                !
 ! D13   D(2,3,4,6)              4.568          estimate D2E/DX2                !
 ! D14   D(2,3,4,8)           -176.4805         estimate D2E/DX2                !
 ! D15   D(10,3,4,6)          -177.9882         estimate D2E/DX2                !
 ! D16   D(10,3,4,8)             0.9632         estimate D2E/DX2                !
 ! D17   D(2,3,10,14)          -58.4206         estimate D2E/DX2                !
 ! D18   D(2,3,10,26)          173.5762         estimate D2E/DX2                !
 ! D19   D(4,3,10,14)          124.4649         estimate D2E/DX2                !
 ! D20   D(4,3,10,26)           -3.5383         estimate D2E/DX2                !
 ! D21   D(3,4,6,5)             -0.941          estimate D2E/DX2                !
 ! D22   D(3,4,6,24)          -179.5517         estimate D2E/DX2                !
 ! D23   D(8,4,6,5)           -179.843          estimate D2E/DX2                !
 ! D24   D(8,4,6,24)             1.5463         estimate D2E/DX2                !
 ! D25   D(1,5,6,4)             -4.4785         estimate D2E/DX2                !
 ! D26   D(1,5,6,24)           174.0539         estimate D2E/DX2                !
 ! D27   D(9,5,6,4)           -179.6389         estimate D2E/DX2                !
 ! D28   D(9,5,6,24)            -1.1064         estimate D2E/DX2                !
 ! D29   D(1,5,9,11)            88.7537         estimate D2E/DX2                !
 ! D30   D(1,5,9,25)           -26.8318         estimate D2E/DX2                !
 ! D31   D(6,5,9,11)           -95.9597         estimate D2E/DX2                !
 ! D32   D(6,5,9,25)           148.4549         estimate D2E/DX2                !
 ! D33   D(5,9,11,12)           66.8422         estimate D2E/DX2                !
 ! D34   D(5,9,11,13)         -172.9666         estimate D2E/DX2                !
 ! D35   D(5,9,11,27)          -55.8806         estimate D2E/DX2                !
 ! D36   D(25,9,11,12)        -176.604          estimate D2E/DX2                !
 ! D37   D(25,9,11,13)         -56.4129         estimate D2E/DX2                !
 ! D38   D(25,9,11,27)          60.6731         estimate D2E/DX2                !
 ! D39   D(3,10,14,15)         -67.9266         estimate D2E/DX2                !
 ! D40   D(3,10,14,16)         169.8233         estimate D2E/DX2                !
 ! D41   D(3,10,14,31)          53.3753         estimate D2E/DX2                !
 ! D42   D(26,10,14,15)         59.7881         estimate D2E/DX2                !
 ! D43   D(26,10,14,16)        -62.462          estimate D2E/DX2                !
 ! D44   D(26,10,14,31)       -178.91           estimate D2E/DX2                !
 ! D45   D(9,11,12,28)         176.0061         estimate D2E/DX2                !
 ! D46   D(9,11,12,29)          56.754          estimate D2E/DX2                !
 ! D47   D(9,11,12,30)         -64.4828         estimate D2E/DX2                !
 ! D48   D(13,11,12,28)         55.4137         estimate D2E/DX2                !
 ! D49   D(13,11,12,29)        -63.8383         estimate D2E/DX2                !
 ! D50   D(13,11,12,30)        174.9248         estimate D2E/DX2                !
 ! D51   D(27,11,12,28)        -62.2728         estimate D2E/DX2                !
 ! D52   D(27,11,12,29)        178.4751         estimate D2E/DX2                !
 ! D53   D(27,11,12,30)         57.2383         estimate D2E/DX2                !
 ! D54   D(9,11,13,17)         -36.6304         estimate D2E/DX2                !
 ! D55   D(9,11,13,21)         146.0425         estimate D2E/DX2                !
 ! D56   D(12,11,13,17)         85.8169         estimate D2E/DX2                !
 ! D57   D(12,11,13,21)        -91.5102         estimate D2E/DX2                !
 ! D58   D(27,11,13,17)       -154.5487         estimate D2E/DX2                !
 ! D59   D(27,11,13,21)         28.1242         estimate D2E/DX2                !
 ! D60   D(11,13,17,20)        176.5281         estimate D2E/DX2                !
 ! D61   D(11,13,17,35)         11.8526         estimate D2E/DX2                !
 ! D62   D(21,13,17,20)         -6.1801         estimate D2E/DX2                !
 ! D63   D(21,13,17,35)       -170.8556         estimate D2E/DX2                !
 ! D64   D(10,14,15,32)         60.4785         estimate D2E/DX2                !
 ! D65   D(10,14,15,33)        -59.7009         estimate D2E/DX2                !
 ! D66   D(10,14,15,34)       -179.5111         estimate D2E/DX2                !
 ! D67   D(16,14,15,32)       -178.2409         estimate D2E/DX2                !
 ! D68   D(16,14,15,33)         61.5796         estimate D2E/DX2                !
 ! D69   D(16,14,15,34)        -58.2305         estimate D2E/DX2                !
 ! D70   D(31,14,15,32)        -61.8354         estimate D2E/DX2                !
 ! D71   D(31,14,15,33)        177.9851         estimate D2E/DX2                !
 ! D72   D(31,14,15,34)         58.175          estimate D2E/DX2                !
 ! D73   D(10,14,16,18)        -39.1344         estimate D2E/DX2                !
 ! D74   D(10,14,16,22)        143.5255         estimate D2E/DX2                !
 ! D75   D(15,14,16,18)       -161.1348         estimate D2E/DX2                !
 ! D76   D(15,14,16,22)         21.5251         estimate D2E/DX2                !
 ! D77   D(31,14,16,18)         80.4506         estimate D2E/DX2                !
 ! D78   D(31,14,16,22)        -96.8895         estimate D2E/DX2                !
 ! D79   D(14,16,18,19)        175.3206         estimate D2E/DX2                !
 ! D80   D(14,16,18,36)         15.4031         estimate D2E/DX2                !
 ! D81   D(22,16,18,19)         -7.3276         estimate D2E/DX2                !
 ! D82   D(22,16,18,36)       -167.2452         estimate D2E/DX2                !
 ! D83   D(13,17,20,40)        -80.1763         estimate D2E/DX2                !
 ! D84   D(13,17,20,41)        160.5001         estimate D2E/DX2                !
 ! D85   D(13,17,20,42)         39.7832         estimate D2E/DX2                !
 ! D86   D(35,17,20,40)         83.9276         estimate D2E/DX2                !
 ! D87   D(35,17,20,41)        -35.396          estimate D2E/DX2                !
 ! D88   D(35,17,20,42)       -156.1129         estimate D2E/DX2                !
 ! D89   D(16,18,19,37)         42.5636         estimate D2E/DX2                !
 ! D90   D(16,18,19,38)        -77.3373         estimate D2E/DX2                !
 ! D91   D(16,18,19,39)        163.2504         estimate D2E/DX2                !
 ! D92   D(36,18,19,37)       -158.3361         estimate D2E/DX2                !
 ! D93   D(36,18,19,38)         81.763          estimate D2E/DX2                !
 ! D94   D(36,18,19,39)        -37.6492         estimate D2E/DX2                !
 --------------------------------------------------------------------------------
 Trust Radius=3.00D-01 FncErr=1.00D-07 GrdErr=1.00D-06 EigMax=2.50D+02 EigMin=1.00D-04
 Number of steps in this run=    218 maximum allowed number of steps=    252.
 GradGradGradGradGradGradGradGradGradGradGradGradGradGradGradGradGradGrad

 Leave Link  103 at Wed Dec 20 01:21:58 2023, MaxMem=  4026531840 cpu:               0.4 elap:               0.2
 (Enter /sysapps/ubuntu-applications/gaussian/Gaussian/AVX2/g16/l202.exe)
                          Input orientation:                          
 ---------------------------------------------------------------------
 Center     Atomic      Atomic             Coordinates (Angstroms)
 Number     Number       Type             X           Y           Z
 ---------------------------------------------------------------------
      1          6           0       -2.201920   -4.995320    0.638180
      2          6           0       -0.986590   -5.556130   -0.004430
      3          6           0       -0.086760   -4.794380   -0.647290
      4          6           0       -0.364920   -3.317950   -0.759490
      5          6           0       -2.409080   -3.507860    0.628600
      6          6           0       -1.552660   -2.753870   -0.076350
      7          8           0       -3.055440   -5.698590    1.178160
      8          8           0        0.422770   -2.624960   -1.404330
      9          7           0       -3.567290   -3.057700    1.304340
     10          7           0        1.093820   -5.197160   -1.302910
     11          6           0       -3.506240   -2.743250    2.771540
     12          6           0       -2.629960   -1.533250    3.063320
     13          6           0       -4.932260   -2.449240    3.286020
     14          6           0        2.201010   -5.929420   -0.631660
     15          6           0        2.893380   -5.031440    0.388220
     16          6           0        3.204500   -6.427680   -1.699600
     17          7           0       -5.715710   -1.770190    2.374140
     18          7           0        2.581060   -6.882190   -2.846920
     19          6           0        3.332550   -7.296490   -4.001370
     20          6           0       -7.097410   -1.466360    2.633090
     21          8           0       -5.303770   -2.748970    4.416350
     22          8           0        4.418930   -6.465250   -1.530190
     23         17           0       -0.845920   -7.283340    0.069570
     24         17           0       -1.796510   -1.048060   -0.272950
     25          1           0       -4.232390   -3.848670    1.257910
     26          1           0        1.489010   -4.370010   -1.780500
     27          1           0       -3.136960   -3.625630    3.307920
     28          1           0       -2.659720   -1.283810    4.129920
     29          1           0       -2.968510   -0.648080    2.514240
     30          1           0       -1.585180   -1.722840    2.798980
     31          1           0        1.828320   -6.825660   -0.128210
     32          1           0        2.195270   -4.700630    1.164230
     33          1           0        3.311280   -4.138140   -0.089530
     34          1           0        3.716150   -5.559830    0.881660
     35          1           0       -5.350090   -1.707790    1.427280
     36          1           0        1.605730   -6.614790   -2.950410
     37          1           0        4.194560   -7.896470   -3.697790
     38          1           0        3.679070   -6.405190   -4.530940
     39          1           0        2.678360   -7.882380   -4.650800
     40          1           0       -7.694450   -2.358880    2.428840
     41          1           0       -7.405610   -0.655410    1.969400
     42          1           0       -7.233330   -1.168950    3.676220
 ---------------------------------------------------------------------
                    Distance matrix (angstroms):
                    1          2          3          4          5
     1  C    0.000000
     2  C    1.484750   0.000000
     3  C    2.483286   1.342843   0.000000
     4  C    2.853353   2.442548   1.506588   0.000000
     5  C    1.501847   2.572861   2.945539   2.478195   0.000000
     6  C    2.440531   2.859767   2.576532   1.481753   1.341235
     7  O    1.230717   2.387248   3.600406   4.081768   2.349276
     8  O    4.084048   3.540872   2.353532   1.231466   3.596066
     9  N    2.462189   3.822963   4.351897   3.818678   1.414468
    10  N    3.830205   2.478511   1.409198   2.440217   4.342208
    11  C    3.365159   4.686890   5.252464   4.760918   2.525981
    12  C    4.248582   5.319334   5.556209   4.788469   3.142568
    13  C    4.576935   6.004010   6.667044   6.162905   3.814314
    14  C    4.676626   3.270100   2.553909   3.663347   5.357718
    15  C    5.101555   3.934926   3.163813   3.856139   5.522242
    16  C    6.061868   4.604176   3.821965   4.826488   6.742266
    17  N    5.075603   6.508111   7.068228   6.391099   4.123131
    18  N    6.211529   4.750401   4.039132   5.073457   6.954627
    19  C    7.579655   6.136722   5.403896   6.325334   8.291963
    20  C    6.356024   7.811840   8.425309   7.763015   5.492371
    21  O    5.379789   6.786861   7.552572   7.176719   4.827235
    22  O    7.120265   5.689823   4.885956   5.777949   7.747790
    23  Cl   2.719759   1.734508   2.699099   4.079586   4.124346
    24  Cl   4.071287   4.588112   4.135008   2.727375   2.690474
    25  H    2.412816   3.878678   4.659442   4.394188   1.958735
    26  H    4.456904   3.269541   1.986783   2.363546   4.662850
    27  H    3.142907   4.395746   5.129657   4.931805   2.778927
    28  H    5.116360   6.176158   6.462659   5.771496   4.155534
    29  H    4.796432   5.861797   5.957479   4.962277   3.470870
    30  H    3.969704   4.786599   4.853493   4.086088   2.928422
    31  H    4.492253   3.090428   2.839555   4.184835   5.434714
    32  H    4.438339   3.495980   2.915142   3.488134   4.786401
    33  H    5.626695   4.526547   3.505485   3.825703   5.799611
    34  H    5.949917   4.785492   4.169619   4.937057   6.464755
    35  H    4.619687   5.991631   6.444651   5.676839   3.539447
    36  H    5.477121   4.064441   3.388625   4.421849   6.211363
    37  H    8.254227   6.779559   6.103951   7.098261   9.032475
    38  H    7.955726   6.555805   5.644371   6.333146   8.490050
    39  H    7.754067   6.358620   5.762788   6.725910   8.537595
    40  H    6.350210   7.819117   8.559859   8.050296   5.700540
    41  H    6.905458   8.313656   8.805890   8.006702   5.907582
    42  H    7.013265   8.474449   9.105490   8.453921   6.166999
                    6          7          8          9         10
     6  C    0.000000
     7  O    3.536032   0.000000
     8  O    2.383794   5.311723   0.000000
     9  N    2.461169   2.692993   4.841976   0.000000
    10  N    3.804993   4.860401   2.660227   5.753346   0.000000
    11  C    3.453558   3.387642   5.734893   1.501760   6.616900
    12  C    3.536667   4.591832   5.520044   2.509292   6.808431
    13  C    4.777031   4.303929   7.120857   2.482020   8.057480
    14  C    4.947982   5.564081   3.831268   6.728161   1.487498
    15  C    5.017013   6.038009   3.886939   6.817271   2.475035
    16  C    6.225945   6.928198   4.720793   8.138646   2.475179
    17  N    4.929859   4.892824   7.258678   2.723575   8.463718
    18  N    6.465812   7.026543   4.986310   8.346370   2.726752
    19  C    7.739926   8.377782   6.085608   9.681203   4.086659
    20  C    6.304205   6.030432   8.613723   4.093860   9.823809
    21  O    5.852795   4.923527   8.166331   3.577050   8.923717
    22  O    7.179685   7.986810   5.543732   9.133765   3.565959
    23  Cl   4.586597   2.936389   5.048015   5.175572   3.162031
    24  Cl   1.734330   5.031705   2.948192   3.108401   5.160412
    25  H    3.187442   2.194032   5.500500   1.034479   6.061744
    26  H    3.842889   5.583083   2.079320   6.066677   1.033656
    27  H    3.837089   2.973161   5.989851   2.126514   6.452051
    28  H    4.591227   5.325389   6.475210   3.457495   7.675872
    29  H    3.626312   5.224971   5.546533   2.762004   7.194949
    30  H    3.054767   4.538206   4.744839   2.818610   6.006117
    31  H    5.292749   5.179575   4.609765   6.735156   2.138089
    32  H    4.401806   5.344724   3.748021   5.993826   2.747092
    33  H    5.057103   6.676613   3.515950   7.101053   2.740610
    34  H    6.045788   6.779498   4.968457   7.712834   3.432272
    35  H    4.216119   4.610202   6.495008   2.239586   7.820078
    36  H    5.756939   6.293729   4.439426   7.583925   2.232931
    37  H    8.520076   9.009332   6.875695  10.425033   4.757763
    38  H    7.781164   8.857016   5.888066   9.887665   4.308484
    39  H    8.070238   8.462989   6.577820   9.886828   4.574882
    40  H    6.644816   5.851348   8.980716   4.334316   9.960697
    41  H    6.545659   6.706989   8.748984   4.576680  10.177220
    42  H    6.990262   6.649264   9.303108   4.757420  10.505220
                   11         12         13         14         15
    11  C    0.000000
    12  C    1.522203   0.000000
    13  C    1.544236   2.487814   0.000000
    14  C    7.369271   7.504496   8.851181   0.000000
    15  C    7.202164   7.064048   8.735310   1.525090   0.000000
    16  C    8.865672   8.982303  10.338823   1.547821   2.530864
    17  N    2.446739   3.170641   1.380735   9.434431   9.417859
    18  N    9.260299   9.523488  10.663676   2.441226   3.740180
    19  C   10.647692  10.893866  12.037814   3.808439   4.959014
    20  C    3.813937   4.488617   2.465815  10.818415  10.842745
    21  O    2.436503   3.233872   1.226990   9.587460   9.414285
    22  O    9.755331   9.752528  11.259173   2.452272   2.839615
    23  Cl   5.915265   6.723754   7.100158   3.407140   4.376638
    24  Cl   3.881464   3.472858   4.945958   6.319534   6.188661
    25  H    2.010055   3.344915   2.561533   7.020586   7.275432
    26  H    6.951254   6.962450   8.401886   2.063622   2.667038
    27  H    1.096661   2.166779   2.146503   7.022938   6.845871
    28  H    2.166047   1.095784   2.689764   8.238995   7.673459
    29  H    2.178324   1.095277   2.774191   8.032009   7.622044
    30  H    2.175422   1.094251   3.459452   6.618145   6.067627
    31  H    7.316567   7.620481   8.747312   1.093438   2.149483
    32  H    6.238750   6.076322   7.769970   2.176047   1.094981
    33  H    7.523963   7.212784   9.066569   2.176072   1.095842
    34  H    7.979203   7.825989   9.500090   2.173105   1.095276
    35  H    2.505792   3.179025   2.044320   8.892722   8.948804
    36  H    8.594287   8.940250   9.949381   2.490119   3.912990
    37  H   11.300895  11.522901  12.717891   4.152671   5.157223
    38  H   10.879554  11.009652  12.284519   4.197071   5.167459
    39  H   10.943083  11.313592  12.265140   4.493929   5.793601
    40  H    4.219750   5.170424   2.893547  10.956073  11.108954
    41  H    4.495285   4.977358   3.326977  11.263563  11.301282
    42  H    4.145849   4.658259   2.662015  11.411690  11.326077
                   16         17         18         19         20
    16  C    0.000000
    17  N   10.856229   0.000000
    18  N    1.382606  11.055696   0.000000
    19  C    2.463610  12.371666   1.438449   0.000000
    20  C   12.227684   1.438215  12.370712  13.667134   0.000000
    21  O   11.105333   2.301809  11.489523  12.888909   2.835886
    22  O    1.226765  11.832088   2.298996   2.824520  13.226787
    23  Cl   4.502002   7.708484   4.517856   5.833724   8.915717
    24  Cl   7.482362   4.784212   7.734695   8.902317   6.059669
    25  H    8.408656   2.786806   8.513223   9.837469   3.971758
    26  H    2.680197   8.713672   2.939536   4.110376  10.081546
    27  H    8.552243   3.311277   9.010160  10.428590   4.561031
    28  H    9.738161   3.557865  10.367446  11.754892   4.686888
    29  H    9.448083   2.970836   9.919874  11.240902   4.210881
    30  H    8.081694   4.152591   8.709342  10.074443   5.520687
    31  H    2.126388   9.419762   2.821559   4.181597  10.771051
    32  H    3.493246   8.522615   4.582288   5.891971   9.948465
    33  H    2.801021   9.652119   3.958059   5.027735  11.085662
    34  H    2.770894  10.273697   4.115747   5.196837  11.694318
    35  H   10.258448   1.016915  10.389723  11.665850   2.136678
    36  H    2.038529  10.267642   1.016603   2.133340  11.551037
    37  H    2.670267  13.138230   2.087133   1.093251  14.454582
    38  H    2.870925  12.546922   2.066175   1.093131  13.850917
    39  H    3.332050  12.536708   2.064904   1.092241  13.776286
    40  H   12.344483   2.065178  12.404841  13.686575   1.093054
    41  H   12.623593   2.064536  12.716261  13.966464   1.092296
    42  H   12.864757   2.088079  13.096363  14.426710   1.093182
                   21         22         23         24         25
    21  O    0.000000
    22  O   11.987617   0.000000
    23  Cl   7.702430   5.563016   0.000000
    24  Cl   6.097828   8.340162   6.316618   0.000000
    25  H    3.511828   9.458611   4.967624   4.015029   0.000000
    26  H    9.336519   3.610695   4.166791   4.909450   6.499088
    27  H    2.586932   9.410750   5.395796   4.611215   2.335006
    28  H    3.036402  10.439897   7.467976   4.492880   4.159356
    29  H    3.672220  10.235778   7.382986   3.049917   3.663268
    30  H    4.182910   8.790990   6.238216   3.152260   3.728508
    31  H    9.388244   2.967609   2.720321   6.822097   6.893185
    32  H    8.403622   3.913879   4.137331   5.598309   6.484553
    33  H    9.820989   2.952597   5.215353   5.972584   7.668529
    34  H   10.087315   2.670338   4.943932   7.216551   8.139344
    35  H    3.165555  11.261164   7.295045   3.994240   2.421014
    36  H   10.814569   3.154914   3.946875   7.052128   7.710060
    37  H   13.511266   2.607148   6.322608   9.722303  10.580980
    38  H   13.195202   3.091197   6.512402   8.764205  10.131030
    39  H   13.125529   3.843963   5.921258   9.268115   9.946966
    40  H    3.133324  13.389181   8.758928   6.618430   3.946696
    41  H    3.845554  13.631622   9.516740   6.053454   4.557681
    42  H    2.601434  13.817839   9.549487   6.720831   4.694120
                   26         27         28         29         30
    26  H    0.000000
    27  H    6.917060   0.000000
    28  H    7.853003   2.527363   0.000000
    29  H    7.222675   3.086115   1.763498   0.000000
    30  H    6.117989   2.507519   1.766008   1.774764   0.000000
    31  H    2.979163   6.833827   8.305798   8.255581   6.801411
    32  H    3.046235   5.846684   6.636332   6.701516   5.082464
    33  H    2.496760   7.306513   7.848809   7.641721   6.176770
    34  H    3.669185   7.522831   8.335902   8.454306   6.819289
    35  H    8.009404   3.480354   3.836941   2.824250   4.007036
    36  H    2.534038   8.402076   9.835877   9.294498   8.195643
    37  H    4.840653  11.003237  12.328077  11.934741  10.664292
    38  H    4.062418  10.753230  11.891984  11.268061  10.166831
    39  H    4.689341  10.736810  12.212177  11.643025  10.564891
    40  H   10.300443   4.811253   5.421988   5.026792   6.153432
    41  H   10.342837   5.369843   5.252257   4.470432   5.975367
    42  H   10.775054   4.790738   4.597493   4.450864   5.742642
                   31         32         33         34         35
    31  H    0.000000
    32  H    2.514121   0.000000
    33  H    3.069761   1.770251   0.000000
    34  H    2.487180   1.769505   1.768709   0.000000
    35  H    8.952190   8.121499   9.122864   9.865730   0.000000
    36  H    2.838807   4.576224   4.150582   4.500175   9.572160
    37  H    4.414479   6.152218   5.284389   5.163344  12.476636
    38  H    4.794382   6.127165   5.000091   5.478343  11.793714
    39  H    4.721551   6.646163   5.935074   6.089282  11.812054
    40  H   10.824684  10.241562  11.429525  11.951638   2.631172
    41  H   11.302098  10.449354  11.455144  12.203690   2.372037
    42  H   11.339557  10.376963  11.583858  12.123552   2.982394
                   36         37         38         39         40
    36  H    0.000000
    37  H    2.983843   0.000000
    38  H    2.615482   1.784316   0.000000
    39  H    2.376688   1.790891   1.788261   0.000000
    40  H   11.556057  14.475809  13.934422  13.719531   0.000000
    41  H   11.871099  14.802498  14.077802  14.062098   1.787827
    42  H   12.316590  15.173405  14.623822  14.582558   1.784523
                   41         42
    41  H    0.000000
    42  H    1.790709   0.000000
 Symmetry turned off by external request.
 Stoichiometry    C14H18Cl2N4O4(1-,2)
 Framework group  C1[X(C14H18Cl2N4O4)]
 Deg. of freedom   120
 Full point group                 C1      NOp   1
 Rotational constants (GHZ):           0.4447817           0.0886337           0.0813148
 Leave Link  202 at Wed Dec 20 01:21:58 2023, MaxMem=  4026531840 cpu:               0.5 elap:               0.2
 (Enter /sysapps/ubuntu-applications/gaussian/Gaussian/AVX2/g16/l301.exe)
 Standard basis: 6-311++G(d,p) (5D, 7F)
 Ernie: Thresh=  0.10000D-02 Tol=  0.10000D-05 Strict=F.
   670 basis functions,  1060 primitive gaussians,   694 cartesian basis functions
    99 alpha electrons       98 beta electrons
       nuclear repulsion energy      2402.3229592290 Hartrees.
 IExCor=  402 DFT=T Ex+Corr=B3LYP ExCW=0 ScaHFX=  0.200000
 ScaDFX=  0.800000  0.720000  1.000000  0.810000 ScalE2=  1.000000  1.000000
 IRadAn=      5 IRanWt=     -1 IRanGd=            0 ICorTp=0 IEmpDi=  4
 NAtoms=   42 NActive=   42 NUniq=   42 SFac= 1.00D+00 NAtFMM=   60 NAOKFM=F Big=F
 Integral buffers will be    131072 words long.
 Raffenetti 2 integral format.
 Two-electron integral symmetry is turned off.
 Leave Link  301 at Wed Dec 20 01:21:59 2023, MaxMem=  4026531840 cpu:               0.5 elap:               0.2
 (Enter /sysapps/ubuntu-applications/gaussian/Gaussian/AVX2/g16/l302.exe)
 NPDir=0 NMtPBC=     1 NCelOv=     1 NCel=       1 NClECP=     1 NCelD=      1
         NCelK=      1 NCelE2=     1 NClLst=     1 CellRange=     0.0.
 One-electron integrals computed using PRISM.
 NBasis=   670 RedAO= T EigKep=  1.21D-06  NBF=   670
 NBsUse=   667 1.00D-06 EigRej=  9.78D-07 NBFU=   667
 Precomputing XC quadrature grid using
 IXCGrd= 4 IRadAn=           5 IRanWt=          -1 IRanGd=           0 AccXCQ= 0.00D+00.
 Generated NRdTot=       0 NPtTot=           0 NUsed=           0 NTot=          32
 NSgBfM=   666   666   666   666   666 MxSgAt=    42 MxSgA2=    42.
 Leave Link  302 at Wed Dec 20 01:22:00 2023, MaxMem=  4026531840 cpu:              10.3 elap:               1.5
 (Enter /sysapps/ubuntu-applications/gaussian/Gaussian/AVX2/g16/l303.exe)
 DipDrv:  MaxL=1.
 Leave Link  303 at Wed Dec 20 01:22:01 2023, MaxMem=  4026531840 cpu:               1.8 elap:               0.4
 (Enter /sysapps/ubuntu-applications/gaussian/Gaussian/AVX2/g16/l401.exe)
 ExpMin= 3.60D-02 ExpMax= 1.06D+05 ExpMxC= 3.62D+03 IAcc=3 IRadAn=         5 AccDes= 0.00D+00
 Harris functional with IExCor=  402 and IRadAn=       5 diagonalized for initial guess.
 HarFok:  IExCor=  402 AccDes= 0.00D+00 IRadAn=         5 IDoV= 1 UseB2=F ITyADJ=14
 ICtDFT=  3500011 ScaDFX=  1.000000  1.000000  1.000000  1.000000
 FoFCou: FMM=F IPFlag=           0 FMFlag=      100000 FMFlg1=           0
         NFxFlg=           0 DoJE=T BraDBF=F KetDBF=T FulRan=T
         wScrn=  0.000000 ICntrl=       500 IOpCl=  0 I1Cent=   200000004 NGrid=           0
         NMat0=    1 NMatS0=      1 NMatT0=    0 NMatD0=    1 NMtDS0=    0 NMtDT0=    0
 Symmetry not used in FoFCou.
 Harris En= -1985.08627008674    
 JPrj=0 DoOrth=F DoCkMO=F.
 Initial guess <Sx>= 0.0000 <Sy>= 0.0000 <Sz>= 0.5000 <S**2>= 0.7500 S= 0.5000
 Leave Link  401 at Wed Dec 20 01:22:08 2023, MaxMem=  4026531840 cpu:              59.2 elap:               7.7
 (Enter /sysapps/ubuntu-applications/gaussian/Gaussian/AVX2/g16/l502.exe)
 Two-electron integral symmetry not used.
 UHF open shell SCF:
 Using DIIS extrapolation, IDIIS=  1040.
 NGot=  4026531840 LenX=  4025558072 LenY=  4025075742
 Requested convergence on RMS density matrix=1.00D-08 within 128 cycles.
 Requested convergence on MAX density matrix=1.00D-06.
 Requested convergence on             energy=1.00D-06.
 No special actions if energy rises.
 Fock matrices will be formed incrementally for  20 cycles.

 Cycle   1  Pass 1  IDiag  1:
 FoFJK:  IHMeth= 1 ICntrl=       0 DoSepK=F KAlg= 0 I1Cent=           0 FoldK=F
 IRaf= 760000000 NMat=       1 IRICut=       1 DoRegI=T DoRafI=F ISym2E= 0 IDoP0=0 IntGTp=1.
 FoFCou: FMM=F IPFlag=           0 FMFlag=      100000 FMFlg1=           0
         NFxFlg=           0 DoJE=F BraDBF=F KetDBF=F FulRan=T
         wScrn=  0.000000 ICntrl=         0 IOpCl=  1 I1Cent=           0 NGrid=           0
         NMat0=    1 NMatS0=      1 NMatT0=    0 NMatD0=    1 NMtDS0=    0 NMtDT0=    0
 Symmetry not used in FoFCou.
 E= -1984.32094517049    
 DIIS: error= 1.88D-02 at cycle   1 NSaved=   1.
 NSaved= 1 IEnMin= 1 EnMin= -1984.32094517049     IErMin= 1 ErrMin= 1.88D-02
 ErrMax= 1.88D-02  0.00D+00 EMaxC= 1.00D-01 BMatC= 3.93D+00 BMatP= 3.93D+00
 IDIUse=3 WtCom= 8.12D-01 WtEn= 1.88D-01
 Coeff-Com:  0.100D+01
 Coeff-En:   0.100D+01
 Coeff:      0.100D+01
 Gap=     0.118 Goal=   None    Shift=    0.000
 Gap=     0.206 Goal=   None    Shift=    0.000
 GapD=    0.118 DampG=1.000 DampE=0.500 DampFc=0.5000 IDamp=-1.
 Damping current iteration by 5.00D-01
 RMSDP=1.69D-01 MaxDP=3.36D+01              OVMax= 9.61D-01

 Cycle   2  Pass 1  IDiag  1:
 RMSU=  8.06D-02    CP:  1.40D+00
 E= -1984.32399897292     Delta-E=       -0.003053802434 Rises=F Damp=T
 DIIS: error= 1.29D-02 at cycle   2 NSaved=   2.
 NSaved= 2 IEnMin= 2 EnMin= -1984.32399897292     IErMin= 2 ErrMin= 1.29D-02
 ErrMax= 1.29D-02  0.00D+00 EMaxC= 1.00D-01 BMatC= 9.05D-01 BMatP= 3.93D+00
 IDIUse=3 WtCom= 8.71D-01 WtEn= 1.29D-01
 Coeff-Com:  0.268D+00 0.732D+00
 Coeff-En:   0.498D+00 0.502D+00
 Coeff:      0.297D+00 0.703D+00
 Gap=     0.004 Goal=   None    Shift=    0.000
 Gap=     0.185 Goal=   None    Shift=    0.000
 RMSDP=8.39D-02 MaxDP=1.68D+01 DE=-3.05D-03 OVMax= 9.05D-01

 Cycle   3  Pass 1  IDiag  1:
 RMSU=  7.57D-03    CP:  1.02D+00  9.07D-03
 E= -1984.91551152887     Delta-E=       -0.591512555954 Rises=F Damp=F
 DIIS: error= 1.28D-02 at cycle   3 NSaved=   3.
 NSaved= 3 IEnMin= 3 EnMin= -1984.91551152887     IErMin= 3 ErrMin= 1.28D-02
 ErrMax= 1.28D-02  0.00D+00 EMaxC= 1.00D-01 BMatC= 7.38D-01 BMatP= 9.05D-01
 IDIUse=3 WtCom= 8.72D-01 WtEn= 1.28D-01
 Coeff-Com:  0.784D-01 0.468D+00 0.454D+00
 Coeff-En:   0.000D+00 0.000D+00 0.100D+01
 Coeff:      0.684D-01 0.408D+00 0.523D+00
 Gap=     0.106 Goal=   None    Shift=    0.000
 Gap=     0.141 Goal=   None    Shift=    0.000
 RMSDP=7.06D-03 MaxDP=9.87D-01 DE=-5.92D-01 OVMax= 1.33D-01

 Cycle   4  Pass 1  IDiag  1:
 RMSU=  5.14D-03    CP:  1.09D+00  1.74D-02  1.18D+00
 E= -1985.04347235343     Delta-E=       -0.127960824555 Rises=F Damp=F
 DIIS: error= 7.13D-03 at cycle   4 NSaved=   4.
 NSaved= 4 IEnMin= 4 EnMin= -1985.04347235343     IErMin= 4 ErrMin= 7.13D-03
 ErrMax= 7.13D-03  0.00D+00 EMaxC= 1.00D-01 BMatC= 1.44D-01 BMatP= 7.38D-01
 IDIUse=3 WtCom= 9.29D-01 WtEn= 7.13D-02
 Coeff-Com: -0.124D-01 0.132D+00 0.322D+00 0.559D+00
 Coeff-En:   0.000D+00 0.000D+00 0.172D+00 0.828D+00
 Coeff:     -0.115D-01 0.122D+00 0.311D+00 0.578D+00
 Gap=     0.089 Goal=   None    Shift=    0.000
 Gap=     0.168 Goal=   None    Shift=    0.000
 RMSDP=5.86D-03 MaxDP=8.94D-01 DE=-1.28D-01 OVMax= 5.55D-02

 Cycle   5  Pass 1  IDiag  1:
 RMSU=  4.52D-03    CP:  1.05D+00  2.51D-02  9.65D-01  6.61D-01
 E= -1985.07031813693     Delta-E=       -0.026845783499 Rises=F Damp=F
 DIIS: error= 2.67D-03 at cycle   5 NSaved=   5.
 NSaved= 5 IEnMin= 5 EnMin= -1985.07031813693     IErMin= 5 ErrMin= 2.67D-03
 ErrMax= 2.67D-03  0.00D+00 EMaxC= 1.00D-01 BMatC= 2.20D-02 BMatP= 1.44D-01
 IDIUse=3 WtCom= 9.73D-01 WtEn= 2.67D-02
 Coeff-Com: -0.166D-01 0.434D-01 0.137D+00 0.359D+00 0.477D+00
 Coeff-En:   0.000D+00 0.000D+00 0.000D+00 0.129D+00 0.871D+00
 Coeff:     -0.161D-01 0.423D-01 0.133D+00 0.353D+00 0.487D+00
 Gap=     0.096 Goal=   None    Shift=    0.000
 Gap=     0.137 Goal=   None    Shift=    0.000
 RMSDP=2.17D-03 MaxDP=3.28D-01 DE=-2.68D-02 OVMax= 3.17D-02

 Cycle   6  Pass 1  IDiag  1:
 RMSU=  9.26D-04    CP:  1.06D+00  2.03D-02  1.07D+00  8.00D-01  6.60D-01
 E= -1985.07523511881     Delta-E=       -0.004916981878 Rises=F Damp=F
 DIIS: error= 1.13D-03 at cycle   6 NSaved=   6.
 NSaved= 6 IEnMin= 6 EnMin= -1985.07523511881     IErMin= 6 ErrMin= 1.13D-03
 ErrMax= 1.13D-03  0.00D+00 EMaxC= 1.00D-01 BMatC= 1.92D-03 BMatP= 2.20D-02
 IDIUse=3 WtCom= 9.89D-01 WtEn= 1.13D-02
 Coeff-Com: -0.667D-02 0.113D-01 0.359D-01 0.124D+00 0.277D+00 0.559D+00
 Coeff-En:   0.000D+00 0.000D+00 0.000D+00 0.000D+00 0.135D-01 0.987D+00
 Coeff:     -0.659D-02 0.112D-01 0.355D-01 0.123D+00 0.274D+00 0.563D+00
 Gap=     0.098 Goal=   None    Shift=    0.000
 Gap=     0.138 Goal=   None    Shift=    0.000
 RMSDP=5.14D-04 MaxDP=7.76D-02 DE=-4.92D-03 OVMax= 1.37D-02

 Cycle   7  Pass 1  IDiag  1:
 RMSU=  4.33D-04    CP:  1.06D+00  1.97D-02  1.07D+00  7.74D-01  6.46D-01
                    CP:  7.67D-01
 E= -1985.07557927552     Delta-E=       -0.000344156717 Rises=F Damp=F
 DIIS: error= 6.88D-04 at cycle   7 NSaved=   7.
 NSaved= 7 IEnMin= 7 EnMin= -1985.07557927552     IErMin= 7 ErrMin= 6.88D-04
 ErrMax= 6.88D-04  0.00D+00 EMaxC= 1.00D-01 BMatC= 6.97D-04 BMatP= 1.92D-03
 IDIUse=3 WtCom= 9.93D-01 WtEn= 6.88D-03
 Coeff-Com: -0.964D-03-0.161D-02-0.222D-02 0.137D-01 0.101D+00 0.406D+00
 Coeff-Com:  0.484D+00
 Coeff-En:   0.000D+00 0.000D+00 0.000D+00 0.000D+00 0.000D+00 0.224D+00
 Coeff-En:   0.776D+00
 Coeff:     -0.958D-03-0.160D-02-0.220D-02 0.136D-01 0.100D+00 0.405D+00
 Coeff:      0.486D+00
 Gap=     0.098 Goal=   None    Shift=    0.000
 Gap=     0.139 Goal=   None    Shift=    0.000
 RMSDP=3.09D-04 MaxDP=3.36D-02 DE=-3.44D-04 OVMax= 6.64D-03

 Cycle   8  Pass 1  IDiag  1:
 RMSU=  1.35D-04    CP:  1.06D+00  1.99D-02  1.07D+00  7.82D-01  6.83D-01
                    CP:  9.22D-01  6.29D-01
 E= -1985.07574627236     Delta-E=       -0.000166996839 Rises=F Damp=F
 DIIS: error= 1.67D-04 at cycle   8 NSaved=   8.
 NSaved= 8 IEnMin= 8 EnMin= -1985.07574627236     IErMin= 8 ErrMin= 1.67D-04
 ErrMax= 1.67D-04  0.00D+00 EMaxC= 1.00D-01 BMatC= 5.89D-05 BMatP= 6.97D-04
 IDIUse=3 WtCom= 9.98D-01 WtEn= 1.67D-03
 Coeff-Com:  0.116D-02-0.203D-02-0.532D-02-0.176D-01-0.712D-02 0.609D-01
 Coeff-Com:  0.220D+00 0.750D+00
 Coeff-En:   0.000D+00 0.000D+00 0.000D+00 0.000D+00 0.000D+00 0.000D+00
 Coeff-En:   0.000D+00 0.100D+01
 Coeff:      0.116D-02-0.203D-02-0.531D-02-0.176D-01-0.710D-02 0.608D-01
 Coeff:      0.220D+00 0.751D+00
 Gap=     0.098 Goal=   None    Shift=    0.000
 Gap=     0.139 Goal=   None    Shift=    0.000
 RMSDP=1.02D-04 MaxDP=1.12D-02 DE=-1.67D-04 OVMax= 1.68D-03

 Cycle   9  Pass 1  IDiag  1:
 RMSU=  7.86D-05    CP:  1.06D+00  1.97D-02  1.07D+00  7.79D-01  6.77D-01
                    CP:  9.20D-01  7.48D-01  1.08D+00
 E= -1985.07576885041     Delta-E=       -0.000022578051 Rises=F Damp=F
 DIIS: error= 8.49D-05 at cycle   9 NSaved=   9.
 NSaved= 9 IEnMin= 9 EnMin= -1985.07576885041     IErMin= 9 ErrMin= 8.49D-05
 ErrMax= 8.49D-05  0.00D+00 EMaxC= 1.00D-01 BMatC= 1.67D-05 BMatP= 5.89D-05
 IDIUse=1 WtCom= 1.00D+00 WtEn= 0.00D+00
 Coeff-Com:  0.829D-03-0.505D-03-0.103D-02-0.110D-01-0.260D-01-0.716D-01
 Coeff-Com: -0.945D-02 0.384D+00 0.734D+00
 Coeff:      0.829D-03-0.505D-03-0.103D-02-0.110D-01-0.260D-01-0.716D-01
 Coeff:     -0.945D-02 0.384D+00 0.734D+00
 Gap=     0.098 Goal=   None    Shift=    0.000
 Gap=     0.139 Goal=   None    Shift=    0.000
 RMSDP=7.30D-05 MaxDP=1.13D-02 DE=-2.26D-05 OVMax= 1.12D-03

 Cycle  10  Pass 1  IDiag  1:
 RMSU=  3.61D-05    CP:  1.05D+00  1.96D-02  1.06D+00  7.75D-01  6.83D-01
                    CP:  9.35D-01  7.34D-01  1.25D+00  9.29D-01
 E= -1985.07577501248     Delta-E=       -0.000006162067 Rises=F Damp=F
 DIIS: error= 4.79D-05 at cycle  10 NSaved=  10.
 NSaved=10 IEnMin=10 EnMin= -1985.07577501248     IErMin=10 ErrMin= 4.79D-05
 ErrMax= 4.79D-05  0.00D+00 EMaxC= 1.00D-01 BMatC= 6.21D-06 BMatP= 1.67D-05
 IDIUse=1 WtCom= 1.00D+00 WtEn= 0.00D+00
 Coeff-Com:  0.164D-03 0.240D-04 0.529D-03-0.248D-02-0.141D-01-0.608D-01
 Coeff-Com: -0.623D-01 0.464D-01 0.473D+00 0.620D+00
 Coeff:      0.164D-03 0.240D-04 0.529D-03-0.248D-02-0.141D-01-0.608D-01
 Coeff:     -0.623D-01 0.464D-01 0.473D+00 0.620D+00
 Gap=     0.098 Goal=   None    Shift=    0.000
 Gap=     0.139 Goal=   None    Shift=    0.000
 RMSDP=2.36D-05 MaxDP=3.60D-03 DE=-6.16D-06 OVMax= 6.15D-04

 Cycle  11  Pass 1  IDiag  1:
 RMSU=  1.43D-05    CP:  1.06D+00  1.96D-02  1.06D+00  7.75D-01  6.81D-01
                    CP:  9.30D-01  7.64D-01  1.30D+00  9.65D-01  9.21D-01
 E= -1985.07577667694     Delta-E=       -0.000001664461 Rises=F Damp=F
 DIIS: error= 2.79D-05 at cycle  11 NSaved=  11.
 NSaved=11 IEnMin=11 EnMin= -1985.07577667694     IErMin=11 ErrMin= 2.79D-05
 ErrMax= 2.79D-05  0.00D+00 EMaxC= 1.00D-01 BMatC= 1.82D-06 BMatP= 6.21D-06
 IDIUse=1 WtCom= 1.00D+00 WtEn= 0.00D+00
 Coeff-Com: -0.615D-04 0.215D-03 0.574D-03 0.484D-03-0.463D-02-0.269D-01
 Coeff-Com: -0.397D-01-0.516D-01 0.162D+00 0.421D+00 0.539D+00
 Coeff:     -0.615D-04 0.215D-03 0.574D-03 0.484D-03-0.463D-02-0.269D-01
 Coeff:     -0.397D-01-0.516D-01 0.162D+00 0.421D+00 0.539D+00
 Gap=     0.098 Goal=   None    Shift=    0.000
 Gap=     0.139 Goal=   None    Shift=    0.000
 RMSDP=9.35D-06 MaxDP=1.17D-03 DE=-1.66D-06 OVMax= 1.86D-04

 Cycle  12  Pass 1  IDiag  1:
 RMSU=  6.63D-06    CP:  1.06D+00  1.96D-02  1.06D+00  7.75D-01  6.81D-01
                    CP:  9.33D-01  7.61D-01  1.33D+00  1.00D+00  9.58D-01
                    CP:  8.82D-01
 E= -1985.07577709481     Delta-E=       -0.000000417871 Rises=F Damp=F
 DIIS: error= 7.09D-06 at cycle  12 NSaved=  12.
 NSaved=12 IEnMin=12 EnMin= -1985.07577709481     IErMin=12 ErrMin= 7.09D-06
 ErrMax= 7.09D-06  0.00D+00 EMaxC= 1.00D-01 BMatC= 1.48D-07 BMatP= 1.82D-06
 IDIUse=1 WtCom= 1.00D+00 WtEn= 0.00D+00
 Coeff-Com: -0.537D-04 0.785D-04 0.109D-03 0.512D-03-0.156D-03-0.308D-02
 Coeff-Com: -0.818D-02-0.317D-01 0.473D-02 0.108D+00 0.271D+00 0.659D+00
 Coeff:     -0.537D-04 0.785D-04 0.109D-03 0.512D-03-0.156D-03-0.308D-02
 Coeff:     -0.818D-02-0.317D-01 0.473D-02 0.108D+00 0.271D+00 0.659D+00
 Gap=     0.098 Goal=   None    Shift=    0.000
 Gap=     0.139 Goal=   None    Shift=    0.000
 RMSDP=3.42D-06 MaxDP=3.40D-04 DE=-4.18D-07 OVMax= 1.19D-04

 Cycle  13  Pass 1  IDiag  1:
 RMSU=  2.24D-06    CP:  1.06D+00  1.96D-02  1.06D+00  7.75D-01  6.82D-01
                    CP:  9.32D-01  7.62D-01  1.32D+00  1.01D+00  9.65D-01
                    CP:  9.12D-01  9.72D-01
 E= -1985.07577713525     Delta-E=       -0.000000040437 Rises=F Damp=F
 DIIS: error= 2.17D-06 at cycle  13 NSaved=  13.
 NSaved=13 IEnMin=13 EnMin= -1985.07577713525     IErMin=13 ErrMin= 2.17D-06
 ErrMax= 2.17D-06  0.00D+00 EMaxC= 1.00D-01 BMatC= 2.42D-08 BMatP= 1.48D-07
 IDIUse=1 WtCom= 1.00D+00 WtEn= 0.00D+00
 Coeff-Com: -0.137D-04 0.113D-04-0.324D-04 0.142D-03 0.518D-03 0.241D-02
 Coeff-Com:  0.221D-02-0.686D-02-0.219D-01-0.162D-01 0.431D-01 0.323D+00
 Coeff-Com:  0.674D+00
 Coeff:     -0.137D-04 0.113D-04-0.324D-04 0.142D-03 0.518D-03 0.241D-02
 Coeff:      0.221D-02-0.686D-02-0.219D-01-0.162D-01 0.431D-01 0.323D+00
 Coeff:      0.674D+00
 Gap=     0.098 Goal=   None    Shift=    0.000
 Gap=     0.139 Goal=   None    Shift=    0.000
 RMSDP=3.08D-06 MaxDP=4.90D-04 DE=-4.04D-08 OVMax= 3.74D-05

 Cycle  14  Pass 1  IDiag  1:
 RMSU=  1.53D-06    CP:  1.06D+00  1.96D-02  1.06D+00  7.75D-01  6.82D-01
                    CP:  9.32D-01  7.62D-01  1.32D+00  1.01D+00  9.73D-01
                    CP:  9.53D-01  9.31D-01  7.97D-01
 E= -1985.07577714274     Delta-E=       -0.000000007488 Rises=F Damp=F
 DIIS: error= 1.29D-06 at cycle  14 NSaved=  14.
 NSaved=14 IEnMin=14 EnMin= -1985.07577714274     IErMin=14 ErrMin= 1.29D-06
 ErrMax= 1.29D-06  0.00D+00 EMaxC= 1.00D-01 BMatC= 5.78D-09 BMatP= 2.42D-08
 IDIUse=1 WtCom= 1.00D+00 WtEn= 0.00D+00
 Coeff-Com:  0.452D-05-0.810D-05-0.344D-04-0.243D-04 0.272D-03 0.162D-02
 Coeff-Com:  0.266D-02 0.196D-02-0.113D-01-0.284D-01-0.263D-01 0.556D-01
 Coeff-Com:  0.358D+00 0.646D+00
 Coeff:      0.452D-05-0.810D-05-0.344D-04-0.243D-04 0.272D-03 0.162D-02
 Coeff:      0.266D-02 0.196D-02-0.113D-01-0.284D-01-0.263D-01 0.556D-01
 Coeff:      0.358D+00 0.646D+00
 Gap=     0.098 Goal=   None    Shift=    0.000
 Gap=     0.139 Goal=   None    Shift=    0.000
 RMSDP=1.53D-06 MaxDP=2.36D-04 DE=-7.49D-09 OVMax= 3.41D-05

 Cycle  15  Pass 1  IDiag  1:
 RMSU=  5.35D-07    CP:  1.06D+00  1.96D-02  1.06D+00  7.75D-01  6.82D-01
                    CP:  9.32D-01  7.63D-01  1.32D+00  1.01D+00  9.68D-01
                    CP:  9.58D-01  9.70D-01  9.45D-01  8.51D-01
 E= -1985.07577714504     Delta-E=       -0.000000002306 Rises=F Damp=F
 DIIS: error= 5.37D-07 at cycle  15 NSaved=  15.
 NSaved=15 IEnMin=15 EnMin= -1985.07577714504     IErMin=15 ErrMin= 5.37D-07
 ErrMax= 5.37D-07  0.00D+00 EMaxC= 1.00D-01 BMatC= 1.56D-09 BMatP= 5.78D-09
 IDIUse=1 WtCom= 1.00D+00 WtEn= 0.00D+00
 Coeff-Com:  0.537D-05-0.998D-05-0.117D-04-0.331D-04 0.739D-04 0.417D-03
 Coeff-Com:  0.117D-02 0.235D-02-0.120D-02-0.130D-01-0.244D-01-0.424D-01
 Coeff-Com:  0.233D-01 0.355D+00 0.699D+00
 Coeff:      0.537D-05-0.998D-05-0.117D-04-0.331D-04 0.739D-04 0.417D-03
 Coeff:      0.117D-02 0.235D-02-0.120D-02-0.130D-01-0.244D-01-0.424D-01
 Coeff:      0.233D-01 0.355D+00 0.699D+00
 Gap=     0.098 Goal=   None    Shift=    0.000
 Gap=     0.139 Goal=   None    Shift=    0.000
 RMSDP=4.48D-07 MaxDP=3.86D-05 DE=-2.31D-09 OVMax= 1.72D-05

 Cycle  16  Pass 1  IDiag  1:
 RMSU=  2.77D-07    CP:  1.06D+00  1.96D-02  1.06D+00  7.75D-01  6.82D-01
                    CP:  9.32D-01  7.63D-01  1.32D+00  1.01D+00  9.66D-01
                    CP:  9.58D-01  9.92D-01  9.70D-01  9.25D-01  7.91D-01
 E= -1985.07577714565     Delta-E=       -0.000000000612 Rises=F Damp=F
 DIIS: error= 2.97D-07 at cycle  16 NSaved=  16.
 NSaved=16 IEnMin=16 EnMin= -1985.07577714565     IErMin=16 ErrMin= 2.97D-07
 ErrMax= 2.97D-07  0.00D+00 EMaxC= 1.00D-01 BMatC= 4.28D-10 BMatP= 1.56D-09
 IDIUse=1 WtCom= 1.00D+00 WtEn= 0.00D+00
 Coeff-Com:  0.144D-05-0.314D-05 0.405D-05-0.646D-05-0.210D-04-0.183D-03
 Coeff-Com:  0.364D-04 0.620D-03 0.264D-02-0.296D-03-0.665D-02-0.387D-01
 Coeff-Com: -0.931D-01 0.256D-01 0.405D+00 0.705D+00
 Coeff:      0.144D-05-0.314D-05 0.405D-05-0.646D-05-0.210D-04-0.183D-03
 Coeff:      0.364D-04 0.620D-03 0.264D-02-0.296D-03-0.665D-02-0.387D-01
 Coeff:     -0.931D-01 0.256D-01 0.405D+00 0.705D+00
 Gap=     0.098 Goal=   None    Shift=    0.000
 Gap=     0.139 Goal=   None    Shift=    0.000
 RMSDP=3.81D-07 MaxDP=7.06D-05 DE=-6.12D-10 OVMax= 1.02D-05

 Cycle  17  Pass 1  IDiag  1:
 RMSU=  1.63D-07    CP:  1.06D+00  1.96D-02  1.06D+00  7.75D-01  6.82D-01
                    CP:  9.31D-01  7.63D-01  1.32D+00  1.01D+00  9.66D-01
                    CP:  9.56D-01  9.87D-01  9.56D-01  9.91D-01  8.68D-01
                    CP:  9.91D-01
 E= -1985.07577714585     Delta-E=       -0.000000000196 Rises=F Damp=F
 DIIS: error= 1.35D-07 at cycle  17 NSaved=  17.
 NSaved=17 IEnMin=17 EnMin= -1985.07577714585     IErMin=17 ErrMin= 1.35D-07
 ErrMax= 1.35D-07  0.00D+00 EMaxC= 1.00D-01 BMatC= 7.56D-11 BMatP= 4.28D-10
 IDIUse=1 WtCom= 1.00D+00 WtEn= 0.00D+00
 Coeff-Com: -0.489D-06 0.537D-06 0.441D-05 0.349D-05-0.307D-04-0.183D-03
 Coeff-Com: -0.214D-03-0.248D-03 0.182D-02 0.256D-02 0.210D-02-0.976D-02
 Coeff-Com: -0.531D-01-0.653D-01 0.469D-01 0.340D+00 0.735D+00
 Coeff:     -0.489D-06 0.537D-06 0.441D-05 0.349D-05-0.307D-04-0.183D-03
 Coeff:     -0.214D-03-0.248D-03 0.182D-02 0.256D-02 0.210D-02-0.976D-02
 Coeff:     -0.531D-01-0.653D-01 0.469D-01 0.340D+00 0.735D+00
 Gap=     0.098 Goal=   None    Shift=    0.000
 Gap=     0.139 Goal=   None    Shift=    0.000
 RMSDP=1.48D-07 MaxDP=1.90D-05 DE=-1.96D-10 OVMax= 5.38D-06

 Cycle  18  Pass 1  IDiag  1:
 RMSU=  6.78D-08    CP:  1.06D+00  1.96D-02  1.06D+00  7.75D-01  6.82D-01
                    CP:  9.31D-01  7.63D-01  1.32D+00  1.01D+00  9.66D-01
                    CP:  9.56D-01  9.81D-01  9.55D-01  9.94D-01  9.45D-01
                    CP:  1.12D+00  1.09D+00
 E= -1985.07577714594     Delta-E=       -0.000000000087 Rises=F Damp=F
 DIIS: error= 1.54D-07 at cycle  18 NSaved=  18.
 NSaved=18 IEnMin=18 EnMin= -1985.07577714594     IErMin=17 ErrMin= 1.35D-07
 ErrMax= 1.54D-07  0.00D+00 EMaxC= 1.00D-01 BMatC= 3.41D-11 BMatP= 7.56D-11
 IDIUse=1 WtCom= 1.00D+00 WtEn= 0.00D+00
 Coeff-Com: -0.526D-06 0.896D-06 0.195D-05 0.239D-05-0.187D-04-0.870D-04
 Coeff-Com: -0.140D-03-0.281D-03 0.699D-03 0.163D-02 0.247D-02 0.806D-03
 Coeff-Com: -0.172D-01-0.482D-01-0.484D-01 0.771D-01 0.495D+00 0.537D+00
 Coeff:     -0.526D-06 0.896D-06 0.195D-05 0.239D-05-0.187D-04-0.870D-04
 Coeff:     -0.140D-03-0.281D-03 0.699D-03 0.163D-02 0.247D-02 0.806D-03
 Coeff:     -0.172D-01-0.482D-01-0.484D-01 0.771D-01 0.495D+00 0.537D+00
 Gap=     0.098 Goal=   None    Shift=    0.000
 Gap=     0.139 Goal=   None    Shift=    0.000
 RMSDP=5.35D-08 MaxDP=5.39D-06 DE=-8.73D-11 OVMax= 1.46D-06

 Cycle  19  Pass 1  IDiag  1:
 RMSU=  2.86D-08    CP:  1.06D+00  1.96D-02  1.06D+00  7.75D-01  6.82D-01
                    CP:  9.31D-01  7.63D-01  1.32D+00  1.01D+00  9.66D-01
                    CP:  9.56D-01  9.82D-01  9.48D-01  9.94D-01  9.48D-01
                    CP:  1.18D+00  1.16D+00  9.43D-01
 E= -1985.07577714592     Delta-E=        0.000000000019 Rises=F Damp=F
 DIIS: error= 4.49D-08 at cycle  19 NSaved=  19.
 NSaved=19 IEnMin=18 EnMin= -1985.07577714594     IErMin=19 ErrMin= 4.49D-08
 ErrMax= 4.49D-08  0.00D+00 EMaxC= 1.00D-01 BMatC= 5.47D-12 BMatP= 3.41D-11
 IDIUse=1 WtCom= 1.00D+00 WtEn= 0.00D+00
 Coeff-Com: -0.167D-06 0.291D-06-0.433D-06-0.388D-06-0.293D-05-0.129D-05
 Coeff-Com: -0.194D-04-0.107D-03-0.105D-03 0.269D-03 0.923D-03 0.352D-02
 Coeff-Com:  0.499D-02-0.112D-01-0.433D-01-0.531D-01 0.100D+00 0.325D+00
 Coeff-Com:  0.673D+00
 Coeff:     -0.167D-06 0.291D-06-0.433D-06-0.388D-06-0.293D-05-0.129D-05
 Coeff:     -0.194D-04-0.107D-03-0.105D-03 0.269D-03 0.923D-03 0.352D-02
 Coeff:      0.499D-02-0.112D-01-0.433D-01-0.531D-01 0.100D+00 0.325D+00
 Coeff:      0.673D+00
 Gap=     0.098 Goal=   None    Shift=    0.000
 Gap=     0.139 Goal=   None    Shift=    0.000
 RMSDP=3.51D-08 MaxDP=5.07D-06 DE= 1.91D-11 OVMax= 7.67D-07

 Cycle  20  Pass 1  IDiag  1:
 RMSU=  1.17D-08    CP:  1.06D+00  1.96D-02  1.06D+00  7.75D-01  6.82D-01
                    CP:  9.31D-01  7.63D-01  1.32D+00  1.01D+00  9.66D-01
                    CP:  9.56D-01  9.84D-01  9.49D-01  9.87D-01  9.48D-01
                    CP:  1.20D+00  1.24D+00  1.08D+00  1.02D+00
 E= -1985.07577714594     Delta-E=       -0.000000000023 Rises=F Damp=F
 DIIS: error= 1.10D-08 at cycle  20 NSaved=  20.
 NSaved=20 IEnMin=20 EnMin= -1985.07577714594     IErMin=20 ErrMin= 1.10D-08
 ErrMax= 1.10D-08  0.00D+00 EMaxC= 1.00D-01 BMatC= 7.71D-13 BMatP= 5.47D-12
 IDIUse=1 WtCom= 1.00D+00 WtEn= 0.00D+00
 Coeff-Com: -0.261D-08 0.810D-07-0.337D-06-0.487D-06 0.878D-06 0.666D-05
 Coeff-Com:  0.891D-05-0.113D-04-0.132D-03-0.681D-04 0.962D-04 0.145D-02
 Coeff-Com:  0.456D-02 0.716D-03-0.131D-01-0.360D-01-0.165D-01 0.900D-01
 Coeff-Com:  0.347D+00 0.622D+00
 Coeff:     -0.261D-08 0.810D-07-0.337D-06-0.487D-06 0.878D-06 0.666D-05
 Coeff:      0.891D-05-0.113D-04-0.132D-03-0.681D-04 0.962D-04 0.145D-02
 Coeff:      0.456D-02 0.716D-03-0.131D-01-0.360D-01-0.165D-01 0.900D-01
 Coeff:      0.347D+00 0.622D+00
 Gap=     0.098 Goal=   None    Shift=    0.000
 Gap=     0.139 Goal=   None    Shift=    0.000
 RMSDP=1.08D-08 MaxDP=2.30D-06 DE=-2.27D-11 OVMax= 3.15D-07

 Cycle  21  Pass 1  IDiag  1:
 Restarting incremental Fock formation.
 E= -1985.07577714593     Delta-E=        0.000000000008 Rises=F Damp=F
 DIIS: error= 6.90D-09 at cycle  21 NSaved=  20.
 NSaved=20 IEnMin=19 EnMin= -1985.07577714594     IErMin=20 ErrMin= 6.90D-09
 ErrMax= 6.90D-09  0.00D+00 EMaxC= 1.00D-01 BMatC= 2.02D-13 BMatP= 7.71D-13
 IDIUse=1 WtCom= 1.00D+00 WtEn= 0.00D+00
 Coeff-Com:  0.101D-07-0.660D-07 0.502D-07 0.151D-05 0.358D-05 0.828D-05
 Coeff-Com:  0.596D-05-0.640D-04-0.708D-04-0.828D-04 0.249D-03 0.184D-02
 Coeff-Com:  0.211D-02 0.283D-03-0.116D-01-0.300D-01-0.928D-02 0.748D-01
 Coeff-Com:  0.370D+00 0.601D+00
 Coeff:      0.101D-07-0.660D-07 0.502D-07 0.151D-05 0.358D-05 0.828D-05
 Coeff:      0.596D-05-0.640D-04-0.708D-04-0.828D-04 0.249D-03 0.184D-02
 Coeff:      0.211D-02 0.283D-03-0.116D-01-0.300D-01-0.928D-02 0.748D-01
 Coeff:      0.370D+00 0.601D+00
 Gap=     0.098 Goal=   None    Shift=    0.000
 Gap=     0.139 Goal=   None    Shift=    0.000
 RMSDP=9.66D-09 MaxDP=1.88D-06 DE= 8.19D-12 OVMax= 1.64D-07

 Cycle  22  Pass 1  IDiag  1:
 RMSU=  8.43D-09    CP:  1.00D+00
 E= -1985.07577714596     Delta-E=       -0.000000000028 Rises=F Damp=F
 DIIS: error= 2.13D-09 at cycle  22 NSaved=  20.
 NSaved=20 IEnMin=20 EnMin= -1985.07577714596     IErMin=20 ErrMin= 2.13D-09
 ErrMax= 2.13D-09  0.00D+00 EMaxC= 1.00D-01 BMatC= 2.43D-14 BMatP= 2.02D-13
 IDIUse=1 WtCom= 1.00D+00 WtEn= 0.00D+00
 Coeff-Com:  0.515D-07 0.120D-06 0.452D-06-0.313D-06 0.181D-05 0.474D-05
 Coeff-Com:  0.208D-05-0.109D-04-0.548D-04-0.219D-03-0.154D-03 0.608D-03
 Coeff-Com:  0.316D-02 0.304D-02-0.878D-02-0.223D-01-0.439D-01 0.247D-01
 Coeff-Com:  0.251D+00 0.793D+00
 Coeff:      0.515D-07 0.120D-06 0.452D-06-0.313D-06 0.181D-05 0.474D-05
 Coeff:      0.208D-05-0.109D-04-0.548D-04-0.219D-03-0.154D-03 0.608D-03
 Coeff:      0.316D-02 0.304D-02-0.878D-02-0.223D-01-0.439D-01 0.247D-01
 Coeff:      0.251D+00 0.793D+00
 Gap=     0.098 Goal=   None    Shift=    0.000
 Gap=     0.139 Goal=   None    Shift=    0.000
 RMSDP=3.47D-09 MaxDP=5.92D-07 DE=-2.82D-11 OVMax= 7.94D-08

 SCF Done:  E(UB3LYP) =  -1985.07577715     A.U. after   22 cycles
            NFock= 22  Conv=0.35D-08     -V/T= 2.0032
 <Sx>= 0.0000 <Sy>= 0.0000 <Sz>= 0.5000 <S**2>= 0.7582 S= 0.5041
 <L.S>=  0.00000000000    
 KE= 1.978675885758D+03 PE=-9.502526383940D+03 EE= 3.136451761807D+03
 Annihilation of the first spin contaminant:
 S**2 before annihilation     0.7582,   after     0.7500
 Leave Link  502 at Wed Dec 20 01:40:32 2023, MaxMem=  4026531840 cpu:            8696.1 elap:            1103.4
 (Enter /sysapps/ubuntu-applications/gaussian/Gaussian/AVX2/g16/l601.exe)
 Copying SCF densities to generalized density rwf, IOpCl= 1 IROHF=0.

 **********************************************************************

            Population analysis using the SCF density.

 **********************************************************************

 Alpha  occ. eigenvalues -- -101.44068-101.43683 -19.01084 -19.00520 -18.97384
 Alpha  occ. eigenvalues --  -18.97117 -14.25171 -14.25020 -14.22470 -14.21371
 Alpha  occ. eigenvalues --  -10.18885 -10.18419 -10.12780 -10.12733 -10.12671
 Alpha  occ. eigenvalues --  -10.12638 -10.12511 -10.11984 -10.11140 -10.10877
 Alpha  occ. eigenvalues --  -10.10799 -10.09743 -10.07216 -10.06858  -9.35585
 Alpha  occ. eigenvalues --   -9.35205  -7.12005  -7.11638  -7.11103  -7.11030
 Alpha  occ. eigenvalues --   -7.10727  -7.10633  -0.95637  -0.95094  -0.91752
 Alpha  occ. eigenvalues --   -0.91288  -0.84510  -0.84193  -0.82435  -0.81764
 Alpha  occ. eigenvalues --   -0.76398  -0.75536  -0.69557  -0.68069  -0.65641
 Alpha  occ. eigenvalues --   -0.63218  -0.62762  -0.60507  -0.55665  -0.54944
 Alpha  occ. eigenvalues --   -0.53064  -0.49439  -0.49055  -0.47716  -0.46267
 Alpha  occ. eigenvalues --   -0.44225  -0.43012  -0.41561  -0.39992  -0.39424
 Alpha  occ. eigenvalues --   -0.38693  -0.38180  -0.37618  -0.37275  -0.35700
 Alpha  occ. eigenvalues --   -0.35149  -0.34754  -0.33855  -0.33790  -0.32743
 Alpha  occ. eigenvalues --   -0.32023  -0.31946  -0.31720  -0.31319  -0.30209
 Alpha  occ. eigenvalues --   -0.30148  -0.29725  -0.29020  -0.28561  -0.27971
 Alpha  occ. eigenvalues --   -0.27792  -0.27519  -0.27302  -0.26819  -0.24867
 Alpha  occ. eigenvalues --   -0.23144  -0.20574  -0.20324  -0.19761  -0.18173
 Alpha  occ. eigenvalues --   -0.17950  -0.17439  -0.17376  -0.16818  -0.14916
 Alpha  occ. eigenvalues --   -0.14168  -0.13514  -0.11491  -0.03863
 Alpha virt. eigenvalues --    0.05977   0.06032   0.08002   0.08554   0.09032
 Alpha virt. eigenvalues --    0.09132   0.09300   0.09478   0.09533   0.09915
 Alpha virt. eigenvalues --    0.10269   0.10787   0.11236   0.11468   0.11644
 Alpha virt. eigenvalues --    0.11941   0.12542   0.12938   0.13185   0.13359
 Alpha virt. eigenvalues --    0.13541   0.14223   0.14608   0.15201   0.15504
 Alpha virt. eigenvalues --    0.15675   0.15865   0.15999   0.16605   0.16933
 Alpha virt. eigenvalues --    0.17214   0.17430   0.17923   0.17970   0.18000
 Alpha virt. eigenvalues --    0.18597   0.18926   0.19366   0.19481   0.19579
 Alpha virt. eigenvalues --    0.19625   0.20517   0.20629   0.20711   0.20880
 Alpha virt. eigenvalues --    0.20918   0.21657   0.21788   0.21981   0.22145
 Alpha virt. eigenvalues --    0.22231   0.22604   0.22864   0.23083   0.23336
 Alpha virt. eigenvalues --    0.23689   0.23929   0.24073   0.24321   0.24542
 Alpha virt. eigenvalues --    0.24967   0.25042   0.25197   0.25435   0.25738
 Alpha virt. eigenvalues --    0.26056   0.26179   0.26238   0.26677   0.26890
 Alpha virt. eigenvalues --    0.27226   0.27726   0.27821   0.28111   0.28513
 Alpha virt. eigenvalues --    0.28733   0.28973   0.29605   0.29722   0.30290
 Alpha virt. eigenvalues --    0.30600   0.30948   0.31205   0.31271   0.31461
 Alpha virt. eigenvalues --    0.31629   0.31824   0.32379   0.32666   0.33221
 Alpha virt. eigenvalues --    0.33630   0.33826   0.34239   0.34566   0.34856
 Alpha virt. eigenvalues --    0.35121   0.35201   0.35335   0.35481   0.35648
 Alpha virt. eigenvalues --    0.36104   0.36316   0.36794   0.37303   0.37339
 Alpha virt. eigenvalues --    0.37441   0.38050   0.38365   0.38685   0.38816
 Alpha virt. eigenvalues --    0.39312   0.39522   0.39643   0.40053   0.40326
 Alpha virt. eigenvalues --    0.40927   0.41216   0.41410   0.41617   0.42133
 Alpha virt. eigenvalues --    0.42694   0.42758   0.43131   0.43363   0.43454
 Alpha virt. eigenvalues --    0.43899   0.44144   0.44630   0.44894   0.45063
 Alpha virt. eigenvalues --    0.45442   0.45724   0.46205   0.46437   0.46770
 Alpha virt. eigenvalues --    0.47839   0.48138   0.48273   0.48842   0.49206
 Alpha virt. eigenvalues --    0.50042   0.50263   0.50318   0.51235   0.51713
 Alpha virt. eigenvalues --    0.52068   0.52471   0.52767   0.53246   0.54172
 Alpha virt. eigenvalues --    0.54692   0.54934   0.56063   0.56946   0.57216
 Alpha virt. eigenvalues --    0.57376   0.58449   0.58674   0.58882   0.59491
 Alpha virt. eigenvalues --    0.60117   0.60700   0.61217   0.61728   0.62906
 Alpha virt. eigenvalues --    0.63073   0.63396   0.64059   0.64685   0.66059
 Alpha virt. eigenvalues --    0.66938   0.67468   0.68100   0.68382   0.69239
 Alpha virt. eigenvalues --    0.69636   0.69911   0.70396   0.71868   0.72543
 Alpha virt. eigenvalues --    0.72614   0.72851   0.73312   0.73772   0.74358
 Alpha virt. eigenvalues --    0.74568   0.75035   0.75353   0.76236   0.76702
 Alpha virt. eigenvalues --    0.77470   0.77777   0.77915   0.78942   0.79031
 Alpha virt. eigenvalues --    0.79868   0.80311   0.80547   0.80920   0.81537
 Alpha virt. eigenvalues --    0.81916   0.82055   0.82197   0.83585   0.83971
 Alpha virt. eigenvalues --    0.84113   0.84654   0.85122   0.86296   0.86965
 Alpha virt. eigenvalues --    0.87298   0.88061   0.88594   0.89131   0.91359
 Alpha virt. eigenvalues --    0.91981   0.92406   0.93739   0.93889   0.95114
 Alpha virt. eigenvalues --    0.95666   0.96950   0.97420   0.97702   0.98405
 Alpha virt. eigenvalues --    0.98937   0.99520   1.00341   1.00494   1.01480
 Alpha virt. eigenvalues --    1.02021   1.02514   1.03140   1.04407   1.04650
 Alpha virt. eigenvalues --    1.05520   1.06351   1.07070   1.07459   1.08463
 Alpha virt. eigenvalues --    1.09158   1.10352   1.10677   1.10876   1.11955
 Alpha virt. eigenvalues --    1.12250   1.13127   1.14008   1.14197   1.14723
 Alpha virt. eigenvalues --    1.17005   1.17148   1.17785   1.20044   1.20528
 Alpha virt. eigenvalues --    1.21031   1.22619   1.23002   1.24044   1.25100
 Alpha virt. eigenvalues --    1.25724   1.27009   1.27377   1.28321   1.29749
 Alpha virt. eigenvalues --    1.30655   1.31360   1.32061   1.33111   1.33938
 Alpha virt. eigenvalues --    1.34165   1.34433   1.35360   1.35655   1.36817
 Alpha virt. eigenvalues --    1.38200   1.39103   1.39313   1.39843   1.40437
 Alpha virt. eigenvalues --    1.40967   1.41747   1.41816   1.42954   1.43640
 Alpha virt. eigenvalues --    1.44832   1.45677   1.45967   1.46930   1.47551
 Alpha virt. eigenvalues --    1.49078   1.49824   1.51409   1.52438   1.52772
 Alpha virt. eigenvalues --    1.53174   1.54777   1.56950   1.57487   1.57837
 Alpha virt. eigenvalues --    1.59836   1.61087   1.61677   1.61934   1.63343
 Alpha virt. eigenvalues --    1.63928   1.64334   1.64892   1.65648   1.66004
 Alpha virt. eigenvalues --    1.67280   1.68897   1.69184   1.69621   1.70301
 Alpha virt. eigenvalues --    1.71543   1.72585   1.73436   1.74705   1.75514
 Alpha virt. eigenvalues --    1.76148   1.76235   1.77379   1.77941   1.78506
 Alpha virt. eigenvalues --    1.79447   1.80372   1.81031   1.81770   1.82295
 Alpha virt. eigenvalues --    1.82532   1.82621   1.83906   1.84270   1.85035
 Alpha virt. eigenvalues --    1.85711   1.87290   1.88469   1.88615   1.88971
 Alpha virt. eigenvalues --    1.89760   1.90294   1.90991   1.92279   1.93478
 Alpha virt. eigenvalues --    1.93815   1.94256   1.95988   1.96380   1.97474
 Alpha virt. eigenvalues --    1.98119   1.98401   1.99512   2.00612   2.00993
 Alpha virt. eigenvalues --    2.02698   2.04952   2.05133   2.06384   2.08202
 Alpha virt. eigenvalues --    2.09696   2.10794   2.13301   2.14270   2.16069
 Alpha virt. eigenvalues --    2.16791   2.18331   2.19506   2.20721   2.21588
 Alpha virt. eigenvalues --    2.22765   2.24296   2.25076   2.25663   2.27001
[...]
 0046945,-0.00021663,-0.00018229,-0.00002069,0.00003424,0.00003452,-0.0
 0000028,-0.00000656,-0.00000976,-0.00003811,0.00003690,-0.00000463,-0.
 00164593,-0.00038302,-0.00013916,0.00049464,-0.00012681,-0.00037382,0.
 00684144,-0.00022849,0.00049686,0.00004330,-0.00002529,0.00000655,-0.0
 0540542,0.00055309,-0.02965011,-0.03661135,0.10140184,-0.24087973,-0.0
 0002157,0.00001697,-0.00000887,0.00002656,-0.00003365,-0.00001203,-0.0
 0121602,0.00083050,-0.00009223,0.00005223,-0.00000715,-0.00001004,0.00
 004145,-0.00007685,-0.00000796,-0.00001934,0.00001598,-0.00000118,-0.0
 0000951,0.00008236,-0.00006521,0.00000639,-0.00000061,-0.00000964,-0.0
 0000045,-0.00000246,-0.00000674,-0.00000098,0.00000733,0.00000317,0.00
 000087,-0.00000300,0.00000814,0.00000876,0.00001464,0.00004338,-0.0001
 3232,-0.00016004,-0.00009789,-0.00001444,-0.00002890,0.00004022,0.0000
 0751,0.00005147,0.00004109,-0.00002612,0.00001584,-0.00000437,-0.00018
 132,-0.00002216,0.00032184,-0.00104994,0.00119799,-0.00141069,0.038883
 04,-0.10562645,0.27251853,-0.00001904,-0.00004098,0.00001326,-0.000016
 13,0.00005917,-0.00003276,-0.00005382,0.00003515,0.00005669,0.00000064
 ,-0.00001849,0.00000613,-0.00001559,0.00001721,0.00000923,-0.00001039,
 0.00001233,0.00000676,0.00002310,0.00001726,-0.00002755,0.00000965,-0.
 00000643,-0.00001242,0.00003354,-0.00001811,-0.00001577,-0.00002665,-0
 .00014479,-0.00015690,-0.00000643,0.00001297,0.00001597,0.00000018,-0.
 00000438,-0.00000355,-0.00000540,0.00001092,0.00000992,-0.00030942,-0.
 00079004,0.00044775,0.00002674,-0.00005934,-0.00009491,-0.00142568,0.0
 0082764,-0.00067869,0.00000649,-0.00000541,-0.00000536,0.00984329,0.01
 268326,0.00114411,-0.11477318,-0.10958203,0.00596541,-0.00000484,0.000
 00257,-0.00000162,0.00000642,-0.00001219,-0.00001125,0.00141923,0.0001
 4414,-0.00048152,0.00003601,-0.00002328,-0.00006482,0.00000710,-0.0000
 1453,-0.00000262,-0.00000474,0.00000375,0.00000223,-0.00001254,0.00001
 078,-0.00000221,0.00000235,-0.00000001,-0.00000344,-0.00000005,-0.0000
 0150,-0.00000263,0.00000033,0.00000191,0.00000199,-0.00000003,0.000000
 95,0.00000210,-0.00003140,0.00010212,0.00016774,-0.00000950,-0.0000020
 1,-0.00001054,0.00001150,0.00002556,-0.00001696,-0.00001304,-0.0000116
 3,0.00000335,-0.00000713,0.00000498,0.00000166,0.00012830,0.00061664,-
 0.00038212,-0.01425648,-0.02804241,0.00343766,0.00306554,0.00573622,-0
 .00035867,0.11638035,-0.00013891,-0.00002132,0.00008764,0.00018940,-0.
 00019201,-0.00011548,-0.00054682,0.00004218,0.00035819,0.00008759,-0.0
 0011019,0.00000520,-0.00007522,0.00003960,0.00001854,-0.00004632,0.000
 02752,0.00003900,0.00012976,0.00010916,-0.00006547,0.00010292,-0.00002
 089,-0.00005060,0.00012060,-0.00003742,-0.00002799,0.00051064,-0.00025
 213,-0.00050178,-0.00002220,0.00003068,0.00002681,0.00000016,-0.000006
 83,-0.00000733,-0.00003306,0.00002740,-0.00000311,-0.00004702,0.001017
 47,-0.00047720,0.00012539,-0.00001355,0.00004756,0.00483767,-0.0020857
 6,0.00542279,0.00003992,-0.00001704,0.00000364,-0.00490192,-0.02006685
 ,-0.01596409,-0.10877231,-0.22832848,0.01487617,-0.00001976,0.00001031
 ,-0.00000589,0.00002346,-0.00002387,-0.00001012,-0.00294306,0.00075750
 ,-0.00064976,0.00004190,0.00018284,0.00000606,0.00003156,-0.00004785,-
 0.00000888,-0.00001668,0.00000771,-0.00000366,-0.00003478,0.00013330,0
 .00006942,0.00000676,-0.00000006,-0.00000950,-0.00000054,-0.00000236,-
 0.00000566,-0.00000050,0.00000700,0.00000227,-0.00000015,-0.00000229,0
 .00000699,0.00004556,-0.00025816,-0.00019164,-0.00000330,-0.00006534,-
 0.00004713,-0.00002815,-0.00000561,0.00002586,0.00001873,0.00003828,0.
 00004420,-0.00002526,0.00001011,-0.00000342,-0.00063385,-0.00058119,-0
 .00008851,0.00194360,0.00644491,-0.00004714,-0.00842432,-0.01233273,0.
 00276005,0.11845232,0.25559094,-0.00007124,0.00005299,0.00004552,0.000
 10032,-0.00022485,-0.00005259,-0.00034399,0.00002771,0.00021986,0.0000
 7855,-0.00004680,-0.00000410,-0.00003833,0.00000797,0.00001294,-0.0000
 3461,0.00000857,0.00001763,0.00004982,0.00005018,-0.00003155,0.0000410
 2,-0.00002502,-0.00001690,0.00004783,-0.00000941,-0.00001066,0.0002914
 0,-0.00009337,-0.00027371,-0.00001046,0.00001381,0.00000989,0.00000021
 ,-0.00000278,-0.00000342,-0.00001084,0.00001224,0.00000371,0.00022515,
 0.00152865,-0.00082485,0.00003512,0.00008458,0.00011597,0.00425305,-0.
 00421326,0.00360047,0.00001290,-0.00000778,-0.00000076,-0.01374253,-0.
 03003924,-0.00859183,0.00762041,0.01644620,-0.04853062,-0.00000669,0.0
 0000487,-0.00000257,0.00000854,-0.00001133,-0.00000665,-0.00213214,0.0
 0154685,-0.00002107,-0.00000528,0.00018733,0.00002191,0.00001548,-0.00
 002082,-0.00000335,-0.00000362,0.00000272,0.00000008,-0.00001437,0.000
 09889,0.00004866,0.00000279,-0.00000009,-0.00000375,0.,-0.00000108,-0.
 00000252,-0.00000049,0.00000297,0.00000080,-0.00000034,-0.00000098,0.0
 0000308,0.00014016,-0.00035762,-0.00037366,0.00000465,-0.00003552,-0.0
 0001003,-0.00002413,-0.00001746,0.00003116,0.00000255,0.00001178,0.000
 00668,-0.00000893,0.00000517,-0.00000039,-0.00018686,0.00009045,0.0004
 3724,-0.00269087,-0.00371599,0.00015019,0.01532067,0.02416005,-0.00077
 064,-0.00892646,-0.00551868,0.05480864,-0.00005657,-0.00001485,0.00004
 934,0.00005714,-0.00003337,-0.00003625,0.00002071,-0.00005419,-0.00002
 460,0.00005815,0.00008760,-0.00007429,0.00022542,0.00000822,-0.0000944
 4,-0.00004870,-0.00010665,0.00002947,0.00001077,0.00011077,0.00003108,
 -0.00007245,-0.00003330,0.00007687,-0.00017831,0.00008660,0.00027813,-
 0.00007061,0.00005952,0.00007755,0.00057753,-0.00013784,-0.00131920,-0
 .00005975,0.00023401,0.00006023,-0.00149587,0.00315373,0.00525934,0.00
 002710,-0.00002983,0.00001069,-0.00000813,0.00000491,-0.00000646,0.000
 01624,-0.00002515,-0.00003954,-0.01842051,0.00033557,-0.01625772,-0.00
 001477,0.00001939,0.00003800,0.00000559,-0.00001142,-0.00002096,-0.201
 96506,-0.07503051,-0.09932233,0.00069475,-0.00154561,-0.00038237,-0.00
 002371,0.00002102,0.00001860,-0.00002362,0.00006522,0.00002133,0.00003
 021,0.00006052,0.00004774,-0.00006277,-0.00006703,-0.00004095,0.000006
 43,-0.00001495,-0.00001758,-0.00026347,0.00026139,-0.00008229,0.000037
 39,-0.00001312,0.00001706,-0.00001521,-0.00003279,-0.00000794,-0.00010
 247,-0.00000548,-0.00004885,0.00000084,0.00000104,-0.00000151,0.000003
 39,0.00000231,0.00000539,0.00000145,-0.00000236,0.00000169,-0.00000558
 ,-0.00000089,-0.00000333,0.00008140,0.00001408,-0.00012025,0.00000792,
 -0.00001405,-0.00002291,-0.00000301,0.00000167,-0.00000010,-0.00000037
 ,-0.00000110,0.00000698,0.00000066,0.00000637,0.00000180,0.22306390,0.
 00002225,-0.00003079,-0.00000551,-0.00000244,-0.00001068,0.00000046,-0
 .00000339,-0.00001061,0.00000157,-0.00001018,0.00006258,-0.00001142,-0
 .00016124,0.00000571,0.00005270,0.00002890,-0.00013345,-0.00000448,0.0
 0000443,0.00001174,-0.00002797,-0.00000110,0.00000661,0.00000005,-0.00
 011092,0.00005596,-0.00021681,-0.00001324,0.00001617,0.00001106,-0.000
 50501,-0.00003551,0.00149475,0.00003884,-0.00018550,-0.00001860,0.0033
 4634,-0.00455453,-0.00367187,0.00000751,-0.00000519,0.00000421,-0.0000
 0159,0.00000115,-0.00000035,0.00000570,-0.00000498,-0.00000475,0.02814
 481,0.00747167,0.02201115,-0.00000367,0.00000360,0.00000478,0.00000083
 ,-0.00000224,-0.00000387,-0.08037873,-0.08578723,-0.05294105,-0.000862
 56,0.00218224,0.00049875,-0.00000713,0.00000523,0.00000236,-0.00000160
 ,0.00001034,0.00000118,0.00008529,0.00014793,-0.00004954,0.00005853,0.
 00000840,0.00003010,0.00000190,-0.00000416,-0.00000347,0.00021621,-0.0
 0029004,0.00010498,-0.00001972,-0.00000190,0.00000453,0.00002673,0.000
 01935,0.00000112,0.00008738,0.00002587,0.00003575,0.00000004,0.0000007
 7,-0.00000005,0.00000043,-0.00000044,0.00000122,0.00000057,-0.00000050
 ,-0.00000052,-0.00000129,0.00000006,-0.00000062,-0.00045635,0.00083579
 ,-0.00062329,0.00000277,-0.00000280,-0.00000376,-0.00000074,0.00000025
 ,-0.00000015,0.00000019,-0.00000027,0.00000103,0.00000038,0.00000093,0
 .00000033,0.07727564,0.09276443,-0.00005074,0.00000816,0.00005747,0.00
 005181,-0.00002520,-0.00003084,0.00002836,-0.00003589,-0.00002453,0.00
 005388,0.00001422,-0.00003886,0.00027927,-0.00002584,-0.00011882,-0.00
 003138,0.00002510,0.00002484,-0.00000114,0.00007260,0.00000588,-0.0000
 5455,-0.00002735,0.00004192,-0.00034317,0.00021362,0.00006747,-0.00005
 775,0.00004040,0.00005099,-0.00002457,-0.00044311,-0.00034437,-0.00006
 655,0.00021098,-0.00002481,-0.00123708,-0.00008028,0.00014726,0.000025
 50,-0.00002599,0.00000773,-0.00000757,0.00000424,-0.00000458,0.0000244
 1,-0.00002022,-0.00001744,-0.00698416,-0.00006123,-0.00617877,-0.00001
 567,0.00001416,0.00001865,0.00000324,-0.00000903,-0.00001411,-0.099712
 44,-0.04808801,-0.11371877,-0.00086952,0.00123413,-0.00011306,-0.00002
 799,0.00001914,0.00000896,-0.00001817,0.00004486,0.00001292,-0.0000827
 6,-0.00004579,0.00001818,-0.00004477,-0.00005316,0.00000568,0.00000675
 ,-0.00001027,-0.00000738,-0.00005024,0.00003696,0.00000015,0.00002802,
 -0.00001149,0.00003066,-0.00000028,-0.00000942,-0.00000271,-0.00008403
 ,0.00000735,-0.00001962,0.00000060,0.00000124,-0.00000099,0.00000329,0
 .00000153,0.00000354,0.00000130,-0.00000167,0.00000139,-0.00000543,-0.
 00000050,-0.00000277,0.00035223,-0.00000157,0.00023807,0.00000999,-0.0
 0001158,-0.00001462,-0.00000270,0.00000111,-0.00000037,0.00000086,-0.0
 0000052,0.00000378,0.00000137,0.00000373,0.00000142,0.11561343,0.04941
 833,0.12039472,-0.00001576,0.00005673,0.00003239,-0.00000531,0.0000099
 2,0.00000198,0.00000970,0.00003892,-0.00001609,0.00002272,-0.00017377,
 0.00000852,0.00020613,-0.00000689,-0.00012978,0.00000336,0.00039732,-0
 .00001809,-0.00002790,-0.00003315,0.00001980,0.00002225,-0.00000398,-0
 .00001302,-0.00019396,0.00004457,0.00012386,0.00003057,-0.00003291,-0.
 00001549,-0.00098578,-0.00088205,0.00014792,-0.00009438,0.00030640,0.0
 0008392,0.00184973,0.00370161,0.00278926,-0.00001412,0.00000854,-0.000
 01058,0.00000371,-0.00000288,0.00000155,-0.00000788,0.00000721,0.00000
 888,0.01004416,0.02030338,-0.01910954,0.00000677,-0.00000405,-0.000008
 32,-0.00000152,0.00000184,0.00000628,-0.11443379,-0.08473519,0.0730331
 0,0.00072001,-0.00155096,-0.00093262,0.00001202,-0.00000704,-0.0000041
 3,0.00000539,-0.00002066,-0.00000375,0.00021502,-0.00034561,-0.0000041
 8,0.00000334,-0.00002730,0.00002943,-0.00000496,0.00000492,0.00000770,
 0.00009249,-0.00016532,0.00005141,0.00001577,-0.00001371,0.00001003,-0
 .00003226,-0.00000378,-0.00003134,-0.00009193,-0.00001613,-0.00005640,
 -0.00000057,-0.00000112,0.00000016,-0.00000175,0.00000028,-0.00000163,
 -0.00000068,0.00000103,-0.00000035,0.00000263,-0.00000004,0.00000103,0
 .00055657,-0.00001763,0.00012161,-0.00000421,0.00000379,0.00000706,0.0
 0000098,-0.00000049,0.00000010,-0.00000029,0.00000027,-0.00000194,-0.0
 0000020,-0.00000089,-0.00000056,-0.01270628,-0.01517600,0.01475488,0.1
 2009216,0.00005282,-0.00016696,-0.00006898,-0.00004706,0.00001079,0.00
 001514,-0.00005018,0.00001975,0.00005805,-0.00012363,0.00007982,0.0000
 7887,-0.00070615,0.00005578,0.00041454,0.00020839,-0.00043632,-0.00017
 559,0.00010698,0.00001784,-0.00008161,0.00006789,0.00009669,-0.0001045
 3,0.00079349,-0.00033616,-0.00028246,0.00004831,-0.00001757,-0.0000684
 3,0.00054958,0.00091504,0.00018782,0.00003802,-0.00035092,-0.00017463,
 -0.00401884,-0.00330828,-0.00700338,-0.00001154,0.00002138,0.00000172,
 0.00000423,-0.00000407,0.00000624,-0.00000581,0.00001361,0.00002919,0.
 00328318,-0.02498602,0.02157185,0.00000822,-0.00000841,-0.00002938,-0.
 00000416,0.00000400,0.00001396,-0.08344050,-0.14876308,0.08760909,-0.0
 0056038,0.00195812,0.00325697,0.00000937,-0.00000798,-0.00001408,0.000
 01495,-0.00001945,-0.00001186,0.00011989,0.00043642,-0.00015683,-0.000
 03249,0.00012073,-0.00002959,0.00000182,0.00000214,0.00001144,-0.00003
 518,0.00012214,-0.00010483,-0.00006489,0.00002627,-0.00005002,0.000067
 58,0.00003035,0.00003986,0.00014276,0.00000152,0.00006499,-0.00000084,
 0.00000056,0.00000051,-0.00000207,-0.00000319,-0.00000230,0.00000055,0
 .00000179,-0.00000348,0.00000283,0.00000149,0.00000235,-0.00063665,-0.
 00041922,0.00076207,-0.00000481,0.00000491,0.00001673,0.00000178,-0.00
 000118,0.00000010,0.00000036,0.00000071,-0.00000546,0.00000021,-0.0000
 0305,-0.00000113,-0.00796657,-0.00732682,0.00645384,0.08491185,0.17088
 528,-0.00003012,0.00008413,0.00004186,0.00003267,-0.00001196,-0.000016
 02,0.00004509,-0.00002251,-0.00003466,0.00006276,-0.00003494,-0.000036
 38,0.00039930,-0.00006785,-0.00020041,-0.00010013,0.00018440,0.0000040
 8,-0.00005528,0.00000393,0.00003374,-0.00005915,-0.00005457,0.00004446
 ,-0.00041569,0.00021070,0.00002053,-0.00004568,0.00002022,0.00004389,-
 0.00010654,-0.00027517,-0.00024171,-0.00002839,0.00018255,0.00008230,0
 .00217903,0.00255953,0.00305662,0.00002016,-0.00002049,0.00000352,-0.0
 0000667,0.00000420,-0.00000369,0.00001783,-0.00001237,-0.00000912,-0.0
 0383948,0.01008121,-0.00547344,-0.00001204,0.00000668,0.00001146,0.000
 00233,-0.00000375,-0.00000968,0.07133416,0.08788602,-0.12816519,-0.000
 26884,-0.00158911,-0.00051163,-0.00002032,0.00001066,0.00000526,-0.000
 01174,0.00001990,0.00000873,-0.00025960,-0.00021485,0.00008833,0.00001
 707,-0.00007141,-0.00000510,0.00000435,-0.00000305,-0.00000421,-0.0000
 0134,-0.00003778,0.00003890,0.00002847,0.00000109,0.00000037,-0.000053
 89,-0.00000805,-0.00000034,-0.00008027,-0.00001303,-0.00003339,0.00000
 075,0.00000064,-0.00000049,0.00000311,0.00000167,0.00000150,0.00000024
 ,-0.00000144,0.00000254,-0.00000408,-0.00000045,-0.00000219,-0.0001412
 4,-0.00047325,-0.00003793,0.00000791,-0.00000657,-0.00001066,-0.000001
 78,0.00000096,-0.00000024,0.00000094,-0.00000040,0.00000270,0.00000062
 ,0.00000143,0.00000082,-0.00826777,-0.01150916,0.01040339,-0.07525693,
 -0.10490554,0.13513748,-0.00002494,0.00002636,0.00004208,0.00003446,-0
 .00000383,-0.00001896,0.00000771,-0.00002902,-0.00000350,0.00002364,0.
 00002606,-0.00001955,0.00021368,-0.00005982,-0.00014757,-0.00003511,-0
 .00004627,-0.00001249,-0.00000041,0.00003032,-0.00000834,-0.00003328,-
 0.00002149,0.00001593,-0.00047913,0.00025811,-0.00046120,-0.00002643,0
 .00001782,0.00002084,0.00023812,0.00031642,0.00010351,0.00001336,-0.00
 010080,0.00001643,0.00129166,0.00327272,0.00458098,0.00001280,-0.00001
 132,0.00000457,-0.00000468,0.00000291,-0.00000025,0.00000906,-0.000005
 78,-0.00000242,-0.01049486,0.01478709,0.01722574,-0.00000632,0.0000038
 0,0.00000330,0.00000067,-0.00000179,-0.00000422,-0.07328728,0.03547434
 ,0.06613585,0.00074244,-0.00295310,-0.00142340,-0.00001102,0.00000586,
 0.00000114,-0.00000674,0.00001660,0.00000425,-0.00001753,-0.00000322,0
 .00000768,-0.00001098,-0.00004628,-0.00005407,0.00000365,-0.00000349,-
 0.00000205,-0.00004100,0.00002098,-0.00005143,-0.00002927,0.,-0.000064
 84,-0.00001429,0.00000589,0.00000739,0.00003534,-0.00002129,0.00000492
 ,0.00000047,0.00000090,-0.00000006,0.00000203,0.,0.00000065,0.00000052
 ,-0.00000058,0.00000028,-0.00000271,-0.00000016,-0.00000098,-0.0021657
 8,0.00071890,-0.00214357,0.00000345,-0.00000464,-0.00000520,-0.0000007
 3,0.00000047,0.00000017,0.00000028,-0.00000015,0.00000095,0.00000028,0
 .00000075,0.00000036,0.01067023,-0.01163876,-0.02146653,-0.00529196,0.
 00727667,0.01491016,0.07868062,0.00005894,-0.00006343,-0.00008542,-0.0
 0006203,0.00001503,0.00003109,-0.00001686,0.00003534,0.00002812,-0.000
 07670,0.00000581,0.00006170,-0.00048441,0.00004983,0.00030968,0.000106
 32,-0.00008073,-0.00007800,0.00002517,-0.00005951,-0.00000331,0.000055
 87,0.00004077,-0.00005522,0.00099581,-0.00066523,0.00039462,0.00004870
 ,-0.00003358,-0.00005134,-0.00004406,-0.00017657,-0.00045061,-0.000048
 03,0.00006979,0.00002300,-0.00090243,-0.00065544,-0.00388268,-0.000021
 22,0.00002288,-0.00000601,0.00000715,-0.00000451,0.00000279,-0.0000182
 6,0.00001545,0.00001390,0.01330510,-0.02103282,-0.02343813,0.00001254,
 -0.00001063,-0.00001536,-0.00000236,0.00000628,0.00001134,0.03656460,-
 0.10013354,-0.09419545,-0.00169321,0.00125968,0.00119863,0.00002111,-0
 .00001441,-0.00000685,0.00001645,-0.00003770,-0.00001129,0.00004431,0.
 00014303,-0.00000610,0.00004863,0.00007603,0.00003530,-0.00000494,0.00
 000854,0.00000720,0.00003076,-0.00004306,0.00001789,0.00003201,0.00002
 396,0.00003709,0.00000278,-0.00000138,0.00000204,-0.00001832,0.0000065
 9,-0.00000074,-0.00000092,-0.00000137,0.00000043,-0.00000307,-0.000000
 43,-0.00000285,-0.00000106,0.00000143,-0.00000055,0.00000476,0.0000006
 0,0.00000210,0.00258048,-0.00065609,0.00279215,-0.00000749,0.00000899,
 0.00001310,0.00000201,-0.00000095,-0.00000002,-0.00000047,0.00000043,-
 0.00000318,-0.00000089,-0.00000280,-0.00000110,0.00333146,-0.00524916,
 -0.00883757,-0.00657704,0.01133155,0.01807777,-0.04731118,0.11580132,0
 .00002011,0.00000607,-0.00002142,-0.00002540,0.00001858,0.00001623,-0.
 00002768,0.00002717,0.00001417,-0.00003311,-0.00004863,0.00002371,-0.0
 0006056,-0.00003812,0.00003585,0.00001168,0.00007043,0.00001946,0.0000
 1414,-0.00004701,-0.00000896,0.00004520,0.00002206,-0.00002643,0.00007
 447,-0.00024904,-0.00031208,0.00004820,-0.00003383,-0.00003602,0.00022
 752,0.00047592,-0.00001720,0.00000980,-0.00010340,0.00004643,-0.001197
 70,-0.00007687,-0.00012870,-0.00002277,0.00002019,-0.00000794,0.000006
 37,-0.00000345,0.00000359,-0.00002229,0.00001664,0.00001220,-0.0028133
 3,0.00355714,0.01233828,0.00001399,-0.00001059,-0.00001356,-0.00000281
 ,0.00000680,0.00001158,0.07403037,-0.10265260,-0.23762737,-0.00054627,
 0.00104644,-0.00106614,0.00002560,-0.00001601,-0.00000669,0.00001502,-
 0.00003525,-0.00001041,-0.00000192,-0.00006506,0.00001123,0.00006671,0
 .00000264,0.00000410,-0.00000632,0.00000819,0.00000596,-0.00003413,0.0
 0001173,-0.00002781,-0.00000565,0.00001043,-0.00002307,-0.00000820,0.0
 0000192,-0.00000180,0.00003689,-0.00000868,0.00001782,-0.00000075,-0.0
 0000124,0.00000065,-0.00000302,-0.00000111,-0.00000283,-0.00000103,0.0
 0000158,-0.00000129,0.00000463,0.00000012,0.00000236,-0.00155306,0.001
 91313,-0.00055827,-0.00000900,0.00000925,0.00001140,0.00000230,-0.0000
 0093,0.00000044,-0.00000106,0.00000043,-0.00000297,-0.00000118,-0.0000
 0254,-0.00000106,0.00454691,-0.00458316,-0.01086764,0.00437388,-0.0073
 2120,-0.01423603,-0.07719654,0.10807184,0.25243022\\-0.00000178,-0.000
 00390,0.00000207,0.00000296,-0.00000049,-0.00000167,-0.00000387,-0.000
 00138,0.00000336,-0.00000077,-0.00000073,-0.00000105,-0.00000371,-0.00
 000167,0.00000252,0.00000061,0.00000672,-0.00000109,0.00000188,0.00000
 242,-0.00000121,0.00000015,-0.00000025,0.00000064,0.00000262,0.0000022
 8,0.00000203,0.00000231,0.00000094,-0.00000290,-0.00000113,-0.00000279
 ,-0.00000373,0.00000293,0.00000382,0.00000203,0.00000041,-0.00000143,-
 0.00000522,-0.00000058,-0.00000245,0.00000173,-0.00000027,0.00000087,-
 0.00000172,0.00000157,0.00000128,-0.00000164,-0.00000347,-0.00000227,0
 .00000455,0.00000025,-0.00000049,-0.00000004,-0.00000133,0.00000031,0.
 00000139,-0.00000008,0.00000116,-0.00000238,0.00000110,0.00000148,0.00
 000358,-0.00000002,-0.00000004,0.00000044,-0.00000035,0.00000113,0.000
 00049,-0.00000016,-0.00000361,-0.00000065,0.00000032,-0.00000072,0.000
 00039,-0.00000075,0.00000072,-0.00000025,0.00000067,0.00000064,0.00000
 104,-0.00000065,-0.00000036,-0.00000057,-0.00000036,-0.00000031,-0.000
 00005,0.00000031,0.00000030,-0.00000047,0.00000022,0.00000113,0.000000
 04,0.00000046,0.00000064,-0.00000014,-0.00000034,0.00000045,-0.0000006
 5,0.00000001,0.00000036,-0.00000039,0.00000169,0.00000048,-0.00000115,
 0.00000070,-0.00000069,0.,-0.00000059,0.00000091,0.00000062,-0.0000003
 1,-0.00000037,-0.00000047,-0.00000002,-0.00000108,-0.00000067,-0.00000
 033,-0.00000061,0.00000041,-0.00000020,-0.00000109,-0.00000012,-0.0000
 0007,-0.00000131,0.00000089\\\@


 EDUCATION WITHOUT COMMON SENSE IS A LOAD OF BOOKS ON THE BACK OF AN ASS.
 Job cpu time:       1 days  1 hours 58 minutes 24.5 seconds.
 Elapsed time:       0 days  3 hours 14 minutes 56.9 seconds.
 File lengths (MBytes):  RWF=   3525 Int=      0 D2E=      0 Chk=     51 Scr=      1
 Normal termination of Gaussian 16 at Wed Dec 20 15:12:00 2023.
