
Running Job 1 of 1 295-rad-SM12.in
qchem 295-rad-SM12.in_1802912.0 /expanse/lustre/scratch/selhajj/temp_project/qcscratch/28447521/qchem1802912/ 0
/cm/shared/apps/spack/cpu/opt/spack/linux-centos8-zen2/gcc-10.2.0/qchem-5.4-akfmr7b3t57bfs6qan3padb2wnb2i7cl/exe/qcprog.exe_s 295-rad-SM12.in_1802912.0 /expanse/lustre/scratch/selhajj/temp_project/qcscratch/28447521/qchem1802912/
                  Welcome to Q-Chem
     A Quantum Leap Into The Future Of Chemistry


 Q-Chem 5.4, Q-Chem, Inc., Pleasanton, CA (2021)

 License issued to: University of California, San Diego (site)

 E. Epifanovsky,  A. T. B. Gilbert,  Xintian Feng,  Joonho Lee,  Yuezhi Mao,  
 N. Mardirossian,  P. Pokhilko,  A. White,  M. Wormit,  M. P. Coons,  
 A. L. Dempwolff,  Zhengting Gan,  D. Hait,  P. R. Horn,  L. D. Jacobson,  
 I. Kaliman,  J. Kussmann,  A. W. Lange,  Ka Un Lao,  D. S. Levine,  Jie Liu,  
 S. C. McKenzie,  A. F. Morrison,  K. Nanda,  F. Plasser,  D. R. Rehn,  
 M. L. Vidal,  Zhi-Qiang You,  Ying Zhu,  B. Alam,  B. Albrecht,  
 A. Aldossary,  E. Alguire,  J. H. Andersen,  D. Barton,  K. Begam,  A. Behn,  
 Y. A. Bernard,  E. J. Berquist,  H. Burton,  A. Carreras,  K. Carter-Fenk,  
 R. Chakraborty,  A. D. Chien,  K. D. Closser,  V. Cofer-Shabica,  
 S. Dasgupta,  Jia Deng,  M. de Wergifosse,  M. Diedenhofen,  Hainam Do,  
 S. Ehlert,  Po-Tung Fang,  S. Fatehi,  Qingguo Feng,  J. Gayvert,  
 Qinghui Ge,  G. Gidofalvi,  M. Goldey,  J. Gomes,  C. Gonzalez-Espinoza,  
 S. Gulania,  A. Gunina,  M. W. D. Hanson-Heine,  P. H. P. Harbach,  
 A. W. Hauser,  M. F. Herbst,  M. Hernandez Vera,  M. Hodecker,  
 Z. C. Holden,  S. Houck,  Xunkun Huang,  Kerwin Hui,  B. C. Huynh,  
 M. Ivanov,  Hyunjun Ji,  Hanjie Jiang,  B. Kaduk,  S. Kaehler,  
 K. Khistyaev,  Jaehoon Kim,  P. Klunzinger,  Z. Koczor-Benda,  
 Joong Hoon Koh,  D. Kosenkov,  L. Koulias,  T. Kowalczyk,  C. M. Krauter,  
 K. Kue,  A. Kunitsa,  T. Kus,  A. Landau,  K. V. Lawler,  D. Lefrancois,  
 S. Lehtola,  Rain Li,  Yi-Pei Li,  Jiashu Liang,  M. Liebenthal,  
 Hung-Hsuan Lin,  You-Sheng Lin,  Fenglai Liu,  Kuan-Yu Liu,  
 M. Loipersberger,  A. Luenser,  A. Manjanath,  P. Manohar,  E. Mansoor,  
 S. F. Manzer,  Shan-Ping Mao,  A. V. Marenich,  T. Markovich,  S. Mason,  
 S. A. Maurer,  P. F. McLaughlin,  M. F. S. J. Menger,  J.-M. Mewes,  
 S. A. Mewes,  P. Morgante,  J. W. Mullinax,  T. S. Nguyen-Beck,  
 K. J. Oosterbaan,  G. Paran,  Alexander C. Paul,  Suranjan K. Paul,  
 F. Pavosevic,  Zheng Pei,  S. Prager,  E. I. Proynov,  E. Ramos,  B. Rana,  
 A. E. Rask,  A. Rettig,  R. M. Richard,  F. Rob,  E. Rossomme,  T. Scheele,  
 M. Scheurer,  M. Schneider,  N. Sergueev,  S. M. Sharada,  W. Skomorowski,  
 D. W. Small,  C. J. Stein,  Yu-Chuan Su,  E. J. Sundstrom,  Zhen Tao,  
 J. Thirman,  T. Tsuchimochi,  N. M. Tubman,  S. P. Veccham,  O. Vydrov,  
 J. Wenzel,  J. Witte,  A. Yamada,  Kun Yao,  S. Yeganeh,  S. R. Yost,  
 A. Zech,  Igor Ying Zhang,  Xing Zhang,  Yu Zhang,  D. Zuev,  
 A. Aspuru-Guzik,  A. T. Bell,  N. A. Besley,  K. B. Bravaya,  B. R. Brooks,  
 D. Casanova,  Jeng-Da Chai,  S. Coriani,  C. J. Cramer,  
 A. E. DePrince, III,  R. A. DiStasio Jr.,  A. Dreuw,  B. D. Dunietz,  
 T. R. Furlani,  W. A. Goddard III,  S. Grimme,  S. Hammes-Schiffer,  
 T. Head-Gordon,  W. J. Hehre,  Chao-Ping Hsu,  T.-C. Jagau,  Yousung Jung,  
 A. Klamt,  Jing Kong,  D. S. Lambrecht,  WanZhen Liang,  N. J. Mayhall,  
 C. W. McCurdy,  J. B. Neaton,  C. Ochsenfeld,  J. A. Parkhill,  R. Peverati,  
 V. A. Rassolov,  Yihan Shao,  L. V. Slipchenko,  T. Stauch,  R. P. Steele,  
 J. E. Subotnik,  A. J. W. Thom,  A. Tkatchenko,  D. G. Truhlar,  
 T. Van Voorhis,  T. A. Wesolowski,  K. B. Whaley,  H. L. Woodcock III,  
 P. M. Zimmerman,  S. Faraji,  P. M. W. Gill,  M. Head-Gordon,  
 J. M. Herbert,  A. I. Krylov

 Contributors to earlier versions of Q-Chem not listed above: 
 R. D. Adamson,  B. Austin,  R. Baer,  J. Baker,  G. J. O. Beran,  
 K. Brandhorst,  S. T. Brown,  E. F. C. Byrd,  A. K. Chakraborty,  
 G. K. L. Chan,  Chun-Min Chang,  Yunqing Chen,  C.-L. Cheng,  
 Siu Hung Chien,  D. M. Chipman,  D. L. Crittenden,  H. Dachsel,  
 R. J. Doerksen,  A. D. Dutoi,  R. G. Edgar,  J. Fosso-Tande,  
 L. Fusti-Molnar,  D. Ghosh,  A. Ghysels,  A. Golubeva-Zadorozhnaya,  
 J. Gonthier,  M. S. Gordon,  S. R. Gwaltney,  G. Hawkins,  J. E. Herr,  
 A. Heyden,  S. Hirata,  E. G. Hohenstein,  G. Kedziora,  F. J. Keil,  
 C. Kelley,  Jihan Kim,  R. A. King,  R. Z. Khaliullin,  P. P. Korambath,  
 W. Kurlancheek,  A. Laurent,  A. M. Lee,  M. S. Lee,  S. V. Levchenko,  
 Ching Yeh Lin,  D. Liotard,  E. Livshits,  R. C. Lochan,  I. Lotan,  
 L. A. Martinez-Martinez,  P. E. Maslen,  N. Nair,  D. P. O'Neill,  
 D. Neuhauser,  E. Neuscamman,  C. M. Oana,  R. Olivares-Amaya,  R. Olson,  
 T. M. Perrine,  B. Peters,  P. A. Pieniazek,  A. Prociuk,  Y. M. Rhee,  
 J. Ritchie,  M. A. Rohrdanz,  E. Rosta,  N. J. Russ,  H. F. Schaefer III,  
 M. W. Schmidt,  N. E. Schultz,  S. Sharma,  N. Shenvi,  C. D. Sherrill,  
 A. C. Simmonett,  A. Sodt,  T. Stein,  D. Stuck,  K. S. Thanthiriwatte,  
 V. Vanovschi,  L. Vogt,  Tao Wang,  A. Warshel,  M. A. Watson,  
 C. F. Williams,  Q. Wu,  X. Xu,  Jun Yang,  W. Zhang,  Yan Zhao

 Please cite Q-Chem as follows:
 Y. Shao et al., Mol. Phys. 113, 184-215 (2015)
 DOI: 10.1080/00268976.2014.952696

 Q-Chem 5.4.0 for Intel X86 EM64T Linux

 Parts of Q-Chem use Armadillo 9.800.1 (Horizon Scraper).
 http://arma.sourceforge.net/

 Q-Chem begins on Sat Feb  3 14:20:03 2024  

 Host: 
0

     Scratch files written to /expanse/lustre/scratch/selhajj/temp_project/qcscratch/28447521/qchem1802912//
 May1621 |scratch|qcdevops|jenkins|workspace|build_RNUM    
 Processing $rem in /cm/shared/apps/spack/cpu/opt/spack/linux-centos8-zen2/gcc-10.2.0/qchem-5.4-akfmr7b3t57bfs6qan3padb2wnb2i7cl/config/preferences:
 Processing $rem in /home/selhajj/.qchemrc:
 Symmetry turned off for PCM/SM12/SMD calculation
 Method-specific promolecule density matrix will be built for SM12 calculation

 Checking the input file for inconsistencies... 	...done.

--------------------------------------------------------------
User input:
--------------------------------------------------------------
$molecule
-1 2
C                 -0.9400550000      2.0907850000     -0.2181370000
C                 -1.3410870000      2.2042650000      1.1000680000
C                 -0.6839640000      1.4641910000      2.1037800000
C                  0.1258220000      1.2383260000     -0.5791590000
C                  0.7914130000      0.4898770000      0.4338370000
C                  0.3644180000      0.6234380000      1.7665310000
C                  0.5449320000      1.1201330000     -1.9597250000
C                  1.6443590000      0.2228910000     -2.2303740000
C                  2.3048380000     -0.5217950000     -1.2761280000
C                  1.9146070000     -0.4166360000      0.1132870000
O                  0.0216970000      1.7420210000     -2.9420700000
O                  2.4996560000     -1.0676920000      1.0181760000
H                 -1.4298750000      2.6495420000     -1.0076770000
H                 -2.1628820000      2.8639870000      1.3634040000
H                 -0.9997090000      1.5538530000      3.1389490000
H                  0.8882270000      0.0432340000      2.5178060000
O                  1.9862140000      0.1652380000     -3.5507050000
C                  3.4467710000     -1.4353670000     -1.6390720000
C                  4.8275760000     -0.7690020000     -1.4863740000
C                  5.9906930000     -1.7087390000     -1.8217010000
C                  7.3697460000     -1.0563000000     -1.6719750000
C                  8.5379290000     -1.9912460000     -2.0061720000
C                  9.9145980000     -1.3343740000     -1.8527160000
C                 11.0839640000     -2.2673550000     -2.1870860000
C                 12.4576270000     -1.6031160000     -2.0301270000
C                 13.6243890000     -2.5452810000     -2.3696460000
C                 14.9626840000     -1.8490300000     -2.2005140000
Br                16.4967680000     -3.0423890000     -2.6352100000
H                  1.3385770000      0.7851890000     -3.9538450000
H                  3.3271050000     -1.7798290000     -2.6714280000
H                  3.4097890000     -2.3076240000     -0.9784430000
H                  4.9278870000     -0.4139190000     -0.4552120000
H                  4.8719700000      0.1141720000     -2.1349940000
H                  5.8758460000     -2.0773430000     -2.8503980000
H                  5.9374030000     -2.5929980000     -1.1726770000
H                  7.4836200000     -0.6891230000     -0.6437140000
H                  7.4212120000     -0.1696860000     -2.3177330000
H                  8.4251870000     -2.3578990000     -3.0350810000
H                  8.4869840000     -2.8781850000     -1.3609750000
H                 10.0269050000     -0.9685750000     -0.8237660000
H                  9.9648450000     -0.4468340000     -2.4969880000
H                 10.9748110000     -2.6320070000     -3.2164420000
H                 11.0363270000     -3.1546010000     -1.5429710000
H                 12.5678370000     -1.2411300000     -1.0001430000
H                 12.5051400000     -0.7158300000     -2.6740070000
H                 13.5251880000     -2.9013600000     -3.3997510000
H                 13.5875240000     -3.4282400000     -1.7240790000
H                 15.1416930000     -1.5331130000     -1.1745930000
H                 15.0776050000     -0.9982910000     -2.8693990000
$end

$rem
BASIS  =  6-311++G(d,p)
GUI  =  2
JOB_TYPE  =  SP
METHOD  =  B3LYP
SCF_CONVERGENCE  = 8
SOLVENT_METHOD = sm12
$end

$smx
solvent dimethylformamide
charges CM5
$end





--------------------------------------------------------------
 ----------------------------------------------------------------
             Standard Nuclear Orientation (Angstroms)
    I     Atom           X                Y                Z
 ----------------------------------------------------------------
    1      C      -0.9400550000     2.0907850000    -0.2181370000
    2      C      -1.3410870000     2.2042650000     1.1000680000
    3      C      -0.6839640000     1.4641910000     2.1037800000
    4      C       0.1258220000     1.2383260000    -0.5791590000
    5      C       0.7914130000     0.4898770000     0.4338370000
    6      C       0.3644180000     0.6234380000     1.7665310000
    7      C       0.5449320000     1.1201330000    -1.9597250000
    8      C       1.6443590000     0.2228910000    -2.2303740000
    9      C       2.3048380000    -0.5217950000    -1.2761280000
   10      C       1.9146070000    -0.4166360000     0.1132870000
   11      O       0.0216970000     1.7420210000    -2.9420700000
   12      O       2.4996560000    -1.0676920000     1.0181760000
   13      H      -1.4298750000     2.6495420000    -1.0076770000
   14      H      -2.1628820000     2.8639870000     1.3634040000
   15      H      -0.9997090000     1.5538530000     3.1389490000
   16      H       0.8882270000     0.0432340000     2.5178060000
   17      O       1.9862140000     0.1652380000    -3.5507050000
   18      C       3.4467710000    -1.4353670000    -1.6390720000
   19      C       4.8275760000    -0.7690020000    -1.4863740000
   20      C       5.9906930000    -1.7087390000    -1.8217010000
   21      C       7.3697460000    -1.0563000000    -1.6719750000
   22      C       8.5379290000    -1.9912460000    -2.0061720000
   23      C       9.9145980000    -1.3343740000    -1.8527160000
   24      C      11.0839640000    -2.2673550000    -2.1870860000
   25      C      12.4576270000    -1.6031160000    -2.0301270000
   26      C      13.6243890000    -2.5452810000    -2.3696460000
   27      C      14.9626840000    -1.8490300000    -2.2005140000
   28      Br     16.4967680000    -3.0423890000    -2.6352100000
   29      H       1.3385770000     0.7851890000    -3.9538450000
   30      H       3.3271050000    -1.7798290000    -2.6714280000
   31      H       3.4097890000    -2.3076240000    -0.9784430000
   32      H       4.9278870000    -0.4139190000    -0.4552120000
   33      H       4.8719700000     0.1141720000    -2.1349940000
   34      H       5.8758460000    -2.0773430000    -2.8503980000
   35      H       5.9374030000    -2.5929980000    -1.1726770000
   36      H       7.4836200000    -0.6891230000    -0.6437140000
   37      H       7.4212120000    -0.1696860000    -2.3177330000
   38      H       8.4251870000    -2.3578990000    -3.0350810000
   39      H       8.4869840000    -2.8781850000    -1.3609750000
   40      H      10.0269050000    -0.9685750000    -0.8237660000
   41      H       9.9648450000    -0.4468340000    -2.4969880000
   42      H      10.9748110000    -2.6320070000    -3.2164420000
   43      H      11.0363270000    -3.1546010000    -1.5429710000
   44      H      12.5678370000    -1.2411300000    -1.0001430000
   45      H      12.5051400000    -0.7158300000    -2.6740070000
   46      H      13.5251880000    -2.9013600000    -3.3997510000
   47      H      13.5875240000    -3.4282400000    -1.7240790000
   48      H      15.1416930000    -1.5331130000    -1.1745930000
   49      H      15.0776050000    -0.9982910000    -2.8693990000
 ----------------------------------------------------------------
 Nuclear Repulsion Energy =        2091.77672898 hartrees
 There are      103 alpha and      102 beta electrons
 Requested basis set is 6-311++G(d,p)
 There are 282 shells and 729 basis functions

 Total QAlloc Memory Limit   8000 MB
 Mega-Array Size       188 MB
 MEM_STATIC part       192 MB
 A cutoff of  1.0D-11 yielded  22642 shell pairs
 There are    147328 function pairs (    156321 Cartesian)
 Smallest overlap matrix eigenvalue = 2.43E-07

 Q-Chem warning in module stvman/mkSTV.C, line 323:

 Overlap eigenvalue is smaller than square root of threshold
 Use THRESH >= 12 to get rid of this warning

 Linear dependence detected in AO basis
 Tighter screening thresholds may be required for diffuse basis sets
 Use S2THRESH > 14 and THRESH = 14 in case of SCF convergence issues
 Number of orthogonalized atomic orbitals = 725
 Maximum deviation from orthogonality = 2.324E-10

 Scale SEOQF with 1.000000e-02/1.000000e-01/1.000000e-01

 Standard Electronic Orientation quadrupole field applied
 Nucleus-field energy     =     0.0000000190 hartrees
 ================ Generating on-the-fly Promolecule Density  ================
Attempting to make child job directory: /expanse/lustre/scratch/selhajj/temp_project/qcscratch/28447521/qchem1802912//Frg1/
Attempting to make child job directory: /expanse/lustre/scratch/selhajj/temp_project/qcscratch/28447521/qchem1802912//Frg2/
Attempting to make child job directory: /expanse/lustre/scratch/selhajj/temp_project/qcscratch/28447521/qchem1802912//Frg3/
Attempting to make child job directory: /expanse/lustre/scratch/selhajj/temp_project/qcscratch/28447521/qchem1802912//Frg4/
Creating input file /expanse/lustre/scratch/selhajj/temp_project/qcscratch/28447521/qchem1802912/Frg1.input
using default PutDataFrgm: nothing
calling putenv with: QCSCRATCH=/expanse/lustre/scratch/selhajj/temp_project/qcscratch/28447521/qchem1802912/ 
Spawning Job For Fragment 0
Done Job For Fragment 0
calling putenv with: QCSCRATCH=/expanse/lustre/scratch/selhajj/temp_project/qcscratch/28447521 
calling putenv with: QCTHREADS=8 
Creating input file /expanse/lustre/scratch/selhajj/temp_project/qcscratch/28447521/qchem1802912/Frg2.input
using default PutDataFrgm: nothing
calling putenv with: QCSCRATCH=/expanse/lustre/scratch/selhajj/temp_project/qcscratch/28447521/qchem1802912/ 
Spawning Job For Fragment 1
Done Job For Fragment 1
calling putenv with: QCSCRATCH=/expanse/lustre/scratch/selhajj/temp_project/qcscratch/28447521 
calling putenv with: QCTHREADS=8 
Creating input file /expanse/lustre/scratch/selhajj/temp_project/qcscratch/28447521/qchem1802912/Frg3.input
using default PutDataFrgm: nothing
calling putenv with: QCSCRATCH=/expanse/lustre/scratch/selhajj/temp_project/qcscratch/28447521/qchem1802912/ 
Spawning Job For Fragment 2
Done Job For Fragment 2
calling putenv with: QCSCRATCH=/expanse/lustre/scratch/selhajj/temp_project/qcscratch/28447521 
calling putenv with: QCTHREADS=8 
Creating input file /expanse/lustre/scratch/selhajj/temp_project/qcscratch/28447521/qchem1802912/Frg4.input
using default PutDataFrgm: nothing
calling putenv with: QCSCRATCH=/expanse/lustre/scratch/selhajj/temp_project/qcscratch/28447521/qchem1802912/ 
Spawning Job For Fragment 3
Done Job For Fragment 3
calling putenv with: QCSCRATCH=/expanse/lustre/scratch/selhajj/temp_project/qcscratch/28447521 
calling putenv with: QCTHREADS=8 
 Time for running child jobs:  CPU 0.01 s  wall 53.07 s
 ============= Method Specific Promolecule Density Constructed =============
 Guess from superposition of atomic densities
 Warning:  Energy on first SCF cycle will be non-variational
 SAD guess density has 204.000000 electrons

 -----------------------------------------------------------------------
  General SCF calculation program by
  Eric Jon Sundstrom, Paul Horn, Yuezhi Mao, Dmitri Zuev, Alec White,
  David Stuck, Shaama M.S., Shane Yost, Joonho Lee, David Small,
  Daniel Levine, Susi Lehtola, Hugh Burton, Evgeny Epifanovsky,
  Bang C. Huynh
 -----------------------------------------------------------------------
 Exchange:     0.2000 Hartree-Fock + 0.0800 Slater + 0.7200 B88
 Correlation:  0.1900 VWN1RPA + 0.8100 LYP
 Using SG-1 standard quadrature grid
 using 8 threads for integral computing
 -------------------------------------------------------
 OpenMP Integral computing Module                
 Release: version 1.0, May 2013, Q-Chem Inc. Pittsburgh 
 -------------------------------------------------------
 
 SM12 calculation using CM5 charges
 Citation of the SM12 model:
 Marenich, A.V.; Cramer, C.J.; Truhlar, D.G.
 J. Chem. Theory Comput. 2013, 9, 609-612.
 iSolventCode=          91
 Solvent: dimethylformamide                                               
 
Hirshfeld: reading atomic densities from disk.
warning:  vdwdata pointer should have been initialzed before dftman
 Inaccurate integrated density:
   Number of electrons =   205
   Numerical integral  =   204.000777781522
   Relative error      =    -0.4874254724 %

 Charges (in A.U.) from CM5PAC (Nov. 11, 2011)
 -----------------------------------------------
 Center     Atomic      CM5         Hirshfeld
 Number     Number      Charge      Charge
 -----------------------------------------------
    1          6       -0.052468   -0.000814
    2          6       -0.058007   -0.002909
    3          6       -0.058075   -0.002969
    4          6       -0.002461   -0.000482
    5          6       -0.002063   -0.000133
    6          6       -0.052101   -0.000602
    7          6        0.037729    0.008728
    8          6        0.026259    0.008033
    9          6       -0.004556    0.000519
   10          6        0.036256    0.006431
   11          8       -0.071959   -0.017265
   12          8       -0.064608   -0.017317
   13          1        0.064955    0.005182
   14          1        0.058485    0.003034
   15          1        0.058495    0.003043
   16          1        0.066319    0.005417
   17          8       -0.215414   -0.023336
   18          6       -0.105816   -0.004287
   19          6       -0.114619   -0.005631
   20          6       -0.116841   -0.006867
   21          6       -0.117077   -0.006927
   22          6       -0.117072   -0.006930
   23          6       -0.117135   -0.006935
   24          6       -0.117204   -0.006943
   25          6       -0.117191   -0.007098
   26          6       -0.119965   -0.009756
   27          6       -0.128114   -0.012400
   28         35        0.021894    0.017197
   29          1        0.198969    0.014154
   30          1        0.064945    0.005233
   31          1        0.065212    0.005175
   32          1        0.062340    0.005054
   33          1        0.060981    0.004775
   34          1        0.058521    0.003508
   35          1        0.058661    0.003534
   36          1        0.058610    0.003474
   37          1        0.058570    0.003479
   38          1        0.058518    0.003462
   39          1        0.058556    0.003480
   40          1        0.058578    0.003456
   41          1        0.058582    0.003473
   42          1        0.058600    0.003458
   43          1        0.058623    0.003477
   44          1        0.058616    0.003427
   45          1        0.058635    0.003447
   46          1        0.057564    0.002042
   47          1        0.057597    0.002077
   48          1        0.055453    0.000534
   49          1        0.055442    0.000521
 -----------------------------------------------

 Dipole moment (in Debye)
 -----------------------------------------------
                 X        Y        Z     Total
 -----------------------------------------------
 CM5         -0.4796   0.4746   0.1778   0.6978
 Hirshfeld    0.1497  -0.0633   0.0648   0.1750
 -----------------------------------------------

 A unrestricted SCF calculation will be
 performed using DIIS
 SCF converges when DIIS error is below 1.0e-08
 ---------------------------------------
  Cycle       Energy         DIIS error
 ---------------------------------------
Hirshfeld: reading atomic densities from disk.

 Charges (in A.U.) from CM5PAC (Nov. 11, 2011)
 -----------------------------------------------
 Center     Atomic      CM5         Hirshfeld
 Number     Number      Charge      Charge
 -----------------------------------------------
    1          6       -0.172105   -0.120452
    2          6       -0.182853   -0.127755
    3          6       -0.186940   -0.131834
    4          6       -0.077184   -0.075204
    5          6       -0.073703   -0.071773
    6          6       -0.178680   -0.127182
    7          6        0.217674    0.188673
    8          6        0.183273    0.165047
    9          6       -0.136458   -0.131383
   10          6        0.236628    0.206803
   11          8       -0.605401   -0.550707
   12          8       -0.640196   -0.592904
   13          1        0.170460    0.110686
   14          1        0.178104    0.122653
   15          1        0.177206    0.121753
   16          1        0.167275    0.106373
   17          8       -0.474646   -0.282568
   18          6       -0.293723   -0.192193
   19          6       -0.303343   -0.194355
   20          6       -0.300094   -0.190119
   21          6       -0.300354   -0.190203
   22          6       -0.299992   -0.189850
   23          6       -0.300384   -0.190184
   24          6       -0.300862   -0.190601
   25          6       -0.298304   -0.188211
   26          6       -0.316784   -0.206574
   27          6       -0.227512   -0.111798
   28         35       -0.025659   -0.030356
   29          1        0.404934    0.220118
   30          1        0.151860    0.092148
   31          1        0.149119    0.089081
   32          1        0.144434    0.087148
   33          1        0.146286    0.090080
   34          1        0.150027    0.095014
   35          1        0.150074    0.094947
   36          1        0.149457    0.094321
   37          1        0.149421    0.094330
   38          1        0.149670    0.094614
   39          1        0.149693    0.094616
   40          1        0.149764    0.094642
   41          1        0.149765    0.094655
   42          1        0.149816    0.094674
   43          1        0.149832    0.094685
   44          1        0.150121    0.094931
   45          1        0.150128    0.094940
   46          1        0.144644    0.089122
   47          1        0.144699    0.089179
   48          1        0.140342    0.085423
   49          1        0.140330    0.085409
 -----------------------------------------------

 Dipole moment (in Debye)
 -----------------------------------------------
                 X        Y        Z     Total
 -----------------------------------------------
 CM5         -8.3798   0.5993   3.7725   9.2093
 Hirshfeld   -7.7505   0.0615   3.6595   8.5712
 -----------------------------------------------

    1   -3582.1762758328      1.15e-02  
Hirshfeld: reading atomic densities from disk.

 Charges (in A.U.) from CM5PAC (Nov. 11, 2011)
 -----------------------------------------------
 Center     Atomic      CM5         Hirshfeld
 Number     Number      Charge      Charge
 -----------------------------------------------
    1          6       -0.036693    0.014961
    2          6       -0.023596    0.031502
    3          6       -0.027028    0.028077
    4          6       -0.053627   -0.051647
    5          6       -0.054113   -0.052183
    6          6       -0.033758    0.017741
    7          6       -0.281578   -0.310578
    8          6       -0.257020   -0.275245
    9          6        0.002974    0.008050
   10          6       -0.203723   -0.233548
   11          8       -0.004706    0.049988
   12          8        0.170850    0.218141
   13          1       -0.012378   -0.072151
   14          1       -0.001794   -0.057245
   15          1       -0.004972   -0.060425
   16          1       -0.026279   -0.087182
   17          8       -0.300137   -0.108059
   18          6        0.005057    0.106587
   19          6        0.033606    0.142594
   20          6        0.023769    0.133744
   21          6        0.019466    0.129616
   22          6        0.017906    0.128048
   23          6        0.019902    0.130102
   24          6        0.030195    0.140456
   25          6        0.042961    0.153054
   26          6        0.043067    0.153277
   27          6        0.039162    0.154876
   28         35       -0.296169   -0.300866
   29          1        0.171716   -0.013099
   30          1       -0.014928   -0.074640
   31          1       -0.018034   -0.078072
   32          1       -0.009462   -0.066748
   33          1       -0.017256   -0.073461
   34          1       -0.014697   -0.069710
   35          1       -0.008640   -0.063767
   36          1       -0.005862   -0.060998
   37          1       -0.010025   -0.065116
   38          1       -0.009344   -0.064399
   39          1       -0.007128   -0.062205
   40          1       -0.005763   -0.060885
   41          1       -0.007179   -0.062289
   42          1       -0.004028   -0.059170
   43          1       -0.003174   -0.058321
   44          1        0.001278   -0.053912
   45          1        0.000721   -0.054467
   46          1        0.012059   -0.043463
   47          1        0.012448   -0.043072
   48          1        0.053143   -0.001776
   49          1        0.052893   -0.002029
 -----------------------------------------------

 Dipole moment (in Debye)
 -----------------------------------------------
                 X        Y        Z     Total
 -----------------------------------------------
 CM5         -8.5796  -1.4980   8.0823  11.8818
 Hirshfeld   -7.9502  -2.0359   7.9693  11.4394
 -----------------------------------------------

    2   -3576.8511837583      1.44e-03  
Hirshfeld: reading atomic densities from disk.

 Charges (in A.U.) from CM5PAC (Nov. 11, 2011)
 -----------------------------------------------
 Center     Atomic      CM5         Hirshfeld
 Number     Number      Charge      Charge
 -----------------------------------------------
    1          6       -0.098703   -0.047050
    2          6       -0.121782   -0.066685
    3          6       -0.124473   -0.069367
    4          6        0.006268    0.008248
    5          6       -0.000487    0.001443
    6          6       -0.098096   -0.046597
    7          6        0.159721    0.130721
    8          6        0.151700    0.133475
    9          6       -0.015748   -0.010672
   10          6        0.144771    0.114946
   11          8       -0.539441   -0.484747
   12          8       -0.611023   -0.563732
   13          1        0.071733    0.011959
   14          1        0.073869    0.018418
   15          1        0.072416    0.016963
   16          1        0.072073    0.011171
   17          8       -0.395903   -0.203825
   18          6       -0.144153   -0.042623
   19          6       -0.147349   -0.038361
   20          6       -0.139585   -0.029610
   21          6       -0.137544   -0.027394
   22          6       -0.136050   -0.025908
   23          6       -0.136311   -0.026111
   24          6       -0.136738   -0.026478
   25          6       -0.139998   -0.029904
   26          6       -0.143026   -0.032817
   27          6       -0.126788   -0.011073
   28         35       -0.111186   -0.115883
   29          1        0.292945    0.108129
   30          1        0.064559    0.004847
   31          1        0.063064    0.003026
   32          1        0.066168    0.008882
   33          1        0.064486    0.008280
   34          1        0.067467    0.012454
   35          1        0.068242    0.013115
   36          1        0.069329    0.014192
   37          1        0.068904    0.013813
   38          1        0.069392    0.014336
   39          1        0.069489    0.014412
   40          1        0.070636    0.015514
   41          1        0.070598    0.015488
   42          1        0.073557    0.018415
   43          1        0.073567    0.018421
   44          1        0.076101    0.020911
   45          1        0.076124    0.020936
   46          1        0.079964    0.024442
   47          1        0.079987    0.024466
   48          1        0.093674    0.038755
   49          1        0.093682    0.038761
 -----------------------------------------------

 Dipole moment (in Debye)
 -----------------------------------------------
                 X        Y        Z     Total
 -----------------------------------------------
 CM5         -8.7257   0.1628   2.9103   9.1997
 Hirshfeld   -8.0964  -0.3750   2.7973   8.5742
 -----------------------------------------------

    3   -3576.3604508439      2.09e-03  
Hirshfeld: reading atomic densities from disk.

 Charges (in A.U.) from CM5PAC (Nov. 11, 2011)
 -----------------------------------------------
 Center     Atomic      CM5         Hirshfeld
 Number     Number      Charge      Charge
 -----------------------------------------------
    1          6       -0.111038   -0.059384
    2          6       -0.113167   -0.058069
    3          6       -0.118808   -0.063702
    4          6       -0.063912   -0.061932
    5          6       -0.060958   -0.059029
    6          6       -0.108132   -0.056633
    7          6        0.059111    0.030110
    8          6        0.047636    0.029411
    9          6       -0.079477   -0.074402
   10          6        0.087127    0.057302
   11          8       -0.398319   -0.343624
   12          8       -0.370256   -0.322964
   13          1        0.090159    0.030385
   14          1        0.092202    0.036752
   15          1        0.090305    0.034852
   16          1        0.088249    0.027347
   17          8       -0.413496   -0.221418
   18          6       -0.165131   -0.063601
   19          6       -0.166539   -0.057551
   20          6       -0.162308   -0.052333
   21          6       -0.163716   -0.053566
   22          6       -0.163424   -0.053282
   23          6       -0.163455   -0.053255
   24          6       -0.162251   -0.051990
   25          6       -0.160789   -0.050695
   26          6       -0.167214   -0.057005
   27          6       -0.128342   -0.012628
   28         35       -0.110135   -0.114832
   29          1        0.309938    0.125122
   30          1        0.078172    0.018460
   31          1        0.078802    0.018764
   32          1        0.078066    0.020780
   33          1        0.074488    0.018282
   34          1        0.079337    0.024324
   35          1        0.081772    0.026645
   36          1        0.082500    0.027364
   37          1        0.081075    0.025984
   38          1        0.082043    0.026987
   39          1        0.082716    0.027639
   40          1        0.083471    0.028349
   41          1        0.083053    0.027943
   42          1        0.085079    0.029937
   43          1        0.085336    0.030189
   44          1        0.086631    0.031442
   45          1        0.086479    0.031291
   46          1        0.088975    0.033453
   47          1        0.089123    0.033602
   48          1        0.099559    0.044640
   49          1        0.099476    0.044555
 -----------------------------------------------

 Dipole moment (in Debye)
 -----------------------------------------------
                 X        Y        Z     Total
 -----------------------------------------------
 CM5         -8.4406  -0.3064   5.0057   9.8181
 Hirshfeld   -7.8113  -0.8443   4.8927   9.2557
 -----------------------------------------------

    4   -3577.3259444694      5.15e-04  
Hirshfeld: reading atomic densities from disk.

 Charges (in A.U.) from CM5PAC (Nov. 11, 2011)
 -----------------------------------------------
 Center     Atomic      CM5         Hirshfeld
 Number     Number      Charge      Charge
 -----------------------------------------------
    1          6       -0.108855   -0.057202
    2          6       -0.119200   -0.064102
    3          6       -0.122482   -0.067376
    4          6       -0.039751   -0.037772
    5          6       -0.042087   -0.040158
    6          6       -0.110461   -0.058962
    7          6        0.052211    0.023210
    8          6        0.043979    0.025754
    9          6       -0.056039   -0.050964
   10          6        0.085334    0.055510
   11          8       -0.409826   -0.355132
   12          8       -0.415542   -0.368251
   13          1        0.087751    0.027977
   14          1        0.090611    0.035160
   15          1        0.088956    0.033504
   16          1        0.086817    0.025914
   17          8       -0.394846   -0.202768
   18          6       -0.156239   -0.054710
   19          6       -0.154352   -0.045364
   20          6       -0.154955   -0.044980
   21          6       -0.155533   -0.045383
   22          6       -0.155479   -0.045337
   23          6       -0.155134   -0.044934
   24          6       -0.152312   -0.042052
   25          6       -0.147689   -0.037595
   26          6       -0.155053   -0.044844
   27          6       -0.111406    0.004308
   28         35       -0.133516   -0.138213
   29          1        0.304511    0.119695
   30          1        0.074819    0.015107
   31          1        0.074981    0.014943
   32          1        0.074612    0.017326
   33          1        0.071396    0.015190
   34          1        0.075253    0.020240
   35          1        0.077169    0.022042
   36          1        0.078359    0.023222
   37          1        0.077214    0.022123
   38          1        0.077855    0.022799
   39          1        0.078374    0.023297
   40          1        0.079170    0.024048
   41          1        0.078844    0.023734
   42          1        0.080503    0.025361
   43          1        0.080700    0.025553
   44          1        0.082085    0.026896
   45          1        0.081973    0.026785
   46          1        0.085140    0.029618
   47          1        0.085255    0.029735
   48          1        0.098487    0.043568
   49          1        0.098428    0.043507
 -----------------------------------------------

 Dipole moment (in Debye)
 -----------------------------------------------
                 X        Y        Z     Total
 -----------------------------------------------
 CM5         -8.6091  -0.0976   4.5394   9.7330
 Hirshfeld   -7.9797  -0.6354   4.4264   9.1473
 -----------------------------------------------

    5   -3577.3802352612      1.19e-04  
Hirshfeld: reading atomic densities from disk.

 Charges (in A.U.) from CM5PAC (Nov. 11, 2011)
 -----------------------------------------------
 Center     Atomic      CM5         Hirshfeld
 Number     Number      Charge      Charge
 -----------------------------------------------
    1          6       -0.109828   -0.058175
    2          6       -0.115826   -0.060728
    3          6       -0.120379   -0.065273
    4          6       -0.045559   -0.043579
    5          6       -0.046525   -0.044595
    6          6       -0.107591   -0.056092
    7          6        0.065640    0.036639
    8          6        0.056737    0.038512
    9          6       -0.062642   -0.057567
   10          6        0.087636    0.057811
   11          8       -0.417977   -0.363282
   12          8       -0.404487   -0.357196
   13          1        0.086279    0.026505
   14          1        0.088744    0.033293
   15          1        0.086974    0.031522
   16          1        0.084881    0.023978
   17          8       -0.406083   -0.214005
   18          6       -0.158075   -0.056545
   19          6       -0.157067   -0.048080
   20          6       -0.154033   -0.044058
   21          6       -0.154569   -0.044418
   22          6       -0.154153   -0.044012
   23          6       -0.154062   -0.043862
   24          6       -0.152296   -0.042035
   25          6       -0.150524   -0.040430
   26          6       -0.157272   -0.047063
   27          6       -0.122860   -0.007146
   28         35       -0.122797   -0.127494
   29          1        0.305314    0.120498
   30          1        0.074572    0.014860
   31          1        0.074565    0.014527
   32          1        0.074633    0.017347
   33          1        0.071427    0.015221
   34          1        0.075022    0.020008
   35          1        0.077040    0.021913
   36          1        0.078048    0.022912
   37          1        0.076838    0.021747
   38          1        0.077515    0.022459
   39          1        0.078071    0.022994
   40          1        0.078959    0.023837
   41          1        0.078610    0.023500
   42          1        0.080733    0.025591
   43          1        0.080944    0.025797
   44          1        0.082743    0.027553
   45          1        0.082622    0.027434
   46          1        0.085974    0.030452
   47          1        0.086097    0.030577
   48          1        0.099042    0.044123
   49          1        0.098977    0.044056
 -----------------------------------------------

 Dipole moment (in Debye)
 -----------------------------------------------
                 X        Y        Z     Total
 -----------------------------------------------
 CM5         -8.5180  -0.2247   4.6867   9.7248
 Hirshfeld   -7.8886  -0.7626   4.5737   9.1505
 -----------------------------------------------

    6   -3577.3833114028      4.33e-05  
Hirshfeld: reading atomic densities from disk.

 Charges (in A.U.) from CM5PAC (Nov. 11, 2011)
 -----------------------------------------------
 Center     Atomic      CM5         Hirshfeld
 Number     Number      Charge      Charge
 -----------------------------------------------
    1          6       -0.108900   -0.057246
    2          6       -0.116301   -0.061203
    3          6       -0.120748   -0.065642
    4          6       -0.046204   -0.044225
    5          6       -0.046421   -0.044491
    6          6       -0.107870   -0.056371
    7          6        0.061837    0.032836
    8          6        0.053310    0.035085
    9          6       -0.062030   -0.056955
   10          6        0.089916    0.060091
   11          8       -0.411785   -0.357090
   12          8       -0.408949   -0.361658
   13          1        0.086377    0.026603
   14          1        0.088943    0.033492
   15          1        0.087207    0.031755
   16          1        0.085267    0.024365
   17          8       -0.403227   -0.211149
   18          6       -0.157897   -0.056368
   19          6       -0.157592   -0.048604
   20          6       -0.155123   -0.045148
   21          6       -0.155851   -0.045701
   22          6       -0.155527   -0.045385
   23          6       -0.155392   -0.045192
   24          6       -0.153620   -0.043360
   25          6       -0.151278   -0.041184
   26          6       -0.157698   -0.047489
   27          6       -0.119859   -0.004144
   28         35       -0.123649   -0.128346
   29          1        0.304669    0.119854
   30          1        0.074760    0.015048
   31          1        0.074873    0.014835
   32          1        0.074872    0.017586
   33          1        0.071661    0.015455
   34          1        0.075531    0.020518
   35          1        0.077516    0.022389
   36          1        0.078578    0.023441
   37          1        0.077395    0.022304
   38          1        0.078122    0.023066
   39          1        0.078660    0.023583
   40          1        0.079524    0.024402
   41          1        0.079188    0.024078
   42          1        0.081204    0.026062
   43          1        0.081407    0.026260
   44          1        0.083030    0.027840
   45          1        0.082915    0.027727
   46          1        0.085979    0.030457
   47          1        0.086098    0.030578
   48          1        0.098589    0.043670
   49          1        0.098527    0.043606
 -----------------------------------------------

 Dipole moment (in Debye)
 -----------------------------------------------
                 X        Y        Z     Total
 -----------------------------------------------
 CM5         -8.5521  -0.1760   4.6115   9.7178
 Hirshfeld   -7.9228  -0.7139   4.4985   9.1387
 -----------------------------------------------

    7   -3577.3840500339      1.63e-05  
Hirshfeld: reading atomic densities from disk.

 Charges (in A.U.) from CM5PAC (Nov. 11, 2011)
 -----------------------------------------------
 Center     Atomic      CM5         Hirshfeld
 Number     Number      Charge      Charge
 -----------------------------------------------
    1          6       -0.109253   -0.057599
    2          6       -0.116662   -0.061564
    3          6       -0.120986   -0.065880
    4          6       -0.044922   -0.042943
    5          6       -0.045941   -0.044011
    6          6       -0.108223   -0.056724
    7          6        0.062044    0.033043
    8          6        0.053197    0.034972
    9          6       -0.061462   -0.056387
   10          6        0.088394    0.058569
   11          8       -0.415090   -0.360395
   12          8       -0.406448   -0.359157
   13          1        0.086574    0.026800
   14          1        0.089102    0.033651
   15          1        0.087362    0.031909
   16          1        0.085387    0.024484
   17          8       -0.403328   -0.211250
   18          6       -0.157846   -0.056317
   19          6       -0.157237   -0.048249
   20          6       -0.155081   -0.045107
   21          6       -0.155740   -0.045590
   22          6       -0.155447   -0.045305
   23          6       -0.155286   -0.045086
   24          6       -0.153351   -0.043090
   25          6       -0.150816   -0.040722
   26          6       -0.157512   -0.047303
   27          6       -0.119582   -0.003867
   28         35       -0.124208   -0.128905
   29          1        0.305060    0.120244
   30          1        0.074784    0.015072
   31          1        0.074869    0.014832
   32          1        0.074816    0.017530
   33          1        0.071613    0.015407
   34          1        0.075481    0.020468
   35          1        0.077467    0.022340
   36          1        0.078528    0.023392
   37          1        0.077343    0.022252
   38          1        0.078060    0.023004
   39          1        0.078600    0.023523
   40          1        0.079454    0.024332
   41          1        0.079116    0.024006
   42          1        0.081094    0.025952
   43          1        0.081299    0.026152
   44          1        0.082907    0.027717
   45          1        0.082790    0.027602
   46          1        0.085913    0.030391
   47          1        0.086033    0.030512
   48          1        0.098614    0.043695
   49          1        0.098551    0.043630
 -----------------------------------------------

 Dipole moment (in Debye)
 -----------------------------------------------
                 X        Y        Z     Total
 -----------------------------------------------
 CM5         -8.5249  -0.2059   4.6531   9.7144
 Hirshfeld   -7.8956  -0.7437   4.5401   9.1382
 -----------------------------------------------

    8   -3577.3840553717      6.94e-06  
Hirshfeld: reading atomic densities from disk.

 Charges (in A.U.) from CM5PAC (Nov. 11, 2011)
 -----------------------------------------------
 Center     Atomic      CM5         Hirshfeld
 Number     Number      Charge      Charge
 -----------------------------------------------
    1          6       -0.109588   -0.057935
    2          6       -0.116593   -0.061495
    3          6       -0.120970   -0.065865
    4          6       -0.045142   -0.043163
    5          6       -0.046071   -0.044141
    6          6       -0.108233   -0.056734
    7          6        0.061954    0.032953
    8          6        0.053816    0.035591
    9          6       -0.061757   -0.056682
   10          6        0.088295    0.058470
   11          8       -0.413300   -0.358606
   12          8       -0.407451   -0.360159
   13          1        0.086572    0.026799
   14          1        0.089107    0.033656
   15          1        0.087360    0.031907
   16          1        0.085440    0.024538
   17          8       -0.403900   -0.211822
   18          6       -0.157992   -0.056462
   19          6       -0.157227   -0.048239
   20          6       -0.154950   -0.044975
   21          6       -0.155561   -0.045411
   22          6       -0.155243   -0.045101
   23          6       -0.155103   -0.044903
   24          6       -0.153181   -0.042921
   25          6       -0.150762   -0.040668
   26          6       -0.157513   -0.047304
   27          6       -0.120233   -0.004519
   28         35       -0.124002   -0.128699
   29          1        0.305112    0.120297
   30          1        0.074863    0.015151
   31          1        0.074911    0.014873
   32          1        0.074822    0.017536
   33          1        0.071655    0.015449
   34          1        0.075447    0.020433
   35          1        0.077411    0.022284
   36          1        0.078458    0.023321
   37          1        0.077285    0.022194
   38          1        0.077984    0.022928
   39          1        0.078518    0.023442
   40          1        0.079380    0.024258
   41          1        0.079045    0.023935
   42          1        0.081044    0.025902
   43          1        0.081247    0.026100
   44          1        0.082887    0.027697
   45          1        0.082772    0.027584
   46          1        0.085949    0.030427
   47          1        0.086068    0.030548
   48          1        0.098732    0.043813
   49          1        0.098670    0.043749
 -----------------------------------------------

 Dipole moment (in Debye)
 -----------------------------------------------
                 X        Y        Z     Total
 -----------------------------------------------
 CM5         -8.5374  -0.1909   4.6274   9.7127
 Hirshfeld   -7.9081  -0.7287   4.5144   9.1350
 -----------------------------------------------

    9   -3577.3840770496      3.86e-06  
Hirshfeld: reading atomic densities from disk.

 Charges (in A.U.) from CM5PAC (Nov. 11, 2011)
 -----------------------------------------------
 Center     Atomic      CM5         Hirshfeld
 Number     Number      Charge      Charge
 -----------------------------------------------
    1          6       -0.109380   -0.057726
    2          6       -0.116635   -0.061538
    3          6       -0.121050   -0.065944
    4          6       -0.045293   -0.043314
    5          6       -0.045953   -0.044024
    6          6       -0.108195   -0.056696
    7          6        0.061915    0.032914
    8          6        0.053475    0.035250
    9          6       -0.061548   -0.056473
   10          6        0.088867    0.059043
   11          8       -0.413955   -0.359260
   12          8       -0.407141   -0.359850
   13          1        0.086495    0.026721
   14          1        0.089031    0.033580
   15          1        0.087286    0.031834
   16          1        0.085363    0.024460
   17          8       -0.403484   -0.211406
   18          6       -0.157909   -0.056379
   19          6       -0.157329   -0.048341
   20          6       -0.155030   -0.045055
   21          6       -0.155680   -0.045530
   22          6       -0.155359   -0.045217
   23          6       -0.155218   -0.045018
   24          6       -0.153350   -0.043090
   25          6       -0.150934   -0.040840
   26          6       -0.157542   -0.047333
   27          6       -0.119943   -0.004228
   28         35       -0.124059   -0.128757
   29          1        0.304987    0.120171
   30          1        0.074816    0.015104
   31          1        0.074882    0.014845
   32          1        0.074838    0.017552
   33          1        0.071664    0.015458
   34          1        0.075476    0.020462
   35          1        0.077445    0.022318
   36          1        0.078505    0.023368
   37          1        0.077329    0.022238
   38          1        0.078036    0.022981
   39          1        0.078573    0.023496
   40          1        0.079435    0.024313
   41          1        0.079099    0.023990
   42          1        0.081102    0.025960
   43          1        0.081305    0.026159
   44          1        0.082936    0.027746
   45          1        0.082820    0.027632
   46          1        0.085954    0.030432
   47          1        0.086073    0.030553
   48          1        0.098686    0.043767
   49          1        0.098624    0.043703
 -----------------------------------------------

 Dipole moment (in Debye)
 -----------------------------------------------
                 X        Y        Z     Total
 -----------------------------------------------
 CM5         -8.5270  -0.2013   4.6354   9.7076
 Hirshfeld   -7.8977  -0.7391   4.5224   9.1308
 -----------------------------------------------

   10   -3577.3840761024      2.02e-06  
Hirshfeld: reading atomic densities from disk.

 Charges (in A.U.) from CM5PAC (Nov. 11, 2011)
 -----------------------------------------------
 Center     Atomic      CM5         Hirshfeld
 Number     Number      Charge      Charge
 -----------------------------------------------
    1          6       -0.109389   -0.057736
    2          6       -0.116668   -0.061570
    3          6       -0.121038   -0.065932
    4          6       -0.045100   -0.043120
    5          6       -0.046015   -0.044085
    6          6       -0.108226   -0.056727
    7          6        0.062004    0.033003
    8          6        0.053598    0.035373
    9          6       -0.061563   -0.056488
   10          6        0.088614    0.058789
   11          8       -0.413860   -0.359166
   12          8       -0.407082   -0.359791
   13          1        0.086478    0.026704
   14          1        0.089019    0.033568
   15          1        0.087277    0.031824
   16          1        0.085358    0.024455
   17          8       -0.403656   -0.211578
   18          6       -0.157908   -0.056379
   19          6       -0.157305   -0.048317
   20          6       -0.155033   -0.045058
   21          6       -0.155692   -0.045542
   22          6       -0.155383   -0.045241
   23          6       -0.155233   -0.045033
   24          6       -0.153335   -0.043075
   25          6       -0.150889   -0.040795
   26          6       -0.157550   -0.047341
   27          6       -0.119917   -0.004203
   28         35       -0.124033   -0.128730
   29          1        0.305001    0.120186
   30          1        0.074829    0.015117
   31          1        0.074886    0.014848
   32          1        0.074830    0.017544
   33          1        0.071663    0.015457
   34          1        0.075482    0.020469
   35          1        0.077449    0.022322
   36          1        0.078508    0.023372
   37          1        0.077334    0.022243
   38          1        0.078043    0.022987
   39          1        0.078578    0.023502
   40          1        0.079438    0.024316
   41          1        0.079103    0.023993
   42          1        0.081097    0.025955
   43          1        0.081300    0.026153
   44          1        0.082925    0.027736
   45          1        0.082810    0.027622
   46          1        0.085946    0.030424
   47          1        0.086065    0.030545
   48          1        0.098668    0.043749
   49          1        0.098606    0.043685
 -----------------------------------------------

 Dipole moment (in Debye)
 -----------------------------------------------
                 X        Y        Z     Total
 -----------------------------------------------
 CM5         -8.5277  -0.2001   4.6331   9.7071
 Hirshfeld   -7.8984  -0.7379   4.5202   9.1302
 -----------------------------------------------

   11   -3577.3840931236      6.45e-07  
Hirshfeld: reading atomic densities from disk.

 Charges (in A.U.) from CM5PAC (Nov. 11, 2011)
 -----------------------------------------------
 Center     Atomic      CM5         Hirshfeld
 Number     Number      Charge      Charge
 -----------------------------------------------
    1          6       -0.109452   -0.057799
    2          6       -0.116637   -0.061539
    3          6       -0.121032   -0.065926
    4          6       -0.045244   -0.043264
    5          6       -0.045960   -0.044030
    6          6       -0.108187   -0.056688
    7          6        0.061920    0.032919
    8          6        0.053572    0.035347
    9          6       -0.061551   -0.056475
   10          6        0.088705    0.058880
   11          8       -0.413878   -0.359184
   12          8       -0.407049   -0.359758
   13          1        0.086489    0.026715
   14          1        0.089025    0.033574
   15          1        0.087279    0.031826
   16          1        0.085361    0.024459
   17          8       -0.403622   -0.211543
   18          6       -0.157916   -0.056386
   19          6       -0.157302   -0.048314
   20          6       -0.155019   -0.045044
   21          6       -0.155662   -0.045511
   22          6       -0.155346   -0.045204
   23          6       -0.155202   -0.045002
   24          6       -0.153315   -0.043055
   25          6       -0.150890   -0.040796
   26          6       -0.157547   -0.047337
   27          6       -0.119997   -0.004283
   28         35       -0.123993   -0.128690
   29          1        0.305002    0.120186
   30          1        0.074828    0.015116
   31          1        0.074888    0.014850
   32          1        0.074830    0.017544
   33          1        0.071661    0.015455
   34          1        0.075475    0.020461
   35          1        0.077442    0.022315
   36          1        0.078497    0.023361
   37          1        0.077323    0.022232
   38          1        0.078030    0.022974
   39          1        0.078565    0.023488
   40          1        0.079426    0.024304
   41          1        0.079091    0.023981
   42          1        0.081090    0.025948
   43          1        0.081293    0.026146
   44          1        0.082923    0.027733
   45          1        0.082808    0.027620
   46          1        0.085948    0.030426
   47          1        0.086067    0.030547
   48          1        0.098678    0.043759
   49          1        0.098616    0.043695
 -----------------------------------------------

 Dipole moment (in Debye)
 -----------------------------------------------
                 X        Y        Z     Total
 -----------------------------------------------
 CM5         -8.5260  -0.2019   4.6351   9.7065
 Hirshfeld   -7.8966  -0.7398   4.5221   9.1298
 -----------------------------------------------

   12   -3577.3840951289      2.70e-07  
Hirshfeld: reading atomic densities from disk.

 Charges (in A.U.) from CM5PAC (Nov. 11, 2011)
 -----------------------------------------------
 Center     Atomic      CM5         Hirshfeld
 Number     Number      Charge      Charge
 -----------------------------------------------
    1          6       -0.109404   -0.057750
    2          6       -0.116656   -0.061558
    3          6       -0.121047   -0.065942
    4          6       -0.045198   -0.043218
    5          6       -0.045988   -0.044058
    6          6       -0.108219   -0.056720
    7          6        0.061956    0.032956
    8          6        0.053568    0.035343
    9          6       -0.061565   -0.056489
   10          6        0.088687    0.058862
   11          8       -0.413879   -0.359185
   12          8       -0.407034   -0.359743
   13          1        0.086481    0.026707
   14          1        0.089020    0.033569
   15          1        0.087279    0.031827
   16          1        0.085362    0.024459
   17          8       -0.403626   -0.211548
   18          6       -0.157914   -0.056384
   19          6       -0.157305   -0.048317
   20          6       -0.155019   -0.045044
   21          6       -0.155668   -0.045518
   22          6       -0.155352   -0.045210
   23          6       -0.155208   -0.045008
   24          6       -0.153323   -0.043063
   25          6       -0.150896   -0.040802
   26          6       -0.157541   -0.047331
   27          6       -0.119962   -0.004248
   28         35       -0.124021   -0.128718
   29          1        0.304998    0.120183
   30          1        0.074829    0.015117
   31          1        0.074888    0.014850
   32          1        0.074832    0.017545
   33          1        0.071664    0.015458
   34          1        0.075477    0.020463
   35          1        0.077443    0.022316
   36          1        0.078500    0.023363
   37          1        0.077326    0.022235
   38          1        0.078033    0.022977
   39          1        0.078567    0.023491
   40          1        0.079429    0.024307
   41          1        0.079094    0.023984
   42          1        0.081093    0.025950
   43          1        0.081295    0.026148
   44          1        0.082924    0.027735
   45          1        0.082809    0.027621
   46          1        0.085947    0.030425
   47          1        0.086066    0.030545
   48          1        0.098676    0.043757
   49          1        0.098614    0.043693
 -----------------------------------------------

 Dipole moment (in Debye)
 -----------------------------------------------
                 X        Y        Z     Total
 -----------------------------------------------
 CM5         -8.5262  -0.2015   4.6343   9.7064
 Hirshfeld   -7.8969  -0.7394   4.5213   9.1296
 -----------------------------------------------

   13   -3577.3840935614      1.68e-07  
Hirshfeld: reading atomic densities from disk.

 Charges (in A.U.) from CM5PAC (Nov. 11, 2011)
 -----------------------------------------------
 Center     Atomic      CM5         Hirshfeld
 Number     Number      Charge      Charge
 -----------------------------------------------
    1          6       -0.109439   -0.057785
    2          6       -0.116653   -0.061555
    3          6       -0.121032   -0.065926
    4          6       -0.045208   -0.043228
    5          6       -0.045973   -0.044043
    6          6       -0.108194   -0.056695
    7          6        0.061940    0.032939
    8          6        0.053570    0.035345
    9          6       -0.061542   -0.056466
   10          6        0.088685    0.058861
   11          8       -0.413887   -0.359193
   12          8       -0.407034   -0.359743
   13          1        0.086481    0.026708
   14          1        0.089019    0.033568
   15          1        0.087275    0.031823
   16          1        0.085359    0.024456
   17          8       -0.403633   -0.211555
   18          6       -0.157909   -0.056380
   19          6       -0.157302   -0.048314
   20          6       -0.155024   -0.045049
   21          6       -0.155675   -0.045525
   22          6       -0.155362   -0.045220
   23          6       -0.155215   -0.045015
   24          6       -0.153324   -0.043063
   25          6       -0.150891   -0.040797
   26          6       -0.157547   -0.047338
   27          6       -0.119965   -0.004251
   28         35       -0.124015   -0.128712
   29          1        0.304998    0.120183
   30          1        0.074830    0.015118
   31          1        0.074887    0.014850
   32          1        0.074831    0.017545
   33          1        0.071664    0.015458
   34          1        0.075478    0.020465
   35          1        0.077445    0.022318
   36          1        0.078502    0.023366
   37          1        0.077328    0.022237
   38          1        0.078036    0.022980
   39          1        0.078571    0.023494
   40          1        0.079431    0.024309
   41          1        0.079096    0.023986
   42          1        0.081094    0.025951
   43          1        0.081296    0.026149
   44          1        0.082924    0.027735
   45          1        0.082809    0.027621
   46          1        0.085948    0.030426
   47          1        0.086067    0.030547
   48          1        0.098676    0.043757
   49          1        0.098614    0.043693
 -----------------------------------------------

 Dipole moment (in Debye)
 -----------------------------------------------
                 X        Y        Z     Total
 -----------------------------------------------
 CM5         -8.5258  -0.2020   4.6349   9.7063
 Hirshfeld   -7.8965  -0.7398   4.5219   9.1296
 -----------------------------------------------

   14   -3577.3840942225      7.13e-08  
Hirshfeld: reading atomic densities from disk.

 Charges (in A.U.) from CM5PAC (Nov. 11, 2011)
 -----------------------------------------------
 Center     Atomic      CM5         Hirshfeld
 Number     Number      Charge      Charge
 -----------------------------------------------
    1          6       -0.109422   -0.057769
    2          6       -0.116654   -0.061556
    3          6       -0.121041   -0.065935
    4          6       -0.045209   -0.043229
    5          6       -0.045976   -0.044047
    6          6       -0.108208   -0.056709
    7          6        0.061945    0.032944
    8          6        0.053571    0.035346
    9          6       -0.061554   -0.056479
   10          6        0.088690    0.058865
   11          8       -0.413892   -0.359197
   12          8       -0.407031   -0.359739
   13          1        0.086481    0.026708
   14          1        0.089020    0.033569
   15          1        0.087278    0.031826
   16          1        0.085363    0.024460
   17          8       -0.403628   -0.211549
   18          6       -0.157914   -0.056384
   19          6       -0.157303   -0.048315
   20          6       -0.155022   -0.045047
   21          6       -0.155670   -0.045520
   22          6       -0.155356   -0.045214
   23          6       -0.155211   -0.045011
   24          6       -0.153323   -0.043062
   25          6       -0.150892   -0.040798
   26          6       -0.157546   -0.047337
   27          6       -0.119969   -0.004254
   28         35       -0.124013   -0.128710
   29          1        0.304997    0.120182
   30          1        0.074832    0.015120
   31          1        0.074889    0.014852
   32          1        0.074832    0.017545
   33          1        0.071665    0.015459
   34          1        0.075478    0.020465
   35          1        0.077444    0.022318
   36          1        0.078501    0.023364
   37          1        0.077327    0.022236
   38          1        0.078034    0.022978
   39          1        0.078569    0.023492
   40          1        0.079430    0.024308
   41          1        0.079095    0.023985
   42          1        0.081093    0.025951
   43          1        0.081295    0.026148
   44          1        0.082924    0.027734
   45          1        0.082809    0.027621
   46          1        0.085948    0.030426
   47          1        0.086067    0.030546
   48          1        0.098676    0.043757
   49          1        0.098614    0.043693
 -----------------------------------------------

 Dipole moment (in Debye)
 -----------------------------------------------
                 X        Y        Z     Total
 -----------------------------------------------
 CM5         -8.5258  -0.2020   4.6347   9.7062
 Hirshfeld   -7.8964  -0.7398   4.5218   9.1295
 -----------------------------------------------

   15   -3577.3840945179      5.06e-08  
Hirshfeld: reading atomic densities from disk.

 Charges (in A.U.) from CM5PAC (Nov. 11, 2011)
 -----------------------------------------------
 Center     Atomic      CM5         Hirshfeld
 Number     Number      Charge      Charge
 -----------------------------------------------
    1          6       -0.109425   -0.057772
    2          6       -0.116655   -0.061557
    3          6       -0.121039   -0.065933
    4          6       -0.045209   -0.043230
    5          6       -0.045976   -0.044047
    6          6       -0.108204   -0.056705
    7          6        0.061945    0.032944
    8          6        0.053569    0.035343
    9          6       -0.061550   -0.056474
   10          6        0.088693    0.058868
   11          8       -0.413894   -0.359199
   12          8       -0.407030   -0.359738
   13          1        0.086481    0.026707
   14          1        0.089020    0.033569
   15          1        0.087278    0.031825
   16          1        0.085362    0.024460
   17          8       -0.403633   -0.211555
   18          6       -0.157912   -0.056382
   19          6       -0.157303   -0.048316
   20          6       -0.155021   -0.045047
   21          6       -0.155671   -0.045520
   22          6       -0.155356   -0.045214
   23          6       -0.155211   -0.045011
   24          6       -0.153323   -0.043063
   25          6       -0.150893   -0.040800
   26          6       -0.157544   -0.047334
   27          6       -0.119964   -0.004249
   28         35       -0.124017   -0.128714
   29          1        0.304998    0.120183
   30          1        0.074831    0.015119
   31          1        0.074888    0.014851
   32          1        0.074832    0.017545
   33          1        0.071665    0.015459
   34          1        0.075478    0.020465
   35          1        0.077444    0.022317
   36          1        0.078501    0.023364
   37          1        0.077327    0.022236
   38          1        0.078034    0.022978
   39          1        0.078569    0.023492
   40          1        0.079430    0.024308
   41          1        0.079095    0.023985
   42          1        0.081093    0.025951
   43          1        0.081295    0.026148
   44          1        0.082924    0.027735
   45          1        0.082809    0.027621
   46          1        0.085947    0.030425
   47          1        0.086066    0.030546
   48          1        0.098676    0.043757
   49          1        0.098614    0.043692
 -----------------------------------------------

 Dipole moment (in Debye)
 -----------------------------------------------
                 X        Y        Z     Total
 -----------------------------------------------
 CM5         -8.5257  -0.2020   4.6349   9.7062
 Hirshfeld   -7.8964  -0.7398   4.5219   9.1295
 -----------------------------------------------

   16   -3577.3840943887      1.60e-08  
Hirshfeld: reading atomic densities from disk.

 Charges (in A.U.) from CM5PAC (Nov. 11, 2011)
 -----------------------------------------------
 Center     Atomic      CM5         Hirshfeld
 Number     Number      Charge      Charge
 -----------------------------------------------
    1          6       -0.109425   -0.057772
    2          6       -0.116654   -0.061556
    3          6       -0.121039   -0.065933
    4          6       -0.045208   -0.043229
    5          6       -0.045976   -0.044047
    6          6       -0.108205   -0.056706
    7          6        0.061944    0.032943
    8          6        0.053571    0.035346
    9          6       -0.061553   -0.056477
   10          6        0.088690    0.058865
   11          8       -0.413894   -0.359200
   12          8       -0.407028   -0.359737
   13          1        0.086481    0.026707
   14          1        0.089020    0.033569
   15          1        0.087278    0.031825
   16          1        0.085362    0.024460
   17          8       -0.403629   -0.211551
   18          6       -0.157912   -0.056383
   19          6       -0.157303   -0.048315
   20          6       -0.155022   -0.045047
   21          6       -0.155671   -0.045521
   22          6       -0.155357   -0.045215
   23          6       -0.155211   -0.045011
   24          6       -0.153323   -0.043062
   25          6       -0.150892   -0.040799
   26          6       -0.157545   -0.047336
   27          6       -0.119967   -0.004253
   28         35       -0.124015   -0.128712
   29          1        0.304997    0.120182
   30          1        0.074831    0.015119
   31          1        0.074889    0.014851
   32          1        0.074832    0.017545
   33          1        0.071665    0.015459
   34          1        0.075478    0.020465
   35          1        0.077444    0.022317
   36          1        0.078501    0.023364
   37          1        0.077327    0.022236
   38          1        0.078034    0.022978
   39          1        0.078569    0.023492
   40          1        0.079430    0.024308
   41          1        0.079095    0.023985
   42          1        0.081093    0.025951
   43          1        0.081295    0.026148
   44          1        0.082924    0.027734
   45          1        0.082809    0.027621
   46          1        0.085948    0.030426
   47          1        0.086067    0.030546
   48          1        0.098676    0.043757
   49          1        0.098614    0.043693
 -----------------------------------------------

 Dipole moment (in Debye)
 -----------------------------------------------
                 X        Y        Z     Total
 -----------------------------------------------
 CM5         -8.5257  -0.2020   4.6349   9.7062
 Hirshfeld   -7.8964  -0.7398   4.5219   9.1295
 -----------------------------------------------

   17   -3577.3840944556      1.15e-08  
   18   -3577.3840944266      5.13e-09  Convergence criterion met
 ---------------------------------------
 SCF time:   CPU 20837.13s  wall 2767.00s 
<S^2> =          0.760067393
(1)  E-EN(liq) elect-nuc energy of solute              -3577.384094427 a.u.
(2)  G-P(liq) polarization free energy of solvation           -42.2028 kcal/mol
(3)  G-ENP(liq) elect-nuc-pol free energy of system    -3577.451348796 a.u.
(4)  G-CDS(liq) cavity-dispersion-solvent structure 
     free energy                                              -15.2365 kcal/mol
(5)  G-P-CDS(liq) = G-P(liq) + G-CDS(liq) = (2) + (4)         -57.4393 kcal/mol
(6)  G-S(liq) free energy of system = (1) + (5)        -3577.475629735 a.u.
 SCF   energy in the final basis set =    -3577.4756297346
 Total energy in the final basis set =    -3577.4756297346
 
 --------------------------------------------------------------
 
                    Orbital Energies (a.u.)
 --------------------------------------------------------------
 
 Alpha MOs
 -- Occupied --
******** -62.4645 -56.2848 -56.2811 -56.2811 -19.1444 -19.0861 -19.0733
-10.2241 -10.2238 -10.2235 -10.2217 -10.1818 -10.1805 -10.1804 -10.1789
-10.1782 -10.1776 -10.1763 -10.1708 -10.1659 -10.1652 -10.1647 -10.1638
-10.1634 -10.1633 -10.1631 -10.1628  -8.6731  -6.5040  -6.4918  -6.4917
 -2.6150  -2.6116  -2.6114  -2.6018  -2.6017  -1.0640  -0.9983  -0.9955
 -0.8641  -0.8272  -0.8190  -0.8075  -0.7899  -0.7696  -0.7575  -0.7482
 -0.7231  -0.6935  -0.6714  -0.6479  -0.6243  -0.6137  -0.5957  -0.5856
 -0.5782  -0.5773  -0.5725  -0.5415  -0.5080  -0.4944  -0.4883  -0.4802
 -0.4674  -0.4599  -0.4553  -0.4406  -0.4360  -0.4338  -0.4303  -0.4300
 -0.4190  -0.4114  -0.4072  -0.4047  -0.3936  -0.3894  -0.3872  -0.3810
 -0.3781  -0.3681  -0.3628  -0.3591  -0.3500  -0.3458  -0.3445  -0.3430
 -0.3401  -0.3332  -0.3319  -0.3270  -0.3254  -0.3239  -0.3078  -0.2751
 -0.2748  -0.2709  -0.2640  -0.2588  -0.2382  -0.2310  -0.1522
 -- Virtual --
 -0.0397  -0.0282  -0.0208  -0.0185  -0.0177  -0.0151  -0.0084  -0.0061
 -0.0052   0.0027   0.0065   0.0077   0.0146   0.0168   0.0202   0.0222
  0.0241   0.0289   0.0330   0.0379   0.0425   0.0443   0.0486   0.0503
  0.0508   0.0539   0.0562   0.0592   0.0608   0.0663   0.0676   0.0724
  0.0745   0.0756   0.0787   0.0790   0.0803   0.0832   0.0886   0.0901
  0.0926   0.0931   0.0950   0.0975   0.1010   0.1024   0.1033   0.1064
  0.1090   0.1137   0.1155   0.1178   0.1192   0.1201   0.1210   0.1246
  0.1252   0.1277   0.1293   0.1325   0.1338   0.1346   0.1362   0.1398
  0.1402   0.1429   0.1449   0.1470   0.1496   0.1507   0.1555   0.1579
  0.1585   0.1616   0.1621   0.1674   0.1683   0.1706   0.1708   0.1734
  0.1778   0.1818   0.1831   0.1850   0.1884   0.1886   0.1910   0.1955
  0.1964   0.1984   0.2019   0.2026   0.2046   0.2072   0.2090   0.2116
  0.2142   0.2184   0.2196   0.2223   0.2261   0.2289   0.2340   0.2347
  0.2368   0.2415   0.2434   0.2463   0.2483   0.2501   0.2552   0.2578
  0.2588   0.2597   0.2611   0.2656   0.2675   0.2679   0.2726   0.2736
  0.2793   0.2828   0.2847   0.2854   0.2862   0.2931   0.2943   0.2990
  0.3049   0.3054   0.3117   0.3165   0.3182   0.3199   0.3238   0.3253
  0.3286   0.3288   0.3300   0.3318   0.3369   0.3386   0.3413   0.3456
  0.3458   0.3550   0.3565   0.3574   0.3635   0.3681   0.3747   0.3826
  0.3865   0.3879   0.3948   0.4006   0.4060   0.4083   0.4133   0.4185
  0.4194   0.4202   0.4264   0.4296   0.4329   0.4387   0.4419   0.4467
  0.4508   0.4536   0.4583   0.4650   0.4703   0.4732   0.4782   0.5012
  0.5115   0.5139   0.5178   0.5244   0.5279   0.5395   0.5417   0.5447
  0.5496   0.5553   0.5607   0.5676   0.5757   0.5839   0.5867   0.5905
  0.5945   0.6045   0.6074   0.6083   0.6164   0.6185   0.6231   0.6241
  0.6330   0.6369   0.6393   0.6470   0.6504   0.6506   0.6536   0.6578
  0.6622   0.6641   0.6725   0.6737   0.6764   0.6806   0.6857   0.6931
  0.6943   0.6984   0.7025   0.7069   0.7101   0.7126   0.7183   0.7191
  0.7244   0.7321   0.7330   0.7370   0.7413   0.7439   0.7442   0.7492
  0.7519   0.7554   0.7580   0.7639   0.7668   0.7699   0.7732   0.7766
  0.7812   0.7865   0.7901   0.7931   0.7987   0.8007   0.8075   0.8118
  0.8165   0.8219   0.8310   0.8339   0.8463   0.8554   0.8632   0.8756
  0.8891   0.8912   0.8998   0.9292   0.9379   0.9403   0.9460   0.9552
  0.9559   0.9625   0.9662   0.9799   0.9832   0.9862   1.0018   1.0165
  1.0206   1.0238   1.0309   1.0336   1.0398   1.0467   1.0505   1.0531
  1.0597   1.0726   1.0753   1.0857   1.0909   1.0977   1.1066   1.1128
  1.1236   1.1321   1.1482   1.1508   1.1524   1.1772   1.1850   1.2053
  1.2229   1.2314   1.2338   1.2406   1.2422   1.2489   1.2566   1.2608
  1.2631   1.2718   1.2785   1.2819   1.2842   1.2845   1.2946   1.3069
  1.3123   1.3193   1.3361   1.3742   1.3862   1.4070   1.4412   1.4519
  1.4648   1.4728   1.4756   1.4882   1.4937   1.5024   1.5088   1.5162
  1.5214   1.5327   1.5399   1.5506   1.5516   1.5567   1.5662   1.5678
  1.5800   1.5922   1.5992   1.6056   1.6128   1.6154   1.6200   1.6315
  1.6366   1.6427   1.6459   1.6572   1.6585   1.6657   1.6711   1.6715
  1.6746   1.6758   1.6822   1.6884   1.6913   1.6946   1.7021   1.7093
  1.7139   1.7211   1.7351   1.7434   1.7444   1.7477   1.7499   1.7562
  1.7567   1.7608   1.7679   1.7722   1.7822   1.7989   1.8082   1.8120
  1.8130   1.8325   1.8374   1.8453   1.8562   1.8643   1.8688   1.8764
  1.8798   1.8884   1.8983   1.9087   1.9205   1.9244   1.9285   1.9376
  1.9425   1.9455   1.9673   1.9700   1.9730   1.9751   1.9929   2.0038
  2.0078   2.0355   2.0427   2.0483   2.0639   2.0665   2.0734   2.0971
  2.1071   2.1160   2.1286   2.1335   2.1484   2.1570   2.1633   2.1694
  2.1838   2.1880   2.2021   2.2259   2.2369   2.2408   2.2457   2.2489
  2.2563   2.2749   2.2797   2.2881   2.2980   2.3005   2.3038   2.3142
  2.3381   2.3497   2.3566   2.3668   2.3761   2.3833   2.3924   2.3997
  2.4148   2.4211   2.4347   2.4431   2.4616   2.4636   2.4782   2.4813
  2.5128   2.5222   2.5234   2.5368   2.5402   2.5508   2.5613   2.5642
  2.5813   2.5873   2.5968   2.6032   2.6179   2.6222   2.6333   2.6397
  2.6411   2.6458   2.6546   2.6699   2.6807   2.6912   2.7017   2.7153
  2.7170   2.7210   2.7264   2.7319   2.7458   2.7528   2.7621   2.7643
  2.7748   2.7809   2.7880   2.7917   2.8049   2.8069   2.8254   2.8300
  2.8330   2.8372   2.8444   2.8481   2.8595   2.8753   2.8823   2.8893
  2.8992   2.9006   2.9059   2.9151   2.9364   2.9453   2.9464   2.9617
  2.9639   2.9666   2.9792   2.9825   2.9969   3.0056   3.0210   3.0680
  3.0720   3.0744   3.0866   3.0981   3.1076   3.1258   3.1361   3.1469
  3.1754   3.1830   3.2037   3.2147   3.2297   3.2609   3.2810   3.2971
  3.3275   3.3414   3.3546   3.3563   3.4182   3.4280   3.4635   3.4702
  3.4941   3.5098   3.5231   3.5319   3.5548   3.5737   3.6010   3.6622
  3.7182   3.7755   3.7802   3.7994   3.8106   3.8173   3.8278   3.8419
  3.8527   3.8627   3.8773   3.8987   3.9245   3.9439   4.0373   4.0377
  4.0556   4.0617   4.0674   4.0735   4.0872   4.1141   4.1558   4.1967
  4.1999   4.2026   4.2133   4.2435   4.2901   4.3045   4.3225   4.3616
  4.4065   4.4263   4.4382   4.8277   4.8414   5.0200   5.0931   5.1260
  5.2938   5.3209   5.5368   5.6944   5.7990   5.8411   6.7093   7.6159
  7.6339   7.7205  23.5633  23.7756  23.8198  23.8781  23.8883  23.8913
 23.8972  23.9020  23.9107  23.9207  23.9256  23.9318  23.9426  23.9495
 23.9678  23.9746  24.0330  24.1065  24.1274  24.1824  47.9816  49.9553
 50.0522  50.1063 289.8133 289.8317 289.94181020.7833
 
 Beta MOs
 -- Occupied --
******** -62.4645 -56.2848 -56.2811 -56.2811 -19.1440 -19.0794 -19.0677
-10.2235 -10.2231 -10.2229 -10.2191 -10.1818 -10.1801 -10.1796 -10.1785
-10.1781 -10.1768 -10.1763 -10.1708 -10.1659 -10.1649 -10.1643 -10.1638
-10.1634 -10.1633 -10.1631 -10.1627  -8.6731  -6.5040  -6.4918  -6.4917
 -2.6150  -2.6116  -2.6114  -2.6018  -2.6017  -1.0619  -0.9887  -0.9843
 -0.8618  -0.8272  -0.8173  -0.8061  -0.7888  -0.7685  -0.7555  -0.7474
 -0.7223  -0.6914  -0.6652  -0.6465  -0.6231  -0.6123  -0.5947  -0.5850
 -0.5780  -0.5770  -0.5703  -0.5399  -0.5058  -0.4944  -0.4866  -0.4790
 -0.4662  -0.4590  -0.4549  -0.4365  -0.4349  -0.4333  -0.4297  -0.4243
 -0.4168  -0.4069  -0.4045  -0.4032  -0.3916  -0.3867  -0.3811  -0.3790
 -0.3740  -0.3676  -0.3589  -0.3527  -0.3486  -0.3441  -0.3411  -0.3386
 -0.3326  -0.3325  -0.3283  -0.3268  -0.3247  -0.3233  -0.3071  -0.2751
 -0.2748  -0.2568  -0.2528  -0.2506  -0.2329  -0.2209
 -- Virtual --
 -0.0868  -0.0331  -0.0282  -0.0205  -0.0185  -0.0176  -0.0086  -0.0060
 -0.0052  -0.0040   0.0028   0.0065   0.0077   0.0147   0.0169   0.0203
  0.0223   0.0242   0.0296   0.0333   0.0380   0.0433   0.0447   0.0503
  0.0508   0.0542   0.0565   0.0591   0.0610   0.0649   0.0667   0.0679
  0.0729   0.0757   0.0762   0.0791   0.0791   0.0815   0.0856   0.0887
  0.0904   0.0929   0.0936   0.0954   0.0978   0.1013   0.1030   0.1038
  0.1075   0.1092   0.1141   0.1156   0.1180   0.1193   0.1205   0.1215
  0.1246   0.1266   0.1278   0.1294   0.1326   0.1340   0.1347   0.1366
  0.1402   0.1405   0.1430   0.1451   0.1479   0.1497   0.1511   0.1557
  0.1582   0.1586   0.1617   0.1622   0.1675   0.1687   0.1706   0.1717
  0.1738   0.1781   0.1819   0.1835   0.1857   0.1887   0.1891   0.1913
  0.1965   0.1966   0.1986   0.2018   0.2027   0.2049   0.2078   0.2093
  0.2123   0.2159   0.2191   0.2220   0.2237   0.2268   0.2292   0.2346
  0.2353   0.2373   0.2424   0.2438   0.2465   0.2486   0.2510   0.2557
  0.2581   0.2597   0.2601   0.2616   0.2664   0.2679   0.2689   0.2734
  0.2743   0.2804   0.2837   0.2852   0.2859   0.2866   0.2943   0.2954
  0.3002   0.3057   0.3063   0.3122   0.3172   0.3191   0.3200   0.3243
  0.3262   0.3291   0.3293   0.3306   0.3325   0.3377   0.3393   0.3419
  0.3461   0.3467   0.3560   0.3576   0.3580   0.3649   0.3691   0.3754
  0.3846   0.3868   0.3889   0.3954   0.4010   0.4063   0.4087   0.4144
  0.4187   0.4196   0.4208   0.4280   0.4308   0.4332   0.4396   0.4422
  0.4471   0.4508   0.4539   0.4594   0.4656   0.4707   0.4735   0.4788
  0.5013   0.5128   0.5149   0.5180   0.5253   0.5295   0.5410   0.5428
  0.5452   0.5505   0.5558   0.5609   0.5678   0.5762   0.5842   0.5876
  0.5922   0.5971   0.6054   0.6079   0.6088   0.6171   0.6194   0.6237
  0.6247   0.6337   0.6382   0.6433   0.6487   0.6505   0.6521   0.6547
  0.6596   0.6626   0.6647   0.6730   0.6739   0.6770   0.6812   0.6862
  0.6935   0.6950   0.6988   0.7047   0.7072   0.7105   0.7129   0.7193
  0.7205   0.7249   0.7323   0.7335   0.7376   0.7421   0.7440   0.7448
  0.7495   0.7524   0.7562   0.7586   0.7642   0.7670   0.7704   0.7735
  0.7768   0.7814   0.7869   0.7910   0.7933   0.7988   0.8012   0.8076
  0.8121   0.8173   0.8225   0.8325   0.8349   0.8469   0.8560   0.8634
  0.8766   0.8898   0.8929   0.9010   0.9311   0.9400   0.9415   0.9470
  0.9553   0.9573   0.9632   0.9687   0.9816   0.9856   0.9870   1.0038
  1.0168   1.0217   1.0245   1.0317   1.0346   1.0421   1.0475   1.0512
  1.0535   1.0601   1.0735   1.0765   1.0890   1.0958   1.0992   1.1077
  1.1160   1.1262   1.1359   1.1503   1.1518   1.1555   1.1828   1.1897
  1.2061   1.2252   1.2338   1.2359   1.2414   1.2439   1.2521   1.2608
  1.2621   1.2656   1.2736   1.2788   1.2823   1.2867   1.2893   1.2964
  1.3081   1.3137   1.3210   1.3377   1.3764   1.3870   1.4089   1.4424
  1.4535   1.4655   1.4737   1.4761   1.4892   1.4942   1.5060   1.5092
  1.5169   1.5236   1.5340   1.5412   1.5507   1.5531   1.5568   1.5672
  1.5678   1.5801   1.5924   1.6000   1.6059   1.6135   1.6160   1.6206
  1.6320   1.6372   1.6432   1.6464   1.6575   1.6589   1.6664   1.6715
  1.6718   1.6747   1.6763   1.6824   1.6887   1.6915   1.6961   1.7028
  1.7105   1.7175   1.7222   1.7353   1.7443   1.7450   1.7480   1.7502
  1.7581   1.7589   1.7618   1.7696   1.7732   1.7823   1.8013   1.8089
  1.8132   1.8167   1.8333   1.8382   1.8464   1.8577   1.8652   1.8697
  1.8769   1.8805   1.8894   1.8998   1.9110   1.9233   1.9257   1.9303
  1.9387   1.9442   1.9472   1.9687   1.9710   1.9747   1.9768   1.9950
  2.0047   2.0091   2.0365   2.0431   2.0497   2.0643   2.0669   2.0747
  2.0975   2.1077   2.1163   2.1293   2.1338   2.1494   2.1583   2.1649
  2.1712   2.1848   2.1890   2.2022   2.2263   2.2374   2.2417   2.2458
  2.2501   2.2575   2.2758   2.2807   2.2885   2.2990   2.3028   2.3045
  2.3166   2.3384   2.3498   2.3568   2.3702   2.3765   2.3837   2.3927
  2.4005   2.4150   2.4213   2.4356   2.4437   2.4623   2.4658   2.4784
  2.4815   2.5129   2.5226   2.5235   2.5368   2.5403   2.5509   2.5615
  2.5643   2.5814   2.5874   2.5969   2.6034   2.6182   2.6223   2.6350
  2.6398   2.6444   2.6469   2.6563   2.6704   2.6856   2.6925   2.7033
  2.7156   2.7186   2.7223   2.7269   2.7345   2.7466   2.7537   2.7624
  2.7650   2.7762   2.7813   2.7885   2.7961   2.8049   2.8078   2.8262
  2.8310   2.8347   2.8387   2.8457   2.8492   2.8637   2.8781   2.8889
  2.8935   2.9005   2.9056   2.9071   2.9170   2.9383   2.9477   2.9581
  2.9626   2.9659   2.9690   2.9807   2.9871   3.0059   3.0098   3.0222
  3.0696   3.0759   3.0769   3.0885   3.0989   3.1112   3.1285   3.1389
  3.1487   3.1792   3.1878   3.2042   3.2164   3.2306   3.2618   3.2827
  3.2986   3.3421   3.3441   3.3557   3.3705   3.4185   3.4288   3.4648
  3.4710   3.4959   3.5106   3.5248   3.5336   3.5565   3.5760   3.6020
  3.6644   3.7182   3.7755   3.7802   3.8015   3.8107   3.8175   3.8317
  3.8422   3.8528   3.8631   3.8784   3.8994   3.9248   3.9453   4.0377
  4.0383   4.0557   4.0617   4.0677   4.0743   4.0873   4.1142   4.1559
  4.1967   4.2008   4.2032   4.2155   4.2437   4.2910   4.3075   4.3240
  4.3619   4.4067   4.4263   4.4404   4.8320   4.8432   5.0276   5.1167
  5.1474   5.2989   5.3258   5.5375   5.6970   5.8026   5.8461   6.7093
  7.6159   7.6339   7.7205  23.5641  23.7766  23.8198  23.8781  23.8883
 23.8914  23.8972  23.9022  23.9109  23.9209  23.9257  23.9328  23.9430
 23.9508  23.9682  23.9761  24.0338  24.1068  24.1282  24.1827  47.9816
 49.9564  50.0581  50.1120 289.8133 289.8317 289.94181020.7833
 --------------------------------------------------------------
 
          Ground-State Mulliken Net Atomic Charges

     Atom                 Charge (a.u.)    Spin (a.u.)
  --------------------------------------------------------
      1 C                     0.050517       0.072329
      2 C                     0.826375       0.001396
      3 C                     0.830263       0.075047
      4 C                    -0.514444       0.006429
      5 C                    -1.186954       0.072736
      6 C                    -0.192000      -0.000492
      7 C                    -1.547444       0.136548
      8 C                    -0.570184       0.058366
      9 C                     1.208143       0.059728
     10 C                    -2.007438       0.049982
     11 O                    -0.377442       0.248306
     12 O                    -0.290044       0.210697
     13 H                     0.169540      -0.004009
     14 H                     0.354036      -0.000712
     15 H                     0.339266      -0.005327
     16 H                     0.139811      -0.000266
     17 O                    -0.140437       0.015858
     18 C                    -0.821980       0.013267
     19 C                    -2.914368       0.001134
     20 C                    -1.405610      -0.000978
     21 C                    -0.460389      -0.007559
     22 C                     0.777042      -0.001799
     23 C                     1.484105      -0.000130
     24 C                     1.327725       0.000439
     25 C                     1.162614       0.000019
     26 C                     0.292779       0.000013
     27 C                    -0.183639      -0.000021
     28 Br                   -0.226426       0.000002
     29 H                     0.296011      -0.004034
     30 H                     0.183467      -0.000900
     31 H                     0.122880       0.002930
     32 H                     0.056159      -0.001786
     33 H                     0.073713       0.002731
     34 H                     0.181928      -0.000480
     35 H                     0.185818       0.000667
     36 H                     0.131167      -0.000030
     37 H                     0.140038      -0.000090
     38 H                     0.098249      -0.000001
     39 H                     0.090579      -0.000001
     40 H                     0.101180       0.000003
     41 H                     0.099467      -0.000002
     42 H                     0.132092      -0.000012
     43 H                     0.131193       0.000004
     44 H                     0.136593      -0.000002
     45 H                     0.138275       0.000001
     46 H                     0.103429       0.000001
     47 H                     0.102871      -0.000001
     48 H                     0.185590      -0.000000
     49 H                     0.185885       0.000002
  --------------------------------------------------------
  Sum of atomic charges =    -1.000000
  Sum of spin   charges =     1.000000

 -----------------------------------------------------------------
                    Cartesian Multipole Moments
 -----------------------------------------------------------------
    Charge (ESU x 10^10)
                -4.8032
    Dipole Moment (Debye)
         X      -9.1297      Y       0.1945      Z       4.9442
       Tot      10.3844
    Quadrupole Moments (Debye-Ang)
        XX    -259.8341     XY      32.5416     YY    -181.3729
        XZ      13.7160     YZ       4.6831     ZZ    -188.1046
    Octopole Moments (Debye-Ang^2)
       XXX   -4730.2214    XXY     628.2114    XYY   -1111.1755
       YYY     347.0773    XXZ     525.9363    XYZ     -88.5986
       YYZ     247.7519    XZZ   -1055.4746    YZZ     109.4701
       ZZZ     714.1425
    Hexadecapole Moments (Debye-Ang^3)
      XXXX -106322.3152   XXXY   15128.4888   XXYY  -14368.8236
      XYYY    6694.4079   YYYY   -3427.5525   XXXZ   12415.1214
      XXYZ   -1824.8004   XYYZ    2450.0093   YYYZ   -1111.0885
      XXZZ  -13635.0928   XYZZ    2379.4595   YYZZ   -1364.7112
      XZZZ    6638.5290   YZZZ   -1051.8298   ZZZZ   -4326.6086
 -----------------------------------------------------------------
 Total job time:  2826.44s(wall), 20847.55s(cpu) 
 Sat Feb  3 15:07:10 2024

        *************************************************************
        *                                                           *
        *  Thank you very much for using Q-Chem.  Have a nice day.  *
        *                                                           *
        *************************************************************


