 Entering Gaussian System, Link 0=g16
 Input=043-rad.com
 Output=043-rad.log
 Initial command:
 /sysapps/ubuntu-applications/gaussian/Gaussian/AVX2/g16/l1.exe "/scratch/selhajj1/4256478/Gau-3218956.inp" -scrdir="/scratch/selhajj1/4256478/"
 Entering Link 1 = /sysapps/ubuntu-applications/gaussian/Gaussian/AVX2/g16/l1.exe PID=   3218971.
  
 Copyright (c) 1988,1990,1992,1993,1995,1998,2003,2009,2016,
            Gaussian, Inc.  All Rights Reserved.
  
 This is part of the Gaussian(R) 16 program.  It is based on
 the Gaussian(R) 09 system (copyright 2009, Gaussian, Inc.),
 the Gaussian(R) 03 system (copyright 2003, Gaussian, Inc.),
 the Gaussian(R) 98 system (copyright 1998, Gaussian, Inc.),
 the Gaussian(R) 94 system (copyright 1995, Gaussian, Inc.),
 the Gaussian 92(TM) system (copyright 1992, Gaussian, Inc.),
 the Gaussian 90(TM) system (copyright 1990, Gaussian, Inc.),
 the Gaussian 88(TM) system (copyright 1988, Gaussian, Inc.),
 the Gaussian 86(TM) system (copyright 1986, Carnegie Mellon
 University), and the Gaussian 82(TM) system (copyright 1983,
 Carnegie Mellon University). Gaussian is a federally registered
 trademark of Gaussian, Inc.
  
 This software contains proprietary and confidential information,
 including trade secrets, belonging to Gaussian, Inc.
  
 This software is provided under written license and may be
 used, copied, transmitted, or stored only in accord with that
 written license.
  
 The following legend is applicable only to US Government
 contracts under FAR:
  
                    RESTRICTED RIGHTS LEGEND
  
 Use, reproduction and disclosure by the US Government is
 subject to restrictions as set forth in subparagraphs (a)
 and (c) of the Commercial Computer Software - Restricted
 Rights clause in FAR 52.227-19.
  
 Gaussian, Inc.
 340 Quinnipiac St., Bldg. 40, Wallingford CT 06492
  
  
 ---------------------------------------------------------------
 Warning -- This program may not be used in any manner that
 competes with the business of Gaussian, Inc. or will provide
 assistance to any competitor of Gaussian, Inc.  The licensee
 of this program is prohibited from giving any competitor of
 Gaussian, Inc. access to this program.  By using this program,
 the user acknowledges that Gaussian, Inc. is engaged in the
 business of creating and licensing software in the field of
 computational chemistry and represents and warrants to the
 licensee that it is not a competitor of Gaussian, Inc. and that
 it will not use this program in any manner prohibited above.
 ---------------------------------------------------------------
  

 Cite this work as:
 Gaussian 16, Revision A.03,
 M. J. Frisch, G. W. Trucks, H. B. Schlegel, G. E. Scuseria, 
 M. A. Robb, J. R. Cheeseman, G. Scalmani, V. Barone, 
 G. A. Petersson, H. Nakatsuji, X. Li, M. Caricato, A. V. Marenich, 
 J. Bloino, B. G. Janesko, R. Gomperts, B. Mennucci, H. P. Hratchian, 
 J. V. Ortiz, A. F. Izmaylov, J. L. Sonnenberg, D. Williams-Young, 
 F. Ding, F. Lipparini, F. Egidi, J. Goings, B. Peng, A. Petrone, 
 T. Henderson, D. Ranasinghe, V. G. Zakrzewski, J. Gao, N. Rega, 
 G. Zheng, W. Liang, M. Hada, M. Ehara, K. Toyota, R. Fukuda, 
 J. Hasegawa, M. Ishida, T. Nakajima, Y. Honda, O. Kitao, H. Nakai, 
 T. Vreven, K. Throssell, J. A. Montgomery, Jr., J. E. Peralta, 
 F. Ogliaro, M. J. Bearpark, J. J. Heyd, E. N. Brothers, K. N. Kudin, 
 V. N. Staroverov, T. A. Keith, R. Kobayashi, J. Normand, 
 K. Raghavachari, A. P. Rendell, J. C. Burant, S. S. Iyengar, 
 J. Tomasi, M. Cossi, J. M. Millam, M. Klene, C. Adamo, R. Cammi, 
 J. W. Ochterski, R. L. Martin, K. Morokuma, O. Farkas, 
 J. B. Foresman, and D. J. Fox, Gaussian, Inc., Wallingford CT, 2016.
 
 ******************************************
 Gaussian 16:  ES64L-G16RevA.03 25-Dec-2016
                 6-Jan-2024 
 ******************************************
 %chk=043-rad.chk
 %nproc=8
 Will use up to    8 processors via shared memory.
 %mem=30GB
 --------------------------------------
 #P UB3LYP/6-311++G(d,p) nosym opt freq
 --------------------------------------
 1/18=20,19=15,26=3,38=1/1,3;
 2/9=110,12=2,15=1,17=6,18=5,40=1/2;
 3/5=4,6=6,7=1111,11=2,25=1,30=1,71=1,74=-5,116=2/1,2,3;
 4//1;
 5/5=2,38=5/2;
 6/7=2,8=2,9=2,10=2,28=1/1;
 7/30=1/1,2,3,16;
 1/18=20,19=15,26=3/3(2);
 2/9=110,15=1/2;
 99//99;
 2/9=110,15=1/2;
 3/5=4,6=6,7=1111,11=2,25=1,30=1,71=1,74=-5,116=2/1,2,3;
 4/5=5,16=3,69=1/1;
 5/5=2,38=5/2;
 7/30=1/1,2,3,16;
 1/18=20,19=15,26=3/3(-5);
 2/9=110,15=1/2;
 6/7=2,8=2,9=2,10=2,19=2,28=1/1;
 99/9=1/99;
 Leave Link    1 at Sat Jan  6 05:37:04 2024, MaxMem=  4026531840 cpu:               0.5 elap:               0.1
 (Enter /sysapps/ubuntu-applications/gaussian/Gaussian/AVX2/g16/l101.exe)
 -------
 Radical
 -------
 Symbolic Z-matrix:
 Charge = -1 Multiplicity = 2
 C                     0.8028    1.65747  -0.70565 
 C                    -0.52414   1.01452  -0.62469 
 C                    -0.65117  -0.24674  -0.0548 
 C                     0.55144  -0.98236   0.38487 
 C                     1.84787  -0.34081   0.27234 
 C                     1.96752   0.92565  -0.24429 
 C                     3.31018   1.60583  -0.35815 
 C                     3.05369  -1.11452   0.74734 
 O                     0.93462   2.83194  -1.17003 
 O                     0.46445  -2.15839   0.85578 
 H                     4.01497   1.01171  -0.95347 
 H                     3.77527   1.74938   0.626 
 H                     3.18456   2.581    -0.82802 
 H                     2.73271  -2.07277   1.1551 
 H                     3.60726  -0.56597   1.51982 
 H                     3.76136  -1.30245  -0.07084 
 C                    -1.92062  -1.07052   0.20205 
 C                    -3.12262  -0.36535   0.85109 
 C                    -2.3286   -1.94546  -1.00279 
 C                    -1.61012   1.92435  -1.21547 
 C                    -2.27592   2.83609  -0.16242 
 C                    -2.62885   1.30031  -2.183 
 H                    -1.57846  -1.79341   0.94598 
 H                    -3.83485  -1.12297   1.20173 
 H                    -3.66828   0.30343   0.18542 
 H                    -2.80528   0.21633   1.72145 
 H                    -3.13781  -2.6307   -0.71794 
 H                    -1.47643  -2.55137  -1.32011 
 H                    -2.66973  -1.36145  -1.85939 
 H                    -1.02374   2.61496  -1.82562 
 H                    -2.92289   3.57453  -0.654 
 H                    -1.5059    3.38276   0.38736 
 H                    -2.88305   2.28516   0.55798 
 H                    -3.16025   2.10316  -2.70956 
 H                    -3.38394   0.67654  -1.70456 
 H                    -2.12191   0.69104  -2.93693 
 
 ITRead=  0  0  0  0  0  0  0  0  0  0  0  0  0  0  0  0  0  0  0  0
 ITRead=  0  0  0  0  0  0  0  0  0  0  0  0  0  0  0  0
 MicOpt= -1 -1 -1 -1 -1 -1 -1 -1 -1 -1 -1 -1 -1 -1 -1 -1 -1 -1 -1 -1
 MicOpt= -1 -1 -1 -1 -1 -1 -1 -1 -1 -1 -1 -1 -1 -1 -1 -1
 NAtoms=     36 NQM=       36 NQMF=       0 NMMI=      0 NMMIF=      0
                NMic=       0 NMicF=      0.
                    Isotopes and Nuclear Properties:
 (Nuclear quadrupole moments (NQMom) in fm**2, nuclear magnetic moments (NMagM)
  in nuclear magnetons)

  Atom         1           2           3           4           5           6           7           8           9          10
 IAtWgt=          12          12          12          12          12          12          12          12          16          16
 AtmWgt=  12.0000000  12.0000000  12.0000000  12.0000000  12.0000000  12.0000000  12.0000000  12.0000000  15.9949146  15.9949146
 NucSpn=           0           0           0           0           0           0           0           0           0           0
 AtZEff=  -0.0000000  -0.0000000  -0.0000000  -0.0000000  -0.0000000  -0.0000000  -0.0000000  -0.0000000  -0.0000000  -0.0000000
 NQMom=    0.0000000   0.0000000   0.0000000   0.0000000   0.0000000   0.0000000   0.0000000   0.0000000   0.0000000   0.0000000
 NMagM=    0.0000000   0.0000000   0.0000000   0.0000000   0.0000000   0.0000000   0.0000000   0.0000000   0.0000000   0.0000000
 AtZNuc=   6.0000000   6.0000000   6.0000000   6.0000000   6.0000000   6.0000000   6.0000000   6.0000000   8.0000000   8.0000000

  Atom        11          12          13          14          15          16          17          18          19          20
 IAtWgt=           1           1           1           1           1           1          12          12          12          12
 AtmWgt=   1.0078250   1.0078250   1.0078250   1.0078250   1.0078250   1.0078250  12.0000000  12.0000000  12.0000000  12.0000000
 NucSpn=           1           1           1           1           1           1           0           0           0           0
 AtZEff=  -0.0000000  -0.0000000  -0.0000000  -0.0000000  -0.0000000  -0.0000000  -0.0000000  -0.0000000  -0.0000000  -0.0000000
 NQMom=    0.0000000   0.0000000   0.0000000   0.0000000   0.0000000   0.0000000   0.0000000   0.0000000   0.0000000   0.0000000
 NMagM=    2.7928460   2.7928460   2.7928460   2.7928460   2.7928460   2.7928460   0.0000000   0.0000000   0.0000000   0.0000000
 AtZNuc=   1.0000000   1.0000000   1.0000000   1.0000000   1.0000000   1.0000000   6.0000000   6.0000000   6.0000000   6.0000000

  Atom        21          22          23          24          25          26          27          28          29          30
 IAtWgt=          12          12           1           1           1           1           1           1           1           1
 AtmWgt=  12.0000000  12.0000000   1.0078250   1.0078250   1.0078250   1.0078250   1.0078250   1.0078250   1.0078250   1.0078250
 NucSpn=           0           0           1           1           1           1           1           1           1           1
 AtZEff=  -0.0000000  -0.0000000  -0.0000000  -0.0000000  -0.0000000  -0.0000000  -0.0000000  -0.0000000  -0.0000000  -0.0000000
 NQMom=    0.0000000   0.0000000   0.0000000   0.0000000   0.0000000   0.0000000   0.0000000   0.0000000   0.0000000   0.0000000
 NMagM=    0.0000000   0.0000000   2.7928460   2.7928460   2.7928460   2.7928460   2.7928460   2.7928460   2.7928460   2.7928460
 AtZNuc=   6.0000000   6.0000000   1.0000000   1.0000000   1.0000000   1.0000000   1.0000000   1.0000000   1.0000000   1.0000000

  Atom        31          32          33          34          35          36
 IAtWgt=           1           1           1           1           1           1
 AtmWgt=   1.0078250   1.0078250   1.0078250   1.0078250   1.0078250   1.0078250
 NucSpn=           1           1           1           1           1           1
 AtZEff=  -0.0000000  -0.0000000  -0.0000000  -0.0000000  -0.0000000  -0.0000000
 NQMom=    0.0000000   0.0000000   0.0000000   0.0000000   0.0000000   0.0000000
 NMagM=    2.7928460   2.7928460   2.7928460   2.7928460   2.7928460   2.7928460
 AtZNuc=   1.0000000   1.0000000   1.0000000   1.0000000   1.0000000   1.0000000
 Leave Link  101 at Sat Jan  6 05:37:05 2024, MaxMem=  4026531840 cpu:               3.6 elap:               0.8
 (Enter /sysapps/ubuntu-applications/gaussian/Gaussian/AVX2/g16/l103.exe)

 GradGradGradGradGradGradGradGradGradGradGradGradGradGradGradGradGradGrad
 Berny optimization.
 Initialization pass.
                           ----------------------------
                           !    Initial Parameters    !
                           ! (Angstroms and Degrees)  !
 --------------------------                            --------------------------
 ! Name  Definition              Value          Derivative Info.                !
 --------------------------------------------------------------------------------
 ! R1    R(1,2)                  1.4767         estimate D2E/DX2                !
 ! R2    R(1,6)                  1.4509         estimate D2E/DX2                !
 ! R3    R(1,9)                  1.2698         estimate D2E/DX2                !
 ! R4    R(2,3)                  1.3898         estimate D2E/DX2                !
 ! R5    R(2,20)                 1.535          estimate D2E/DX2                !
 ! R6    R(3,4)                  1.4767         estimate D2E/DX2                !
 ! R7    R(3,17)                 1.535          estimate D2E/DX2                !
 ! R8    R(4,5)                  1.4509         estimate D2E/DX2                !
 ! R9    R(4,10)                 1.2698         estimate D2E/DX2                !
 ! R10   R(5,6)                  1.373          estimate D2E/DX2                !
 ! R11   R(5,8)                  1.5094         estimate D2E/DX2                !
 ! R12   R(6,7)                  1.5094         estimate D2E/DX2                !
 ! R13   R(7,11)                 1.0973         estimate D2E/DX2                !
 ! R14   R(7,12)                 1.0979         estimate D2E/DX2                !
 ! R15   R(7,13)                 1.0897         estimate D2E/DX2                !
 ! R16   R(8,14)                 1.0897         estimate D2E/DX2                !
 ! R17   R(8,15)                 1.0973         estimate D2E/DX2                !
 ! R18   R(8,16)                 1.098          estimate D2E/DX2                !
 ! R19   R(17,18)                1.5373         estimate D2E/DX2                !
 ! R20   R(17,19)                1.5439         estimate D2E/DX2                !
 ! R21   R(17,23)                1.0923         estimate D2E/DX2                !
 ! R22   R(18,24)                1.0974         estimate D2E/DX2                !
 ! R23   R(18,25)                1.09           estimate D2E/DX2                !
 ! R24   R(18,26)                1.0939         estimate D2E/DX2                !
 ! R25   R(19,27)                1.098          estimate D2E/DX2                !
 ! R26   R(19,28)                1.0927         estimate D2E/DX2                !
 ! R27   R(19,29)                1.0914         estimate D2E/DX2                !
 ! R28   R(20,21)                1.5438         estimate D2E/DX2                !
 ! R29   R(20,22)                1.5373         estimate D2E/DX2                !
 ! R30   R(20,30)                1.0923         estimate D2E/DX2                !
 ! R31   R(21,31)                1.098          estimate D2E/DX2                !
 ! R32   R(21,32)                1.0927         estimate D2E/DX2                !
 ! R33   R(21,33)                1.0914         estimate D2E/DX2                !
 ! R34   R(22,34)                1.0974         estimate D2E/DX2                !
 ! R35   R(22,35)                1.09           estimate D2E/DX2                !
 ! R36   R(22,36)                1.0939         estimate D2E/DX2                !
 ! A1    A(2,1,6)              118.9674         estimate D2E/DX2                !
 ! A2    A(2,1,9)              121.0662         estimate D2E/DX2                !
 ! A3    A(6,1,9)              119.9664         estimate D2E/DX2                !
 ! A4    A(1,2,3)              119.9809         estimate D2E/DX2                !
 ! A5    A(1,2,20)             110.8888         estimate D2E/DX2                !
 ! A6    A(3,2,20)             129.1274         estimate D2E/DX2                !
 ! A7    A(2,3,4)              119.9807         estimate D2E/DX2                !
 ! A8    A(2,3,17)             129.1405         estimate D2E/DX2                !
 ! A9    A(4,3,17)             110.8759         estimate D2E/DX2                !
 ! A10   A(3,4,5)              118.9683         estimate D2E/DX2                !
 ! A11   A(3,4,10)             121.0634         estimate D2E/DX2                !
 ! A12   A(5,4,10)             119.9683         estimate D2E/DX2                !
 ! A13   A(4,5,6)              120.9928         estimate D2E/DX2                !
 ! A14   A(4,5,8)              117.5664         estimate D2E/DX2                !
 ! A15   A(6,5,8)              121.4406         estimate D2E/DX2                !
 ! A16   A(1,6,5)              120.9945         estimate D2E/DX2                !
 ! A17   A(1,6,7)              117.5688         estimate D2E/DX2                !
 ! A18   A(5,6,7)              121.4364         estimate D2E/DX2                !
 ! A19   A(6,7,11)             111.6091         estimate D2E/DX2                !
 ! A20   A(6,7,12)             111.5993         estimate D2E/DX2                !
 ! A21   A(6,7,13)             109.465          estimate D2E/DX2                !
 ! A22   A(11,7,12)            106.5595         estimate D2E/DX2                !
 ! A23   A(11,7,13)            108.9427         estimate D2E/DX2                !
 ! A24   A(12,7,13)            108.5613         estimate D2E/DX2                !
 ! A25   A(5,8,14)             109.4625         estimate D2E/DX2                !
 ! A26   A(5,8,15)             111.6109         estimate D2E/DX2                !
 ! A27   A(5,8,16)             111.6006         estimate D2E/DX2                !
 ! A28   A(14,8,15)            108.9512         estimate D2E/DX2                !
 ! A29   A(14,8,16)            108.5521         estimate D2E/DX2                !
 ! A30   A(15,8,16)            106.5596         estimate D2E/DX2                !
 ! A31   A(3,17,18)            118.1066         estimate D2E/DX2                !
 ! A32   A(3,17,19)            113.0855         estimate D2E/DX2                !
 ! A33   A(3,17,23)            102.1274         estimate D2E/DX2                !
 ! A34   A(18,17,19)           112.5078         estimate D2E/DX2                !
 ! A35   A(18,17,23)           105.1271         estimate D2E/DX2                !
 ! A36   A(19,17,23)           103.8403         estimate D2E/DX2                !
 ! A37   A(17,18,24)           109.0072         estimate D2E/DX2                !
 ! A38   A(17,18,25)           114.5201         estimate D2E/DX2                !
 ! A39   A(17,18,26)           110.6715         estimate D2E/DX2                !
 ! A40   A(24,18,25)           107.0874         estimate D2E/DX2                !
 ! A41   A(24,18,26)           107.5283         estimate D2E/DX2                !
 ! A42   A(25,18,26)           107.7507         estimate D2E/DX2                !
 ! A43   A(17,19,27)           110.2422         estimate D2E/DX2                !
 ! A44   A(17,19,28)           109.5591         estimate D2E/DX2                !
 ! A45   A(17,19,29)           113.0684         estimate D2E/DX2                !
 ! A46   A(27,19,28)           107.7013         estimate D2E/DX2                !
 ! A47   A(27,19,29)           107.8914         estimate D2E/DX2                !
 ! A48   A(28,19,29)           108.2126         estimate D2E/DX2                !
 ! A49   A(2,20,21)            113.1184         estimate D2E/DX2                !
 ! A50   A(2,20,22)            118.0633         estimate D2E/DX2                !
 ! A51   A(2,20,30)            102.1194         estimate D2E/DX2                !
 ! A52   A(21,20,22)           112.5336         estimate D2E/DX2                !
 ! A53   A(21,20,30)           103.8364         estimate D2E/DX2                !
 ! A54   A(22,20,30)           105.1199         estimate D2E/DX2                !
 ! A55   A(20,21,31)           110.238          estimate D2E/DX2                !
 ! A56   A(20,21,32)           109.5559         estimate D2E/DX2                !
 ! A57   A(20,21,33)           113.0813         estimate D2E/DX2                !
 ! A58   A(31,21,32)           107.6992         estimate D2E/DX2                !
 ! A59   A(31,21,33)           107.8932         estimate D2E/DX2                !
 ! A60   A(32,21,33)           108.2068         estimate D2E/DX2                !
 ! A61   A(20,22,34)           109.0202         estimate D2E/DX2                !
 ! A62   A(20,22,35)           114.5256         estimate D2E/DX2                !
 ! A63   A(20,22,36)           110.6562         estimate D2E/DX2                !
 ! A64   A(34,22,35)           107.0873         estimate D2E/DX2                !
 ! A65   A(34,22,36)           107.5293         estimate D2E/DX2                !
 ! A66   A(35,22,36)           107.7467         estimate D2E/DX2                !
 ! D1    D(6,1,2,3)              3.0299         estimate D2E/DX2                !
 ! D2    D(6,1,2,20)          -177.5369         estimate D2E/DX2                !
 ! D3    D(9,1,2,3)           -176.9776         estimate D2E/DX2                !
 ! D4    D(9,1,2,20)             2.4556         estimate D2E/DX2                !
 ! D5    D(2,1,6,5)             -0.5775         estimate D2E/DX2                !
 ! D6    D(2,1,6,7)            179.2227         estimate D2E/DX2                !
 ! D7    D(9,1,6,5)            179.4299         estimate D2E/DX2                !
 ! D8    D(9,1,6,7)             -0.7699         estimate D2E/DX2                !
 ! D9    D(1,2,3,4)             -4.2026         estimate D2E/DX2                !
 ! D10   D(1,2,3,17)           176.4801         estimate D2E/DX2                !
 ! D11   D(20,2,3,4)           176.4801         estimate D2E/DX2                !
 ! D12   D(20,2,3,17)           -2.8373         estimate D2E/DX2                !
 ! D13   D(1,2,20,21)          -91.8535         estimate D2E/DX2                !
 ! D14   D(1,2,20,22)          133.7351         estimate D2E/DX2                !
 ! D15   D(1,2,20,30)           19.1015         estimate D2E/DX2                !
 ! D16   D(3,2,20,21)           87.5137         estimate D2E/DX2                !
 ! D17   D(3,2,20,22)          -46.8978         estimate D2E/DX2                !
 ! D18   D(3,2,20,30)         -161.5314         estimate D2E/DX2                !
 ! D19   D(2,3,4,5)              3.0197         estimate D2E/DX2                !
 ! D20   D(2,3,4,10)          -176.9875         estimate D2E/DX2                !
 ! D21   D(17,3,4,5)          -177.5469         estimate D2E/DX2                !
 ! D22   D(17,3,4,10)            2.4459         estimate D2E/DX2                !
 ! D23   D(2,3,17,18)          -46.7149         estimate D2E/DX2                !
 ! D24   D(2,3,17,19)           87.6656         estimate D2E/DX2                !
 ! D25   D(2,3,17,23)         -161.3836         estimate D2E/DX2                !
 ! D26   D(4,3,17,18)          133.918          estimate D2E/DX2                !
 ! D27   D(4,3,17,19)          -91.7015         estimate D2E/DX2                !
 ! D28   D(4,3,17,23)           19.2493         estimate D2E/DX2                !
 ! D29   D(3,4,5,6)             -0.5672         estimate D2E/DX2                !
 ! D30   D(3,4,5,8)            179.2361         estimate D2E/DX2                !
 ! D31   D(10,4,5,6)           179.4399         estimate D2E/DX2                !
 ! D32   D(10,4,5,8)            -0.7568         estimate D2E/DX2                !
 ! D33   D(4,5,6,1)             -0.5867         estimate D2E/DX2                !
 ! D34   D(4,5,6,7)            179.6209         estimate D2E/DX2                !
 ! D35   D(8,5,6,1)            179.6176         estimate D2E/DX2                !
 ! D36   D(8,5,6,7)             -0.1747         estimate D2E/DX2                !
 ! D37   D(4,5,8,14)            -2.1317         estimate D2E/DX2                !
 ! D38   D(4,5,8,15)          -122.8275         estimate D2E/DX2                !
 ! D39   D(4,5,8,16)           118.0573         estimate D2E/DX2                !
 ! D40   D(6,5,8,14)           177.6706         estimate D2E/DX2                !
 ! D41   D(6,5,8,15)            56.9749         estimate D2E/DX2                !
 ! D42   D(6,5,8,16)           -62.1403         estimate D2E/DX2                !
 ! D43   D(1,6,7,11)          -122.7422         estimate D2E/DX2                !
 ! D44   D(1,6,7,12)           118.1448         estimate D2E/DX2                !
 ! D45   D(1,6,7,13)            -2.0566         estimate D2E/DX2                !
 ! D46   D(5,6,7,11)            57.057          estimate D2E/DX2                !
 ! D47   D(5,6,7,12)           -62.056          estimate D2E/DX2                !
 ! D48   D(5,6,7,13)           177.7426         estimate D2E/DX2                !
 ! D49   D(3,17,18,24)        -165.4757         estimate D2E/DX2                !
 ! D50   D(3,17,18,25)          74.6097         estimate D2E/DX2                !
 ! D51   D(3,17,18,26)         -47.4133         estimate D2E/DX2                !
 ! D52   D(19,17,18,24)         59.8968         estimate D2E/DX2                !
 ! D53   D(19,17,18,25)        -60.0178         estimate D2E/DX2                !
 ! D54   D(19,17,18,26)        177.9591         estimate D2E/DX2                !
 ! D55   D(23,17,18,24)        -52.4525         estimate D2E/DX2                !
 ! D56   D(23,17,18,25)       -172.3671         estimate D2E/DX2                !
 ! D57   D(23,17,18,26)         65.6099         estimate D2E/DX2                !
 ! D58   D(3,17,19,27)         170.8918         estimate D2E/DX2                !
 ! D59   D(3,17,19,28)          52.5371         estimate D2E/DX2                !
 ! D60   D(3,17,19,29)         -68.2479         estimate D2E/DX2                !
 ! D61   D(18,17,19,27)        -52.1402         estimate D2E/DX2                !
 ! D62   D(18,17,19,28)       -170.495          estimate D2E/DX2                !
 ! D63   D(18,17,19,29)         68.72           estimate D2E/DX2                !
 ! D64   D(23,17,19,27)         61.0019         estimate D2E/DX2                !
 ! D65   D(23,17,19,28)        -57.3529         estimate D2E/DX2                !
 ! D66   D(23,17,19,29)       -178.1379         estimate D2E/DX2                !
 ! D67   D(2,20,21,31)         170.8889         estimate D2E/DX2                !
 ! D68   D(2,20,21,32)          52.5413         estimate D2E/DX2                !
 ! D69   D(2,20,21,33)         -68.2427         estimate D2E/DX2                !
 ! D70   D(22,20,21,31)        -52.1465         estimate D2E/DX2                !
 ! D71   D(22,20,21,32)       -170.4941         estimate D2E/DX2                !
 ! D72   D(22,20,21,33)         68.7219         estimate D2E/DX2                !
 ! D73   D(30,20,21,31)         60.9967         estimate D2E/DX2                !
 ! D74   D(30,20,21,32)        -57.351          estimate D2E/DX2                !
 ! D75   D(30,20,21,33)       -178.1349         estimate D2E/DX2                !
 ! D76   D(2,20,22,34)        -165.4815         estimate D2E/DX2                !
 ! D77   D(2,20,22,35)          74.5909         estimate D2E/DX2                !
 ! D78   D(2,20,22,36)         -47.419          estimate D2E/DX2                !
 ! D79   D(21,20,22,34)         59.8569         estimate D2E/DX2                !
 ! D80   D(21,20,22,35)        -60.0707         estimate D2E/DX2                !
 ! D81   D(21,20,22,36)        177.9194         estimate D2E/DX2                !
 ! D82   D(30,20,22,34)        -52.4957         estimate D2E/DX2                !
 ! D83   D(30,20,22,35)       -172.4233         estimate D2E/DX2                !
 ! D84   D(30,20,22,36)         65.5667         estimate D2E/DX2                !
 --------------------------------------------------------------------------------
 Trust Radius=3.00D-01 FncErr=1.00D-07 GrdErr=1.00D-06 EigMax=2.50D+02 EigMin=1.00D-04
 Number of steps in this run=    196 maximum allowed number of steps=    216.
 GradGradGradGradGradGradGradGradGradGradGradGradGradGradGradGradGradGrad

 Leave Link  103 at Sat Jan  6 05:37:05 2024, MaxMem=  4026531840 cpu:               0.4 elap:               0.1
 (Enter /sysapps/ubuntu-applications/gaussian/Gaussian/AVX2/g16/l202.exe)
                          Input orientation:                          
 ---------------------------------------------------------------------
 Center     Atomic      Atomic             Coordinates (Angstroms)
 Number     Number       Type             X           Y           Z
 ---------------------------------------------------------------------
      1          6           0        0.802801    1.657470   -0.705646
      2          6           0       -0.524143    1.014516   -0.624693
      3          6           0       -0.651168   -0.246736   -0.054804
      4          6           0        0.551443   -0.982361    0.384872
      5          6           0        1.847869   -0.340812    0.272335
      6          6           0        1.967519    0.925654   -0.244291
      7          6           0        3.310178    1.605825   -0.358146
      8          6           0        3.053695   -1.114523    0.747336
      9          8           0        0.934615    2.831935   -1.170030
     10          8           0        0.464450   -2.158388    0.855784
     11          1           0        4.014966    1.011711   -0.953467
     12          1           0        3.775273    1.749376    0.626004
     13          1           0        3.184558    2.581003   -0.828015
     14          1           0        2.732712   -2.072774    1.155101
     15          1           0        3.607257   -0.565965    1.519823
     16          1           0        3.761362   -1.302454   -0.070839
     17          6           0       -1.920621   -1.070515    0.202048
     18          6           0       -3.122622   -0.365348    0.851090
     19          6           0       -2.328604   -1.945464   -1.002788
     20          6           0       -1.610120    1.924352   -1.215473
     21          6           0       -2.275922    2.836086   -0.162422
     22          6           0       -2.628852    1.300310   -2.183002
     23          1           0       -1.578462   -1.793412    0.945975
     24          1           0       -3.834849   -1.122967    1.201730
     25          1           0       -3.668277    0.303432    0.185417
     26          1           0       -2.805281    0.216329    1.721446
     27          1           0       -3.137812   -2.630699   -0.717942
     28          1           0       -1.476426   -2.551370   -1.320110
     29          1           0       -2.669734   -1.361445   -1.859389
     30          1           0       -1.023737    2.614961   -1.825623
     31          1           0       -2.922888    3.574526   -0.653995
     32          1           0       -1.505895    3.382762    0.387360
     33          1           0       -2.883047    2.285164    0.557977
     34          1           0       -3.160251    2.103162   -2.709559
     35          1           0       -3.383942    0.676539   -1.704564
     36          1           0       -2.121915    0.691040   -2.936929
 ---------------------------------------------------------------------
                    Distance matrix (angstroms):
                    1          2          3          4          5
     1  C    0.000000
     2  C    1.476727   0.000000
     3  C    2.482664   1.389844   0.000000
     4  C    2.867249   2.482665   1.476730   0.000000
     5  C    2.457996   2.875415   2.522113   1.450851   0.000000
     6  C    1.450852   2.522099   2.875400   2.457974   1.373009
     7  C    2.531869   3.888793   4.383636   3.855049   2.515005
     8  C    3.855078   4.383628   3.888765   2.531820   1.509394
     9  O    1.269801   2.393403   3.638221   4.136834   3.602884
    10  O    4.136825   3.638193   2.393363   1.269790   2.357508
    11  H    3.285791   4.551001   4.915698   4.214673   2.833411
    12  H    3.258424   4.537537   4.903197   4.232447   2.865110
    13  H    2.557470   4.031090   4.827707   4.593686   3.396249
    14  H    4.593654   4.827642   4.030996   2.557379   2.135864
    15  H    4.214422   4.915825   4.551433   3.286259   2.168494
    16  H    4.232873   4.903127   4.537094   3.257869   2.168866
    17  C    3.960156   2.642159   1.534958   2.480382   3.839131
    18  C    4.682325   3.291512   2.634919   3.754573   5.004132
    19  C    4.782795   3.487193   2.568685   3.338838   4.652287
    20  C    2.480592   1.534982   2.642038   3.960106   4.393430
    21  C    3.341072   2.569152   3.486431   4.782683   5.223729
    22  C    3.753183   2.634351   3.291476   4.681756   5.363114
    23  H    4.506312   3.385712   2.062435   2.347155   3.782008
    24  H    5.733822   4.343435   3.533056   4.463920   5.811095
    25  H    4.755833   3.323778   3.076254   4.415777   5.554320
    26  H    4.581039   3.368243   2.830141   3.806689   4.905317
    27  H    5.823828   4.486374   3.508052   4.188534   5.575056
    28  H    4.825637   3.755794   2.755610   3.079124   4.298068
    29  H    4.743782   3.431213   2.928090   3.944159   5.098497
    30  H    2.346780   2.062341   3.385841   4.506463   4.624299
    31  H    4.190290   3.508345   4.485731   5.823696   6.240840
    32  H    3.082430   2.756207   3.754907   4.825655   5.012581
    33  H    3.946672   2.928768   3.430350   4.743670   5.418386
    34  H    4.463193   3.532829   4.343414   5.733466   6.320282
    35  H    4.414621   3.075516   3.322980   4.754466   5.684627
    36  H    3.803495   2.829125   3.368852   4.580554   5.208001
                    6          7          8          9         10
     6  C    0.000000
     7  C    1.509413   0.000000
     8  C    2.515040   2.947570   0.000000
     9  O    2.357497   2.793886   4.872507   0.000000
    10  O    3.602873   4.872483   2.793851   5.406320   0.000000
    11  H    2.168496   1.097317   2.887498   3.584505   5.092061
    12  H    2.168849   1.097940   2.955895   3.530865   5.126887
    13  H    2.135907   1.089738   4.019424   2.289582   5.718041
    14  H    3.396232   4.019387   1.089746   5.718003   2.289527
    15  H    2.832978   2.886468   1.097307   5.091566   3.585247
    16  H    2.865733   2.957059   1.097962   5.127562   3.529997
    17  C    4.393352   5.902362   5.004308   5.026339   2.701741
    18  C    5.364334   6.835839   6.222453   5.546956   4.010249
    19  C    5.222577   6.695004   5.720362   5.787928   3.361663
    20  C    3.839283   5.004578   5.902419   2.702119   5.026203
    21  C    4.654379   5.723318   6.696252   3.364943   5.787154
    22  C    5.002559   6.220572   6.834445   4.008776   5.546650
    23  H    4.624287   6.095436   4.685854   5.673347   2.077217
    24  H    6.321020   7.805827   6.903520   6.634326   4.435735
    25  H    5.686300   7.119728   6.892841   5.423761   4.856890
    26  H    5.210267   6.607136   6.086679   5.402671   4.132771
    27  H    6.239904   7.723611   6.540687   6.828573   3.959291
    28  H    5.010772   6.412427   5.182746   5.900476   2.942099
    29  H    5.416962   6.842351   6.293936   5.572341   4.222605
    30  H    3.781796   4.685580   6.095459   2.076541   5.673580
    31  H    5.576779   6.543273   7.724665   3.962078   6.827869
    32  H    4.301275   5.187277   6.414438   2.947026   5.899663
    33  H    5.100970   6.297366   6.843876   4.226051   5.571318
    34  H    5.810172   6.902386   7.804918   4.434996   6.634074
    35  H    5.552710   6.891129   7.117787   4.856068   5.422390
    36  H    4.901919   6.082318   6.604605   4.128891   5.403073
                   11         12         13         14         15
    11  H    0.000000
    12  H    1.759639   0.000000
    13  H    1.779886   1.776153   0.000000
    14  H    3.950226   3.996962   5.078834   0.000000
    15  H    2.961832   2.487558   3.948978   1.779979   0.000000
    16  H    2.489720   3.130407   3.998407   1.776075   1.759651
    17  C    6.395473   6.369830   6.360618   4.854518   5.705132
    18  C    7.489852   7.218288   7.161068   6.106772   6.765998
    19  C    6.999157   7.318615   7.135433   5.503600   6.595531
    20  C    5.704661   5.694217   4.854920   6.360568   6.395666
    21  C    6.597679   6.198348   5.506807   7.135768   7.001121
    22  C    6.762793   7.007495   6.105072   7.160097   7.488855
    23  H    6.539345   6.427768   6.705886   4.325274   5.359814
    24  H    8.415540   8.154494   8.192151   6.636050   7.469697
    25  H    7.799419   7.595479   7.292169   6.896325   7.447811
    26  H    7.369095   6.844992   6.926009   6.019145   6.463225
    27  H    8.030246   8.293491   8.194286   6.187295   7.400451
    28  H    6.556322   7.061453   6.950409   4.906380   6.152307
    29  H    7.151068   7.575784   7.132977   6.227324   7.173038
    30  H    5.359067   5.458041   4.325057   6.706004   6.538838
    31  H    7.402130   7.059386   6.190175   8.194549   8.031933
    32  H    6.156266   5.533140   4.911243   6.951121   6.558905
    33  H    7.175565   6.680189   6.230917   7.133367   7.153889
    34  H    7.467186   7.704066   6.635144   8.191523   8.414932
    35  H    7.444483   7.605057   6.894963   7.290395   7.798548
    36  H    6.457419   6.970753   6.014826   6.924650   7.366554
                   16         17         18         19         20
    16  H    0.000000
    17  C    5.693259   0.000000
    18  C    7.008378   1.537310   0.000000
    19  C    6.194326   1.543896   2.562049   0.000000
    20  C    6.369873   3.327913   3.435269   3.941691   0.000000
    21  C    7.320157   3.939620   3.463133   4.855122   1.543848
    22  C    7.215986   3.436694   3.496275   3.466714   1.537321
    23  H    5.457900   1.092282   2.105422   2.093683   4.300538
    24  H    7.704159   2.160182   1.097361   2.793774   4.480898
    25  H    7.605529   2.223130   1.090012   2.874733   2.970839
    26  H    6.974223   2.178798   1.093880   3.510274   3.601562
    27  H    7.055606   2.182226   2.755705   1.097953   4.830100
    28  H    5.527648   2.169610   3.493245   1.092713   4.478941
    29  H    6.675432   2.212540   2.923014   1.091427   3.511961
    30  H    6.428264   4.300998   4.522428   4.814272   1.092277
    31  H    8.294830   4.828432   4.222296   5.562834   2.182130
    32  H    7.064361   4.476384   4.108185   5.567706   2.169538
    33  H    7.577241   3.509064   2.677410   4.543304   2.212612
    34  H    8.152901   4.481781   4.332803   4.471697   2.160364
    35  H    7.592156   2.971309   2.772216   2.912238   2.223217
    36  H    6.841158   3.605104   4.057888   3.276397   2.178624
                   21         22         23         24         25
    21  C    0.000000
    22  C    2.562403   0.000000
    23  H    4.811158   4.523818   0.000000
    24  H    4.468251   4.333949   2.367739   0.000000
    25  H    2.911010   2.771927   3.056555   1.759333   0.000000
    26  H    3.269909   4.055966   2.479012   1.767436   1.764011
    27  H    5.562121   4.225905   2.429247   2.538554   3.115538
    28  H    5.568134   4.111947   2.391663   3.736599   3.901374
    29  H    4.544673   2.681667   3.040976   3.284024   2.819598
    30  H    2.093586   2.105332   5.236719   5.571295   4.047350
    31  H    1.097954   2.756153   5.760394   5.132429   3.458363
    32  H    1.092729   3.493480   5.206735   5.137005   3.768149
    33  H    1.091371   2.923614   4.299682   3.596624   2.163943
    34  H    2.794123   1.097369   5.572098   5.114799   3.446448
    35  H    2.875683   1.090025   4.047934   3.447910   1.947327
    36  H    3.510389   1.093893   4.641636   4.832521   3.505784
                   26         27         28         29         30
    26  H    0.000000
    27  H    3.763876   0.000000
    28  H    4.321698   1.768927   0.000000
    29  H    3.915370   1.770029   1.769386   0.000000
    30  H    4.637783   5.763091   5.210705   4.303748   0.000000
    31  H    4.115099   6.209275   6.329499   5.087325   2.429043
    32  H    3.673484   6.328235   6.174969   5.376793   2.391503
    33  H    2.374823   5.085134   5.375672   4.380287   3.040945
    34  H    4.829073   5.135804   5.141061   3.600958   2.368116
    35  H    3.504880   3.460033   3.769061   2.165050   3.056584
    36  H    4.732103   4.121881   3.680215   2.381993   2.478400
                   31         32         33         34         35
    31  H    0.000000
    32  H    1.768916   0.000000
    33  H    1.770005   1.769288   0.000000
    34  H    2.539015   3.737001   3.284320   0.000000
    35  H    3.116824   3.902160   2.820933   1.759348   0.000000
    36  H    3.764019   4.321544   3.915983   1.767464   1.763986
                   36
    36  H    0.000000
 Symmetry turned off by external request.
 Stoichiometry    C14H20O2(1-,2)
 Framework group  C1[X(C14H20O2)]
 Deg. of freedom   102
 Full point group                 C1      NOp   1
 Rotational constants (GHZ):           0.6736586           0.4761831           0.3142110
 Leave Link  202 at Sat Jan  6 05:37:05 2024, MaxMem=  4026531840 cpu:               0.3 elap:               0.1
 (Enter /sysapps/ubuntu-applications/gaussian/Gaussian/AVX2/g16/l301.exe)
 Standard basis: 6-311++G(d,p) (5D, 7F)
 Ernie: Thresh=  0.10000D-02 Tol=  0.10000D-05 Strict=F.
   492 basis functions,   756 primitive gaussians,   508 cartesian basis functions
    61 alpha electrons       60 beta electrons
       nuclear repulsion energy      1151.4155716649 Hartrees.
 IExCor=  402 DFT=T Ex+Corr=B3LYP ExCW=0 ScaHFX=  0.200000
 ScaDFX=  0.800000  0.720000  1.000000  0.810000 ScalE2=  1.000000  1.000000
 IRadAn=      5 IRanWt=     -1 IRanGd=            0 ICorTp=0 IEmpDi=  4
 NAtoms=   36 NActive=   36 NUniq=   36 SFac= 1.00D+00 NAtFMM=   60 NAOKFM=F Big=F
 Integral buffers will be    131072 words long.
 Raffenetti 2 integral format.
 Two-electron integral symmetry is turned off.
 Leave Link  301 at Sat Jan  6 05:37:06 2024, MaxMem=  4026531840 cpu:               0.5 elap:               0.1
 (Enter /sysapps/ubuntu-applications/gaussian/Gaussian/AVX2/g16/l302.exe)
 NPDir=0 NMtPBC=     1 NCelOv=     1 NCel=       1 NClECP=     1 NCelD=      1
         NCelK=      1 NCelE2=     1 NClLst=     1 CellRange=     0.0.
 One-electron integrals computed using PRISM.
 NBasis=   492 RedAO= T EigKep=  1.19D-06  NBF=   492
 NBsUse=   488 1.00D-06 EigRej=  6.49D-07 NBFU=   488
 Precomputing XC quadrature grid using
 IXCGrd= 4 IRadAn=           5 IRanWt=          -1 IRanGd=           0 AccXCQ= 0.00D+00.
 Generated NRdTot=       0 NPtTot=           0 NUsed=           0 NTot=          32
 NSgBfM=   508   508   508   508   508 MxSgAt=    36 MxSgA2=    36.
 Leave Link  302 at Sat Jan  6 05:37:06 2024, MaxMem=  4026531840 cpu:               6.3 elap:               0.9
 (Enter /sysapps/ubuntu-applications/gaussian/Gaussian/AVX2/g16/l303.exe)
 DipDrv:  MaxL=1.
 Leave Link  303 at Sat Jan  6 05:37:07 2024, MaxMem=  4026531840 cpu:               2.0 elap:               0.4
 (Enter /sysapps/ubuntu-applications/gaussian/Gaussian/AVX2/g16/l401.exe)
 ExpMin= 3.60D-02 ExpMax= 8.59D+03 ExpMxC= 1.30D+03 IAcc=3 IRadAn=         5 AccDes= 0.00D+00
 Harris functional with IExCor=  402 and IRadAn=       5 diagonalized for initial guess.
 HarFok:  IExCor=  402 AccDes= 0.00D+00 IRadAn=         5 IDoV= 1 UseB2=F ITyADJ=14
 ICtDFT=  3500011 ScaDFX=  1.000000  1.000000  1.000000  1.000000
 FoFCou: FMM=F IPFlag=           0 FMFlag=      100000 FMFlg1=           0
         NFxFlg=           0 DoJE=T BraDBF=F KetDBF=T FulRan=T
         wScrn=  0.000000 ICntrl=       500 IOpCl=  0 I1Cent=   200000004 NGrid=           0
         NMat0=    1 NMatS0=      1 NMatT0=    0 NMatD0=    1 NMtDS0=    0 NMtDT0=    0
 Symmetry not used in FoFCou.
 Harris En= -696.498763866464    
 JPrj=0 DoOrth=F DoCkMO=F.
 Initial guess <Sx>= 0.0000 <Sy>= 0.0000 <Sz>= 0.5000 <S**2>= 0.7500 S= 0.5000
 Leave Link  401 at Sat Jan  6 05:37:12 2024, MaxMem=  4026531840 cpu:              39.3 elap:               5.1
 (Enter /sysapps/ubuntu-applications/gaussian/Gaussian/AVX2/g16/l502.exe)
 Two-electron integral symmetry not used.
 UHF open shell SCF:
 Using DIIS extrapolation, IDIIS=  1040.
 NGot=  4026531840 LenX=  4026007820 LenY=  4025749248
 Requested convergence on RMS density matrix=1.00D-08 within 128 cycles.
 Requested convergence on MAX density matrix=1.00D-06.
 Requested convergence on             energy=1.00D-06.
 No special actions if energy rises.
 Fock matrices will be formed incrementally for  20 cycles.

 Cycle   1  Pass 1  IDiag  1:
 FoFJK:  IHMeth= 1 ICntrl=       0 DoSepK=F KAlg= 0 I1Cent=           0 FoldK=F
 IRaf= 890000000 NMat=       1 IRICut=       1 DoRegI=T DoRafI=F ISym2E= 0 IDoP0=0 IntGTp=1.
 FoFCou: FMM=F IPFlag=           0 FMFlag=      100000 FMFlg1=           0
         NFxFlg=           0 DoJE=F BraDBF=F KetDBF=F FulRan=T
         wScrn=  0.000000 ICntrl=         0 IOpCl=  1 I1Cent=           0 NGrid=           0
         NMat0=    1 NMatS0=      1 NMatT0=    0 NMatD0=    1 NMtDS0=    0 NMtDT0=    0
 Symmetry not used in FoFCou.
 E= -695.593008073950    
 DIIS: error= 3.55D-02 at cycle   1 NSaved=   1.
 NSaved= 1 IEnMin= 1 EnMin= -695.593008073950     IErMin= 1 ErrMin= 3.55D-02
 ErrMax= 3.55D-02  0.00D+00 EMaxC= 1.00D-01 BMatC= 2.72D+00 BMatP= 2.72D+00
 IDIUse=3 WtCom= 6.45D-01 WtEn= 3.55D-01
 Coeff-Com:  0.100D+01
 Coeff-En:   0.100D+01
 Coeff:      0.100D+01
 Gap=     0.128 Goal=   None    Shift=    0.000
 Gap=     0.162 Goal=   None    Shift=    0.000
 GapD=    0.128 DampG=1.000 DampE=0.500 DampFc=0.5000 IDamp=-1.
 Damping current iteration by 5.00D-01
 RMSDP=5.25D+00 MaxDP=8.38D+02              OVMax= 9.77D-01

 Cycle   2  Pass 1  IDiag  1:
 RMSU=  2.59D+00    CP:  3.00D+00
 E= -695.443984654091     Delta-E=        0.149023419859 Rises=F Damp=T
 DIIS: error= 3.20D-02 at cycle   2 NSaved=   2.
 NSaved= 2 IEnMin= 1 EnMin= -695.593008073950     IErMin= 2 ErrMin= 3.20D-02
 ErrMax= 3.20D-02  0.00D+00 EMaxC= 1.00D-01 BMatC= 7.53D-01 BMatP= 2.72D+00
 IDIUse=3 WtCom= 6.80D-01 WtEn= 3.20D-01
 Coeff-Com:  0.290D+00 0.710D+00
 Coeff-En:   0.585D+00 0.415D+00
 Coeff:      0.385D+00 0.615D+00
 Gap=     0.153 Goal=   None    Shift=    0.000
 Gap=     0.117 Goal=   None    Shift=    0.000
 RMSDP=2.63D+00 MaxDP=4.20D+02 DE= 1.49D-01 OVMax= 9.19D-01

 Cycle   3  Pass 1  IDiag  1:
 RMSU=  6.81D-03    CP:  9.19D-01 -1.17D-03
 E= -696.026805844556     Delta-E=       -0.582821190465 Rises=F Damp=F
 DIIS: error= 3.58D-02 at cycle   3 NSaved=   3.
 NSaved= 3 IEnMin= 3 EnMin= -696.026805844556     IErMin= 2 ErrMin= 3.20D-02
 ErrMax= 3.58D-02  0.00D+00 EMaxC= 1.00D-01 BMatC= 8.53D-01 BMatP= 7.53D-01
 IDIUse=2 WtCom= 0.00D+00 WtEn= 1.00D+00
 EnCoef did     2 forward-backward iterations
 Coeff-En:   0.174D-01 0.689D-02 0.976D+00
 Coeff:      0.174D-01 0.689D-02 0.976D+00
 Gap=     0.034 Goal=   None    Shift=    0.000
 Gap=     0.250 Goal=   None    Shift=    0.000
 RMSDP=1.95D+00 MaxDP=2.58D+02 DE=-5.83D-01 OVMax= 9.95D-01

 Cycle   4  Pass 1  IDiag  1:
 RMSU=  3.41D-01    CP:  3.00D+00  7.26D-01 -3.00D+00
 E= -694.036583689915     Delta-E=        1.990222154642 Rises=F Damp=F
 DIIS: error= 1.24D-01 at cycle   4 NSaved=   4.
 NSaved= 4 IEnMin= 3 EnMin= -696.026805844556     IErMin= 2 ErrMin= 3.20D-02
 ErrMax= 1.24D-01  0.00D+00 EMaxC= 1.00D-01 BMatC= 7.21D+00 BMatP= 7.53D-01
 IDIUse=2 WtCom= 0.00D+00 WtEn= 1.00D+00
 Coeff-En:   0.000D+00 0.000D+00 0.883D+00 0.117D+00
 Coeff:      0.000D+00 0.000D+00 0.883D+00 0.117D+00
 Gap=     0.115 Goal=   None    Shift=    0.000
 Gap=    -0.081 Goal=   None    Shift=    0.000
 RMSDP=1.95D+00 MaxDP=2.57D+02 DE= 1.99D+00 OVMax= 9.93D-01

 Cycle   5  Pass 1  IDiag  1:
 RMSU=  1.16D-02    CP:  1.06D+00 -8.89D-04 -1.56D-01 -4.59D-04
 E= -696.052610826128     Delta-E=       -2.016027136214 Rises=F Damp=F
 DIIS: error= 3.85D-02 at cycle   5 NSaved=   5.
 NSaved= 5 IEnMin= 5 EnMin= -696.052610826128     IErMin= 2 ErrMin= 3.20D-02
 ErrMax= 3.85D-02  0.00D+00 EMaxC= 1.00D-01 BMatC= 8.25D-01 BMatP= 7.53D-01
 IDIUse=3 WtCom= 6.15D-01 WtEn= 3.85D-01
 Coeff-Com:  0.224D-01 0.127D+00 0.439D+00-0.264D-01 0.437D+00
 Coeff-En:   0.000D+00 0.000D+00 0.472D+00 0.000D+00 0.528D+00
 Coeff:      0.138D-01 0.783D-01 0.452D+00-0.162D-01 0.472D+00
 Gap=     0.087 Goal=   None    Shift=    0.000
 Gap=     0.142 Goal=   None    Shift=    0.000
 RMSDP=9.60D-03 MaxDP=1.02D+00 DE=-2.02D+00 OVMax= 1.17D-01

 Cycle   6  Pass 1  IDiag  1:
 RMSU=  3.40D-03    CP:  9.31D-01 -5.95D-04  1.95D-02  5.83D-04  5.71D-01
 E= -696.219534611978     Delta-E=       -0.166923785850 Rises=F Damp=F
 DIIS: error= 6.28D-03 at cycle   6 NSaved=   6.
 NSaved= 6 IEnMin= 6 EnMin= -696.219534611978     IErMin= 6 ErrMin= 6.28D-03
 ErrMax= 6.28D-03  0.00D+00 EMaxC= 1.00D-01 BMatC= 2.12D-02 BMatP= 7.53D-01
 IDIUse=3 WtCom= 9.37D-01 WtEn= 6.28D-02
 Coeff-Com: -0.406D-02 0.557D-01 0.200D+00-0.179D-01 0.258D+00 0.508D+00
 Coeff-En:   0.000D+00 0.000D+00 0.000D+00 0.000D+00 0.000D+00 0.100D+01
 Coeff:     -0.380D-02 0.522D-01 0.188D+00-0.168D-01 0.242D+00 0.539D+00
 Gap=     0.099 Goal=   None    Shift=    0.000
 Gap=     0.133 Goal=   None    Shift=    0.000
 RMSDP=2.22D-03 MaxDP=2.92D-01 DE=-1.67D-01 OVMax= 2.91D-02

 Cycle   7  Pass 1  IDiag  1:
 RMSU=  1.67D-03    CP:  9.52D-01 -6.38D-04 -3.05D-02  1.19D-03  5.65D-01
                    CP:  7.77D-01
 E= -696.223820749476     Delta-E=       -0.004286137498 Rises=F Damp=F
 DIIS: error= 2.55D-03 at cycle   7 NSaved=   7.
 NSaved= 7 IEnMin= 7 EnMin= -696.223820749476     IErMin= 7 ErrMin= 2.55D-03
 ErrMax= 2.55D-03  0.00D+00 EMaxC= 1.00D-01 BMatC= 3.35D-03 BMatP= 2.12D-02
 IDIUse=3 WtCom= 9.75D-01 WtEn= 2.55D-02
 Coeff-Com: -0.234D-02-0.842D-03 0.531D-02-0.130D-03 0.140D-01 0.302D+00
 Coeff-Com:  0.682D+00
 Coeff-En:   0.000D+00 0.000D+00 0.000D+00 0.000D+00 0.000D+00 0.153D+00
 Coeff-En:   0.847D+00
 Coeff:     -0.228D-02-0.821D-03 0.518D-02-0.127D-03 0.137D-01 0.298D+00
 Coeff:      0.687D+00
 Gap=     0.096 Goal=   None    Shift=    0.000
 Gap=     0.136 Goal=   None    Shift=    0.000
 RMSDP=7.31D-04 MaxDP=7.44D-02 DE=-4.29D-03 OVMax= 8.01D-03

 Cycle   8  Pass 1  IDiag  1:
 RMSU=  4.52D-04    CP:  9.46D-01 -6.22D-04 -4.86D-03  8.99D-04  5.45D-01
                    CP:  8.55D-01  8.45D-01
 E= -696.224611787109     Delta-E=       -0.000791037633 Rises=F Damp=F
 DIIS: error= 7.44D-04 at cycle   8 NSaved=   8.
 NSaved= 8 IEnMin= 8 EnMin= -696.224611787109     IErMin= 8 ErrMin= 7.44D-04
 ErrMax= 7.44D-04  0.00D+00 EMaxC= 1.00D-01 BMatC= 1.63D-04 BMatP= 3.35D-03
 IDIUse=3 WtCom= 9.93D-01 WtEn= 7.44D-03
 Coeff-Com: -0.314D-03-0.298D-02-0.555D-02 0.113D-02-0.573D-02 0.129D+00
 Coeff-Com:  0.341D+00 0.544D+00
 Coeff-En:   0.000D+00 0.000D+00 0.000D+00 0.000D+00 0.000D+00 0.000D+00
 Coeff-En:   0.000D+00 0.100D+01
 Coeff:     -0.311D-03-0.296D-02-0.551D-02 0.112D-02-0.568D-02 0.128D+00
 Coeff:      0.338D+00 0.548D+00
 Gap=     0.096 Goal=   None    Shift=    0.000
 Gap=     0.136 Goal=   None    Shift=    0.000
 RMSDP=1.77D-04 MaxDP=1.82D-02 DE=-7.91D-04 OVMax= 5.80D-03

 Cycle   9  Pass 1  IDiag  1:
 RMSU=  1.53D-04    CP:  9.47D-01 -6.13D-04 -8.29D-03  9.25D-04  5.47D-01
                    CP:  8.57D-01  8.37D-01  8.35D-01
 E= -696.224640432272     Delta-E=       -0.000028645163 Rises=F Damp=F
 DIIS: error= 7.01D-04 at cycle   9 NSaved=   9.
 NSaved= 9 IEnMin= 9 EnMin= -696.224640432272     IErMin= 9 ErrMin= 7.01D-04
 ErrMax= 7.01D-04  0.00D+00 EMaxC= 1.00D-01 BMatC= 9.50D-05 BMatP= 1.63D-04
 IDIUse=3 WtCom= 9.93D-01 WtEn= 7.01D-03
 Coeff-Com:  0.733D-03-0.184D-02-0.570D-02 0.933D-03-0.895D-02 0.111D-01
 Coeff-Com:  0.543D-01 0.430D+00 0.520D+00
 Coeff-En:   0.000D+00 0.000D+00 0.000D+00 0.000D+00 0.000D+00 0.000D+00
 Coeff-En:   0.000D+00 0.286D+00 0.714D+00
 Coeff:      0.728D-03-0.183D-02-0.566D-02 0.927D-03-0.889D-02 0.110D-01
 Coeff:      0.539D-01 0.429D+00 0.521D+00
 Gap=     0.097 Goal=   None    Shift=    0.000
 Gap=     0.137 Goal=   None    Shift=    0.000
 RMSDP=9.95D-05 MaxDP=8.99D-03 DE=-2.86D-05 OVMax= 3.58D-03

 Cycle  10  Pass 1  IDiag  1:
 RMSU=  6.40D-05    CP:  9.47D-01 -6.08D-04 -9.82D-03  9.28D-04  5.46D-01
                    CP:  8.60D-01  8.29D-01  8.68D-01  5.41D-01
 E= -696.224665384125     Delta-E=       -0.000024951853 Rises=F Damp=F
 DIIS: error= 1.88D-04 at cycle  10 NSaved=  10.
 NSaved=10 IEnMin=10 EnMin= -696.224665384125     IErMin=10 ErrMin= 1.88D-04
 ErrMax= 1.88D-04  0.00D+00 EMaxC= 1.00D-01 BMatC= 1.27D-05 BMatP= 9.50D-05
 IDIUse=3 WtCom= 9.98D-01 WtEn= 1.88D-03
 Coeff-Com:  0.530D-03-0.230D-03-0.231D-02 0.169D-03-0.419D-02-0.302D-01
 Coeff-Com: -0.701D-01 0.861D-01 0.299D+00 0.721D+00
 Coeff-En:   0.000D+00 0.000D+00 0.000D+00 0.000D+00 0.000D+00 0.000D+00
 Coeff-En:   0.000D+00 0.000D+00 0.000D+00 0.100D+01
 Coeff:      0.529D-03-0.230D-03-0.231D-02 0.169D-03-0.418D-02-0.301D-01
 Coeff:     -0.699D-01 0.859D-01 0.298D+00 0.722D+00
 Gap=     0.097 Goal=   None    Shift=    0.000
 Gap=     0.137 Goal=   None    Shift=    0.000
 RMSDP=5.74D-05 MaxDP=6.90D-03 DE=-2.50D-05 OVMax= 1.19D-03

 Cycle  11  Pass 1  IDiag  1:
 RMSU=  2.74D-05    CP:  9.46D-01 -6.07D-04 -8.26D-03  9.09D-04  5.44D-01
                    CP:  8.61D-01  8.31D-01  8.99D-01  6.72D-01  7.43D-01
 E= -696.224670157463     Delta-E=       -0.000004773338 Rises=F Damp=F
 DIIS: error= 5.55D-05 at cycle  11 NSaved=  11.
 NSaved=11 IEnMin=11 EnMin= -696.224670157463     IErMin=11 ErrMin= 5.55D-05
 ErrMax= 5.55D-05  0.00D+00 EMaxC= 1.00D-01 BMatC= 3.05D-06 BMatP= 1.27D-05
 IDIUse=1 WtCom= 1.00D+00 WtEn= 0.00D+00
 Coeff-Com:  0.514D-04 0.273D-03 0.303D-03-0.765D-04-0.455D-04-0.207D-01
 Coeff-Com: -0.594D-01-0.550D-01 0.418D-01 0.404D+00 0.689D+00
 Coeff:      0.514D-04 0.273D-03 0.303D-03-0.765D-04-0.455D-04-0.207D-01
 Coeff:     -0.594D-01-0.550D-01 0.418D-01 0.404D+00 0.689D+00
 Gap=     0.097 Goal=   None    Shift=    0.000
 Gap=     0.137 Goal=   None    Shift=    0.000
 RMSDP=2.25D-05 MaxDP=2.71D-03 DE=-4.77D-06 OVMax= 8.04D-04

 Cycle  12  Pass 1  IDiag  1:
 RMSU=  1.44D-05    CP:  9.46D-01 -6.06D-04 -7.64D-03  9.07D-04  5.43D-01
                    CP:  8.61D-01  8.29D-01  9.03D-01  6.55D-01  8.14D-01
                    CP:  1.05D+00
 E= -696.224671239979     Delta-E=       -0.000001082516 Rises=F Damp=F
 DIIS: error= 3.66D-05 at cycle  12 NSaved=  12.
 NSaved=12 IEnMin=12 EnMin= -696.224671239979     IErMin=12 ErrMin= 3.66D-05
 ErrMax= 3.66D-05  0.00D+00 EMaxC= 1.00D-01 BMatC= 7.49D-07 BMatP= 3.05D-06
 IDIUse=1 WtCom= 1.00D+00 WtEn= 0.00D+00
 Coeff-Com: -0.755D-04 0.182D-03 0.442D-03-0.609D-04 0.498D-03-0.699D-02
 Coeff-Com: -0.227D-01-0.434D-01-0.267D-01 0.960D-01 0.411D+00 0.592D+00
 Coeff:     -0.755D-04 0.182D-03 0.442D-03-0.609D-04 0.498D-03-0.699D-02
 Coeff:     -0.227D-01-0.434D-01-0.267D-01 0.960D-01 0.411D+00 0.592D+00
 Gap=     0.097 Goal=   None    Shift=    0.000
 Gap=     0.137 Goal=   None    Shift=    0.000
 RMSDP=1.08D-05 MaxDP=8.66D-04 DE=-1.08D-06 OVMax= 3.39D-04

 Cycle  13  Pass 1  IDiag  1:
 RMSU=  5.07D-06    CP:  9.46D-01 -6.06D-04 -7.87D-03  9.06D-04  5.43D-01
                    CP:  8.61D-01  8.27D-01  8.99D-01  6.65D-01  8.61D-01
                    CP:  1.18D+00  7.59D-01
 E= -696.224671469130     Delta-E=       -0.000000229152 Rises=F Damp=F
 DIIS: error= 6.12D-06 at cycle  13 NSaved=  13.
 NSaved=13 IEnMin=13 EnMin= -696.224671469130     IErMin=13 ErrMin= 6.12D-06
 ErrMax= 6.12D-06  0.00D+00 EMaxC= 1.00D-01 BMatC= 7.37D-08 BMatP= 7.49D-07
 IDIUse=1 WtCom= 1.00D+00 WtEn= 0.00D+00
 Coeff-Com: -0.496D-04 0.484D-04 0.194D-03-0.179D-04 0.266D-03-0.581D-03
 Coeff-Com: -0.334D-02-0.137D-01-0.185D-01-0.868D-02 0.109D+00 0.299D+00
 Coeff-Com:  0.636D+00
 Coeff:     -0.496D-04 0.484D-04 0.194D-03-0.179D-04 0.266D-03-0.581D-03
 Coeff:     -0.334D-02-0.137D-01-0.185D-01-0.868D-02 0.109D+00 0.299D+00
 Coeff:      0.636D+00
 Gap=     0.097 Goal=   None    Shift=    0.000
 Gap=     0.137 Goal=   None    Shift=    0.000
 RMSDP=2.27D-06 MaxDP=2.64D-04 DE=-2.29D-07 OVMax= 5.48D-05

 Cycle  14  Pass 1  IDiag  1:
 RMSU=  1.38D-06    CP:  9.46D-01 -6.06D-04 -7.86D-03  9.08D-04  5.43D-01
                    CP:  8.61D-01  8.27D-01  8.98D-01  6.65D-01  8.66D-01
                    CP:  1.18D+00  8.06D-01  9.91D-01
 E= -696.224671488179     Delta-E=       -0.000000019048 Rises=F Damp=F
 DIIS: error= 2.26D-06 at cycle  14 NSaved=  14.
 NSaved=14 IEnMin=14 EnMin= -696.224671488179     IErMin=14 ErrMin= 2.26D-06
 ErrMax= 2.26D-06  0.00D+00 EMaxC= 1.00D-01 BMatC= 5.66D-09 BMatP= 7.37D-08
 IDIUse=1 WtCom= 1.00D+00 WtEn= 0.00D+00
 Coeff-Com: -0.416D-06 0.724D-05 0.655D-05-0.573D-05 0.184D-04 0.675D-03
 Coeff-Com:  0.159D-02 0.566D-03-0.226D-02-0.137D-01-0.182D-01 0.317D-01
 Coeff-Com:  0.222D+00 0.777D+00
 Coeff:     -0.416D-06 0.724D-05 0.655D-05-0.573D-05 0.184D-04 0.675D-03
 Coeff:      0.159D-02 0.566D-03-0.226D-02-0.137D-01-0.182D-01 0.317D-01
 Coeff:      0.222D+00 0.777D+00
 Gap=     0.097 Goal=   None    Shift=    0.000
 Gap=     0.137 Goal=   None    Shift=    0.000
 RMSDP=1.14D-06 MaxDP=1.09D-04 DE=-1.90D-08 OVMax= 1.46D-05

 Cycle  15  Pass 1  IDiag  1:
 RMSU=  6.85D-07    CP:  9.46D-01 -6.06D-04 -7.81D-03  9.08D-04  5.43D-01
                    CP:  8.61D-01  8.27D-01  8.98D-01  6.64D-01  8.62D-01
                    CP:  1.18D+00  8.13D-01  9.79D-01  1.30D+00
 E= -696.224671489685     Delta-E=       -0.000000001506 Rises=F Damp=F
 DIIS: error= 7.73D-07 at cycle  15 NSaved=  15.
 NSaved=15 IEnMin=15 EnMin= -696.224671489685     IErMin=15 ErrMin= 7.73D-07
 ErrMax= 7.73D-07  0.00D+00 EMaxC= 1.00D-01 BMatC= 7.29D-10 BMatP= 5.66D-09
 IDIUse=1 WtCom= 1.00D+00 WtEn= 0.00D+00
 Coeff-Com:  0.505D-05-0.578D-05-0.650D-05-0.432D-06-0.815D-05 0.321D-03
 Coeff-Com:  0.857D-03 0.113D-02 0.562D-03-0.421D-02-0.163D-01-0.103D-01
 Coeff-Com:  0.287D-01 0.292D+00 0.708D+00
 Coeff:      0.505D-05-0.578D-05-0.650D-05-0.432D-06-0.815D-05 0.321D-03
 Coeff:      0.857D-03 0.113D-02 0.562D-03-0.421D-02-0.163D-01-0.103D-01
 Coeff:      0.287D-01 0.292D+00 0.708D+00
 Gap=     0.097 Goal=   None    Shift=    0.000
 Gap=     0.137 Goal=   None    Shift=    0.000
 RMSDP=4.97D-07 MaxDP=5.28D-05 DE=-1.51D-09 OVMax= 6.89D-06

 Cycle  16  Pass 1  IDiag  1:
 RMSU=  2.09D-07    CP:  9.46D-01 -6.06D-04 -7.83D-03  9.08D-04  5.43D-01
                    CP:  8.61D-01  8.27D-01  8.98D-01  6.65D-01  8.62D-01
                    CP:  1.18D+00  8.17D-01  1.00D+00  1.34D+00  8.86D-01
 E= -696.224671489829     Delta-E=       -0.000000000144 Rises=F Damp=F
 DIIS: error= 6.29D-07 at cycle  16 NSaved=  16.
 NSaved=16 IEnMin=16 EnMin= -696.224671489829     IErMin=16 ErrMin= 6.29D-07
 ErrMax= 6.29D-07  0.00D+00 EMaxC= 1.00D-01 BMatC= 3.30D-10 BMatP= 7.29D-10
 IDIUse=1 WtCom= 1.00D+00 WtEn= 0.00D+00
 Coeff-Com:  0.364D-05-0.557D-05-0.254D-05 0.578D-06-0.665D-05 0.816D-04
 Coeff-Com:  0.251D-03 0.536D-03 0.763D-03-0.303D-04-0.658D-02-0.111D-01
 Coeff-Com: -0.242D-01 0.339D-01 0.455D+00 0.551D+00
 Coeff:      0.364D-05-0.557D-05-0.254D-05 0.578D-06-0.665D-05 0.816D-04
 Coeff:      0.251D-03 0.536D-03 0.763D-03-0.303D-04-0.658D-02-0.111D-01
 Coeff:     -0.242D-01 0.339D-01 0.455D+00 0.551D+00
 Gap=     0.097 Goal=   None    Shift=    0.000
 Gap=     0.137 Goal=   None    Shift=    0.000
 RMSDP=1.44D-07 MaxDP=1.28D-05 DE=-1.44D-10 OVMax= 4.06D-06

 Cycle  17  Pass 1  IDiag  1:
 RMSU=  1.02D-07    CP:  9.46D-01 -6.06D-04 -7.83D-03  9.08D-04  5.43D-01
                    CP:  8.61D-01  8.27D-01  8.98D-01  6.64D-01  8.63D-01
                    CP:  1.17D+00  8.19D-01  1.01D+00  1.35D+00  9.24D-01
                    CP:  8.22D-01
 E= -696.224671489902     Delta-E=       -0.000000000073 Rises=F Damp=F
 DIIS: error= 2.06D-07 at cycle  17 NSaved=  17.
 NSaved=17 IEnMin=17 EnMin= -696.224671489902     IErMin=17 ErrMin= 2.06D-07
 ErrMax= 2.06D-07  0.00D+00 EMaxC= 1.00D-01 BMatC= 4.01D-11 BMatP= 3.30D-10
 IDIUse=1 WtCom= 1.00D+00 WtEn= 0.00D+00
 Coeff-Com:  0.150D-05-0.224D-05 0.328D-06 0.184D-06-0.245D-05 0.202D-05
 Coeff-Com:  0.352D-04 0.138D-03 0.325D-03 0.609D-03-0.135D-02-0.424D-02
 Coeff-Com: -0.183D-01-0.259D-01 0.160D+00 0.312D+00 0.576D+00
 Coeff:      0.150D-05-0.224D-05 0.328D-06 0.184D-06-0.245D-05 0.202D-05
 Coeff:      0.352D-04 0.138D-03 0.325D-03 0.609D-03-0.135D-02-0.424D-02
 Coeff:     -0.183D-01-0.259D-01 0.160D+00 0.312D+00 0.576D+00
 Gap=     0.097 Goal=   None    Shift=    0.000
 Gap=     0.137 Goal=   None    Shift=    0.000
 RMSDP=1.07D-07 MaxDP=9.92D-06 DE=-7.30D-11 OVMax= 1.43D-06

 Cycle  18  Pass 1  IDiag  1:
 RMSU=  4.54D-08    CP:  9.46D-01 -6.06D-04 -7.83D-03  9.08D-04  5.43D-01
                    CP:  8.61D-01  8.27D-01  8.98D-01  6.65D-01  8.62D-01
                    CP:  1.17D+00  8.18D-01  1.01D+00  1.36D+00  9.40D-01
                    CP:  8.51D-01  8.65D-01
 E= -696.224671489933     Delta-E=       -0.000000000031 Rises=F Damp=F
 DIIS: error= 6.28D-08 at cycle  18 NSaved=  18.
 NSaved=18 IEnMin=18 EnMin= -696.224671489933     IErMin=18 ErrMin= 6.28D-08
 ErrMax= 6.28D-08  0.00D+00 EMaxC= 1.00D-01 BMatC= 4.55D-12 BMatP= 4.01D-11
 IDIUse=1 WtCom= 1.00D+00 WtEn= 0.00D+00
 Coeff-Com:  0.168D-06-0.336D-06 0.944D-06-0.291D-07-0.664D-09-0.101D-04
 Coeff-Com: -0.102D-04-0.148D-04 0.357D-04 0.266D-03 0.270D-03-0.927D-04
 Coeff-Com: -0.512D-02-0.181D-01 0.714D-02 0.607D-01 0.284D+00 0.671D+00
 Coeff:      0.168D-06-0.336D-06 0.944D-06-0.291D-07-0.664D-09-0.101D-04
 Coeff:     -0.102D-04-0.148D-04 0.357D-04 0.266D-03 0.270D-03-0.927D-04
 Coeff:     -0.512D-02-0.181D-01 0.714D-02 0.607D-01 0.284D+00 0.671D+00
 Gap=     0.097 Goal=   None    Shift=    0.000
 Gap=     0.137 Goal=   None    Shift=    0.000
 RMSDP=3.68D-08 MaxDP=3.99D-06 DE=-3.12D-11 OVMax= 5.41D-07

 Cycle  19  Pass 1  IDiag  1:
 RMSU=  1.19D-08    CP:  9.46D-01 -6.06D-04 -7.82D-03  9.08D-04  5.43D-01
                    CP:  8.61D-01  8.27D-01  8.98D-01  6.65D-01  8.62D-01
                    CP:  1.17D+00  8.18D-01  1.00D+00  1.35D+00  9.43D-01
                    CP:  8.47D-01  9.40D-01  1.11D+00
 E= -696.224671489908     Delta-E=        0.000000000025 Rises=F Damp=F
 DIIS: error= 1.29D-08 at cycle  19 NSaved=  19.
 NSaved=19 IEnMin=18 EnMin= -696.224671489933     IErMin=19 ErrMin= 1.29D-08
 ErrMax= 1.29D-08  0.00D+00 EMaxC= 1.00D-01 BMatC= 2.90D-13 BMatP= 4.55D-12
 IDIUse=1 WtCom= 1.00D+00 WtEn= 0.00D+00
 Coeff-Com: -0.108D-06 0.343D-07 0.223D-06 0.260D-08 0.965D-07-0.347D-05
 Coeff-Com: -0.497D-05-0.171D-04-0.144D-04 0.315D-04 0.179D-03 0.484D-03
 Coeff-Com:  0.967D-04-0.308D-02-0.135D-01-0.140D-01 0.284D-01 0.220D+00
 Coeff-Com:  0.781D+00
 Coeff:     -0.108D-06 0.343D-07 0.223D-06 0.260D-08 0.965D-07-0.347D-05
 Coeff:     -0.497D-05-0.171D-04-0.144D-04 0.315D-04 0.179D-03 0.484D-03
 Coeff:      0.967D-04-0.308D-02-0.135D-01-0.140D-01 0.284D-01 0.220D+00
 Coeff:      0.781D+00
 Gap=     0.097 Goal=   None    Shift=    0.000
 Gap=     0.137 Goal=   None    Shift=    0.000
 RMSDP=1.29D-08 MaxDP=1.35D-06 DE= 2.46D-11 OVMax= 2.24D-07

 Cycle  20  Pass 1  IDiag  1:
 RMSU=  3.69D-09    CP:  9.46D-01 -6.06D-04 -7.82D-03  9.08D-04  5.43D-01
                    CP:  8.61D-01  8.27D-01  8.98D-01  6.65D-01  8.62D-01
                    CP:  1.17D+00  8.19D-01  1.00D+00  1.35D+00  9.38D-01
                    CP:  8.60D-01  9.65D-01  1.10D+00  9.29D-01
 E= -696.224671489901     Delta-E=        0.000000000008 Rises=F Damp=F
 DIIS: error= 4.57D-09 at cycle  20 NSaved=  20.
 NSaved=20 IEnMin=18 EnMin= -696.224671489933     IErMin=20 ErrMin= 4.57D-09
 ErrMax= 4.57D-09  0.00D+00 EMaxC= 1.00D-01 BMatC= 2.31D-14 BMatP= 2.90D-13
 IDIUse=1 WtCom= 1.00D+00 WtEn= 0.00D+00
 Coeff-Com: -0.342D-07 0.670D-07-0.116D-06 0.569D-09-0.297D-07 0.485D-06
 Coeff-Com:  0.496D-06-0.977D-06-0.233D-05-0.166D-04-0.175D-04 0.105D-03
 Coeff-Com:  0.368D-03 0.120D-02-0.227D-02-0.784D-02-0.223D-01-0.295D-01
 Coeff-Com:  0.130D+00 0.931D+00
 Coeff:     -0.342D-07 0.670D-07-0.116D-06 0.569D-09-0.297D-07 0.485D-06
 Coeff:      0.496D-06-0.977D-06-0.233D-05-0.166D-04-0.175D-04 0.105D-03
 Coeff:      0.368D-03 0.120D-02-0.227D-02-0.784D-02-0.223D-01-0.295D-01
 Coeff:      0.130D+00 0.931D+00
 Gap=     0.097 Goal=   None    Shift=    0.000
 Gap=     0.137 Goal=   None    Shift=    0.000
 RMSDP=3.17D-09 MaxDP=3.01D-07 DE= 7.50D-12 OVMax= 1.22D-07

 SCF Done:  E(UB3LYP) =  -696.224671490     A.U. after   20 cycles
            NFock= 20  Conv=0.32D-08     -V/T= 2.0045
 <Sx>= 0.0000 <Sy>= 0.0000 <Sz>= 0.5000 <S**2>= 0.7594 S= 0.5047
 <L.S>=  0.00000000000    
 KE= 6.930841421469D+02 PE=-3.940925964294D+03 EE= 1.400201578992D+03
 Annihilation of the first spin contaminant:
 S**2 before annihilation     0.7594,   after     0.7500
 Leave Link  502 at Sat Jan  6 05:50:38 2024, MaxMem=  4026531840 cpu:            4394.2 elap:             805.9
 (Enter /sysapps/ubuntu-applications/gaussian/Gaussian/AVX2/g16/l601.exe)
 Copying SCF densities to generalized density rwf, IOpCl= 1 IROHF=0.

 **********************************************************************

            Population analysis using the SCF density.

 **********************************************************************

 Alpha  occ. eigenvalues --  -18.93171 -18.93170 -10.07669 -10.07668 -10.04441
 Alpha  occ. eigenvalues --  -10.04438 -10.04407 -10.04405 -10.03882 -10.03881
 Alpha  occ. eigenvalues --  -10.03677 -10.03622 -10.03249 -10.03249 -10.03100
 Alpha  occ. eigenvalues --  -10.03037  -0.85647  -0.85362  -0.69956  -0.67915
 Alpha  occ. eigenvalues --   -0.66398  -0.61708  -0.59515  -0.57165  -0.56564
 Alpha  occ. eigenvalues --   -0.53681  -0.53084  -0.47256  -0.45902  -0.40892
 Alpha  occ. eigenvalues --   -0.39289  -0.36744  -0.33691  -0.32140  -0.32102
 Alpha  occ. eigenvalues --   -0.31514  -0.30940  -0.29520  -0.29388  -0.29109
 Alpha  occ. eigenvalues --   -0.27688  -0.27285  -0.26789  -0.26750  -0.26032
 Alpha  occ. eigenvalues --   -0.25912  -0.24638  -0.23970  -0.23221  -0.22812
 Alpha  occ. eigenvalues --   -0.22177  -0.22017  -0.21086  -0.20153  -0.18749
 Alpha  occ. eigenvalues --   -0.18534  -0.13068  -0.10437  -0.10213  -0.08795
 Alpha  occ. eigenvalues --   -0.01629
 Alpha virt. eigenvalues --    0.08062   0.08993   0.09373   0.09933   0.11173
 Alpha virt. eigenvalues --    0.11189   0.11712   0.11962   0.12048   0.13188
 Alpha virt. eigenvalues --    0.13566   0.13758   0.13829   0.14557   0.14669
 Alpha virt. eigenvalues --    0.15075   0.15497   0.16240   0.16643   0.16645
 Alpha virt. eigenvalues --    0.17325   0.17392   0.17936   0.18606   0.19347
 Alpha virt. eigenvalues --    0.19968   0.20152   0.20464   0.21229   0.21544
 Alpha virt. eigenvalues --    0.22003   0.22118   0.22243   0.22353   0.22775
 Alpha virt. eigenvalues --    0.23051   0.23283   0.23343   0.23626   0.23704
 Alpha virt. eigenvalues --    0.24219   0.24850   0.24855   0.25303   0.25611
 Alpha virt. eigenvalues --    0.25667   0.25759   0.26083   0.26680   0.27293
 Alpha virt. eigenvalues --    0.27423   0.27631   0.27773   0.28104   0.28476
 Alpha virt. eigenvalues --    0.28650   0.28778   0.29431   0.29890   0.29940
 Alpha virt. eigenvalues --    0.30941   0.31149   0.31277   0.31343   0.31934
 Alpha virt. eigenvalues --    0.32230   0.32613   0.33182   0.34586   0.34990
 Alpha virt. eigenvalues --    0.35068   0.35073   0.35318   0.36075   0.36801
 Alpha virt. eigenvalues --    0.36877   0.37026   0.37294   0.38308   0.38336
 Alpha virt. eigenvalues --    0.38833   0.39123   0.39811   0.39956   0.40767
 Alpha virt. eigenvalues --    0.41601   0.41699   0.42725   0.42767   0.43171
 Alpha virt. eigenvalues --    0.43816   0.44130   0.44194   0.45695   0.45864
 Alpha virt. eigenvalues --    0.46035   0.46533   0.46701   0.47188   0.47558
 Alpha virt. eigenvalues --    0.48159   0.48194   0.48540   0.48958   0.49275
 Alpha virt. eigenvalues --    0.49597   0.50320   0.52593   0.53376   0.54208
 Alpha virt. eigenvalues --    0.54234   0.54948   0.56649   0.56998   0.58012
 Alpha virt. eigenvalues --    0.58200   0.59273   0.60470   0.60671   0.61589
 Alpha virt. eigenvalues --    0.61629   0.62267   0.62878   0.64312   0.64493
 Alpha virt. eigenvalues --    0.66205   0.66671   0.68537   0.69725   0.69827
 Alpha virt. eigenvalues --    0.70692   0.70734   0.71225   0.72183   0.72265
 Alpha virt. eigenvalues --    0.73031   0.73603   0.75522   0.75599   0.76352
 Alpha virt. eigenvalues --    0.76614   0.78452   0.79324   0.79571   0.79798
 Alpha virt. eigenvalues --    0.79907   0.80277   0.80510   0.81272   0.81871
 Alpha virt. eigenvalues --    0.82110   0.82450   0.83208   0.83537   0.84378
 Alpha virt. eigenvalues --    0.85132   0.85331   0.85845   0.86536   0.87612
 Alpha virt. eigenvalues --    0.88943   0.89257   0.89487   0.90183   0.90444
 Alpha virt. eigenvalues --    0.90557   0.91927   0.92066   0.92248   0.92597
 Alpha virt. eigenvalues --    0.94976   0.95922   0.98352   0.98853   0.99598
 Alpha virt. eigenvalues --    1.03940   1.04968   1.05126   1.06822   1.07665
 Alpha virt. eigenvalues --    1.08287   1.08739   1.10699   1.11266   1.12309
 Alpha virt. eigenvalues --    1.14870   1.15705   1.16655   1.17081   1.18083
 Alpha virt. eigenvalues --    1.20191   1.21657   1.22768   1.22985   1.26920
 Alpha virt. eigenvalues --    1.27369   1.29438   1.29967   1.31007   1.34952
 Alpha virt. eigenvalues --    1.35048   1.36006   1.38307   1.38498   1.39248
 Alpha virt. eigenvalues --    1.40824   1.41291   1.43615   1.43999   1.45938
 Alpha virt. eigenvalues --    1.47684   1.48890   1.51009   1.51037   1.52971
 Alpha virt. eigenvalues --    1.54106   1.56900   1.58709   1.58868   1.58956
 Alpha virt. eigenvalues --    1.60057   1.60480   1.61064   1.62550   1.63068
 Alpha virt. eigenvalues --    1.63875   1.64151   1.65557   1.68249   1.68477
 Alpha virt. eigenvalues --    1.69934   1.70046   1.70615   1.71348   1.72289
 Alpha virt. eigenvalues --    1.72447   1.72502   1.73013   1.73562   1.75721
 Alpha virt. eigenvalues --    1.75901   1.77372   1.77735   1.78202   1.78425
 Alpha virt. eigenvalues --    1.80252   1.80859   1.81934   1.82402   1.82459
 Alpha virt. eigenvalues --    1.83047   1.85079   1.85225   1.85566   1.87412
 Alpha virt. eigenvalues --    1.88703   1.90061   1.90578   1.91564   1.92419
 Alpha virt. eigenvalues --    1.95195   1.96890   1.96987   1.97889   1.98238
 Alpha virt. eigenvalues --    1.98444   1.99287   2.00292   2.02288   2.02337
 Alpha virt. eigenvalues --    2.02869   2.04178   2.05655   2.06178   2.06921
 Alpha virt. eigenvalues --    2.09165   2.11679   2.14946   2.15733   2.17608
 Alpha virt. eigenvalues --    2.20066   2.21759   2.22067   2.24491   2.25857
 Alpha virt. eigenvalues --    2.26235   2.28644   2.29032   2.29850   2.30684
 Alpha virt. eigenvalues --    2.32746   2.33350   2.34610   2.37704   2.38494
 Alpha virt. eigenvalues --    2.38618   2.42852   2.44425   2.45874   2.46871
 Alpha virt. eigenvalues --    2.49008   2.49056   2.50563   2.51793   2.52290
 Alpha virt. eigenvalues --    2.56763   2.56836   2.58246   2.59534   2.62298
 Alpha virt. eigenvalues --    2.62366   2.63350   2.64392   2.64910   2.65306
 Alpha virt. eigenvalues --    2.65843   2.67000   2.67212   2.67499   2.69475
 Alpha virt. eigenvalues --    2.69686   2.69906   2.70358   2.71894   2.72604
 Alpha virt. eigenvalues --    2.74644   2.75861   2.76054   2.77644   2.78564
 Alpha virt. eigenvalues --    2.79023   2.80772   2.82362   2.82941   2.84861
 Alpha virt. eigenvalues --    2.86606   2.87416   2.87572   2.88598   2.90305
 Alpha virt. eigenvalues --    2.91794   2.96175   2.96608   2.97889   2.98114
 Alpha virt. eigenvalues --    3.00815   3.02403   3.03073   3.03818   3.04225
 Alpha virt. eigenvalues --    3.06868   3.08966   3.09047   3.10415   3.12042
 Alpha virt. eigenvalues --    3.13542   3.14984   3.17833   3.19257   3.19804
 Alpha virt. eigenvalues --    3.21608   3.27541   3.28857   3.30548   3.32693
 Alpha virt. eigenvalues --    3.33670   3.34234   3.39452   3.40872   3.41715
 Alpha virt. eigenvalues --    3.46843   3.48158   3.49083   3.49490   3.56565
 Alpha virt. eigenvalues --    3.59659   3.64791   3.68772   3.73025   3.76933
 Alpha virt. eigenvalues --    3.87379   3.89762   3.90084   3.91258   3.91548
 Alpha virt. eigenvalues --    3.92483   3.94704   3.95492   3.96268   3.96717
 Alpha virt. eigenvalues --    3.97477   3.99666   3.99967   4.04010   4.08983
 Alpha virt. eigenvalues --    4.22006   4.28792   4.38378   4.39877   4.41754
 Alpha virt. eigenvalues --    4.42028   4.51509   4.51575   4.59345   4.98706
 Alpha virt. eigenvalues --    5.24820   5.26887   5.46598   5.48931   5.90229
 Alpha virt. eigenvalues --    5.98664  23.73921  23.93324  23.99042  23.99259
 Alpha virt. eigenvalues --   24.04975  24.07199  24.09975  24.10097  24.10213
 Alpha virt. eigenvalues --   24.12403  24.14120  24.14899  24.23020  24.28642
 Alpha virt. eigenvalues --   50.18238  50.22699
  Beta  occ. eigenvalues --  -18.92483 -18.92482 -10.07524 -10.07522 -10.04450
  Beta  occ. eigenvalues --  -10.04447 -10.04404 -10.04403 -10.03872 -10.03871
  Beta  occ. eigenvalues --  -10.03563 -10.03507 -10.03258 -10.03258 -10.02997
  Beta  occ. eigenvalues --  -10.02933  -0.84468  -0.84146  -0.69580  -0.67695
  Beta  occ. eigenvalues --   -0.66336  -0.61467  -0.59285  -0.57146  -0.56547
  Beta  occ. eigenvalues --   -0.53518  -0.52444  -0.46805  -0.45861  -0.40525
  Beta  occ. eigenvalues --   -0.39048  -0.36586  -0.33522  -0.32106  -0.32033
  Beta  occ. eigenvalues --   -0.31429  -0.30527  -0.29429  -0.29195  -0.28904
  Beta  occ. eigenvalues --   -0.27659  -0.27044  -0.26659  -0.26269  -0.25973
  Beta  occ. eigenvalues --   -0.25862  -0.23813  -0.23360  -0.23079  -0.22262
  Beta  occ. eigenvalues --   -0.21566  -0.21459  -0.19991  -0.19566  -0.18360
  Beta  occ. eigenvalues --   -0.18292  -0.09979  -0.09802  -0.09408  -0.08194
  Beta virt. eigenvalues --    0.05479   0.08062   0.08999   0.09373   0.09938
  Beta virt. eigenvalues --    0.11193   0.11265   0.11743   0.11980   0.12070
  Beta virt. eigenvalues --    0.13575   0.13739   0.13839   0.14321   0.14590
  Beta virt. eigenvalues --    0.14679   0.15177   0.15508   0.16304   0.16660
  Beta virt. eigenvalues --    0.16663   0.17408   0.17955   0.18619   0.19234
  Beta virt. eigenvalues --    0.19694   0.19968   0.20169   0.20491   0.21239
  Beta virt. eigenvalues --    0.21561   0.22035   0.22136   0.22250   0.22483
  Beta virt. eigenvalues --    0.22806   0.23101   0.23337   0.23369   0.23644
  Beta virt. eigenvalues --    0.23770   0.24234   0.24874   0.24903   0.25312
  Beta virt. eigenvalues --    0.25633   0.25684   0.25765   0.26144   0.26704
  Beta virt. eigenvalues --    0.27365   0.27438   0.27664   0.28122   0.28229
  Beta virt. eigenvalues --    0.28529   0.28685   0.28984   0.29536   0.29963
  Beta virt. eigenvalues --    0.29994   0.31006   0.31181   0.31318   0.31480
  Beta virt. eigenvalues --    0.32002   0.32261   0.32719   0.33274   0.34610
  Beta virt. eigenvalues --    0.35055   0.35151   0.35183   0.35427   0.36173
  Beta virt. eigenvalues --    0.36886   0.36964   0.37190   0.37335   0.38372
  Beta virt. eigenvalues --    0.38442   0.38955   0.39166   0.39880   0.40082
  Beta virt. eigenvalues --    0.40834   0.41704   0.41849   0.42774   0.42826
  Beta virt. eigenvalues --    0.43289   0.43898   0.44173   0.44268   0.45949
  Beta virt. eigenvalues --    0.45951   0.46168   0.46677   0.46810   0.47458
  Beta virt. eigenvalues --    0.47669   0.48313   0.48352   0.48964   0.49036
  Beta virt. eigenvalues --    0.49356   0.49773   0.50379   0.52714   0.53423
  Beta virt. eigenvalues --    0.54290   0.54312   0.55138   0.56682   0.57191
  Beta virt. eigenvalues --    0.58135   0.58497   0.59292   0.60552   0.60738
  Beta virt. eigenvalues --    0.61679   0.61806   0.62354   0.62988   0.64418
  Beta virt. eigenvalues --    0.64573   0.66248   0.66733   0.68607   0.69796
  Beta virt. eigenvalues --    0.69889   0.70750   0.70862   0.71332   0.72278
  Beta virt. eigenvalues --    0.72587   0.73064   0.73741   0.75615   0.75641
  Beta virt. eigenvalues --    0.76416   0.76647   0.78601   0.79534   0.79668
  Beta virt. eigenvalues --    0.79827   0.80018   0.80343   0.80532   0.81331
  Beta virt. eigenvalues --    0.81984   0.82232   0.82594   0.83407   0.83889
  Beta virt. eigenvalues --    0.84529   0.85178   0.85539   0.85959   0.86645
  Beta virt. eigenvalues --    0.87687   0.89004   0.89341   0.89556   0.90460
  Beta virt. eigenvalues --    0.90565   0.90669   0.91991   0.92161   0.92376
  Beta virt. eigenvalues --    0.92637   0.95070   0.96025   0.98500   0.98964
  Beta virt. eigenvalues --    0.99660   1.04398   1.05033   1.05286   1.06940
  Beta virt. eigenvalues --    1.07849   1.08535   1.08918   1.10822   1.11530
  Beta virt. eigenvalues --    1.12500   1.14939   1.15895   1.16770   1.17373
  Beta virt. eigenvalues --    1.18436   1.20472   1.21862   1.23030   1.23289
  Beta virt. eigenvalues --    1.27071   1.27726   1.30074   1.30200   1.31220
  Beta virt. eigenvalues --    1.35085   1.35351   1.36270   1.38616   1.39234
  Beta virt. eigenvalues --    1.39546   1.41505   1.41821   1.44074   1.44289
  Beta virt. eigenvalues --    1.46066   1.47974   1.49167   1.51151   1.51218
  Beta virt. eigenvalues --    1.53392   1.54263   1.57042   1.58766   1.58997
  Beta virt. eigenvalues --    1.59151   1.60097   1.60551   1.61084   1.62660
  Beta virt. eigenvalues --    1.63137   1.63935   1.64237   1.65672   1.68296
  Beta virt. eigenvalues --    1.68528   1.70005   1.70165   1.70685   1.71408
  Beta virt. eigenvalues --    1.72419   1.72521   1.72638   1.73067   1.73715
  Beta virt. eigenvalues --    1.75764   1.75975   1.77429   1.77806   1.78311
  Beta virt. eigenvalues --    1.78631   1.80350   1.81018   1.81993   1.82455
  Beta virt. eigenvalues --    1.82696   1.83103   1.85168   1.85333   1.85916
  Beta virt. eigenvalues --    1.87560   1.88761   1.90135   1.90827   1.91615
  Beta virt. eigenvalues --    1.92542   1.95269   1.97099   1.97334   1.98060
  Beta virt. eigenvalues --    1.98401   1.98590   1.99428   2.00511   2.02542
  Beta virt. eigenvalues --    2.02704   2.03177   2.04348   2.05807   2.06446
  Beta virt. eigenvalues --    2.07213   2.09252   2.11953   2.15013   2.15987
  Beta virt. eigenvalues --    2.17675   2.20143   2.21809   2.22137   2.24671
  Beta virt. eigenvalues --    2.25966   2.26387   2.28684   2.29087   2.30066
  Beta virt. eigenvalues --    2.30726   2.32837   2.33452   2.34891   2.38116
  Beta virt. eigenvalues --    2.38703   2.38728   2.43126   2.44478   2.46059
  Beta virt. eigenvalues --    2.46959   2.49100   2.49213   2.50607   2.51860
  Beta virt. eigenvalues --    2.52400   2.56825   2.56971   2.58530   2.59586
  Beta virt. eigenvalues --    2.62378   2.62387   2.63428   2.64416   2.64950
  Beta virt. eigenvalues --    2.65335   2.65890   2.67021   2.67298   2.67548
  Beta virt. eigenvalues --    2.69520   2.69744   2.69981   2.70402   2.71971
  Beta virt. eigenvalues --    2.72637   2.74711   2.75885   2.76173   2.77882
  Beta virt. eigenvalues --    2.78681   2.79162   2.80941   2.82655   2.82988
  Beta virt. eigenvalues --    2.84904   2.86716   2.87504   2.87944   2.88627
  Beta virt. eigenvalues --    2.90384   2.91905   2.96473   2.96880   2.98200
  Beta virt. eigenvalues --    2.98615   3.01000   3.02919   3.03848   3.04338
  Beta virt. eigenvalues --    3.05434   3.07047   3.09227   3.09883   3.10829
  Beta virt. eigenvalues --    3.12886   3.14322   3.15505   3.18062   3.19829
  Beta virt. eigenvalues --    3.20583   3.21933   3.27595   3.29345   3.30865
  Beta virt. eigenvalues --    3.32883   3.33755   3.34610   3.39571   3.41225
  Beta virt. eigenvalues --    3.41874   3.48397   3.48544   3.49264   3.51206
  Beta virt. eigenvalues --    3.56655   3.59803   3.65056   3.69350   3.73209
  Beta virt. eigenvalues --    3.77144   3.87406   3.89811   3.90094   3.91270
  Beta virt. eigenvalues --    3.91584   3.92495   3.94739   3.95953   3.96279
  Beta virt. eigenvalues --    3.96726   3.97644   3.99688   4.00063   4.04046
  Beta virt. eigenvalues --    4.09201   4.22050   4.28910   4.38667   4.40163
  Beta virt. eigenvalues --    4.41842   4.42093   4.51768   4.51811   4.59508
  Beta virt. eigenvalues --    4.99203   5.27646   5.29709   5.47167   5.49499
  Beta virt. eigenvalues --    5.90806   5.99231  23.74051  23.93438  23.99045
  Beta virt. eigenvalues --   23.99318  24.05084  24.07355  24.09991  24.10105
  Beta virt. eigenvalues --   24.10229  24.12421  24.14129  24.14906  24.23139
  Beta virt. eigenvalues --   24.28747  50.18928  50.23390
          Condensed to atoms (all electrons):
               1          2          3          4          5          6
     1  C   17.709213  -7.180033  -2.925909   5.657398  -2.855407  -5.399752
     2  C   -7.180033  21.712088   7.621681  -2.911820  -2.177259  -4.895368
     3  C   -2.925909   7.621681  21.731811  -7.185273  -4.874301  -2.182344
[...]
 .01345514,-0.01587857,0.00856404,-0.06659413,0.07728932,-0.09927514,0.
 00046809,-0.00019583,0.00118678,0.00001915,-0.00001235,0.00001754,-0.0
 0000733,0.00023949,0.00005214,-0.00015831,0.00000002,-0.00015527,0.000
 07803,-0.00004544,0.00033834,-0.00001640,-0.00001909,-0.00004483,-0.00
 000755,0.00003471,0.00004445,-0.00000961,-0.00001909,-0.00001322,-0.00
 045346,0.00050199,0.00128643,0.07287357,-0.08351677,0.10767089,0.00000
 442,0.00079594,0.00010866,0.00054774,0.00027299,0.00006890,0.00004409,
 -0.00003666,0.00002120,0.00004519,0.00013090,-0.00001357,-0.00007232,-
 0.00010337,0.00003837,-0.00000592,0.00007905,-0.00004999,0.00000398,-0
 .00001985,0.00000664,-0.00000924,0.00000491,-0.00000328,0.00021383,-0.
 00030493,-0.00007283,0.00001592,-0.00017902,0.00007369,0.00002662,-0.0
 0000813,-0.00000336,0.00002772,0.00000320,0.00001965,-0.00002508,0.000
 00149,-0.00000419,-0.00001206,-0.00001040,0.00000069,0.00002500,0.0000
 0409,0.00001516,0.00002017,-0.00000805,-0.00000437,-0.00001685,-0.0000
 3912,0.00011756,-0.00022165,-0.00010031,-0.00032735,-0.00000414,-0.000
 00836,0.00001904,0.00982206,0.00750824,0.00741648,-0.17990977,-0.09410
 486,-0.09462080,-0.00072078,0.00163573,0.00192243,0.00004221,-0.000023
 11,-0.00004081,0.00003816,-0.00011369,0.00006260,0.00016220,0.00000661
 ,0.00023042,-0.00004975,0.00002218,-0.00001276,-0.00001756,-0.00000641
 ,-0.00000782,0.00001421,-0.00000286,-0.00000050,-0.00001540,-0.0000032
 3,0.00000253,0.00073416,-0.00020899,-0.00046953,-0.01306056,-0.0086791
 5,-0.00802147,0.19414543,0.00022258,-0.00052160,0.00008308,-0.00092579
 ,0.00055245,-0.00002688,-0.00004515,-0.00031842,0.00030920,-0.00009860
 ,-0.00023792,-0.00003409,0.00007565,0.00005983,-0.00001467,0.00014134,
 -0.00008973,-0.00001933,0.00001948,0.00000094,-0.00002025,0.00000813,-
 0.00000219,0.00001601,0.00003987,0.00046239,0.00039500,0.00012300,0.00
 017945,-0.00003255,-0.00001538,0.00000905,0.00000946,0.00000398,-0.000
 00444,-0.00000487,0.00000801,-0.00000524,-0.00000138,-0.00000010,0.000
 00614,-0.00000465,-0.00000146,0.00000132,-0.00000663,-0.00002327,0.000
 01232,0.00000826,-0.00009707,-0.00003063,0.00017375,-0.00034827,-0.000
 08770,-0.00035707,0.00002806,0.00005245,-0.00011489,-0.01344788,-0.010
 48403,-0.01006798,-0.09259217,-0.11029057,-0.06285719,0.00300625,-0.00
 188742,-0.00209168,0.00000356,0.00000648,-0.00003585,0.00009822,-0.000
 16880,0.00010190,0.00030805,-0.00007744,0.00022083,-0.00006047,0.00004
 068,0.00000841,0.00002834,0.00001863,0.00004375,0.00000346,-0.00003570
 ,-0.00001466,0.00002602,0.00003583,0.00004949,-0.00032362,0.00073912,0
 .00062324,0.01619352,0.01184934,0.01107407,0.10033511,0.11870851,-0.00
 004878,-0.00163925,0.00067237,-0.00057759,0.00106791,0.00041003,0.0001
 3161,-0.00015921,0.00020692,-0.00020594,-0.00019412,-0.00004920,0.0000
 7634,0.00005028,-0.00003325,0.00008850,0.00008533,-0.00020515,0.000024
 70,-0.00001001,0.00001113,-0.00000079,0.00002040,0.00001673,-0.0004189
 2,0.00164331,0.00040767,0.00009956,0.00019972,-0.00006277,-0.00001111,
 0.00001623,0.00000140,-0.00000347,0.00000550,-0.00000736,0.00003378,-0
 .00000317,-0.00000196,0.00000083,0.00001001,-0.00000316,-0.00000908,-0
 .00000014,-0.00000501,-0.00001802,0.00000985,0.00000085,-0.00002588,0.
 00007587,-0.00006709,0.00023931,0.00022345,0.00028335,-0.00002121,0.00
 004479,-0.00013895,-0.01557246,-0.01062789,-0.01268793,-0.09208793,-0.
 06271171,-0.10952434,0.00338252,-0.00293333,-0.00273570,-0.00005541,0.
 00003008,0.00005078,-0.00002412,0.00010995,-0.00008330,-0.00014809,0.0
 0002060,-0.00027030,0.00005110,-0.00005599,0.00004647,0.00001603,-0.00
 001342,0.00005172,0.00000011,-0.00001557,0.00001134,0.00005531,0.00003
 494,0.00006610,-0.00095864,0.00021882,0.00036174,-0.01025649,-0.007206
 31,-0.00807273,0.10110641,0.07236469,0.11981580,-0.00036459,-0.0011921
 0,0.00027538,0.00104391,-0.00116667,0.00011152,-0.00028123,0.00008733,
 -0.00025266,-0.00010963,-0.00005319,0.00001276,0.00008948,0.00005867,-
 0.00001897,-0.00000756,-0.00003230,-0.00000351,-0.00000860,0.00001713,
 0.00000994,0.00000624,0.00001257,0.00000101,-0.00044951,0.00103107,-0.
 00028837,0.00011159,0.00020784,-0.00010437,-0.00000988,0.00000926,0.00
 000073,-0.00000977,0.00000357,-0.00001210,0.00003183,0.00000074,0.0000
 0020,-0.00000140,0.00001082,-0.00000236,-0.00001537,-0.00000062,-0.000
 00855,-0.00000790,0.00000552,-0.00000202,-0.00016543,0.00017874,0.0000
 4348,-0.00016561,-0.00103794,0.00069674,0.00014199,-0.00004619,0.00000
 782,-0.00880803,-0.00751427,0.00899008,-0.12663661,-0.07440571,0.09233
 180,0.00049408,0.00033667,-0.00097415,-0.00004797,0.00002093,-0.000009
 33,-0.00001196,-0.00051080,-0.00009180,0.00028135,-0.00094776,0.000255
 66,-0.00011759,0.00003270,-0.00067851,0.00001810,0.00004685,0.00001669
 ,0.00000355,-0.00003593,-0.00007062,-0.00001128,-0.00001492,-0.0000346
 3,-0.00020986,0.00250004,0.00228655,0.01179998,0.01032070,-0.01322980,
 -0.01230820,-0.01180808,0.01584359,0.13513767,0.00014491,0.00021382,0.
 00008258,-0.00093659,0.00168673,-0.00024691,-0.00012721,-0.00005115,0.
 00011462,0.00008747,-0.00005576,-0.00002135,-0.00003339,-0.00002206,-0
 .00000991,-0.00002725,0.00003881,-0.00008169,0.00001009,-0.00000636,-0
 .00000394,-0.00000660,-0.00000894,0.00000801,0.00012912,0.00012334,0.0
 0045428,-0.00008164,0.00003372,-0.00000504,-0.00000699,0.00000075,0.00
 000307,-0.00001025,-0.00000174,-0.00000572,0.00000155,-0.00000668,0.00
 000100,0.00001007,0.00000505,0.00000185,-0.00001198,-0.00000249,-0.000
 00574,-0.00000992,0.00000403,0.00000238,0.00027592,-0.00003785,-0.0001
 1856,-0.00045320,-0.00249658,0.00018701,-0.00011408,-0.00000976,0.0000
 0008,0.01189638,0.01126339,-0.01345216,-0.07614788,-0.11686329,0.09037
 892,0.00017448,0.00113927,0.00097988,-0.00001433,0.00003785,0.00003947
 ,-0.00008260,-0.00012436,0.00005736,-0.00053465,-0.00197029,0.00016977
 ,-0.00017206,-0.00068838,0.00025397,0.00001550,0.00000429,-0.00001637,
 -0.00000411,0.00003836,0.00003977,0.00001309,-0.00001519,0.00000853,0.
 00187835,-0.00185191,-0.00363614,-0.01176766,-0.01153516,0.01248492,-0
 .00716816,-0.00866330,0.01024765,0.08351808,0.12991013,0.00021590,0.00
 037515,0.00004057,-0.00176820,0.00034121,0.00057995,0.00060949,0.00001
 359,0.00021510,-0.00002149,0.00003631,-0.00012089,-0.00006234,-0.00008
 037,0.00003357,-0.00001362,0.00005159,-0.00006790,0.00000820,-0.000026
 81,-0.00000635,-0.00001162,0.00000006,0.00000045,0.00024177,-0.0000806
 5,0.00066280,-0.00010000,-0.00025019,0.00013312,0.00001542,-0.00000431
 ,-0.00000248,0.00001158,-0.00000046,0.00001465,-0.00001856,0.00000056,
 -0.00000762,0.00000162,-0.00000882,0.00000569,0.00001483,-0.00000274,0
 .00001288,0.00001475,-0.00000667,-0.00000349,0.00009280,0.00004829,-0.
 00046011,0.00103549,0.00101632,0.00090338,-0.00007527,-0.00000341,0.00
 001244,0.01264699,0.01210972,-0.01549986,0.09330322,0.08874953,-0.1574
 7430,0.00047055,0.00116100,0.00103967,-0.00005712,0.00001206,0.0001256
 7,-0.00017111,0.00058433,-0.00020141,-0.00075231,-0.00002520,-0.000681
 88,0.00017004,0.00046965,0.00009387,-0.00002966,-0.00006495,-0.0000183
 7,-0.00001711,0.00004140,0.00004486,0.00003130,0.00000191,-0.00000013,
 0.00121985,-0.00413418,-0.00271603,0.00780413,0.00747585,-0.01001756,-
 0.00848326,-0.00878111,0.01203972,-0.10546033,-0.09827398,0.17123256,-
 0.00037986,0.00172709,-0.00099909,-0.00124201,-0.00303908,-0.00285883,
 -0.00054403,-0.00056441,0.00015694,0.00012630,-0.00011904,0.00035026,0
 .00005461,0.00015831,-0.00009102,-0.00010666,-0.00032891,0.00035323,-0
 .00003914,0.00008936,-0.00002646,0.00001794,-0.00003067,-0.00000682,0.
 00010568,-0.00093892,0.00034130,-0.00001697,0.00032634,-0.00016856,-0.
 00006473,0.00000295,0.00001402,-0.00005138,-0.00001473,-0.00002221,0.0
 0001713,-0.00002458,0.00001078,0.00001078,0.00001781,-0.00000817,-0.00
 004326,0.00000387,-0.00003353,-0.00005073,0.00002059,0.00001601,-0.000
 26255,-0.00007616,-0.00018140,-0.00012516,0.00021891,0.00018241,0.0002
 0456,-0.00022964,-0.00017662,-0.01361189,0.01601706,-0.01123099,0.0004
 6635,0.00068748,0.00086137,-0.10059819,0.08706478,-0.05334141,0.000028
 71,0.00004005,-0.00002744,0.00009359,-0.00007181,0.00004542,0.00020462
 ,-0.00018000,-0.00006998,0.00000980,-0.00004944,0.00010156,0.00004037,
 0.00002993,0.00002185,0.00003438,-0.00013760,0.00006794,-0.00006811,0.
 00005662,0.00025286,0.00023024,0.00045192,0.00054843,0.00055149,-0.000
 50443,-0.00012579,0.00002422,-0.00014908,0.00030754,0.00004824,-0.0000
 5666,0.00004233,0.11096549,-0.00035875,0.00006441,0.00017658,-0.001081
 12,-0.00015922,-0.00153420,-0.00042904,0.00015947,-0.00005497,0.000008
 35,0.00012905,0.00009477,0.00000649,-0.00001932,-0.00001482,-0.0000314
 3,0.00000212,0.00003324,-0.00001364,-0.00002097,-0.00000913,0.00000250
 ,0.00000901,-0.00000540,0.00025412,0.00015497,-0.00010898,0.00011560,-
 0.00002263,0.00001791,0.00002437,-0.00000421,-0.00000810,0.00001656,0.
 00000336,0.00001526,-0.00001739,0.00001260,-0.00000673,-0.00001496,-0.
 00000819,0.00000013,0.00001719,0.00000688,0.00001395,0.00001613,-0.000
 00583,-0.00000823,-0.00009529,-0.00003247,-0.00028816,-0.00020228,0.00
 023287,0.00004368,-0.00028885,-0.00002978,-0.00079886,-0.00709903,0.00
 825828,-0.00767939,-0.00038878,0.00063233,-0.00003862,0.08769989,-0.18
 343501,0.08804861,-0.00003913,0.00005738,0.00005127,0.00002929,-0.0001
 2022,0.00010095,0.00025746,-0.00023645,0.00001387,0.00002965,-0.000011
 33,0.00014978,0.00003539,-0.00020378,0.00026012,0.00006355,-0.00016584
 ,0.00013192,0.00031868,-0.00015605,0.00068256,0.00031305,0.00131756,-0
 .00004314,-0.00004443,0.00020486,0.00009295,-0.00012292,0.00030702,0.0
 0017252,0.00004758,-0.00013149,0.00000670,-0.09516986,0.20072244,-0.00
 042037,0.00149718,-0.00083689,-0.00169528,-0.00322520,-0.00118991,-0.0
 0006524,-0.00011955,0.00027863,0.00001751,-0.00007893,0.00017788,0.000
 05054,0.00008182,-0.00007026,-0.00022361,-0.00028944,0.00027025,-0.000
 04398,0.00008724,-0.00002941,0.00001032,-0.00001560,-0.00000689,0.0001
 0963,-0.00063800,0.00011609,-0.00005769,0.00021857,-0.00009943,-0.0000
 5374,-0.00000174,0.00000988,-0.00004383,-0.00001108,-0.00001874,0.0000
 2062,-0.00002054,0.00001237,0.00000959,0.00001381,-0.00000644,-0.00002
 968,0.00000021,-0.00002037,-0.00003480,0.00001167,0.00001148,0.0001524
 4,-0.00031096,0.00002394,0.00022521,-0.00001233,-0.00013962,-0.0001826
 6,-0.00009817,0.00014872,-0.01115137,0.01551515,-0.01114894,-0.0002122
 1,0.00156765,0.00029886,-0.05343605,0.08742621,-0.10198127,0.00002830,
 0.00004354,-0.00000297,0.00003589,0.00008606,-0.00016088,-0.00026402,0
 .00019135,0.00005479,-0.00006022,0.00005013,-0.00012874,0.00004292,0.0
 0000839,0.00006847,-0.00002133,0.00007062,-0.00008201,0.00013017,0.000
 06801,-0.00010734,0.00065405,-0.00015045,0.00127806,0.00048602,-0.0009
 2670,-0.00007373,0.00020605,-0.00019063,0.00042009,0.00002122,-0.00003
 339,-0.00001181,0.06363827,-0.09588670,0.10897523,-0.00034854,-0.00093
 596,0.00036216,0.00130913,-0.00044454,0.00046783,-0.00084511,-0.000145
 88,-0.00001973,0.00003411,-0.00017806,0.00006414,0.00012279,0.00002758
 ,0.00000162,-0.00004744,-0.00001580,-0.00000073,-0.00002590,0.00002886
 ,-0.00001281,0.00001688,0.00001989,-0.00000457,-0.00115369,0.00074783,
 -0.00068073,0.00025063,0.00043980,-0.00015336,-0.00001561,0.00001701,0
 .00000076,-0.00001316,0.00000636,-0.00001693,0.00004271,0.00001158,0.0
 0000081,-0.00000695,0.00001293,-0.00000865,-0.00000923,0.00000340,-0.0
 0000707,-0.00001145,0.00000583,0.00000210,-0.00050327,0.00026032,-0.00
 029417,-0.00036156,0.00031439,0.00071899,0.00016806,0.00008763,-0.0012
 3349,-0.01447811,-0.01314908,0.01192799,0.00073218,0.00133781,0.000437
 10,-0.16934311,-0.10050376,0.08127001,-0.00003483,0.00012178,0.0000322
 0,0.00009183,-0.00027709,0.00029287,0.00116551,-0.00080184,0.00067600,
 0.00009443,-0.00010589,0.00045530,0.00003534,-0.00012842,0.00021564,0.
 00012183,-0.00037342,0.00026715,0.00016577,0.00031040,0.00099912,-0.00
 116740,-0.00111901,-0.00409476,0.00005634,-0.00006094,-0.00012498,-0.0
 0003094,0.00013045,-0.00009437,0.00055933,-0.00038928,-0.00072649,0.01
 176004,0.00894452,-0.00759917,0.18249227,-0.00018516,-0.00051605,0.000
 16715,0.00080996,0.00025740,-0.00019352,-0.00040257,0.00002820,-0.0001
 1577,0.00007737,-0.00005077,0.00006979,0.00004050,0.00004627,-0.000012
 27,-0.00002944,-0.00001787,0.00002949,-0.00001381,0.00001757,-0.000005
 43,0.00000466,0.00000183,-0.00000226,-0.00070657,0.00029260,-0.0003793
 3,-0.00001812,0.00022695,-0.00012508,-0.00002466,0.00001139,0.00000226
 ,-0.00001938,-0.00000077,-0.00001450,0.00002625,-0.00000116,0.00000165
 ,0.00000735,0.00000962,-0.00000352,-0.00001698,-0.00000221,-0.00001061
 ,-0.00001872,0.00000606,0.00000503,0.00002111,0.00009816,0.00031489,-0
 .00067268,0.00016054,0.00098812,0.00050691,-0.00123408,0.00003394,-0.0
 0810654,-0.00841878,0.00604175,-0.00012737,0.00059404,0.00108826,-0.10
 310176,-0.13137040,0.06823783,0.00004038,-0.00001866,-0.00019416,0.000
 09494,-0.00022829,0.00021259,0.00037996,-0.00007758,0.00109724,0.00009
 314,-0.00008639,0.00017531,-0.00000067,0.00004618,-0.00001374,-0.00002
 385,-0.00005279,0.00000028,0.00075591,-0.00203544,0.00018863,-0.001301
 90,0.00030812,-0.00275449,0.00000897,-0.00020911,0.00007117,0.00014692
 ,0.00012340,-0.00007368,0.00025643,0.00002945,-0.00051468,-0.01630182,
 -0.01409983,0.01149651,0.11484954,0.14509624,-0.00010028,-0.00053483,0
 .00023494,0.00080918,-0.00005635,0.00081218,-0.00001182,0.00012820,-0.
 00016329,-0.00002379,0.00005266,-0.00006841,0.00002905,0.00000251,0.00
 003307,-0.00001617,0.00002967,-0.00001499,-0.00001434,0.00000344,-0.00
 001533,0.00000477,0.00001167,-0.00000871,-0.00082328,0.00029260,-0.000
 24402,0.00006805,-0.00002341,-0.00002468,-0.00000709,0.00000781,-0.000
 00294,-0.00000596,0.00000434,-0.00000151,0.00001594,0.00000552,-0.0000
 0443,-0.00000323,0.00000079,0.00000046,0.00000231,0.00000006,0.0000024
 2,0.00000275,-0.00000023,-0.00000114,-0.00027370,0.00017021,0.00019826
 ,-0.00046203,0.00130363,-0.00223782,0.00011810,0.00042217,0.00092351,-
 0.01389349,-0.01309808,0.01238199,0.00024004,0.00060659,0.00190703,0.0
 8274332,0.06775379,-0.10080655,0.00004100,-0.00016674,-0.00014573,0.00
 008057,-0.00006802,0.00015847,0.00073719,0.00089759,-0.00324812,0.0000
 5426,-0.00019227,0.00003838,-0.00003100,0.00010512,-0.00011982,-0.0000
 9775,0.00013313,-0.00025551,-0.00000768,0.00033981,-0.00043085,-0.0028
 6030,-0.00219869,-0.00236431,0.00004752,-0.00001349,-0.00013153,0.0000
 2374,0.00025046,0.00009350,0.00033152,0.00016146,-0.00017090,0.0097113
 2,0.00777718,-0.00784051,-0.09019694,-0.07726235,0.11202570,0.00018439
 ,-0.00027255,0.00021551,0.00108576,-0.00009050,0.00020955,0.00012321,0
 .00024449,-0.00005008,-0.00000419,0.00017294,-0.00006514,-0.00002374,-
 0.00006970,0.00001689,-0.00002227,0.00009948,-0.00005698,0.00000534,-0
 .00001682,0.00000260,-0.00000436,0.00001149,-0.00000263,0.00003029,0.0
 0006516,0.00000935,-0.00001273,-0.00016894,0.00003723,0.00001687,-0.00
 000294,-0.00000603,0.00001631,0.00000073,0.00001169,-0.00000769,0.0000
 0126,-0.00000530,-0.00000457,-0.00000656,0.00000469,0.00001428,-0.0000
 0143,0.00001115,0.00001839,-0.00000683,-0.00000439,-0.00005910,0.00023
 365,0.00006704,-0.00031494,0.00023845,-0.00007384,0.00043350,-0.000073
 75,0.00044331,0.01041767,-0.01232942,-0.01563106,-0.00278589,-0.001505
 47,-0.00250277,-0.10477659,0.06786348,0.08564841,0.00003061,-0.0001033
 3,-0.00011587,0.00000783,-0.00007277,0.00010447,0.00022653,-0.00015975
 ,-0.00001020,0.00009338,-0.00010979,0.00010180,-0.00006715,0.00014347,
 -0.00019975,-0.00002704,0.00006384,-0.00007651,-0.00019217,0.00006608,
 -0.00018870,0.00080950,0.00040624,0.00066582,0.00001426,-0.00021141,0.
 00017739,0.00052290,-0.00086667,-0.00091896,-0.00001935,0.00000146,-0.
 00018175,-0.00778986,0.00719654,0.00975654,-0.01082289,0.01295168,0.01
 376822,0.11288351,-0.00017872,0.00013731,-0.00003393,0.00052035,0.0005
 2552,0.00089771,-0.00015150,0.00012831,-0.00003944,0.00007886,-0.00002
 137,-0.00008721,-0.00000010,0.00006067,-0.00000235,-0.00000382,-0.0000
 7714,0.00000888,-0.00000280,0.00000590,-0.00002305,0.00000431,-0.00000
 560,0.00000352,-0.00013881,-0.00002223,0.00019992,-0.00005078,0.000045
 45,-0.00001184,-0.00001854,0.00000910,0.00000265,-0.00000990,-0.000006
 37,0.00000421,0.00000606,-0.00001057,-0.00000657,0.00000547,0.00000302
 ,-0.00000024,-0.00000567,-0.00000041,-0.00000381,-0.00001533,0.0000062
 5,0.00000398,-0.00008889,0.00013693,0.00009694,-0.00010630,0.00008835,
 0.00016427,-0.00012688,-0.00019251,0.00029818,0.00666727,-0.00767272,-
 0.00801082,-0.00283957,-0.00070569,-0.00133129,0.06760541,-0.12492038,
 -0.09754225,-0.00000117,-0.00005500,-0.00004543,0.00003270,-0.00001106
 ,0.00005702,0.00013881,-0.00008732,-0.00015324,0.00006389,-0.00009635,
 0.00012280,0.00003678,0.00003113,-0.00002974,0.00000349,0.00003956,-0.
 00005692,-0.00020067,-0.00063247,0.00037305,0.00031377,-0.00018899,0.0
 0032819,-0.00023822,0.00047987,0.00029433,0.00030423,-0.00026024,-0.00
 100812,0.00006324,0.00001374,-0.00023668,0.01107377,-0.01341199,-0.016
 42474,-0.00904894,0.01106614,0.01315405,-0.07369181,0.13560113,-0.0002
 9703,-0.00044269,0.00019518,0.00128351,-0.00034783,0.00114718,-0.00026
 206,0.00055403,-0.00004835,-0.00005223,0.00006910,-0.00005910,0.000025
 57,0.00000670,-0.00001828,-0.00005009,-0.00001589,-0.00003229,-0.00000
 861,-0.00000122,-0.00000942,-0.00000028,0.00001231,-0.00000538,-0.0002
 0796,0.00043448,-0.00014002,0.00001347,0.00007160,0.00002740,-0.000000
 46,0.00000753,-0.00000347,0.00001230,0.00000134,0.00001111,0.00001050,
 0.00000177,-0.00000888,-0.00000472,-0.00000266,-0.00000360,0.00001079,
 0.00000390,0.00000964,-0.00000108,-0.00000318,-0.00000062,0.00019705,-
 0.00021101,-0.00023854,0.00046661,-0.00027662,0.00000735,-0.00056286,0
 .00016936,-0.00055556,0.01027736,-0.01104888,-0.01481008,-0.00466407,-
 0.00155086,-0.00164152,0.08448831,-0.09645108,-0.16610887,-0.00006488,
 0.00009372,0.00015799,-0.00005110,0.00014092,-0.00012749,-0.00038725,0
 .00016798,-0.00009498,-0.00006297,0.00010284,-0.00000883,0.00004406,-0
 .00021416,0.00032703,-0.00000794,0.00003299,0.00002455,0.00064690,0.00
 020667,0.00032663,0.00011334,0.00024319,0.00084842,0.00015481,-0.00002
 634,0.00032206,0.00067568,-0.00105526,-0.00101953,0.00000540,0.0002343
 4,0.00027016,-0.00765553,0.00860148,0.01181145,0.00707719,-0.00854649,
 -0.01050880,-0.09116174,0.10903794,0.17995747\\-0.00000670,-0.00001040
 ,0.00000406,0.00000044,-0.00000510,-0.00000343,0.00000169,0.00000512,-
 0.00000014,0.00000220,0.00000697,-0.00000304,0.00000105,0.00000174,-0.
 00000283,0.00000058,-0.00000636,0.00000163,0.00000349,0.00000354,-0.00
 000377,-0.00000094,0.00000130,0.00000931,0.00000164,0.00001036,-0.0000
 0563,-0.00000247,-0.00000341,0.00000216,-0.00000241,0.00001040,-0.0000
 0270,-0.00000072,0.00000175,-0.00000041,0.00000254,-0.00000395,-0.0000
 0321,0.00000053,-0.00000298,-0.00000101,0.00000100,-0.00000293,-0.0000
 0136,-0.00000038,-0.00000171,-0.00000220,-0.00000116,-0.00000178,0.000
 00080,0.00000266,-0.00000224,0.00000061,0.00000276,0.00000145,0.000004
 21,-0.00000542,0.00000538,0.00000564,0.00000362,-0.00000560,-0.0000061
 8,0.00000294,-0.00000070,-0.00000116,0.00000044,0.00000104,0.00000203,
 -0.00000064,0.00000016,0.00000099,-0.00000042,-0.00000011,-0.00000111,
 0.00000085,0.00000119,0.00000275,-0.00000083,-0.00000118,0.00000113,0.
 00000006,-0.00000143,-0.00000060,-0.00000112,0.00000095,-0.00000040,0.
 00000059,-0.00000127,-0.00000160,-0.00000112,0.00000074,-0.00000044,-0
 .00000026,0.00000187,0.00000213,-0.00000096,0.00000002,0.00000215,-0.0
 0000212,-0.00000062,-0.00000066,-0.00000204,-0.00000108,0.00000316,0.0
 0000066,-0.00000114,-0.00000089\\\@


 THERE IS NO SCIENCE WITHOUT FANCY, NOR ART WITHOUT FACTS.
     -- VLADIMIR NABAKOV
 Job cpu time:       0 days 11 hours 41 minutes  4.0 seconds.
 Elapsed time:       0 days  1 hours 58 minutes 43.0 seconds.
 File lengths (MBytes):  RWF=   1543 Int=      0 D2E=      0 Chk=     27 Scr=      1
 Normal termination of Gaussian 16 at Sat Jan  6 07:51:13 2024.
