 Entering Gaussian System, Link 0=g16
 Input=003.com
 Output=003.log
 Initial command:
 /sysapps/ubuntu-applications/gaussian/Gaussian/AVX2/g16/l1.exe "/scratch/selhajj1/4406280/Gau-847406.inp" -scrdir="/scratch/selhajj1/4406280/"
 Entering Link 1 = /sysapps/ubuntu-applications/gaussian/Gaussian/AVX2/g16/l1.exe PID=    847417.
  
 Copyright (c) 1988,1990,1992,1993,1995,1998,2003,2009,2016,
            Gaussian, Inc.  All Rights Reserved.
  
 This is part of the Gaussian(R) 16 program.  It is based on
 the Gaussian(R) 09 system (copyright 2009, Gaussian, Inc.),
 the Gaussian(R) 03 system (copyright 2003, Gaussian, Inc.),
 the Gaussian(R) 98 system (copyright 1998, Gaussian, Inc.),
 the Gaussian(R) 94 system (copyright 1995, Gaussian, Inc.),
 the Gaussian 92(TM) system (copyright 1992, Gaussian, Inc.),
 the Gaussian 90(TM) system (copyright 1990, Gaussian, Inc.),
 the Gaussian 88(TM) system (copyright 1988, Gaussian, Inc.),
 the Gaussian 86(TM) system (copyright 1986, Carnegie Mellon
 University), and the Gaussian 82(TM) system (copyright 1983,
 Carnegie Mellon University). Gaussian is a federally registered
 trademark of Gaussian, Inc.
  
 This software contains proprietary and confidential information,
 including trade secrets, belonging to Gaussian, Inc.
  
 This software is provided under written license and may be
 used, copied, transmitted, or stored only in accord with that
 written license.
  
 The following legend is applicable only to US Government
 contracts under FAR:
  
                    RESTRICTED RIGHTS LEGEND
  
 Use, reproduction and disclosure by the US Government is
 subject to restrictions as set forth in subparagraphs (a)
 and (c) of the Commercial Computer Software - Restricted
 Rights clause in FAR 52.227-19.
  
 Gaussian, Inc.
 340 Quinnipiac St., Bldg. 40, Wallingford CT 06492
  
  
 ---------------------------------------------------------------
 Warning -- This program may not be used in any manner that
 competes with the business of Gaussian, Inc. or will provide
 assistance to any competitor of Gaussian, Inc.  The licensee
 of this program is prohibited from giving any competitor of
 Gaussian, Inc. access to this program.  By using this program,
 the user acknowledges that Gaussian, Inc. is engaged in the
 business of creating and licensing software in the field of
 computational chemistry and represents and warrants to the
 licensee that it is not a competitor of Gaussian, Inc. and that
 it will not use this program in any manner prohibited above.
 ---------------------------------------------------------------
  

 Cite this work as:
 Gaussian 16, Revision A.03,
 M. J. Frisch, G. W. Trucks, H. B. Schlegel, G. E. Scuseria, 
 M. A. Robb, J. R. Cheeseman, G. Scalmani, V. Barone, 
 G. A. Petersson, H. Nakatsuji, X. Li, M. Caricato, A. V. Marenich, 
 J. Bloino, B. G. Janesko, R. Gomperts, B. Mennucci, H. P. Hratchian, 
 J. V. Ortiz, A. F. Izmaylov, J. L. Sonnenberg, D. Williams-Young, 
 F. Ding, F. Lipparini, F. Egidi, J. Goings, B. Peng, A. Petrone, 
 T. Henderson, D. Ranasinghe, V. G. Zakrzewski, J. Gao, N. Rega, 
 G. Zheng, W. Liang, M. Hada, M. Ehara, K. Toyota, R. Fukuda, 
 J. Hasegawa, M. Ishida, T. Nakajima, Y. Honda, O. Kitao, H. Nakai, 
 T. Vreven, K. Throssell, J. A. Montgomery, Jr., J. E. Peralta, 
 F. Ogliaro, M. J. Bearpark, J. J. Heyd, E. N. Brothers, K. N. Kudin, 
 V. N. Staroverov, T. A. Keith, R. Kobayashi, J. Normand, 
 K. Raghavachari, A. P. Rendell, J. C. Burant, S. S. Iyengar, 
 J. Tomasi, M. Cossi, J. M. Millam, M. Klene, C. Adamo, R. Cammi, 
 J. W. Ochterski, R. L. Martin, K. Morokuma, O. Farkas, 
 J. B. Foresman, and D. J. Fox, Gaussian, Inc., Wallingford CT, 2016.
 
 ******************************************
 Gaussian 16:  ES64L-G16RevA.03 25-Dec-2016
                10-Feb-2024 
 ******************************************
 %chk=003.chk
 %nproc=8
 Will use up to    8 processors via shared memory.
 %mem=30GB
 ----------------------------------------------------------------------
 #P UB3LYP/6-311++G(d,p) nosym opt freq SCRF=(PCM,Solvent=n,n-DiMethylF
 ormamide)
 ----------------------------------------------------------------------
 1/18=20,19=15,26=3,38=1/1,3;
 2/9=110,12=2,15=1,17=6,18=5,40=1/2;
 3/5=4,6=6,7=1111,11=2,25=1,30=1,70=2201,71=1,72=148,74=-5,116=2/1,2,3;
 4//1;
 5/5=2,38=5,53=148/2;
 6/7=2,8=2,9=2,10=2,28=1/1;
 7/30=1/1,2,3,16;
 1/18=20,19=15,26=3/3(2);
 2/9=110,15=1/2;
 99//99;
 2/9=110,15=1/2;
 3/5=4,6=6,7=1111,11=2,25=1,30=1,70=2205,71=1,72=148,74=-5,116=2/1,2,3;
 4/5=5,16=3,69=1/1;
 5/5=2,38=5,53=148/2;
 7/30=1/1,2,3,16;
 1/18=20,19=15,26=3/3(-5);
 2/9=110,15=1/2;
 6/7=2,8=2,9=2,10=2,19=2,28=1/1;
 99/9=1/99;
 Leave Link    1 at Sat Feb 10 10:01:26 2024, MaxMem=  4026531840 cpu:               0.5 elap:               0.1
 (Enter /sysapps/ubuntu-applications/gaussian/Gaussian/AVX2/g16/l101.exe)
 --------
 Oxidized
 --------
 Symbolic Z-matrix:
 Charge =  0 Multiplicity = 1
 Cl                    3.10621  -0.18832   0.03156 
 C                     1.38121  -0.02412   0.01424 
 C                     0.78139   1.17534   0.0121 
 C                    -0.69534   1.29526  -0.0028 
 O                    -1.2373    2.38736  -0.0047 
 C                    -1.48752   0.03936  -0.01528 
 C                    -0.88916  -1.15721  -0.01315 
 C                     0.58879  -1.30243   0.00168 
 O                     1.11816  -2.39337   0.00342 
 H                     1.34044   2.10293   0.02106 
 H                    -2.56543   0.15528  -0.02606 
 H                    -1.44145  -2.09008  -0.02206 
 
 ITRead=  0  0  0  0  0  0  0  0  0  0  0  0
 MicOpt= -1 -1 -1 -1 -1 -1 -1 -1 -1 -1 -1 -1
 NAtoms=     12 NQM=       12 NQMF=       0 NMMI=      0 NMMIF=      0
                NMic=       0 NMicF=      0.
                    Isotopes and Nuclear Properties:
 (Nuclear quadrupole moments (NQMom) in fm**2, nuclear magnetic moments (NMagM)
  in nuclear magnetons)

  Atom         1           2           3           4           5           6           7           8           9          10
 IAtWgt=          35          12          12          12          16          12          12          12          16           1
 AtmWgt=  34.9688527  12.0000000  12.0000000  12.0000000  15.9949146  12.0000000  12.0000000  12.0000000  15.9949146   1.0078250
 NucSpn=           3           0           0           0           0           0           0           0           0           1
 AtZEff=  -0.0000000  -0.0000000  -0.0000000  -0.0000000  -0.0000000  -0.0000000  -0.0000000  -0.0000000  -0.0000000  -0.0000000
 NQMom=   -8.1650000   0.0000000   0.0000000   0.0000000   0.0000000   0.0000000   0.0000000   0.0000000   0.0000000   0.0000000
 NMagM=    0.8218740   0.0000000   0.0000000   0.0000000   0.0000000   0.0000000   0.0000000   0.0000000   0.0000000   2.7928460
 AtZNuc=  17.0000000   6.0000000   6.0000000   6.0000000   8.0000000   6.0000000   6.0000000   6.0000000   8.0000000   1.0000000

  Atom        11          12
 IAtWgt=           1           1
 AtmWgt=   1.0078250   1.0078250
 NucSpn=           1           1
 AtZEff=  -0.0000000  -0.0000000
 NQMom=    0.0000000   0.0000000
 NMagM=    2.7928460   2.7928460
 AtZNuc=   1.0000000   1.0000000
 Leave Link  101 at Sat Feb 10 10:01:26 2024, MaxMem=  4026531840 cpu:               4.6 elap:               0.7
 (Enter /sysapps/ubuntu-applications/gaussian/Gaussian/AVX2/g16/l103.exe)

 GradGradGradGradGradGradGradGradGradGradGradGradGradGradGradGradGradGrad
 Berny optimization.
 Initialization pass.
                           ----------------------------
                           !    Initial Parameters    !
                           ! (Angstroms and Degrees)  !
 --------------------------                            --------------------------
 ! Name  Definition              Value          Derivative Info.                !
 --------------------------------------------------------------------------------
 ! R1    R(1,2)                  1.7329         estimate D2E/DX2                !
 ! R2    R(2,3)                  1.3411         estimate D2E/DX2                !
 ! R3    R(2,8)                  1.5041         estimate D2E/DX2                !
 ! R4    R(3,4)                  1.4817         estimate D2E/DX2                !
 ! R5    R(3,10)                 1.0831         estimate D2E/DX2                !
 ! R6    R(4,5)                  1.2192         estimate D2E/DX2                !
 ! R7    R(4,6)                  1.4849         estimate D2E/DX2                !
 ! R8    R(6,7)                  1.3378         estimate D2E/DX2                !
 ! R9    R(6,11)                 1.0842         estimate D2E/DX2                !
 ! R10   R(7,8)                  1.4851         estimate D2E/DX2                !
 ! R11   R(7,12)                 1.0841         estimate D2E/DX2                !
 ! R12   R(8,9)                  1.2126         estimate D2E/DX2                !
 ! A1    A(1,2,3)              122.0054         estimate D2E/DX2                !
 ! A2    A(1,2,8)              116.3601         estimate D2E/DX2                !
 ! A3    A(3,2,8)              121.6344         estimate D2E/DX2                !
 ! A4    A(2,3,4)              121.2105         estimate D2E/DX2                !
 ! A5    A(2,3,10)             122.3527         estimate D2E/DX2                !
 ! A6    A(4,3,10)             116.4368         estimate D2E/DX2                !
 ! A7    A(3,4,5)              121.0346         estimate D2E/DX2                !
 ! A8    A(3,4,6)              117.6024         estimate D2E/DX2                !
 ! A9    A(5,4,6)              121.363          estimate D2E/DX2                !
 ! A10   A(4,6,7)              121.1875         estimate D2E/DX2                !
 ! A11   A(4,6,11)             116.1067         estimate D2E/DX2                !
 ! A12   A(7,6,11)             122.7058         estimate D2E/DX2                !
 ! A13   A(6,7,8)              122.179          estimate D2E/DX2                !
 ! A14   A(6,7,12)             122.8028         estimate D2E/DX2                !
 ! A15   A(8,7,12)             115.0183         estimate D2E/DX2                !
 ! A16   A(2,8,7)              116.1862         estimate D2E/DX2                !
 ! A17   A(2,8,9)              122.3184         estimate D2E/DX2                !
 ! A18   A(7,8,9)              121.4954         estimate D2E/DX2                !
 ! D1    D(1,2,3,4)           -179.9999         estimate D2E/DX2                !
 ! D2    D(1,2,3,10)             0.0            estimate D2E/DX2                !
 ! D3    D(8,2,3,4)             -0.0001         estimate D2E/DX2                !
 ! D4    D(8,2,3,10)           179.9998         estimate D2E/DX2                !
 ! D5    D(1,2,8,7)           -180.0            estimate D2E/DX2                !
 ! D6    D(1,2,8,9)             -0.002          estimate D2E/DX2                !
 ! D7    D(3,2,8,7)              0.0002         estimate D2E/DX2                !
 ! D8    D(3,2,8,9)            179.9982         estimate D2E/DX2                !
 ! D9    D(2,3,4,5)           -179.9999         estimate D2E/DX2                !
 ! D10   D(2,3,4,6)              0.0            estimate D2E/DX2                !
 ! D11   D(10,3,4,5)             0.0002         estimate D2E/DX2                !
 ! D12   D(10,3,4,6)          -179.9999         estimate D2E/DX2                !
 ! D13   D(3,4,6,7)              0.0            estimate D2E/DX2                !
 ! D14   D(3,4,6,11)          -179.9999         estimate D2E/DX2                !
 ! D15   D(5,4,6,7)            179.9999         estimate D2E/DX2                !
 ! D16   D(5,4,6,11)             0.0            estimate D2E/DX2                !
 ! D17   D(4,6,7,8)              0.0001         estimate D2E/DX2                !
 ! D18   D(4,6,7,12)          -179.9996         estimate D2E/DX2                !
 ! D19   D(11,6,7,8)          -180.0            estimate D2E/DX2                !
 ! D20   D(11,6,7,12)            0.0003         estimate D2E/DX2                !
 ! D21   D(6,7,8,2)             -0.0002         estimate D2E/DX2                !
 ! D22   D(6,7,8,9)           -179.9982         estimate D2E/DX2                !
 ! D23   D(12,7,8,2)           179.9995         estimate D2E/DX2                !
 ! D24   D(12,7,8,9)             0.0015         estimate D2E/DX2                !
 --------------------------------------------------------------------------------
 Trust Radius=3.00D-01 FncErr=1.00D-07 GrdErr=1.00D-06 EigMax=2.50D+02 EigMin=1.00D-04
 Number of steps in this run=     64 maximum allowed number of steps=    100.
 GradGradGradGradGradGradGradGradGradGradGradGradGradGradGradGradGradGrad

 Leave Link  103 at Sat Feb 10 10:01:27 2024, MaxMem=  4026531840 cpu:               0.2 elap:               0.1
 (Enter /sysapps/ubuntu-applications/gaussian/Gaussian/AVX2/g16/l202.exe)
                          Input orientation:                          
 ---------------------------------------------------------------------
 Center     Atomic      Atomic             Coordinates (Angstroms)
 Number     Number       Type             X           Y           Z
 ---------------------------------------------------------------------
      1         17           0        3.106208   -0.188321    0.031564
      2          6           0        1.381212   -0.024118    0.014239
      3          6           0        0.781393    1.175335    0.012102
      4          6           0       -0.695344    1.295257   -0.002798
      5          8           0       -1.237296    2.387364   -0.004702
      6          6           0       -1.487519    0.039357   -0.015283
      7          6           0       -0.889155   -1.157210   -0.013152
      8          6           0        0.588787   -1.302426    0.001677
      9          8           0        1.118157   -2.393365    0.003420
     10          1           0        1.340435    2.102927    0.021055
     11          1           0       -2.565431    0.155284   -0.026064
     12          1           0       -1.441447   -2.090084   -0.022058
 ---------------------------------------------------------------------
                    Distance matrix (angstroms):
                    1          2          3          4          5
     1  Cl   0.000000
     2  C    1.732880   0.000000
     3  C    2.695311   1.341072   0.000000
     4  C    4.080929   2.460310   1.481673   0.000000
     5  O    5.049901   3.559802   2.354655   1.219186   0.000000
     6  C    4.599604   2.869585   2.537550   1.484918   2.361326
     7  C    4.111407   2.537561   2.869170   2.460135   3.561640
     8  C    2.753095   1.504050   2.485258   2.897752   4.116937
     9  O    2.969067   2.383830   3.584565   4.110323   5.329502
    10  H    2.892729   2.127447   1.083067   2.190273   2.593504
    11  H    5.682330   3.950924   3.499027   2.190275   2.597418
    12  H    4.929578   3.498133   3.950335   3.466637   4.482133
                    6          7          8          9         10
     6  C    0.000000
     7  C    1.337840   0.000000
     8  C    2.472188   1.485133   0.000000
     9  O    3.564833   2.357468   1.212594   0.000000
    10  H    3.500995   3.949777   3.487374   4.501817   0.000000
    11  H    1.084182   2.129016   3.474878   4.479431   4.364782
    12  H    2.129950   1.084140   2.177801   2.577635   5.032104
                   11         12
    11  H    0.000000
    12  H    2.510983   0.000000
 Symmetry turned off by external request.
 Stoichiometry    C6H3ClO2
 Framework group  C1[X(C6H3ClO2)]
 Deg. of freedom    30
 Full point group                 C1      NOp   1
 Rotational constants (GHZ):           2.3686672           1.1219813           0.7613486
 Leave Link  202 at Sat Feb 10 10:01:27 2024, MaxMem=  4026531840 cpu:               0.3 elap:               0.1
 (Enter /sysapps/ubuntu-applications/gaussian/Gaussian/AVX2/g16/l301.exe)
 Standard basis: 6-311++G(d,p) (5D, 7F)
 Ernie: Thresh=  0.10000D-02 Tol=  0.10000D-05 Strict=F.
   227 basis functions,   368 primitive gaussians,   236 cartesian basis functions
    36 alpha electrons       36 beta electrons
       nuclear repulsion energy       464.8314571169 Hartrees.
 IExCor=  402 DFT=T Ex+Corr=B3LYP ExCW=0 ScaHFX=  0.200000
 ScaDFX=  0.800000  0.720000  1.000000  0.810000 ScalE2=  1.000000  1.000000
 IRadAn=      5 IRanWt=     -1 IRanGd=            0 ICorTp=0 IEmpDi=  4
 NAtoms=   12 NActive=   12 NUniq=   12 SFac= 1.00D+00 NAtFMM=   60 NAOKFM=F Big=F
 Integral buffers will be    131072 words long.
 Raffenetti 2 integral format.
 Two-electron integral symmetry is turned off.
 ------------------------------------------------------------------------------
 Polarizable Continuum Model (PCM)
 =================================
 Model                : PCM.
 Atomic radii         : UFF (Universal Force Field).
 Polarization charges : Total charges.
 Charge compensation  : None.
 Solution method      : On-the-fly selection.
 Cavity type          : Scaled VdW (van der Waals Surface) (Alpha=1.100).
 Cavity algorithm     : GePol (No added spheres)
                        Default sphere list used, NSphG=   12.
                        Lebedev-Laikov grids with approx.  5.0 points / Ang**2.
                        Smoothing algorithm: York/Karplus (Gamma=1.0000).
                        Polarization charges: spherical gaussians, with
                                              point-specific exponents (IZeta= 3).
                        Self-potential: point-specific (ISelfS= 7).
                        Self-field    : sphere-specific E.n sum rule (ISelfD= 2).
 1st derivatives      : Analytical E(r).r(x)/FMM algorithm (CHGder, D1EAlg=3).
                        Cavity 1st derivative terms included.
 Solvent              : n,n-DiMethylFormamide, Eps=  37.219000 Eps(inf)=   2.046330
 ------------------------------------------------------------------------------
 Spheres list:
 ISph  on   Nord     Re0    Alpha      Xe            Ye            Ze
    1  Cl      1    1.9735  1.100      3.106208     -0.188321      0.031564
    2   C      2    1.9255  1.100      1.381212     -0.024118      0.014239
    3   C      3    1.9255  1.100      0.781393      1.175335      0.012102
    4   C      4    1.9255  1.100     -0.695344      1.295257     -0.002798
    5   O      5    1.7500  1.100     -1.237296      2.387364     -0.004702
    6   C      6    1.9255  1.100     -1.487519      0.039357     -0.015283
    7   C      7    1.9255  1.100     -0.889155     -1.157210     -0.013152
    8   C      8    1.9255  1.100      0.588787     -1.302426      0.001677
    9   O      9    1.7500  1.100      1.118157     -2.393365      0.003420
   10   H     10    1.4430  1.100      1.340435      2.102927      0.021055
   11   H     11    1.4430  1.100     -2.565431      0.155284     -0.026064
   12   H     12    1.4430  1.100     -1.441447     -2.090084     -0.022058
 ------------------------------------------------------------------------------
 GePol: Number of generator spheres                  =      12
 GePol: Total number of spheres                      =      12
 GePol: Number of exposed spheres                    =      12 (100.00%)
 GePol: Number of points                             =    1263
 GePol: Average weight of points                     =       0.14
 GePol: Minimum weight of points                     =   0.37D-09
 GePol: Maximum weight of points                     =    0.21616
 GePol: Number of points with low weight             =      50
 GePol: Fraction of low-weight points (<1% of avg)   =       3.96%
 GePol: Cavity surface area                          =    177.332 Ang**2
 GePol: Cavity volume                                =    173.734 Ang**3
 Leave Link  301 at Sat Feb 10 10:01:27 2024, MaxMem=  4026531840 cpu:               0.8 elap:               0.1
 (Enter /sysapps/ubuntu-applications/gaussian/Gaussian/AVX2/g16/l302.exe)
 NPDir=0 NMtPBC=     1 NCelOv=     1 NCel=       1 NClECP=     1 NCelD=      1
         NCelK=      1 NCelE2=     1 NClLst=     1 CellRange=     0.0.
 One-electron integrals computed using PRISM.
 NBasis=   227 RedAO= T EigKep=  2.19D-06  NBF=   227
 NBsUse=   227 1.00D-06 EigRej= -1.00D+00 NBFU=   227
 Precomputing XC quadrature grid using
 IXCGrd= 4 IRadAn=           5 IRanWt=          -1 IRanGd=           0 AccXCQ= 0.00D+00.
 Generated NRdTot=       0 NPtTot=           0 NUsed=           0 NTot=          32
 NSgBfM=   236   236   236   236   236 MxSgAt=    12 MxSgA2=    12.
 Leave Link  302 at Sat Feb 10 10:01:27 2024, MaxMem=  4026531840 cpu:               1.6 elap:               0.2
 (Enter /sysapps/ubuntu-applications/gaussian/Gaussian/AVX2/g16/l303.exe)
 DipDrv:  MaxL=1.
 Leave Link  303 at Sat Feb 10 10:01:27 2024, MaxMem=  4026531840 cpu:               0.4 elap:               0.1
 (Enter /sysapps/ubuntu-applications/gaussian/Gaussian/AVX2/g16/l401.exe)
 ExpMin= 3.60D-02 ExpMax= 1.06D+05 ExpMxC= 3.62D+03 IAcc=3 IRadAn=         5 AccDes= 0.00D+00
 Harris functional with IExCor=  402 and IRadAn=       5 diagonalized for initial guess.
 HarFok:  IExCor=  402 AccDes= 0.00D+00 IRadAn=         5 IDoV= 1 UseB2=F ITyADJ=14
 ICtDFT=  3500011 ScaDFX=  1.000000  1.000000  1.000000  1.000000
 FoFCou: FMM=F IPFlag=           0 FMFlag=      100000 FMFlg1=           0
         NFxFlg=           0 DoJE=T BraDBF=F KetDBF=T FulRan=T
         wScrn=  0.000000 ICntrl=       500 IOpCl=  0 I1Cent=   200000004 NGrid=           0
         NMat0=    1 NMatS0=      1 NMatT0=    0 NMatD0=    1 NMtDS0=    0 NMtDT0=    0
 Symmetry not used in FoFCou.
 Harris En= -841.141397173740    
 JPrj=0 DoOrth=F DoCkMO=F.
 Initial guess <Sx>= 0.0000 <Sy>= 0.0000 <Sz>= 0.0000 <S**2>=-0.0000 S=-0.0000
 Leave Link  401 at Sat Feb 10 10:01:28 2024, MaxMem=  4026531840 cpu:               5.8 elap:               0.7
 (Enter /sysapps/ubuntu-applications/gaussian/Gaussian/AVX2/g16/l502.exe)
 Keep R1 and R2 ints in memory in canonical form, NReq=678227526.
 FoFCou: FMM=F IPFlag=           0 FMFlag=           0 FMFlg1=           0
         NFxFlg=           0 DoJE=F BraDBF=F KetDBF=F FulRan=T
         wScrn=  0.000000 ICntrl=       600 IOpCl=  0 I1Cent=           0 NGrid=           0
         NMat0=    1 NMatS0=  25878 NMatT0=    0 NMatD0=    1 NMtDS0=    0 NMtDT0=    0
 Symmetry not used in FoFCou.
 Two-electron integral symmetry not used.
 UHF open shell SCF:
 Using DIIS extrapolation, IDIIS=  1040.
 NGot=  4026531840 LenX=  3356720098 LenY=  3356663961
 Requested convergence on RMS density matrix=1.00D-08 within 128 cycles.
 Requested convergence on MAX density matrix=1.00D-06.
 Requested convergence on             energy=1.00D-06.
 No special actions if energy rises.

 Cycle   1  Pass 1  IDiag  1:
 Inv3:  Mode=1 IEnd=     4785507.
 Iteration    1 A*A^-1 deviation from unit magnitude is 2.66D-15 for     22.
 Iteration    1 A*A^-1 deviation from orthogonality  is 2.17D-15 for    939    834.
 Iteration    1 A^-1*A deviation from unit magnitude is 2.55D-15 for   1149.
 Iteration    1 A^-1*A deviation from orthogonality  is 1.57D-15 for    909    526.
 E= -840.941234292458    
 DIIS: error= 4.35D-02 at cycle   1 NSaved=   1.
 NSaved= 1 IEnMin= 1 EnMin= -840.941234292458     IErMin= 1 ErrMin= 4.35D-02
 ErrMax= 4.35D-02  0.00D+00 EMaxC= 1.00D-01 BMatC= 1.31D+00 BMatP= 1.31D+00
 IDIUse=3 WtCom= 5.65D-01 WtEn= 4.35D-01
 Coeff-Com:  0.100D+01
 Coeff-En:   0.100D+01
 Coeff:      0.100D+01
 Gap=     0.237 Goal=   None    Shift=    0.000
 Gap=     0.237 Goal=   None    Shift=    0.000
 GapD=    0.237 DampG=1.000 DampE=0.500 DampFc=0.5000 IDamp=-1.
 Damping current iteration by 5.00D-01
 RMSDP=4.74D-02 MaxDP=5.15D+00              OVMax= 3.80D-01

 Cycle   2  Pass 1  IDiag  1:
 E= -840.993285545768     Delta-E=       -0.052051253309 Rises=F Damp=T
 DIIS: error= 1.93D-02 at cycle   2 NSaved=   2.
 NSaved= 2 IEnMin= 2 EnMin= -840.993285545768     IErMin= 2 ErrMin= 1.93D-02
 ErrMax= 1.93D-02  0.00D+00 EMaxC= 1.00D-01 BMatC= 2.44D-01 BMatP= 1.31D+00
 IDIUse=3 WtCom= 8.07D-01 WtEn= 1.93D-01
 Coeff-Com:  0.234D+00 0.766D+00
 Coeff-En:   0.397D+00 0.603D+00
 Coeff:      0.266D+00 0.734D+00
 Gap=     0.152 Goal=   None    Shift=    0.000
 Gap=     0.152 Goal=   None    Shift=    0.000
 RMSDP=1.90D-02 MaxDP=1.80D+00 DE=-5.21D-02 OVMax= 2.43D-01

 Cycle   3  Pass 1  IDiag  1:
 E= -841.156319682447     Delta-E=       -0.163034136679 Rises=F Damp=F
 DIIS: error= 1.79D-02 at cycle   3 NSaved=   3.
 NSaved= 3 IEnMin= 3 EnMin= -841.156319682447     IErMin= 3 ErrMin= 1.79D-02
 ErrMax= 1.79D-02  0.00D+00 EMaxC= 1.00D-01 BMatC= 1.50D-01 BMatP= 2.44D-01
 IDIUse=3 WtCom= 8.21D-01 WtEn= 1.79D-01
 Coeff-Com:  0.632D-01 0.430D+00 0.507D+00
 Coeff-En:   0.000D+00 0.000D+00 0.100D+01
 Coeff:      0.519D-01 0.353D+00 0.595D+00
 Gap=     0.156 Goal=   None    Shift=    0.000
 Gap=     0.156 Goal=   None    Shift=    0.000
 RMSDP=4.47D-03 MaxDP=3.53D-01 DE=-1.63D-01 OVMax= 8.11D-02

 Cycle   4  Pass 1  IDiag  1:
 E= -841.176647774801     Delta-E=       -0.020328092354 Rises=F Damp=F
 DIIS: error= 1.11D-02 at cycle   4 NSaved=   4.
 NSaved= 4 IEnMin= 4 EnMin= -841.176647774801     IErMin= 4 ErrMin= 1.11D-02
 ErrMax= 1.11D-02  0.00D+00 EMaxC= 1.00D-01 BMatC= 6.49D-02 BMatP= 1.50D-01
 IDIUse=3 WtCom= 8.89D-01 WtEn= 1.11D-01
 Coeff-Com:  0.570D-02 0.424D-01 0.396D+00 0.556D+00
 Coeff-En:   0.000D+00 0.000D+00 0.331D+00 0.669D+00
 Coeff:      0.507D-02 0.377D-01 0.389D+00 0.568D+00
 Gap=     0.149 Goal=   None    Shift=    0.000
 Gap=     0.149 Goal=   None    Shift=    0.000
 RMSDP=2.01D-03 MaxDP=1.04D-01 DE=-2.03D-02 OVMax= 3.85D-02

 Cycle   5  Pass 1  IDiag  1:
 E= -841.190269173092     Delta-E=       -0.013621398290 Rises=F Damp=F
 DIIS: error= 1.94D-03 at cycle   5 NSaved=   5.
 NSaved= 5 IEnMin= 5 EnMin= -841.190269173092     IErMin= 5 ErrMin= 1.94D-03
 ErrMax= 1.94D-03  0.00D+00 EMaxC= 1.00D-01 BMatC= 2.42D-03 BMatP= 6.49D-02
 IDIUse=3 WtCom= 9.81D-01 WtEn= 1.94D-02
 Coeff-Com:  0.103D-02 0.720D-03 0.211D+00 0.343D+00 0.444D+00
 Coeff-En:   0.000D+00 0.000D+00 0.000D+00 0.000D+00 0.100D+01
 Coeff:      0.101D-02 0.706D-03 0.207D+00 0.337D+00 0.455D+00
 Gap=     0.147 Goal=   None    Shift=    0.000
 Gap=     0.147 Goal=   None    Shift=    0.000
 RMSDP=5.28D-04 MaxDP=5.84D-02 DE=-1.36D-02 OVMax= 7.82D-03

 Cycle   6  Pass 1  IDiag  1:
 E= -841.190742184419     Delta-E=       -0.000473011328 Rises=F Damp=F
 DIIS: error= 6.33D-04 at cycle   6 NSaved=   6.
 NSaved= 6 IEnMin= 6 EnMin= -841.190742184419     IErMin= 6 ErrMin= 6.33D-04
 ErrMax= 6.33D-04  0.00D+00 EMaxC= 1.00D-01 BMatC= 2.25D-04 BMatP= 2.42D-03
 IDIUse=3 WtCom= 9.94D-01 WtEn= 6.33D-03
 Coeff-Com:  0.546D-03-0.622D-02 0.663D-01 0.117D+00 0.261D+00 0.562D+00
 Coeff-En:   0.000D+00 0.000D+00 0.000D+00 0.000D+00 0.216D-01 0.978D+00
 Coeff:      0.542D-03-0.618D-02 0.659D-01 0.116D+00 0.259D+00 0.564D+00
 Gap=     0.147 Goal=   None    Shift=    0.000
 Gap=     0.147 Goal=   None    Shift=    0.000
 RMSDP=2.24D-04 MaxDP=2.41D-02 DE=-4.73D-04 OVMax= 2.17D-03

 Cycle   7  Pass 1  IDiag  1:
 E= -841.190781392162     Delta-E=       -0.000039207742 Rises=F Damp=F
 DIIS: error= 1.78D-04 at cycle   7 NSaved=   7.
 NSaved= 7 IEnMin= 7 EnMin= -841.190781392162     IErMin= 7 ErrMin= 1.78D-04
 ErrMax= 1.78D-04  0.00D+00 EMaxC= 1.00D-01 BMatC= 3.11D-05 BMatP= 2.25D-04
 IDIUse=3 WtCom= 9.98D-01 WtEn= 1.78D-03
 Coeff-Com:  0.579D-03-0.392D-02 0.138D-01 0.265D-01 0.872D-01 0.322D+00
 Coeff-Com:  0.553D+00
 Coeff-En:   0.000D+00 0.000D+00 0.000D+00 0.000D+00 0.000D+00 0.674D-01
 Coeff-En:   0.933D+00
 Coeff:      0.578D-03-0.392D-02 0.138D-01 0.265D-01 0.871D-01 0.322D+00
 Coeff:      0.554D+00
 Gap=     0.147 Goal=   None    Shift=    0.000
 Gap=     0.147 Goal=   None    Shift=    0.000
 RMSDP=6.82D-05 MaxDP=5.04D-03 DE=-3.92D-05 OVMax= 1.57D-03

 Cycle   8  Pass 1  IDiag  1:
 E= -841.190786824794     Delta-E=       -0.000005432633 Rises=F Damp=F
 DIIS: error= 8.31D-05 at cycle   8 NSaved=   8.
 NSaved= 8 IEnMin= 8 EnMin= -841.190786824794     IErMin= 8 ErrMin= 8.31D-05
 ErrMax= 8.31D-05  0.00D+00 EMaxC= 1.00D-01 BMatC= 5.42D-06 BMatP= 3.11D-05
 IDIUse=1 WtCom= 1.00D+00 WtEn= 0.00D+00
 Coeff-Com:  0.400D-03-0.174D-02-0.832D-04 0.614D-03 0.147D-01 0.120D+00
 Coeff-Com:  0.351D+00 0.514D+00
 Coeff:      0.400D-03-0.174D-02-0.832D-04 0.614D-03 0.147D-01 0.120D+00
 Coeff:      0.351D+00 0.514D+00
 Gap=     0.147 Goal=   None    Shift=    0.000
 Gap=     0.147 Goal=   None    Shift=    0.000
 RMSDP=1.51D-05 MaxDP=4.28D-04 DE=-5.43D-06 OVMax= 3.72D-04

 Cycle   9  Pass 1  IDiag  1:
 E= -841.190787951562     Delta-E=       -0.000001126768 Rises=F Damp=F
 DIIS: error= 2.25D-05 at cycle   9 NSaved=   9.
 NSaved= 9 IEnMin= 9 EnMin= -841.190787951562     IErMin= 9 ErrMin= 2.25D-05
 ErrMax= 2.25D-05  0.00D+00 EMaxC= 1.00D-01 BMatC= 5.44D-07 BMatP= 5.42D-06
 IDIUse=1 WtCom= 1.00D+00 WtEn= 0.00D+00
 Coeff-Com:  0.216D-03-0.567D-03-0.194D-02-0.354D-02-0.600D-02 0.227D-01
 Coeff-Com:  0.129D+00 0.273D+00 0.587D+00
 Coeff:      0.216D-03-0.567D-03-0.194D-02-0.354D-02-0.600D-02 0.227D-01
 Coeff:      0.129D+00 0.273D+00 0.587D+00
 Gap=     0.147 Goal=   None    Shift=    0.000
 Gap=     0.147 Goal=   None    Shift=    0.000
 RMSDP=1.15D-05 MaxDP=1.26D-03 DE=-1.13D-06 OVMax= 2.03D-04

 Cycle  10  Pass 1  IDiag  1:
 E= -841.190788065467     Delta-E=       -0.000000113904 Rises=F Damp=F
 DIIS: error= 1.21D-05 at cycle  10 NSaved=  10.
 NSaved=10 IEnMin=10 EnMin= -841.190788065467     IErMin=10 ErrMin= 1.21D-05
 ErrMax= 1.21D-05  0.00D+00 EMaxC= 1.00D-01 BMatC= 7.32D-08 BMatP= 5.44D-07
 IDIUse=1 WtCom= 1.00D+00 WtEn= 0.00D+00
 Coeff-Com:  0.835D-04-0.151D-03-0.840D-03-0.174D-02-0.484D-02 0.689D-03
 Coeff-Com:  0.319D-01 0.661D-01 0.312D+00 0.597D+00
 Coeff:      0.835D-04-0.151D-03-0.840D-03-0.174D-02-0.484D-02 0.689D-03
 Coeff:      0.319D-01 0.661D-01 0.312D+00 0.597D+00
 Gap=     0.147 Goal=   None    Shift=    0.000
 Gap=     0.147 Goal=   None    Shift=    0.000
 RMSDP=3.17D-06 MaxDP=2.69D-04 DE=-1.14D-07 OVMax= 7.78D-05

 Cycle  11  Pass 1  IDiag  1:
 E= -841.190788083769     Delta-E=       -0.000000018302 Rises=F Damp=F
 DIIS: error= 3.11D-06 at cycle  11 NSaved=  11.
 NSaved=11 IEnMin=11 EnMin= -841.190788083769     IErMin=11 ErrMin= 3.11D-06
 ErrMax= 3.11D-06  0.00D+00 EMaxC= 1.00D-01 BMatC= 9.00D-09 BMatP= 7.32D-08
 IDIUse=1 WtCom= 1.00D+00 WtEn= 0.00D+00
 Coeff-Com:  0.233D-04-0.203D-04-0.211D-03-0.521D-03-0.222D-02-0.242D-02
 Coeff-Com:  0.163D-02-0.476D-02 0.105D+00 0.334D+00 0.570D+00
 Coeff:      0.233D-04-0.203D-04-0.211D-03-0.521D-03-0.222D-02-0.242D-02
 Coeff:      0.163D-02-0.476D-02 0.105D+00 0.334D+00 0.570D+00
 Gap=     0.147 Goal=   None    Shift=    0.000
 Gap=     0.147 Goal=   None    Shift=    0.000
 RMSDP=1.01D-06 MaxDP=7.45D-05 DE=-1.83D-08 OVMax= 2.24D-05

 Cycle  12  Pass 1  IDiag  1:
 E= -841.190788085705     Delta-E=       -0.000000001936 Rises=F Damp=F
 DIIS: error= 1.46D-06 at cycle  12 NSaved=  12.
 NSaved=12 IEnMin=12 EnMin= -841.190788085705     IErMin=12 ErrMin= 1.46D-06
 ErrMax= 1.46D-06  0.00D+00 EMaxC= 1.00D-01 BMatC= 1.00D-09 BMatP= 9.00D-09
 IDIUse=1 WtCom= 1.00D+00 WtEn= 0.00D+00
 Coeff-Com:  0.229D-05 0.487D-05 0.116D-04-0.227D-04-0.567D-03-0.120D-02
 Coeff-Com: -0.307D-02-0.139D-01 0.137D-01 0.945D-01 0.295D+00 0.616D+00
 Coeff:      0.229D-05 0.487D-05 0.116D-04-0.227D-04-0.567D-03-0.120D-02
 Coeff:     -0.307D-02-0.139D-01 0.137D-01 0.945D-01 0.295D+00 0.616D+00
 Gap=     0.147 Goal=   None    Shift=    0.000
 Gap=     0.147 Goal=   None    Shift=    0.000
 RMSDP=7.44D-07 MaxDP=6.36D-05 DE=-1.94D-09 OVMax= 8.97D-06

 Cycle  13  Pass 1  IDiag  1:
 E= -841.190788085986     Delta-E=       -0.000000000282 Rises=F Damp=F
 DIIS: error= 2.88D-07 at cycle  13 NSaved=  13.
 NSaved=13 IEnMin=13 EnMin= -841.190788085986     IErMin=13 ErrMin= 2.88D-07
 ErrMax= 2.88D-07  0.00D+00 EMaxC= 1.00D-01 BMatC= 7.00D-11 BMatP= 1.00D-09
 IDIUse=1 WtCom= 1.00D+00 WtEn= 0.00D+00
 Coeff-Com: -0.652D-06 0.231D-05 0.243D-04 0.397D-04-0.354D-04-0.215D-03
 Coeff-Com: -0.114D-02-0.511D-02-0.363D-02 0.489D-02 0.370D-01 0.241D+00
 Coeff-Com:  0.727D+00
 Coeff:     -0.652D-06 0.231D-05 0.243D-04 0.397D-04-0.354D-04-0.215D-03
 Coeff:     -0.114D-02-0.511D-02-0.363D-02 0.489D-02 0.370D-01 0.241D+00
 Coeff:      0.727D+00
 Gap=     0.147 Goal=   None    Shift=    0.000
 Gap=     0.147 Goal=   None    Shift=    0.000
 RMSDP=1.49D-07 MaxDP=1.62D-05 DE=-2.82D-10 OVMax= 1.36D-06

 Cycle  14  Pass 1  IDiag  1:
 E= -841.190788086001     Delta-E=       -0.000000000015 Rises=F Damp=F
 DIIS: error= 4.26D-08 at cycle  14 NSaved=  14.
 NSaved=14 IEnMin=14 EnMin= -841.190788086001     IErMin=14 ErrMin= 4.26D-08
 ErrMax= 4.26D-08  0.00D+00 EMaxC= 1.00D-01 BMatC= 3.81D-12 BMatP= 7.00D-11
 IDIUse=1 WtCom= 1.00D+00 WtEn= 0.00D+00
 Coeff-Com: -0.185D-06 0.244D-06 0.914D-05 0.173D-04 0.105D-04-0.130D-04
 Coeff-Com: -0.247D-03-0.146D-02-0.197D-02-0.237D-02-0.342D-02 0.764D-01
 Coeff-Com:  0.302D+00 0.631D+00
 Coeff:     -0.185D-06 0.244D-06 0.914D-05 0.173D-04 0.105D-04-0.130D-04
 Coeff:     -0.247D-03-0.146D-02-0.197D-02-0.237D-02-0.342D-02 0.764D-01
 Coeff:      0.302D+00 0.631D+00
 Gap=     0.147 Goal=   None    Shift=    0.000
 Gap=     0.147 Goal=   None    Shift=    0.000
 RMSDP=3.24D-08 MaxDP=2.32D-06 DE=-1.50D-11 OVMax= 2.46D-07

 Cycle  15  Pass 1  IDiag  1:
 E= -841.190788086006     Delta-E=       -0.000000000005 Rises=F Damp=F
 DIIS: error= 1.64D-08 at cycle  15 NSaved=  15.
 NSaved=15 IEnMin=15 EnMin= -841.190788086006     IErMin=15 ErrMin= 1.64D-08
 ErrMax= 1.64D-08  0.00D+00 EMaxC= 1.00D-01 BMatC= 3.11D-13 BMatP= 3.81D-12
 IDIUse=1 WtCom= 1.00D+00 WtEn= 0.00D+00
 Coeff-Com:  0.545D-07-0.238D-06 0.336D-06 0.156D-05 0.857D-05 0.254D-04
 Coeff-Com:  0.643D-04 0.921D-04-0.207D-03-0.131D-02-0.739D-02-0.257D-02
 Coeff-Com:  0.518D-02 0.209D+00 0.797D+00
 Coeff:      0.545D-07-0.238D-06 0.336D-06 0.156D-05 0.857D-05 0.254D-04
 Coeff:      0.643D-04 0.921D-04-0.207D-03-0.131D-02-0.739D-02-0.257D-02
 Coeff:      0.518D-02 0.209D+00 0.797D+00
 Gap=     0.147 Goal=   None    Shift=    0.000
 Gap=     0.147 Goal=   None    Shift=    0.000
 RMSDP=7.92D-09 MaxDP=5.48D-07 DE=-4.55D-12 OVMax= 9.82D-08

 Error on total polarization charges =  0.01348
 SCF Done:  E(UB3LYP) =  -841.190788086     A.U. after   15 cycles
            NFock= 15  Conv=0.79D-08     -V/T= 2.0030
 <Sx>= 0.0000 <Sy>= 0.0000 <Sz>= 0.0000 <S**2>=-0.0000 S=-0.0000
 <L.S>=  0.00000000000    
 KE= 8.386601865063D+02 PE=-2.913190803190D+03 EE= 7.685083714811D+02
 Annihilation of the first spin contaminant:
 S**2 before annihilation    -0.0000,   after     0.0000
 Leave Link  502 at Sat Feb 10 10:02:15 2024, MaxMem=  4026531840 cpu:             249.0 elap:              47.5
 (Enter /sysapps/ubuntu-applications/gaussian/Gaussian/AVX2/g16/l601.exe)
 Copying SCF densities to generalized density rwf, IOpCl= 1 IROHF=0.

 **********************************************************************

            Population analysis using the SCF density.

 **********************************************************************

 Alpha  occ. eigenvalues -- -101.58160 -19.15842 -19.15264 -10.30662 -10.29911
 Alpha  occ. eigenvalues --  -10.27953 -10.22450 -10.22298 -10.22164  -9.49611
 Alpha  occ. eigenvalues --   -7.26082  -7.25119  -7.25020  -1.09228  -1.08283
 Alpha  occ. eigenvalues --   -0.91562  -0.85910  -0.78943  -0.72044  -0.65031
 Alpha  occ. eigenvalues --   -0.61741  -0.54239  -0.52478  -0.50013  -0.47609
 Alpha  occ. eigenvalues --   -0.46901  -0.46369  -0.44782  -0.43488  -0.42286
 Alpha  occ. eigenvalues --   -0.38535  -0.34249  -0.32210  -0.30611  -0.29608
 Alpha  occ. eigenvalues --   -0.29510
 Alpha virt. eigenvalues --   -0.14791  -0.04430  -0.01369  -0.00359  -0.00109
 Alpha virt. eigenvalues --    0.01180   0.01917   0.04319   0.04837   0.04968
 Alpha virt. eigenvalues --    0.05884   0.07267   0.07896   0.08296   0.08576
 Alpha virt. eigenvalues --    0.10361   0.10902   0.11231   0.11541   0.12114
 Alpha virt. eigenvalues --    0.12309   0.12999   0.13178   0.13462   0.14136
 Alpha virt. eigenvalues --    0.15040   0.16219   0.17125   0.17316   0.18291
 Alpha virt. eigenvalues --    0.18686   0.19903   0.20655   0.21388   0.22786
 Alpha virt. eigenvalues --    0.24136   0.25050   0.25479   0.25809   0.26221
 Alpha virt. eigenvalues --    0.27471   0.28236   0.29602   0.30250   0.30648
 Alpha virt. eigenvalues --    0.31605   0.33468   0.34257   0.35600   0.36627
 Alpha virt. eigenvalues --    0.37905   0.39049   0.40254   0.44502   0.45519
 Alpha virt. eigenvalues --    0.45617   0.49165   0.49334   0.50705   0.53224
 Alpha virt. eigenvalues --    0.54798   0.56111   0.56657   0.57497   0.57809
 Alpha virt. eigenvalues --    0.58847   0.60553   0.61501   0.64459   0.68424
 Alpha virt. eigenvalues --    0.70177   0.74166   0.75845   0.77626   0.79516
 Alpha virt. eigenvalues --    0.81574   0.82123   0.83749   0.83804   0.85895
 Alpha virt. eigenvalues --    0.86715   0.88854   0.89869   0.90348   0.93345
 Alpha virt. eigenvalues --    0.93875   0.95861   0.98432   1.00810   1.00830
 Alpha virt. eigenvalues --    1.05270   1.08405   1.09590   1.11617   1.16313
 Alpha virt. eigenvalues --    1.18907   1.19624   1.19739   1.20502   1.25120
 Alpha virt. eigenvalues --    1.26513   1.26959   1.28290   1.37630   1.42506
 Alpha virt. eigenvalues --    1.46491   1.52492   1.52655   1.56255   1.57353
 Alpha virt. eigenvalues --    1.61953   1.63679   1.64651   1.70166   1.71390
 Alpha virt. eigenvalues --    1.74057   1.75353   1.76680   1.78621   1.88121
 Alpha virt. eigenvalues --    1.88345   1.90879   1.92726   1.97308   1.98125
 Alpha virt. eigenvalues --    2.06538   2.10265   2.11410   2.13489   2.18704
 Alpha virt. eigenvalues --    2.19691   2.25601   2.29160   2.39519   2.44851
 Alpha virt. eigenvalues --    2.51264   2.53575   2.55628   2.55879   2.59893
 Alpha virt. eigenvalues --    2.67167   2.67972   2.68722   2.70804   2.71998
 Alpha virt. eigenvalues --    2.77223   2.78996   2.81805   2.88390   2.88456
 Alpha virt. eigenvalues --    2.91297   2.93534   2.97044   2.98304   3.08381
 Alpha virt. eigenvalues --    3.14659   3.17799   3.20088   3.30504   3.33012
 Alpha virt. eigenvalues --    3.41111   3.45001   3.52524   3.56918   3.57991
 Alpha virt. eigenvalues --    3.68878   3.76967   4.01158   4.04432   4.07048
 Alpha virt. eigenvalues --    4.14388   4.65444   5.00444   5.02380   5.16054
 Alpha virt. eigenvalues --    5.19038   5.66791   5.74552   9.76401  23.55100
 Alpha virt. eigenvalues --   23.71460  23.81111  23.87593  24.13058  24.21580
 Alpha virt. eigenvalues --   25.81227  26.12641  26.60193  49.95481  50.00482
 Alpha virt. eigenvalues --  215.75483
  Beta  occ. eigenvalues -- -101.58160 -19.15842 -19.15264 -10.30662 -10.29911
  Beta  occ. eigenvalues --  -10.27953 -10.22450 -10.22298 -10.22164  -9.49611
  Beta  occ. eigenvalues --   -7.26082  -7.25119  -7.25020  -1.09228  -1.08283
  Beta  occ. eigenvalues --   -0.91562  -0.85910  -0.78943  -0.72044  -0.65031
  Beta  occ. eigenvalues --   -0.61741  -0.54239  -0.52478  -0.50013  -0.47609
  Beta  occ. eigenvalues --   -0.46901  -0.46369  -0.44782  -0.43488  -0.42286
  Beta  occ. eigenvalues --   -0.38535  -0.34249  -0.32210  -0.30611  -0.29608
  Beta  occ. eigenvalues --   -0.29510
  Beta virt. eigenvalues --   -0.14791  -0.04430  -0.01369  -0.00359  -0.00109
  Beta virt. eigenvalues --    0.01180   0.01917   0.04319   0.04837   0.04968
  Beta virt. eigenvalues --    0.05884   0.07267   0.07896   0.08296   0.08576
  Beta virt. eigenvalues --    0.10361   0.10902   0.11231   0.11541   0.12114
  Beta virt. eigenvalues --    0.12309   0.12999   0.13178   0.13462   0.14136
  Beta virt. eigenvalues --    0.15040   0.16219   0.17125   0.17316   0.18291
  Beta virt. eigenvalues --    0.18686   0.19903   0.20655   0.21388   0.22786
  Beta virt. eigenvalues --    0.24136   0.25050   0.25479   0.25809   0.26221
  Beta virt. eigenvalues --    0.27471   0.28236   0.29602   0.30250   0.30648
  Beta virt. eigenvalues --    0.31605   0.33468   0.34257   0.35600   0.36627
  Beta virt. eigenvalues --    0.37905   0.39049   0.40254   0.44502   0.45519
  Beta virt. eigenvalues --    0.45617   0.49165   0.49334   0.50705   0.53224
  Beta virt. eigenvalues --    0.54798   0.56111   0.56657   0.57497   0.57809
  Beta virt. eigenvalues --    0.58847   0.60553   0.61501   0.64459   0.68424
  Beta virt. eigenvalues --    0.70177   0.74166   0.75845   0.77626   0.79516
  Beta virt. eigenvalues --    0.81574   0.82123   0.83749   0.83804   0.85895
  Beta virt. eigenvalues --    0.86715   0.88854   0.89869   0.90348   0.93345
  Beta virt. eigenvalues --    0.93875   0.95861   0.98432   1.00810   1.00830
  Beta virt. eigenvalues --    1.05270   1.08405   1.09590   1.11617   1.16313
  Beta virt. eigenvalues --    1.18907   1.19624   1.19739   1.20502   1.25120
  Beta virt. eigenvalues --    1.26513   1.26959   1.28290   1.37630   1.42506
  Beta virt. eigenvalues --    1.46491   1.52492   1.52655   1.56255   1.57353
  Beta virt. eigenvalues --    1.61953   1.63679   1.64651   1.70166   1.71390
  Beta virt. eigenvalues --    1.74057   1.75353   1.76680   1.78621   1.88121
  Beta virt. eigenvalues --    1.88345   1.90879   1.92726   1.97308   1.98125
  Beta virt. eigenvalues --    2.06538   2.10265   2.11410   2.13489   2.18704
  Beta virt. eigenvalues --    2.19691   2.25601   2.29160   2.39519   2.44851
  Beta virt. eigenvalues --    2.51264   2.53575   2.55628   2.55879   2.59893
  Beta virt. eigenvalues --    2.67167   2.67972   2.68722   2.70804   2.71998
  Beta virt. eigenvalues --    2.77223   2.78996   2.81805   2.88390   2.88456
  Beta virt. eigenvalues --    2.91297   2.93534   2.97044   2.98304   3.08381
  Beta virt. eigenvalues --    3.14659   3.17799   3.20088   3.30504   3.33012
  Beta virt. eigenvalues --    3.41111   3.45001   3.52524   3.56918   3.57991
  Beta virt. eigenvalues --    3.68878   3.76967   4.01158   4.04432   4.07048
  Beta virt. eigenvalues --    4.14388   4.65444   5.00444   5.02380   5.16054
  Beta virt. eigenvalues --    5.19038   5.66791   5.74552   9.76401  23.55100
  Beta virt. eigenvalues --   23.71460  23.81111  23.87593  24.13058  24.21580
  Beta virt. eigenvalues --   25.81227  26.12641  26.60193  49.95481  50.00482
  Beta virt. eigenvalues --  215.75483
          Condensed to atoms (all electrons):
               1          2          3          4          5          6
     1  Cl  17.122611  -0.887188  -0.032114   0.062012   0.001432  -0.051100
     2  C   -0.887188  14.836099  -6.490581  -0.033094  -0.050339  -1.004945
     3  C   -0.032114  -6.490581  17.280477   0.013495  -0.108909  -1.000042
     4  C    0.062012  -0.033094   0.013495   7.256189   0.449523  -0.333480
     5  O    0.001432  -0.050339  -0.108909   0.449523   8.154652  -0.128291
     6  C   -0.051100  -1.004945  -1.000042  -0.333480  -0.128291   7.940605
     7  C    0.284078  -0.780913  -0.885617   0.463984   0.007530  -0.822638
     8  C    0.161754  -0.322735  -3.043857  -1.210232  -0.022698   0.921229
     9  O    0.026501  -0.085652   0.029037   0.011076   0.000513  -0.077383
    10  H    0.007370  -0.122282   0.564134  -0.057637  -0.009697  -0.046005
    11  H   -0.002297   0.014066  -0.051280  -0.098871  -0.010328   0.449680
    12  H    0.001342  -0.057443   0.030486   0.015342   0.000985   0.018231
               7          8          9         10         11         12
     1  Cl   0.284078   0.161754   0.026501   0.007370  -0.002297   0.001342
     2  C   -0.780913  -0.322735  -0.085652  -0.122282   0.014066  -0.057443
     3  C   -0.885617  -3.043857   0.029037   0.564134  -0.051280   0.030486
     4  C    0.463984  -1.210232   0.011076  -0.057637  -0.098871   0.015342
     5  O    0.007530  -0.022698   0.000513  -0.009697  -0.010328   0.000985
     6  C   -0.822638   0.921229  -0.077383  -0.046005   0.449680   0.018231
     7  C    7.985901  -0.548259  -0.130331   0.005899  -0.034878   0.385002
     8  C   -0.548259  10.665306   0.351837  -0.039262   0.042012  -0.068594
     9  O   -0.130331   0.351837   8.123183   0.000681   0.000595  -0.014676
    10  H    0.005899  -0.039262   0.000681   0.447653  -0.001980   0.001061
    11  H   -0.034878   0.042012   0.000595  -0.001980   0.453524  -0.011901
    12  H    0.385002  -0.068594  -0.014676   0.001061  -0.011901   0.447083
          Atomic-Atomic Spin Densities.
               1          2          3          4          5          6
     1  Cl   0.000000  -0.000000  -0.000000   0.000000  -0.000000  -0.000000
     2  C   -0.000000  -0.000000   0.000000  -0.000000   0.000000   0.000000
     3  C   -0.000000   0.000000  -0.000000   0.000000  -0.000000  -0.000000
     4  C    0.000000  -0.000000   0.000000  -0.000000   0.000000   0.000000
     5  O   -0.000000   0.000000  -0.000000   0.000000  -0.000000  -0.000000
     6  C   -0.000000   0.000000  -0.000000   0.000000  -0.000000   0.000000
     7  C    0.000000  -0.000000   0.000000  -0.000000   0.000000  -0.000000
     8  C    0.000000  -0.000000  -0.000000  -0.000000   0.000000   0.000000
     9  O   -0.000000   0.000000  -0.000000  -0.000000   0.000000  -0.000000
    10  H   -0.000000   0.000000  -0.000000   0.000000  -0.000000  -0.000000
    11  H   -0.000000   0.000000  -0.000000  -0.000000  -0.000000  -0.000000
    12  H    0.000000   0.000000  -0.000000   0.000000  -0.000000  -0.000000
               7          8          9         10         11         12
     1  Cl   0.000000   0.000000  -0.000000  -0.000000  -0.000000   0.000000
     2  C   -0.000000  -0.000000   0.000000   0.000000   0.000000   0.000000
     3  C    0.000000  -0.000000  -0.000000  -0.000000  -0.000000  -0.000000
     4  C   -0.000000  -0.000000  -0.000000   0.000000  -0.000000   0.000000
     5  O    0.000000   0.000000   0.000000  -0.000000  -0.000000  -0.000000
     6  C   -0.000000   0.000000  -0.000000  -0.000000  -0.000000  -0.000000
     7  C    0.000000   0.000000  -0.000000   0.000000   0.000000   0.000000
     8  C    0.000000   0.000000   0.000000   0.000000  -0.000000  -0.000000
     9  O   -0.000000   0.000000  -0.000000  -0.000000   0.000000  -0.000000
    10  H    0.000000   0.000000  -0.000000  -0.000000  -0.000000  -0.000000
    11  H    0.000000  -0.000000   0.000000  -0.000000  -0.000000   0.000000
    12  H    0.000000  -0.000000  -0.000000  -0.000000   0.000000  -0.000000
 Mulliken charges and spin densities:
               1          2
     1  Cl   0.305599   0.000000
     2  C    0.985006  -0.000000
     3  C   -0.305228   0.000000
     4  C   -0.538307  -0.000000
     5  O   -0.284372   0.000000
     6  C    0.134139   0.000000
     7  C    0.070242  -0.000000
     8  C   -0.886502   0.000000
     9  O   -0.235381  -0.000000
    10  H    0.250065  -0.000000
    11  H    0.251657  -0.000000
    12  H    0.253081  -0.000000
 Sum of Mulliken charges =  -0.00000  -0.00000
 Mulliken charges and spin densities with hydrogens summed into heavy atoms:
               1          2
     1  Cl   0.305599   0.000000
     2  C    0.985006  -0.000000
     3  C   -0.055164   0.000000
     4  C   -0.538307  -0.000000
     5  O   -0.284372   0.000000
     6  C    0.385796   0.000000
     7  C    0.323323  -0.000000
     8  C   -0.886502   0.000000
     9  O   -0.235381  -0.000000
 Electronic spatial extent (au):  <R**2>=           1468.4182
 Charge=              0.0000 electrons
 Dipole moment (field-independent basis, Debye):
    X=             -1.5051    Y=             -0.0765    Z=             -0.0159  Tot=              1.5071
 Quadrupole moment (field-independent basis, Debye-Ang):
   XX=            -58.0833   YY=            -71.3892   ZZ=            -57.4437
   XY=             12.1187   XZ=              0.0346   YZ=              0.0783
 Traceless Quadrupole moment (field-independent basis, Debye-Ang):
   XX=              4.2221   YY=             -9.0838   ZZ=              4.8617
   XY=             12.1187   XZ=              0.0346   YZ=              0.0783
 Octapole moment (field-independent basis, Debye-Ang**2):
  XXX=           -114.2973  YYY=              5.3502  ZZZ=             -1.0745  XYY=            -33.8378
  XXY=              0.3343  XXZ=             -0.4536  XZZ=            -35.2295  YZZ=              2.0860
  YYZ=             -0.3466  XYZ=             -0.0133
 Hexadecapole moment (field-independent basis, Debye-Ang**3):
 XXXX=          -1073.1118 YYYY=           -803.2365 ZZZZ=            -61.3355 XXXY=            125.7537
 XXXZ=             -4.3861 YYYX=            192.6778 YYYZ=              0.5030 ZZZX=             -5.3524
 ZZZY=             -0.0464 XXYY=           -328.0954 XXZZ=           -202.9290 YYZZ=           -121.4747
 XXYZ=              0.2207 YYXZ=             -1.7021 ZZXY=             31.6955
 N-N= 4.648314571169D+02 E-N=-2.913190804388D+03  KE= 8.386601865063D+02
                          Isotropic Fermi Contact Couplings
        Atom                 a.u.       MegaHertz       Gauss      10(-4) cm-1
     1  Cl(35)             0.00000       0.00000       0.00000       0.00000
     2  C(13)             -0.00000      -0.00000      -0.00000      -0.00000
     3  C(13)              0.00000       0.00000       0.00000       0.00000
     4  C(13)              0.00000       0.00000       0.00000       0.00000
     5  O(17)             -0.00000       0.00000       0.00000       0.00000
     6  C(13)             -0.00000      -0.00000      -0.00000      -0.00000
     7  C(13)             -0.00000      -0.00000      -0.00000      -0.00000
     8  C(13)              0.00000       0.00000       0.00000       0.00000
     9  O(17)             -0.00000       0.00000       0.00000       0.00000
    10  H(1)              -0.00000      -0.00000      -0.00000      -0.00000
    11  H(1)              -0.00000      -0.00000      -0.00000      -0.00000
    12  H(1)              -0.00000      -0.00000      -0.00000      -0.00000
 --------------------------------------------------------
       Center         ----  Spin Dipole Couplings  ----
                      3XX-RR        3YY-RR        3ZZ-RR
 --------------------------------------------------------
     1   Atom       -0.000000      0.000000     -0.000000
     2   Atom        0.000000     -0.000000      0.000000
     3   Atom       -0.000000      0.000000     -0.000000
     4   Atom       -0.000000      0.000000     -0.000000
     5   Atom        0.000000     -0.000000     -0.000000
     6   Atom       -0.000000      0.000000     -0.000000
     7   Atom       -0.000000     -0.000000      0.000000
     8   Atom        0.000000      0.000000     -0.000000
     9   Atom        0.000000     -0.000000      0.000000
    10   Atom        0.000000     -0.000000      0.000000
    11   Atom       -0.000000      0.000000      0.000000
    12   Atom       -0.000000      0.000000      0.000000
 --------------------------------------------------------
                        XY            XZ            YZ
 --------------------------------------------------------
     1   Atom        0.000000     -0.000000      0.000000
     2   Atom       -0.000000     -0.000000     -0.000000
     3   Atom       -0.000000     -0.000000      0.000000
     4   Atom        0.000000     -0.000000     -0.000000
     5   Atom       -0.000000      0.000000      0.000000
     6   Atom       -0.000000      0.000000      0.000000
     7   Atom        0.000000      0.000000      0.000000
     8   Atom       -0.000000      0.000000      0.000000
     9   Atom        0.000000     -0.000000     -0.000000
    10   Atom        0.000000      0.000000     -0.000000
    11   Atom        0.000000     -0.000000      0.000000
    12   Atom       -0.000000     -0.000000     -0.000000
 --------------------------------------------------------


 ---------------------------------------------------------------------------------
              Anisotropic Spin Dipole Couplings in Principal Axis System
 ---------------------------------------------------------------------------------

       Atom             a.u.   MegaHertz   Gauss  10(-4) cm-1        Axes

              Baa    -0.0000    -0.000    -0.000    -0.000  0.7369 -0.6747  0.0416
     1 Cl(35) Bbb    -0.0000    -0.000    -0.000    -0.000 -0.0296  0.0293  0.9991
              Bcc     0.0000     0.000     0.000     0.000  0.6754  0.7375 -0.0016
 
              Baa    -0.0000    -0.000    -0.000    -0.000  0.4608  0.8874  0.0089
     2 C(13)  Bbb     0.0000     0.000     0.000     0.000  0.8822 -0.4592  0.1046
              Bcc     0.0000     0.000     0.000     0.000 -0.0969  0.0404  0.9945
 
              Baa    -0.0000    -0.000    -0.000    -0.000  0.8129  0.5824  0.0091
     3 C(13)  Bbb    -0.0000    -0.000    -0.000    -0.000 -0.0010 -0.0143  0.9999
              Bcc     0.0000     0.000     0.000     0.000 -0.5825  0.8128  0.0110
 
              Baa    -0.0000    -0.000    -0.000    -0.000  0.9514 -0.3078 -0.0019
     4 C(13)  Bbb    -0.0000    -0.000    -0.000    -0.000  0.0090  0.0218  0.9997
              Bcc     0.0000     0.000     0.000     0.000  0.3077  0.9512 -0.0236
 
              Baa    -0.0000     0.000     0.000     0.000  0.1760  0.9841 -0.0242
     5 O(17)  Bbb    -0.0000     0.000     0.000     0.000 -0.0029  0.0251  0.9997
              Bcc     0.0000    -0.000    -0.000    -0.000  0.9844 -0.1758  0.0073
 
              Baa    -0.0000    -0.000    -0.000    -0.000 -0.0041 -0.0166  0.9999
     6 C(13)  Bbb    -0.0000    -0.000    -0.000    -0.000  0.9948  0.1015  0.0058
              Bcc     0.0000     0.000     0.000     0.000 -0.1015  0.9947  0.0161
 
              Baa    -0.0000    -0.000    -0.000    -0.000 -0.7066  0.7076  0.0017
     7 C(13)  Bbb     0.0000     0.000     0.000     0.000  0.7059  0.7051 -0.0672
              Bcc     0.0000     0.000     0.000     0.000  0.0488  0.0463  0.9977
 
              Baa    -0.0000    -0.000    -0.000    -0.000 -0.0134 -0.0136  0.9998
     8 C(13)  Bbb    -0.0000    -0.000    -0.000    -0.000  0.6569  0.7538  0.0190
              Bcc     0.0000     0.000     0.000     0.000  0.7539 -0.6570  0.0012
 
              Baa    -0.0000     0.000     0.000     0.000 -0.3305  0.9438  0.0058
     9 O(17)  Bbb     0.0000    -0.000    -0.000    -0.000  0.0056 -0.0041  1.0000
              Bcc     0.0000    -0.000    -0.000    -0.000  0.9438  0.3305 -0.0039
 
              Baa    -0.0000    -0.000    -0.000    -0.000 -0.0874  0.9962  0.0032
    10 H(1)   Bbb     0.0000     0.000     0.000     0.000  0.0004 -0.0032  1.0000
              Bcc     0.0000     0.000     0.000     0.000  0.9962  0.0874 -0.0001
 
              Baa    -0.0000    -0.000    -0.000    -0.000  0.8476 -0.5304  0.0179
    11 H(1)   Bbb     0.0000     0.000     0.000     0.000 -0.0284 -0.0116  0.9995
              Bcc     0.0000     0.000     0.000     0.000  0.5299  0.8477  0.0249
 
              Baa    -0.0000    -0.000    -0.000    -0.000  0.9201  0.3902  0.0333
    12 H(1)   Bbb     0.0000     0.000     0.000     0.000 -0.0577  0.0509  0.9970
              Bcc     0.0000     0.000     0.000     0.000 -0.3874  0.9193 -0.0693
 

 ---------------------------------------------------------------------------------

 No NMR shielding tensors so no spin-rotation constants.
 Leave Link  601 at Sat Feb 10 10:02:16 2024, MaxMem=  4026531840 cpu:               3.2 elap:               0.6
 (Enter /sysapps/ubuntu-applications/gaussian/Gaussian/AVX2/g16/l701.exe)
 ... and contract with generalized density number  0.
 Compute integral first derivatives.
 D1PCM: PCM CHGder 1st derivatives, ID1Alg=3 FixD1E=F DoIter=F DoCFld=F I1PDM=0.
 GePol: Maximum number of non-zero 1st derivatives   =     251
 Leave Link  701 at Sat Feb 10 10:02:17 2024, MaxMem=  4026531840 cpu:               7.2 elap:               1.0
 (Enter /sysapps/ubuntu-applications/gaussian/Gaussian/AVX2/g16/l702.exe)
 L702 exits ... SP integral derivatives will be done elsewhere.
 Leave Link  702 at Sat Feb 10 10:02:18 2024, MaxMem=  4026531840 cpu:               0.3 elap:               0.1
 (Enter /sysapps/ubuntu-applications/gaussian/Gaussian/AVX2/g16/l703.exe)
 Integral derivatives from FoFJK, PRISM(SPDF).
 Compute integral first derivatives, UseDBF=F ICtDFT=           0.
 Calling FoFJK, ICntrl=      2127 FMM=F ISym2X=0 I1Cent= 0 IOpClX= 1 NMat=1 NMatS=1 NMatT=0.
 FoFJK:  IHMeth= 1 ICntrl=    2127 DoSepK=F KAlg= 0 I1Cent=           0 FoldK=F
 IRaf=         0 NMat=       1 IRICut=       1 DoRegI=T DoRafI=F ISym2E= 0 IDoP0=0 IntGTp=1.
 FoFCou: FMM=F IPFlag=           0 FMFlag=      100000 FMFlg1=         800
         NFxFlg=           0 DoJE=F BraDBF=F KetDBF=F FulRan=T
         wScrn=  0.000000 ICntrl=      2127 IOpCl=  1 I1Cent=           0 NGrid=           0
         NMat0=    1 NMatS0=      1 NMatT0=    0 NMatD0=    1 NMtDS0=    0 NMtDT0=    0
 Symmetry not used in FoFCou.
 Leave Link  703 at Sat Feb 10 10:02:25 2024, MaxMem=  4026531840 cpu:              55.9 elap:               7.1
 (Enter /sysapps/ubuntu-applications/gaussian/Gaussian/AVX2/g16/l716.exe)
 Dipole        =-5.92154329D-01-3.01117162D-02-6.24601465D-03
 -------------------------------------------------------------------
 Center     Atomic                   Forces (Hartrees/Bohr)
 Number     Number              X              Y              Z
 -------------------------------------------------------------------
      1       17           0.001398348    0.000077997    0.000009896
      2        6          -0.002556786    0.000336355   -0.000034307
      3        6           0.000953938    0.000483418    0.000013899
      4        6           0.002164987   -0.007196527   -0.000015486
      5        8          -0.001623504    0.004481930   -0.000002702
      6        6          -0.000229995    0.001192468    0.000008602
      7        6           0.001165175   -0.000639210    0.000011141
      8        6          -0.004007917    0.005863894   -0.000004170
      9        8           0.002685004   -0.004137955    0.000015430
     10        1           0.000340416   -0.000279827    0.000002715
     11        1           0.000202178   -0.000799248   -0.000001805
     12        1          -0.000491844    0.000616704   -0.000003213
 -------------------------------------------------------------------
 Cartesian Forces:  Max     0.007196527 RMS     0.002163305
 Leave Link  716 at Sat Feb 10 10:02:25 2024, MaxMem=  4026531840 cpu:               0.8 elap:               0.2
 (Enter /sysapps/ubuntu-applications/gaussian/Gaussian/AVX2/g16/l103.exe)

 GradGradGradGradGradGradGradGradGradGradGradGradGradGradGradGradGradGrad
 Berny optimization.
 FormGI is forming the generalized inverse of G from B-inverse, IUseBI=4.
 Internal  Forces:  Max     0.004895074 RMS     0.001097443
 Search for a local minimum.
 Step number   1 out of a maximum of   64
 All quantities printed in internal units (Hartrees-Bohrs-Radians)
 RMS Force = .10974D-02 SwitMx=.10000D-02 MixMth= 1
 Mixed Optimization -- RFO/linear search
 Second derivative matrix not updated -- first step.
 ITU=  0
     Eigenvalues ---    0.00834   0.00908   0.00987   0.01607   0.01625
     Eigenvalues ---    0.01927   0.01996   0.02212   0.02297   0.16000
     Eigenvalues ---    0.16000   0.16000   0.22340   0.23445   0.24599
     Eigenvalues ---    0.25000   0.25000   0.25000   0.31309   0.32207
     Eigenvalues ---    0.32888   0.33632   0.34214   0.35494   0.35499
     Eigenvalues ---    0.35626   0.53665   0.57361   0.95745   0.98741
 RFO step:  Lambda=-1.16095973D-04 EMin= 8.33712980D-03
 Linear search not attempted -- first point.
 Iteration  1 RMS(Cart)=  0.00277173 RMS(Int)=  0.00000454
 Iteration  2 RMS(Cart)=  0.00000593 RMS(Int)=  0.00000043
 Iteration  3 RMS(Cart)=  0.00000000 RMS(Int)=  0.00000043
 ITry= 1 IFail=0 DXMaxC= 9.87D-03 DCOld= 1.00D+10 DXMaxT= 3.00D-01 DXLimC= 3.00D+00 Rises=F
 Variable       Old X    -DE/DX   Delta X   Delta X   Delta X     New X
                                 (Linear)    (Quad)   (Total)
    R1        3.27467   0.00138   0.00000   0.00430   0.00430   3.27897
    R2        2.53426  -0.00183   0.00000  -0.00325  -0.00325   2.53101
    R3        2.84224  -0.00065   0.00000  -0.00211  -0.00210   2.84014
    R4        2.79996  -0.00025   0.00000  -0.00072  -0.00072   2.79924
    R5        2.04670  -0.00006   0.00000  -0.00018  -0.00018   2.04652
    R6        2.30393   0.00474   0.00000   0.00495   0.00495   2.30887
    R7        2.80609  -0.00077   0.00000  -0.00219  -0.00219   2.80390
    R8        2.52815  -0.00087   0.00000  -0.00147  -0.00147   2.52668
    R9        2.04881  -0.00029   0.00000  -0.00081  -0.00081   2.04800
   R10        2.80649  -0.00113   0.00000  -0.00335  -0.00335   2.80315
   R11        2.04873  -0.00028   0.00000  -0.00079  -0.00079   2.04794
   R12        2.29147   0.00490   0.00000   0.00496   0.00496   2.29643
    A1        2.12940  -0.00043   0.00000  -0.00172  -0.00172   2.12768
    A2        2.03087   0.00028   0.00000   0.00111   0.00111   2.03198
    A3        2.12292   0.00016   0.00000   0.00061   0.00061   2.12353
    A4        2.11552  -0.00102   0.00000  -0.00453  -0.00453   2.11099
    A5        2.13546   0.00007   0.00000  -0.00049  -0.00049   2.13497
    A6        2.03221   0.00095   0.00000   0.00502   0.00502   2.03723
    A7        2.11245  -0.00118   0.00000  -0.00488  -0.00488   2.10757
    A8        2.05255   0.00114   0.00000   0.00486   0.00486   2.05741
    A9        2.11818   0.00005   0.00000   0.00003   0.00003   2.11821
   A10        2.11512  -0.00055   0.00000  -0.00209  -0.00209   2.11303
   A11        2.02644   0.00107   0.00000   0.00602   0.00602   2.03247
   A12        2.14162  -0.00052   0.00000  -0.00393  -0.00393   2.13769
   A13        2.13243  -0.00050   0.00000  -0.00201  -0.00201   2.13042
   A14        2.14331  -0.00050   0.00000  -0.00368  -0.00368   2.13963
   A15        2.00745   0.00100   0.00000   0.00569   0.00569   2.01314
   A16        2.02783   0.00078   0.00000   0.00316   0.00316   2.03099
   A17        2.13486  -0.00110   0.00000  -0.00440  -0.00440   2.13046
   A18        2.12050   0.00031   0.00000   0.00123   0.00123   2.12173
    D1       -3.14159  -0.00000   0.00000  -0.00021  -0.00021   3.14139
    D2       -0.00000  -0.00000   0.00000  -0.00012  -0.00012  -0.00012
    D3       -0.00000  -0.00000   0.00000  -0.00027  -0.00027  -0.00027
    D4        3.14159  -0.00000   0.00000  -0.00018  -0.00018   3.14141
    D5       -3.14159   0.00000   0.00000   0.00033   0.00033  -3.14126
    D6       -0.00003  -0.00000   0.00000  -0.00011  -0.00011  -0.00014
    D7        0.00000   0.00000   0.00000   0.00039   0.00039   0.00039
    D8        3.14156  -0.00000   0.00000  -0.00005  -0.00005   3.14151
    D9       -3.14159   0.00000   0.00000  -0.00002  -0.00002   3.14157
   D10       -0.00000   0.00000   0.00000   0.00005   0.00005   0.00005
   D11        0.00000  -0.00000   0.00000  -0.00011  -0.00011  -0.00010
   D12       -3.14159   0.00000   0.00000  -0.00004  -0.00004   3.14156
   D13       -0.00000  -0.00000   0.00000   0.00004   0.00004   0.00004
   D14       -3.14159   0.00000   0.00000   0.00015   0.00015  -3.14144
   D15        3.14159   0.00000   0.00000   0.00012   0.00012  -3.14148
   D16       -0.00000   0.00000   0.00000   0.00022   0.00023   0.00022
   D17        0.00000   0.00000   0.00000   0.00009   0.00009   0.00010
   D18       -3.14159   0.00000   0.00000   0.00014   0.00014  -3.14144
   D19       -3.14159  -0.00000   0.00000  -0.00002  -0.00002   3.14157
   D20        0.00001   0.00000   0.00000   0.00003   0.00003   0.00003
   D21       -0.00000  -0.00000   0.00000  -0.00030  -0.00030  -0.00030
   D22       -3.14156   0.00000   0.00000   0.00014   0.00014  -3.14142
   D23        3.14158  -0.00000   0.00000  -0.00034  -0.00034   3.14124
   D24        0.00003   0.00000   0.00000   0.00009   0.00009   0.00012
         Item               Value     Threshold  Converged?
 Maximum Force            0.004895     0.000450     NO 
 RMS     Force            0.001097     0.000300     NO 
 Maximum Displacement     0.009866     0.001800     NO 
 RMS     Displacement     0.002772     0.001200     NO 
 Predicted change in Energy=-5.806782D-05
 Lowest energy point so far.  Saving SCF results.
 GradGradGradGradGradGradGradGradGradGradGradGradGradGradGradGradGradGrad

 Leave Link  103 at Sat Feb 10 10:02:26 2024, MaxMem=  4026531840 cpu:               4.7 elap:               0.7
 (Enter /sysapps/ubuntu-applications/gaussian/Gaussian/AVX2/g16/l202.exe)
                          Input orientation:                          
 ---------------------------------------------------------------------
 Center     Atomic      Atomic             Coordinates (Angstroms)
 Number     Number       Type             X           Y           Z
 ---------------------------------------------------------------------
      1         17           0        3.106826   -0.187358    0.031291
      2          6           0        1.379564   -0.022931    0.014218
      3          6           0        0.782582    1.176014    0.012166
      4          6           0       -0.694108    1.291760   -0.002777
      5          8           0       -1.234953    2.387335   -0.004581
      6          6           0       -1.488235    0.038463   -0.015307
      7          6           0       -0.890174   -1.157383   -0.013130
      8          6           0        0.586296   -1.299407    0.001899
      9          8           0        1.120393   -2.390961    0.003587
     10          1           0        1.343627    2.102285    0.021124
     11          1           0       -2.566172    0.150063   -0.026274
     12          1           0       -1.445646   -2.087880   -0.022216
 ---------------------------------------------------------------------
                    Distance matrix (angstroms):
                    1          2          3          4          5
     1  Cl   0.000000
     2  C    1.735154   0.000000
     3  C    2.694673   1.339351   0.000000
     4  C    4.078732   2.455365   1.481295   0.000000
     5  O    5.047908   3.556043   2.353301   1.221803   0.000000
     6  C    4.600843   2.868609   2.539958   1.483761   2.362513
     7  C    4.113262   2.537606   2.871148   2.457000   3.561457
     8  C    2.755102   1.502936   2.483212   2.890260   4.112063
     9  O    2.966908   2.382194   3.582945   4.105470   5.327273
    10  H    2.889886   2.125531   1.082973   2.193146   2.594415
    11  H    5.683316   3.949735   3.502600   2.192863   2.603460
    12  H    4.933543   3.499594   3.952111   3.462247   4.480207
                    6          7          8          9         10
     6  C    0.000000
     7  C    1.337061   0.000000
     8  C    2.468577   1.483361   0.000000
     9  O    3.564744   2.358892   1.215217   0.000000
    10  H    3.504302   3.951769   3.485029   4.498821   0.000000
    11  H    1.083754   2.125691   3.469844   4.477551   4.370349
    12  H    2.126781   1.083723   2.179693   2.584005   5.033826
                   11         12
    11  H    0.000000
    12  H    2.502796   0.000000
 Symmetry turned off by external request.
 Stoichiometry    C6H3ClO2
 Framework group  C1[X(C6H3ClO2)]
 Deg. of freedom    30
 Full point group                 C1      NOp   1
 Rotational constants (GHZ):           2.3691000           1.1227675           0.7617553
 Leave Link  202 at Sat Feb 10 10:02:26 2024, MaxMem=  4026531840 cpu:               0.5 elap:               0.1
 (Enter /sysapps/ubuntu-applications/gaussian/Gaussian/AVX2/g16/l301.exe)
 Standard basis: 6-311++G(d,p) (5D, 7F)
 Ernie: Thresh=  0.10000D-02 Tol=  0.10000D-05 Strict=F.
   227 basis functions,   368 primitive gaussians,   236 cartesian basis functions
    36 alpha electrons       36 beta electrons
       nuclear repulsion energy       464.8566585014 Hartrees.
 IExCor=  402 DFT=T Ex+Corr=B3LYP ExCW=0 ScaHFX=  0.200000
 ScaDFX=  0.800000  0.720000  1.000000  0.810000 ScalE2=  1.000000  1.000000
 IRadAn=      5 IRanWt=     -1 IRanGd=            0 ICorTp=0 IEmpDi=  4
 NAtoms=   12 NActive=   12 NUniq=   12 SFac= 1.00D+00 NAtFMM=   60 NAOKFM=F Big=F
 Integral buffers will be    131072 words long.
 Raffenetti 2 integral format.
 Two-electron integral symmetry is turned off.
 ------------------------------------------------------------------------------
 Polarizable Continuum Model (PCM)
 =================================
 Model                : PCM.
 Atomic radii         : UFF (Universal Force Field).
 Polarization charges : Total charges.
 Charge compensation  : None.
 Solution method      : On-the-fly selection.
 Cavity type          : Scaled VdW (van der Waals Surface) (Alpha=1.100).
 Cavity algorithm     : GePol (No added spheres)
                        Default sphere list used, NSphG=   12.
                        Lebedev-Laikov grids with approx.  5.0 points / Ang**2.
                        Smoothing algorithm: York/Karplus (Gamma=1.0000).
                        Polarization charges: spherical gaussians, with
                                              point-specific exponents (IZeta= 3).
                        Self-potential: point-specific (ISelfS= 7).
                        Self-field    : sphere-specific E.n sum rule (ISelfD= 2).
 1st derivatives      : Analytical E(r).r(x)/FMM algorithm (CHGder, D1EAlg=3).
                        Cavity 1st derivative terms included.
 Solvent              : n,n-DiMethylFormamide, Eps=  37.219000 Eps(inf)=   2.046330
 ------------------------------------------------------------------------------
 Spheres list:
 ISph  on   Nord     Re0    Alpha      Xe            Ye            Ze
    1  Cl      1    1.9735  1.100      3.106826     -0.187358      0.031291
    2   C      2    1.9255  1.100      1.379564     -0.022931      0.014218
    3   C      3    1.9255  1.100      0.782582      1.176014      0.012166
    4   C      4    1.9255  1.100     -0.694108      1.291760     -0.002777
    5   O      5    1.7500  1.100     -1.234953      2.387335     -0.004581
    6   C      6    1.9255  1.100     -1.488235      0.038463     -0.015307
    7   C      7    1.9255  1.100     -0.890174     -1.157383     -0.013130
    8   C      8    1.9255  1.100      0.586296     -1.299407      0.001899
    9   O      9    1.7500  1.100      1.120393     -2.390961      0.003587
   10   H     10    1.4430  1.100      1.343627      2.102285      0.021124
   11   H     11    1.4430  1.100     -2.566172      0.150063     -0.026274
   12   H     12    1.4430  1.100     -1.445646     -2.087880     -0.022216
 ------------------------------------------------------------------------------
 GePol: Number of generator spheres                  =      12
 GePol: Total number of spheres                      =      12
 GePol: Number of exposed spheres                    =      12 (100.00%)
 GePol: Number of points                             =    1261
 GePol: Average weight of points                     =       0.14
 GePol: Minimum weight of points                     =   0.23D-07
 GePol: Maximum weight of points                     =    0.21616
 GePol: Number of points with low weight             =      48
 GePol: Fraction of low-weight points (<1% of avg)   =       3.81%
 GePol: Cavity surface area                          =    177.339 Ang**2
 GePol: Cavity volume                                =    173.736 Ang**3
 Leave Link  301 at Sat Feb 10 10:02:26 2024, MaxMem=  4026531840 cpu:               0.6 elap:               0.1
 (Enter /sysapps/ubuntu-applications/gaussian/Gaussian/AVX2/g16/l302.exe)
 NPDir=0 NMtPBC=     1 NCelOv=     1 NCel=       1 NClECP=     1 NCelD=      1
         NCelK=      1 NCelE2=     1 NClLst=     1 CellRange=     0.0.
 One-electron integrals computed using PRISM.
 NBasis=   227 RedAO= T EigKep=  2.17D-06  NBF=   227
 NBsUse=   227 1.00D-06 EigRej= -1.00D+00 NBFU=   227
 Precomputing XC quadrature grid using
 IXCGrd= 4 IRadAn=           5 IRanWt=          -1 IRanGd=           0 AccXCQ= 0.00D+00.
 Generated NRdTot=       0 NPtTot=           0 NUsed=           0 NTot=          32
 NSgBfM=   236   236   236   236   236 MxSgAt=    12 MxSgA2=    12.
 Leave Link  302 at Sat Feb 10 10:02:27 2024, MaxMem=  4026531840 cpu:               3.9 elap:               0.6
 (Enter /sysapps/ubuntu-applications/gaussian/Gaussian/AVX2/g16/l303.exe)
 DipDrv:  MaxL=1.
 Leave Link  303 at Sat Feb 10 10:02:27 2024, MaxMem=  4026531840 cpu:               0.8 elap:               0.2
 (Enter /sysapps/ubuntu-applications/gaussian/Gaussian/AVX2/g16/l401.exe)
 Initial guess from the checkpoint file:  "003.chk"
 B after Tr=     0.000637    0.000715    0.000056
         Rot=    1.000000    0.000016   -0.000033   -0.000068 Ang=   0.01 deg.
 Guess basis will be translated and rotated to current coordinates.
 JPrj=2 DoOrth=T DoCkMO=T.
 Initial guess <Sx>= 0.0000 <Sy>= 0.0000 <Sz>= 0.0000 <S**2>=-0.0000 S=-0.0000
 Leave Link  401 at Sat Feb 10 10:02:27 2024, MaxMem=  4026531840 cpu:               2.3 elap:               0.4
 (Enter /sysapps/ubuntu-applications/gaussian/Gaussian/AVX2/g16/l502.exe)
 Keep R1 and R2 ints in memory in canonical form, NReq=678227526.
 FoFCou: FMM=F IPFlag=           0 FMFlag=           0 FMFlg1=           0
         NFxFlg=           0 DoJE=F BraDBF=F KetDBF=F FulRan=T
         wScrn=  0.000000 ICntrl=       600 IOpCl=  0 I1Cent=           0 NGrid=           0
         NMat0=    1 NMatS0=  25878 NMatT0=    0 NMatD0=    1 NMtDS0=    0 NMtDT0=    0
 Symmetry not used in FoFCou.
 Two-electron integral symmetry not used.
 UHF open shell SCF:
 Using DIIS extrapolation, IDIIS=  1040.
 NGot=  4026531840 LenX=  3356720098 LenY=  3356663961
 Requested convergence on RMS density matrix=1.00D-08 within 128 cycles.
 Requested convergence on MAX density matrix=1.00D-06.
 Requested convergence on             energy=1.00D-06.
 No special actions if energy rises.

 Cycle   1  Pass 1  IDiag  1:
 Inv3:  Mode=1 IEnd=     4770363.
 Iteration    1 A*A^-1 deviation from unit magnitude is 3.33D-15 for    757.
 Iteration    1 A*A^-1 deviation from orthogonality  is 1.44D-15 for    771    619.
 Iteration    1 A^-1*A deviation from unit magnitude is 3.11D-15 for    757.
 Iteration    1 A^-1*A deviation from orthogonality  is 2.27D-15 for    908    526.
 E= -841.190818640529    
 DIIS: error= 2.54D-04 at cycle   1 NSaved=   1.
 NSaved= 1 IEnMin= 1 EnMin= -841.190818640529     IErMin= 1 ErrMin= 2.54D-04
 ErrMax= 2.54D-04  0.00D+00 EMaxC= 1.00D-01 BMatC= 1.43D-04 BMatP= 1.43D-04
 IDIUse=3 WtCom= 9.97D-01 WtEn= 2.54D-03
 Coeff-Com:  0.100D+01
 Coeff-En:   0.100D+01
 Coeff:      0.100D+01
 Gap=     0.438 Goal=   None    Shift=    0.000
 Gap=     0.438 Goal=   None    Shift=    0.000
 RMSDP=7.21D-04 MaxDP=6.49D-02              OVMax= 2.46D-03

 Cycle   2  Pass 1  IDiag  1:
 E= -841.190853218042     Delta-E=       -0.000034577513 Rises=F Damp=F
 DIIS: error= 3.11D-04 at cycle   2 NSaved=   2.
 NSaved= 2 IEnMin= 2 EnMin= -841.190853218042     IErMin= 1 ErrMin= 2.54D-04
 ErrMax= 3.11D-04  0.00D+00 EMaxC= 1.00D-01 BMatC= 4.06D-05 BMatP= 1.43D-04
 IDIUse=3 WtCom= 9.97D-01 WtEn= 3.11D-03
 Coeff-Com:  0.268D+00 0.732D+00
 Coeff-En:   0.000D+00 0.100D+01
 Coeff:      0.267D+00 0.733D+00
 Gap=     0.147 Goal=   None    Shift=    0.000
 Gap=     0.147 Goal=   None    Shift=    0.000
 RMSDP=9.29D-05 MaxDP=6.71D-03 DE=-3.46D-05 OVMax= 1.99D-03

 Cycle   3  Pass 1  IDiag  1:
 E= -841.190847852182     Delta-E=        0.000005365860 Rises=F Damp=F
 DIIS: error= 4.11D-04 at cycle   3 NSaved=   3.
 NSaved= 3 IEnMin= 2 EnMin= -841.190853218042     IErMin= 1 ErrMin= 2.54D-04
 ErrMax= 4.11D-04  0.00D+00 EMaxC= 1.00D-01 BMatC= 6.74D-05 BMatP= 4.06D-05
 IDIUse=3 WtCom= 3.30D-01 WtEn= 6.70D-01
 Coeff-Com: -0.138D-03 0.564D+00 0.436D+00
 Coeff-En:   0.000D+00 0.604D+00 0.396D+00
 Coeff:     -0.455D-04 0.591D+00 0.409D+00
 Gap=     0.147 Goal=   None    Shift=    0.000
 Gap=     0.147 Goal=   None    Shift=    0.000
 RMSDP=4.53D-05 MaxDP=1.84D-03 DE= 5.37D-06 OVMax= 1.30D-03

 Cycle   4  Pass 1  IDiag  1:
 E= -841.190860321166     Delta-E=       -0.000012468984 Rises=F Damp=F
 DIIS: error= 2.73D-05 at cycle   4 NSaved=   4.
 NSaved= 4 IEnMin= 4 EnMin= -841.190860321166     IErMin= 4 ErrMin= 2.73D-05
 ErrMax= 2.73D-05  0.00D+00 EMaxC= 1.00D-01 BMatC= 7.02D-07 BMatP= 4.06D-05
 IDIUse=1 WtCom= 1.00D+00 WtEn= 0.00D+00
 Coeff-Com: -0.116D-01 0.239D+00 0.171D+00 0.602D+00
 Coeff:     -0.116D-01 0.239D+00 0.171D+00 0.602D+00
 Gap=     0.147 Goal=   None    Shift=    0.000
 Gap=     0.147 Goal=   None    Shift=    0.000
 RMSDP=1.53D-05 MaxDP=1.66D-03 DE=-1.25D-05 OVMax= 9.46D-05

 Cycle   5  Pass 1  IDiag  1:
 E= -841.190860457512     Delta-E=       -0.000000136346 Rises=F Damp=F
 DIIS: error= 7.73D-06 at cycle   5 NSaved=   5.
 NSaved= 5 IEnMin= 5 EnMin= -841.190860457512     IErMin= 5 ErrMin= 7.73D-06
 ErrMax= 7.73D-06  0.00D+00 EMaxC= 1.00D-01 BMatC= 7.29D-08 BMatP= 7.02D-07
 IDIUse=1 WtCom= 1.00D+00 WtEn= 0.00D+00
 Coeff-Com: -0.397D-02 0.580D-01 0.456D-01 0.280D+00 0.621D+00
 Coeff:     -0.397D-02 0.580D-01 0.456D-01 0.280D+00 0.621D+00
 Gap=     0.147 Goal=   None    Shift=    0.000
 Gap=     0.147 Goal=   None    Shift=    0.000
 RMSDP=3.93D-06 MaxDP=3.43D-04 DE=-1.36D-07 OVMax= 4.61D-05

 Cycle   6  Pass 1  IDiag  1:
 E= -841.190860472831     Delta-E=       -0.000000015319 Rises=F Damp=F
 DIIS: error= 3.56D-06 at cycle   6 NSaved=   6.
 NSaved= 6 IEnMin= 6 EnMin= -841.190860472831     IErMin= 6 ErrMin= 3.56D-06
 ErrMax= 3.56D-06  0.00D+00 EMaxC= 1.00D-01 BMatC= 9.39D-09 BMatP= 7.29D-08
 IDIUse=1 WtCom= 1.00D+00 WtEn= 0.00D+00
 Coeff-Com: -0.161D-02 0.186D-01 0.165D-01 0.125D+00 0.361D+00 0.480D+00
 Coeff:     -0.161D-02 0.186D-01 0.165D-01 0.125D+00 0.361D+00 0.480D+00
 Gap=     0.147 Goal=   None    Shift=    0.000
 Gap=     0.147 Goal=   None    Shift=    0.000
 RMSDP=8.49D-07 MaxDP=4.13D-05 DE=-1.53D-08 OVMax= 2.31D-05

 Cycle   7  Pass 1  IDiag  1:
 E= -841.190860474592     Delta-E=       -0.000000001761 Rises=F Damp=F
 DIIS: error= 1.77D-06 at cycle   7 NSaved=   7.
 NSaved= 7 IEnMin= 7 EnMin= -841.190860474592     IErMin= 7 ErrMin= 1.77D-06
 ErrMax= 1.77D-06  0.00D+00 EMaxC= 1.00D-01 BMatC= 1.65D-09 BMatP= 9.39D-09
 IDIUse=1 WtCom= 1.00D+00 WtEn= 0.00D+00
 Coeff-Com: -0.188D-03-0.134D-02 0.464D-03 0.199D-01 0.104D+00 0.314D+00
 Coeff-Com:  0.563D+00
 Coeff:     -0.188D-03-0.134D-02 0.464D-03 0.199D-01 0.104D+00 0.314D+00
 Coeff:      0.563D+00
 Gap=     0.147 Goal=   None    Shift=    0.000
 Gap=     0.147 Goal=   None    Shift=    0.000
 RMSDP=8.57D-07 MaxDP=6.23D-05 DE=-1.76D-09 OVMax= 9.52D-06

 Cycle   8  Pass 1  IDiag  1:
 E= -841.190860474925     Delta-E=       -0.000000000333 Rises=F Damp=F
 DIIS: error= 4.65D-07 at cycle   8 NSaved=   8.
 NSaved= 8 IEnMin= 8 EnMin= -841.190860474925     IErMin= 8 ErrMin= 4.65D-07
 ErrMax= 4.65D-07  0.00D+00 EMaxC= 1.00D-01 BMatC= 1.33D-10 BMatP= 1.65D-09
 IDIUse=1 WtCom= 1.00D+00 WtEn= 0.00D+00
 Coeff-Com: -0.179D-05-0.214D-02-0.963D-03 0.175D-02 0.335D-01 0.140D+00
 Coeff-Com:  0.324D+00 0.504D+00
 Coeff:     -0.179D-05-0.214D-02-0.963D-03 0.175D-02 0.335D-01 0.140D+00
 Coeff:      0.324D+00 0.504D+00
 Gap=     0.147 Goal=   None    Shift=    0.000
 Gap=     0.147 Goal=   None    Shift=    0.000
 RMSDP=1.33D-07 MaxDP=8.40D-06 DE=-3.33D-10 OVMax= 2.29D-06

 Cycle   9  Pass 1  IDiag  1:
 E= -841.190860474952     Delta-E=       -0.000000000028 Rises=F Damp=F
 DIIS: error= 1.55D-07 at cycle   9 NSaved=   9.
 NSaved= 9 IEnMin= 9 EnMin= -841.190860474952     IErMin= 9 ErrMin= 1.55D-07
 ErrMax= 1.55D-07  0.00D+00 EMaxC= 1.00D-01 BMatC= 1.92D-11 BMatP= 1.33D-10
 IDIUse=1 WtCom= 1.00D+00 WtEn= 0.00D+00
 Coeff-Com:  0.245D-04-0.113D-02-0.684D-03-0.182D-02 0.661D-02 0.417D-01
 Coeff-Com:  0.124D+00 0.314D+00 0.517D+00
 Coeff:      0.245D-04-0.113D-02-0.684D-03-0.182D-02 0.661D-02 0.417D-01
 Coeff:      0.124D+00 0.314D+00 0.517D+00
 Gap=     0.147 Goal=   None    Shift=    0.000
 Gap=     0.147 Goal=   None    Shift=    0.000
 RMSDP=1.06D-07 MaxDP=1.19D-05 DE=-2.76D-11 OVMax= 7.21D-07

 Cycle  10  Pass 1  IDiag  1:
 E= -841.190860474949     Delta-E=        0.000000000003 Rises=F Damp=F
[...]
   D22        3.14117   0.00001   0.00000   0.00023   0.00023   3.14140
   D23       -3.14151  -0.00001   0.00000  -0.00040  -0.00040   3.14128
   D24       -0.00043   0.00001   0.00000   0.00022   0.00022  -0.00021
         Item               Value     Threshold  Converged?
 Maximum Force            0.000306     0.000450     YES
 RMS     Force            0.000075     0.000300     YES
 Maximum Displacement     0.001028     0.001800     YES
 RMS     Displacement     0.000288     0.001200     YES
 Predicted change in Energy=-5.743622D-07
 Optimization completed.
    -- Stationary point found.
                           ----------------------------
                           !   Optimized Parameters   !
                           ! (Angstroms and Degrees)  !
 --------------------------                            --------------------------
 ! Name  Definition              Value          Derivative Info.                !
 --------------------------------------------------------------------------------
 ! R1    R(1,2)                  1.7366         -DE/DX =   -0.0001              !
 ! R2    R(2,3)                  1.3396         -DE/DX =    0.0                 !
 ! R3    R(2,8)                  1.5016         -DE/DX =    0.0001              !
 ! R4    R(3,4)                  1.4805         -DE/DX =    0.0001              !
 ! R5    R(3,10)                 1.0827         -DE/DX =    0.0                 !
 ! R6    R(4,5)                  1.2234         -DE/DX =   -0.0003              !
 ! R7    R(4,6)                  1.4818         -DE/DX =    0.0001              !
 ! R8    R(6,7)                  1.3381         -DE/DX =   -0.0001              !
 ! R9    R(6,11)                 1.0836         -DE/DX =    0.0                 !
 ! R10   R(7,8)                  1.4813         -DE/DX =    0.0001              !
 ! R11   R(7,12)                 1.0836         -DE/DX =    0.0                 !
 ! R12   R(8,9)                  1.2167         -DE/DX =   -0.0003              !
 ! A1    A(1,2,3)              121.8239         -DE/DX =    0.0                 !
 ! A2    A(1,2,8)              116.4399         -DE/DX =    0.0                 !
 ! A3    A(3,2,8)              121.7362         -DE/DX =    0.0                 !
 ! A4    A(2,3,4)              120.791          -DE/DX =    0.0001              !
 ! A5    A(2,3,10)             122.4137         -DE/DX =    0.0                 !
 ! A6    A(4,3,10)             116.7953         -DE/DX =    0.0                 !
 ! A7    A(3,4,5)              120.6831         -DE/DX =    0.0                 !
 ! A8    A(3,4,6)              117.9959         -DE/DX =   -0.0001              !
 ! A9    A(5,4,6)              121.3209         -DE/DX =    0.0                 !
 ! A10   A(4,6,7)              121.0551         -DE/DX =    0.0                 !
 ! A11   A(4,6,11)             116.593          -DE/DX =   -0.0001              !
 ! A12   A(7,6,11)             122.3519         -DE/DX =    0.0                 !
 ! A13   A(6,7,8)              121.997          -DE/DX =    0.0                 !
 ! A14   A(6,7,12)             122.4472         -DE/DX =    0.0                 !
 ! A15   A(8,7,12)             115.5558         -DE/DX =   -0.0001              !
 ! A16   A(2,8,7)              116.4247         -DE/DX =    0.0                 !
 ! A17   A(2,8,9)              122.0081         -DE/DX =    0.0                 !
 ! A18   A(7,8,9)              121.5672         -DE/DX =    0.0                 !
 ! D1    D(1,2,3,4)            179.9753         -DE/DX =    0.0                 !
 ! D2    D(1,2,3,10)            -0.0123         -DE/DX =    0.0                 !
 ! D3    D(8,2,3,4)             -0.0289         -DE/DX =    0.0                 !
 ! D4    D(8,2,3,10)           179.9835         -DE/DX =    0.0                 !
 ! D5    D(1,2,8,7)           -180.0014         -DE/DX =    0.0                 !
 ! D6    D(1,2,8,9)              0.0282         -DE/DX =    0.0                 !
 ! D7    D(3,2,8,7)              0.0026         -DE/DX =    0.0                 !
 ! D8    D(3,2,8,9)           -179.9678         -DE/DX =    0.0                 !
 ! D9    D(2,3,4,5)           -180.0384         -DE/DX =    0.0                 !
 ! D10   D(2,3,4,6)              0.0465         -DE/DX =    0.0                 !
 ! D11   D(10,3,4,5)            -0.0502         -DE/DX =    0.0                 !
 ! D12   D(10,3,4,6)           180.0348         -DE/DX =    0.0                 !
 ! D13   D(3,4,6,7)             -0.0388         -DE/DX =    0.0                 !
 ! D14   D(3,4,6,11)          -180.027          -DE/DX =    0.0                 !
 ! D15   D(5,4,6,7)           -179.9532         -DE/DX =    0.0                 !
 ! D16   D(5,4,6,11)             0.0586         -DE/DX =    0.0                 !
 ! D17   D(4,6,7,8)              0.0135         -DE/DX =    0.0                 !
 ! D18   D(4,6,7,12)          -179.9857         -DE/DX =    0.0                 !
 ! D19   D(11,6,7,8)           180.001          -DE/DX =    0.0                 !
 ! D20   D(11,6,7,12)            0.0018         -DE/DX =    0.0                 !
 ! D21   D(6,7,8,2)              0.0054         -DE/DX =    0.0                 !
 ! D22   D(6,7,8,9)            179.9759         -DE/DX =    0.0                 !
 ! D23   D(12,7,8,2)           180.0046         -DE/DX =    0.0                 !
 ! D24   D(12,7,8,9)            -0.0248         -DE/DX =    0.0                 !
 --------------------------------------------------------------------------------
 GradGradGradGradGradGradGradGradGradGradGradGradGradGradGradGradGradGrad

 Leave Link  103 at Sat Feb 10 10:13:50 2024, MaxMem=  4026531840 cpu:               9.6 elap:               2.1
 (Enter /sysapps/ubuntu-applications/gaussian/Gaussian/AVX2/g16/l9999.exe)

 ----------------------------------------------------------------------

 Electric dipole moment (input orientation):
 (Debye = 10**-18 statcoulomb cm , SI units = C m)
                  (au)            (Debye)         (10**-30 SI)
   Tot        0.612338D+00      0.155641D+01      0.519161D+01
   x         -0.611506D+00     -0.155429D+01     -0.518456D+01
   y         -0.310548D-01     -0.789334D-01     -0.263294D+00
   z         -0.730084D-02     -0.185569D-01     -0.618991D-01

 Dipole polarizability, Alpha (input orientation).
 (esu units = cm**3 , SI units = C**2 m**2 J**-1)
 Alpha(0;0):
               (au)            (10**-24 esu)      (10**-40 SI)
   iso        0.120945D+03      0.179222D+02      0.199411D+02
   aniso      0.121288D+03      0.179731D+02      0.199977D+02
   xx         0.142858D+03      0.211694D+02      0.235542D+02
   yx        -0.426757D+02     -0.632389D+01     -0.703627D+01
   yy         0.162158D+03      0.240293D+02      0.267362D+02
   zx         0.734068D+00      0.108778D+00      0.121031D+00
   zy        -0.843265D-01     -0.124959D-01     -0.139036D-01
   zz         0.578181D+02      0.856777D+01      0.953292D+01

 ----------------------------------------------------------------------

 Dipole orientation:
    17          0.02271160         -0.65179373         -5.84582278
     6          0.00457851         -0.17609282         -2.59887460
     6         -0.10487713          2.14321945         -1.59009011
     6         -0.11897508          2.49882727          1.18500226
     8         -0.21768733          4.61867387          2.10225187
     6         -0.00657400          0.21637959          2.80323627
     6          0.10290986         -2.09742923          1.78924120
     6          0.11835081         -2.50393115         -0.98023564
     8          0.21908108         -4.61471588         -1.88644998
     1         -0.18703889          3.83536782         -2.73723843
     1         -0.01844180          0.52627793          4.82730525
     1          0.18596237         -3.79478312          2.93167470

 Electric dipole moment (dipole orientation):
 (Debye = 10**-18 statcoulomb cm , SI units = C m)
                  (au)            (Debye)         (10**-30 SI)
   Tot        0.612338D+00      0.155641D+01      0.519161D+01
   x          0.000000D+00      0.000000D+00      0.000000D+00
   y          0.000000D+00      0.000000D+00      0.000000D+00
   z          0.612338D+00      0.155641D+01      0.519161D+01

 Dipole polarizability, Alpha (dipole orientation).
 (esu units = cm**3 , SI units = C**2 m**2 J**-1)
 Alpha(0;0):
               (au)            (10**-24 esu)      (10**-40 SI)
   iso        0.120945D+03      0.179222D+02      0.199411D+02
   aniso      0.121288D+03      0.179731D+02      0.199977D+02
   xx         0.580539D+02      0.860270D+01      0.957179D+01
   yx        -0.513076D+01     -0.760300D+00     -0.845948D+00
   yy         0.166190D+03      0.246268D+02      0.274010D+02
   zx        -0.186970D+01     -0.277061D+00     -0.308272D+00
   zy         0.414356D+02      0.614012D+01      0.683180D+01
   zz         0.138591D+03      0.205370D+02      0.228505D+02

 ----------------------------------------------------------------------
 1\1\GINC-ACIDSCN005\Freq\UB3LYP\6-311++G(d,p)\C6H3Cl1O2\SELHAJJ1\10-Fe
 b-2024\0\\#P Geom=AllCheck Guess=TCheck SCRF=Check GenChk UB3LYP/6-311
 ++G(d,p) Freq\\Oxidized\\0,1\Cl,3.1068426267,-0.1877464561,0.031392953
 3\C,1.3781513894,-0.0233191413,0.0140908402\C,0.7826807608,1.176709093
 6,0.0121274108\C,-0.6934166855,1.2903051972,-0.0032881748\O,-1.2351575
 475,2.3872206507,-0.0043497678\C,-1.4872309778,0.0391520973,-0.0153535
 721\C,-0.8891561849,-1.1578323436,-0.0131946581\C,0.5853475276,-1.2984
 774797,0.0015293639\O,1.1210009601,-2.3909609681,0.0038309628\H,1.3434
 080692,2.1028394897,0.0213587618\H,-2.5652148322,0.1487177056,-0.02607
 88865\H,-1.4472551059,-2.0866078452,-0.0220652336\\Version=ES64L-G16Re
 vA.03\HF=-841.1908694\S2=0.\S2-1=0.\S2A=0.\RMSD=3.329e-09\RMSF=1.692e-
 04\ZeroPoint=0.0750918\Thermal=0.0825355\Dipole=-0.6115061,-0.0310548,
 -0.0073008\DipoleDeriv=-1.1836385,0.3259404,-0.0107408,0.0452356,-0.05
 7968,0.0005914,-0.0123421,0.0040948,-0.0366553,1.6762399,-0.6978638,0.
 0148888,-0.4819542,-0.2997309,-0.0064347,0.0152017,-0.0078106,0.009890
 6,-1.090587,0.4077685,-0.0084778,0.327597,-0.0550483,0.0038756,-0.0092
 549,0.0048276,-0.11828,1.7729147,-0.50424,0.0128292,-0.4512701,1.89170
 61,0.0004059,0.013693,-0.0008898,0.3621485,-1.0807116,0.5203342,-0.004
 9474,0.6662521,-1.6618164,0.0028088,-0.0041053,0.000767,-0.441034,0.09
 38713,-0.3145998,0.0009979,-0.2112033,-0.4003665,-0.0032072,0.0010662,
 -0.0037227,-0.1148877,-0.526948,0.3105102,-0.003054,0.0341894,0.082945
 5,0.0010413,-0.0041288,0.0042247,-0.1102833,1.1071037,-0.4093432,0.006
 5507,-0.2616647,1.9188253,0.0025635,0.0074881,0.0000469,0.3516198,-0.8
 314955,0.4541176,-0.0029936,0.4280463,-1.5989708,0.0003684,-0.0027325,
 0.0004414,-0.4134692,0.0588751,-0.046371,-0.0014642,-0.0463826,0.06503
 67,-0.0008202,-0.0014414,-0.0007567,0.1756496,-0.0268673,0.0018167,-0.
 0019426,-0.0031725,0.0912441,-0.0002925,-0.0018166,-0.0002909,0.167642
 9,0.0312431,-0.0480698,-0.0016461,-0.045673,0.0241432,-0.0009003,-0.00
 16274,-0.0009317,0.167658\Polar=142.8583889,-42.6757001,162.1577932,0.
 7340677,-0.0843265,57.8181474\Quadrupole=3.1553769,-6.7981977,3.642820
 9,9.1159275,0.0264296,0.0590532\PG=C01 [X(C6H3Cl1O2)]\NImag=0\\0.23077
 418,-0.02106961,0.04276001,0.00225831,-0.00020045,0.01190619,-0.158236
 45,0.01418617,-0.00132852,0.47298590,0.00665731,-0.04223421,0.00000764
 ,-0.11507116,0.68064612,-0.00136478,0.00009210,-0.02583193,0.00348772,
 0.00084371,0.10479210,-0.04994291,0.03264641,-0.00050381,-0.15740481,0
 .13804688,-0.00067314,0.58258647,0.01181021,0.00188597,0.00010268,0.14
 416687,-0.43153333,0.00011828,-0.02838883,0.83667469,-0.00057448,0.000
 31972,0.00840898,-0.00064694,0.00005049,-0.04731323,0.00487770,0.00227
 056,0.10739663,0.02232711,-0.00457767,0.00013393,-0.03742755,0.0215509
 4,-0.00029315,-0.19160010,-0.04050046,-0.00145361,0.57091114,-0.001258
 40,-0.00189611,-0.00005649,0.03330971,-0.01043265,0.00031635,-0.033749
 55,-0.09003006,-0.00038738,-0.13188288,0.79520798,0.00014520,-0.000086
 71,0.00903943,-0.00027573,0.00018296,-0.00107989,-0.00144222,-0.000437
 73,-0.06795858,0.00345638,0.00094878,0.18505585,-0.00895939,0.00289968
 ,-0.00007141,0.00243997,-0.00522945,-0.00002551,-0.03989299,0.06437726
 ,-0.00035665,-0.20171144,0.21600852,-0.00058247,0.22068512,0.00722403,
 -0.00183207,0.00008309,-0.00729847,0.01156148,-0.00003416,0.04758527,-
 0.02435239,0.00032295,0.20976688,-0.53780614,0.00023457,-0.26685853,0.
 62997261,-0.00004385,0.00002844,-0.00185923,-0.00002753,-0.00001069,0.
 00215352,-0.00042447,0.00049711,0.01893973,-0.00060223,0.00028548,-0.0
 6007715,0.00096973,-0.00033164,0.02318669,-0.00092738,0.00067875,0.000
 00445,0.00030582,-0.00309929,-0.00004266,-0.01986654,-0.02706562,-0.00
 043251,-0.16432747,-0.06163910,-0.00117314,0.02429309,0.01861026,0.000
 11779,0.71589216,-0.00103731,0.00045448,-0.00000567,-0.00029157,-0.007
 22364,-0.00003277,-0.01044711,0.00906421,-0.00011455,-0.05952974,-0.13
 174190,-0.00080845,-0.00222570,-0.07822167,-0.00038595,-0.13629269,0.7
 1959808,-0.00000324,0.00001296,-0.00129627,-0.00003711,-0.00005736,0.0
 0334589,-0.00034006,-0.00028423,0.01116027,-0.00118530,-0.00081801,-0.
 07299890,0.00002717,-0.00019562,0.02008242,0.00580336,0.00065696,0.110
 72061,0.00020031,-0.00054268,-0.00000694,-0.01808460,-0.01248746,-0.00
 033720,-0.00588089,0.00150806,-0.00009863,0.01201368,-0.00673318,0.000
 12411,0.00177099,-0.00987443,-0.00004282,-0.19945928,0.15223600,-0.001
 09105,0.58200865,-0.00716726,-0.00311744,-0.00008739,-0.02207705,0.009
 25083,-0.00023465,0.00207112,-0.00081251,0.00000591,0.01346520,-0.0374
 8371,0.00002363,-0.00684884,-0.00015930,-0.00007519,0.16230645,-0.4370
 8625,0.00035826,-0.04210087,0.84856374,-0.00003098,-0.00001946,0.00056
 618,-0.00041287,-0.00014493,0.01261319,-0.00009730,-0.00000036,0.00407
 048,0.00018920,-0.00015925,-0.00094606,-0.00001956,-0.00009950,0.00156
 334,-0.00105438,0.00024811,-0.04279153,0.00470291,0.00196904,0.1085787
 7,-0.03735909,-0.01849490,-0.00046994,-0.13128538,-0.04968228,-0.00081
 913,0.01381800,0.01335462,0.00019428,0.02547593,0.01132746,0.00041517,
 -0.00768475,-0.00458569,-0.00010811,-0.01627272,0.01684518,-0.00009034
 ,-0.19912786,-0.03470817,-0.00137218,0.57981676,0.00453437,0.00145011,
 0.00004283,-0.04742626,-0.11051880,-0.00067228,-0.00667164,-0.02847330
 ,-0.00014883,0.01569970,0.00283932,0.00023433,-0.00582985,0.00162981,-
 0.00006158,0.03386441,-0.00808403,0.00031591,-0.02614812,-0.09213106,-
 0.00031818,-0.16934553,0.78583075,-0.00040199,-0.00019981,0.00392075,-
 0.00074977,-0.00067319,-0.07477961,0.00010675,0.00003201,0.00163615,0.
 00042009,0.00018776,-0.01204281,-0.00010321,-0.00006364,0.00160554,-0.
 00004666,0.00015122,-0.00115413,-0.00138806,-0.00039435,-0.07218405,0.
 00356945,0.00008143,0.18675523,0.00329589,-0.00556536,-0.00005444,0.01
 872944,0.00078528,-0.00000268,0.00011119,-0.00612715,-0.00003409,-0.00
 703568,-0.00481618,-0.00010039,0.00158052,0.00269518,0.00002513,-0.007
 00637,-0.00396832,-0.00010971,-0.03398444,0.06342033,-0.00037349,-0.21
 145315,0.22817249,-0.00087322,0.23162100,0.00106588,0.00110367,0.00010
 646,0.01377360,-0.08119665,-0.00016522,-0.01035359,-0.00131631,-0.0001
 1712,-0.00480411,0.00154845,-0.00006301,0.00241637,-0.00252964,0.00001
 767,0.00034615,0.00955213,0.00003387,0.04187710,-0.02429245,0.00030046
 ,0.22794301,-0.55302348,0.00089827,-0.27588986,0.65197331,-0.00001857,
 0.00003785,-0.00054691,0.00003251,-0.00030557,0.01887659,-0.00004268,-
 0.00007034,0.00143272,-0.00010923,-0.00004864,0.00185092,0.00002677,0.
 00001660,-0.00008746,-0.00009561,-0.00001779,0.00186703,-0.00042598,0.
 00052554,0.02050947,-0.00088901,0.00089373,-0.06131960,0.00141185,-0.0
 0106275,0.02379980,0.00097585,0.00068092,0.00006900,0.01068203,0.01597
 960,0.00008416,-0.13247024,-0.13065003,-0.00147848,-0.01256026,-0.0275
 1128,-0.00025533,0.00408166,0.00112048,0.00005410,-0.00507764,0.002374
 82,-0.00006495,0.00063233,0.00037774,0.00003047,-0.00324732,0.00104974
 ,-0.00014719,0.00089011,0.00167926,0.00003833,0.13655734,-0.00089252,0
 .00082599,0.00000526,-0.01518812,-0.01817855,-0.00025153,-0.12887267,-
 0.26649522,-0.00216966,0.00433757,0.00439913,0.00005171,-0.00073650,0.
 00144441,0.00000332,0.00125043,0.00047112,0.00000752,0.00024440,0.0000
 0509,0.00001018,0.00404592,0.00063255,0.00000131,-0.00054294,-0.002408
 10,-0.00000444,0.13631861,0.27905467,0.00005840,0.00002318,-0.00470849
 ,-0.00002495,0.00008110,0.00780851,-0.00146631,-0.00219202,-0.03724574
 ,-0.00014869,-0.00029529,0.00269366,0.00004953,0.00002712,-0.00144307,
 -0.00006775,0.00002279,0.00176664,0.00003176,0.00001166,-0.00217660,-0
 .00013738,-0.00002457,0.01119318,0.00003127,0.00001533,-0.00229512,0.0
 0168702,0.00234783,0.02362560,-0.00051879,0.00009165,-0.00000412,0.000
 98234,0.00015420,0.00003253,-0.00013473,-0.00268847,-0.00002761,-0.013
 23071,0.00563508,-0.00014342,0.00276998,-0.00004887,0.00004012,-0.3405
 4534,0.02652048,-0.00301029,-0.00688184,-0.00075202,-0.00015491,0.0018
 7102,0.00013414,-0.00012075,-0.00083551,0.00078972,0.00002247,-0.00061
 345,0.00012045,-0.00001395,0.35636450,-0.00021645,0.00027120,-0.000000
 76,0.00095970,-0.00012117,0.00001647,-0.00185985,-0.00464374,-0.000039
 70,-0.02766468,0.00470472,-0.00027696,0.00252918,0.00288466,0.00003912
 ,0.02659950,-0.05825084,0.00021229,0.03073587,0.00166412,0.00029462,-0
 .00202001,-0.00410131,-0.00008006,0.00266520,-0.00110075,0.00003379,-0
 .00129850,0.00029645,-0.00001552,-0.03003544,0.05733003,-0.00000316,0.
 00000230,-0.00013853,0.00003445,0.00000764,-0.00216148,-0.00002513,-0.
 00004716,0.00169921,-0.00024920,0.00005951,0.00259947,0.00005268,0.000
 01765,-0.00127793,-0.00301837,0.00020739,-0.03854546,-0.00005087,-0.00
 002601,0.00803504,-0.00013303,-0.00005570,0.01384428,0.00003170,0.0000
 1080,-0.00280228,-0.00001799,-0.00000065,0.00075850,0.00330193,-0.0002
 0369,0.02488259,-0.00162933,-0.00093336,-0.00002651,-0.00368669,0.0023
 9542,-0.00004617,0.00067755,0.00020354,0.00003103,-0.00283466,0.001309
 80,-0.00016817,0.00062723,0.00166391,0.00004214,0.01299166,0.01581596,
 0.00010150,-0.13320705,-0.12798664,-0.00140691,-0.01455145,-0.02803346
 ,-0.00026545,0.00408699,0.00115647,0.00004916,0.00014959,-0.00008463,0
 .00000104,0.00077254,-0.00039453,0.00007699,0.13660363,0.00034975,0.00
 032839,0.00000279,0.00095657,-0.00001942,0.00000371,-0.00000642,0.0000
 3200,0.00000762,0.00413926,0.00069096,-0.00000313,-0.00050216,-0.00259
 174,-0.00000608,-0.01555925,-0.01853168,-0.00024257,-0.12871469,-0.264
 40104,-0.00208073,0.00532040,0.00394946,0.00005907,-0.00082867,0.00168
 983,0.00000201,-0.00012137,-0.00004753,-0.00000160,0.00007907,0.001066
 63,0.00002793,0.13488752,0.27783416,-0.00002088,-0.00001012,0.00053982
 ,-0.00005128,0.00001820,0.00157633,0.00003067,0.00001120,-0.00222660,-
 0.00015819,-0.00003282,0.01386406,0.00003293,0.00002259,-0.00278640,0.
 00000548,0.00007871,0.00784343,-0.00141722,-0.00207645,-0.03783823,-0.
 00015979,-0.00028709,0.00252508,0.00004807,0.00002525,-0.00128515,0.00
 000085,-0.00000085,0.00002294,0.00007801,0.00002038,-0.00689343,0.0016
 1134,0.00223099,0.02465814\\0.00009760,0.00001830,-0.00000537,-0.00019
 375,-0.00012249,0.00002681,0.00002743,0.00012396,0.00006185,0.00015136
 ,-0.00051921,-0.00018303,-0.00013747,0.00027322,0.00006722,-0.00001059
 ,0.00028330,0.00006531,0.00022660,-0.00018978,0.00002440,-0.00025371,0
 .00042852,-0.00006660,0.00014541,-0.00026565,0.00002136,-0.00001145,-0
 .00001138,0.00000352,0.00000069,-0.00005144,-0.00000210,-0.00004212,0.
 00003265,-0.00001336\\\@


 DIATOMIC MOLECULES ARE PECULIAR BECAUSE THEY ONLY HAVE TWO ENDS,
 AND THESE ENDS ARE VERY CLOSE TOGETHER.
 KLAUS RUEDENBERG, REV.MOD.PHYS. PG 176, 32, (1960)
 Job cpu time:       0 days  0 hours 35 minutes 25.4 seconds.
 Elapsed time:       0 days  0 hours  6 minutes  3.1 seconds.
 File lengths (MBytes):  RWF=    187 Int=      0 D2E=      0 Chk=     12 Scr=      1
 Normal termination of Gaussian 16 at Sat Feb 10 10:13:50 2024.
