 Entering Gaussian System, Link 0=g16
 Input=137-rad.com
 Output=137-rad.log
 Initial command:
 /sysapps/ubuntu-applications/gaussian/Gaussian/AVX2/g16/l1.exe "/scratch/selhajj1/4221713/Gau-1159587.inp" -scrdir="/scratch/selhajj1/4221713/"
 Entering Link 1 = /sysapps/ubuntu-applications/gaussian/Gaussian/AVX2/g16/l1.exe PID=   1159617.
  
 Copyright (c) 1988,1990,1992,1993,1995,1998,2003,2009,2016,
            Gaussian, Inc.  All Rights Reserved.
  
 This is part of the Gaussian(R) 16 program.  It is based on
 the Gaussian(R) 09 system (copyright 2009, Gaussian, Inc.),
 the Gaussian(R) 03 system (copyright 2003, Gaussian, Inc.),
 the Gaussian(R) 98 system (copyright 1998, Gaussian, Inc.),
 the Gaussian(R) 94 system (copyright 1995, Gaussian, Inc.),
 the Gaussian 92(TM) system (copyright 1992, Gaussian, Inc.),
 the Gaussian 90(TM) system (copyright 1990, Gaussian, Inc.),
 the Gaussian 88(TM) system (copyright 1988, Gaussian, Inc.),
 the Gaussian 86(TM) system (copyright 1986, Carnegie Mellon
 University), and the Gaussian 82(TM) system (copyright 1983,
 Carnegie Mellon University). Gaussian is a federally registered
 trademark of Gaussian, Inc.
  
 This software contains proprietary and confidential information,
 including trade secrets, belonging to Gaussian, Inc.
  
 This software is provided under written license and may be
 used, copied, transmitted, or stored only in accord with that
 written license.
  
 The following legend is applicable only to US Government
 contracts under FAR:
  
                    RESTRICTED RIGHTS LEGEND
  
 Use, reproduction and disclosure by the US Government is
 subject to restrictions as set forth in subparagraphs (a)
 and (c) of the Commercial Computer Software - Restricted
 Rights clause in FAR 52.227-19.
  
 Gaussian, Inc.
 340 Quinnipiac St., Bldg. 40, Wallingford CT 06492
  
  
 ---------------------------------------------------------------
 Warning -- This program may not be used in any manner that
 competes with the business of Gaussian, Inc. or will provide
 assistance to any competitor of Gaussian, Inc.  The licensee
 of this program is prohibited from giving any competitor of
 Gaussian, Inc. access to this program.  By using this program,
 the user acknowledges that Gaussian, Inc. is engaged in the
 business of creating and licensing software in the field of
 computational chemistry and represents and warrants to the
 licensee that it is not a competitor of Gaussian, Inc. and that
 it will not use this program in any manner prohibited above.
 ---------------------------------------------------------------
  

 Cite this work as:
 Gaussian 16, Revision A.03,
 M. J. Frisch, G. W. Trucks, H. B. Schlegel, G. E. Scuseria, 
 M. A. Robb, J. R. Cheeseman, G. Scalmani, V. Barone, 
 G. A. Petersson, H. Nakatsuji, X. Li, M. Caricato, A. V. Marenich, 
 J. Bloino, B. G. Janesko, R. Gomperts, B. Mennucci, H. P. Hratchian, 
 J. V. Ortiz, A. F. Izmaylov, J. L. Sonnenberg, D. Williams-Young, 
 F. Ding, F. Lipparini, F. Egidi, J. Goings, B. Peng, A. Petrone, 
 T. Henderson, D. Ranasinghe, V. G. Zakrzewski, J. Gao, N. Rega, 
 G. Zheng, W. Liang, M. Hada, M. Ehara, K. Toyota, R. Fukuda, 
 J. Hasegawa, M. Ishida, T. Nakajima, Y. Honda, O. Kitao, H. Nakai, 
 T. Vreven, K. Throssell, J. A. Montgomery, Jr., J. E. Peralta, 
 F. Ogliaro, M. J. Bearpark, J. J. Heyd, E. N. Brothers, K. N. Kudin, 
 V. N. Staroverov, T. A. Keith, R. Kobayashi, J. Normand, 
 K. Raghavachari, A. P. Rendell, J. C. Burant, S. S. Iyengar, 
 J. Tomasi, M. Cossi, J. M. Millam, M. Klene, C. Adamo, R. Cammi, 
 J. W. Ochterski, R. L. Martin, K. Morokuma, O. Farkas, 
 J. B. Foresman, and D. J. Fox, Gaussian, Inc., Wallingford CT, 2016.
 
 ******************************************
 Gaussian 16:  ES64L-G16RevA.03 25-Dec-2016
                21-Dec-2023 
 ******************************************
 %chk=137-rad.chk
 %nproc=8
 Will use up to    8 processors via shared memory.
 %mem=30GB
 --------------------------------------
 #P UB3LYP/6-311++G(d,p) nosym opt freq
 --------------------------------------
 1/18=20,19=15,26=3,38=1/1,3;
 2/9=110,12=2,15=1,17=6,18=5,40=1/2;
 3/5=4,6=6,7=1111,11=2,25=1,30=1,71=1,74=-5,116=2/1,2,3;
 4//1;
 5/5=2,38=5/2;
 6/7=2,8=2,9=2,10=2,28=1/1;
 7/30=1/1,2,3,16;
 1/18=20,19=15,26=3/3(2);
 2/9=110,15=1/2;
 99//99;
 2/9=110,15=1/2;
 3/5=4,6=6,7=1111,11=2,25=1,30=1,71=1,74=-5,116=2/1,2,3;
 4/5=5,16=3,69=1/1;
 5/5=2,38=5/2;
 7/30=1/1,2,3,16;
 1/18=20,19=15,26=3/3(-5);
 2/9=110,15=1/2;
 6/7=2,8=2,9=2,10=2,19=2,28=1/1;
 99/9=1/99;
 Leave Link    1 at Thu Dec 21 05:33:59 2023, MaxMem=  4026531840 cpu:               0.6 elap:               0.2
 (Enter /sysapps/ubuntu-applications/gaussian/Gaussian/AVX2/g16/l101.exe)
 -------
 Radical
 -------
 Symbolic Z-matrix:
 Charge = -1 Multiplicity = 2
 C                     3.54422   2.38365  -0.45276 
 O                     2.3016    1.7687   -0.35699 
 C                     2.08087   0.40756  -0.2406 
 C                     3.07342  -0.54604  -0.20237 
 C                     2.76814  -1.8943   -0.08379 
 C                     1.43916  -2.3116   -0.00047 
 C                     0.441    -1.36546  -0.0379 
 C                    -0.93777  -1.83482   0.05141 
 O                    -1.24863  -3.03679   0.15858 
 C                    -2.04151  -0.86219   0.01586 
 C                    -3.34613  -1.27025   0.09749 
 C                    -4.3251   -0.30885   0.05811 
 C                    -4.022     1.04518  -0.06084 
 C                    -2.70604   1.44166  -0.14198 
 C                    -1.7269    0.47428  -0.10213 
 C                    -0.3432    0.92451  -0.19011 
 O                    -0.04912   2.1375   -0.29752 
 C                     0.77689  -0.03144  -0.1565 
 H                     4.36468   1.71485  -0.79423 
 H                     3.80813   2.76265   0.57802 
 H                     3.55041   3.26656  -1.14067 
 H                     4.0925   -0.23652  -0.26543 
 H                     3.50906  -2.66777  -0.05036 
 H                     1.18322  -3.37361   0.09351 
 H                    -3.59293  -2.31839   0.19002 
 H                    -5.3579   -0.57514   0.11823 
 H                    -4.77359   1.80048  -0.09244 
 H                    -2.4625    2.50557  -0.23565 
 
 ITRead=  0  0  0  0  0  0  0  0  0  0  0  0  0  0  0  0  0  0  0  0
 ITRead=  0  0  0  0  0  0  0  0
 MicOpt= -1 -1 -1 -1 -1 -1 -1 -1 -1 -1 -1 -1 -1 -1 -1 -1 -1 -1 -1 -1
 MicOpt= -1 -1 -1 -1 -1 -1 -1 -1
 NAtoms=     28 NQM=       28 NQMF=       0 NMMI=      0 NMMIF=      0
                NMic=       0 NMicF=      0.
                    Isotopes and Nuclear Properties:
 (Nuclear quadrupole moments (NQMom) in fm**2, nuclear magnetic moments (NMagM)
  in nuclear magnetons)

  Atom         1           2           3           4           5           6           7           8           9          10
 IAtWgt=          12          16          12          12          12          12          12          12          16          12
 AtmWgt=  12.0000000  15.9949146  12.0000000  12.0000000  12.0000000  12.0000000  12.0000000  12.0000000  15.9949146  12.0000000
 NucSpn=           0           0           0           0           0           0           0           0           0           0
 AtZEff=  -0.0000000  -0.0000000  -0.0000000  -0.0000000  -0.0000000  -0.0000000  -0.0000000  -0.0000000  -0.0000000  -0.0000000
 NQMom=    0.0000000   0.0000000   0.0000000   0.0000000   0.0000000   0.0000000   0.0000000   0.0000000   0.0000000   0.0000000
 NMagM=    0.0000000   0.0000000   0.0000000   0.0000000   0.0000000   0.0000000   0.0000000   0.0000000   0.0000000   0.0000000
 AtZNuc=   6.0000000   8.0000000   6.0000000   6.0000000   6.0000000   6.0000000   6.0000000   6.0000000   8.0000000   6.0000000

  Atom        11          12          13          14          15          16          17          18          19          20
 IAtWgt=          12          12          12          12          12          12          16          12           1           1
 AtmWgt=  12.0000000  12.0000000  12.0000000  12.0000000  12.0000000  12.0000000  15.9949146  12.0000000   1.0078250   1.0078250
 NucSpn=           0           0           0           0           0           0           0           0           1           1
 AtZEff=  -0.0000000  -0.0000000  -0.0000000  -0.0000000  -0.0000000  -0.0000000  -0.0000000  -0.0000000  -0.0000000  -0.0000000
 NQMom=    0.0000000   0.0000000   0.0000000   0.0000000   0.0000000   0.0000000   0.0000000   0.0000000   0.0000000   0.0000000
 NMagM=    0.0000000   0.0000000   0.0000000   0.0000000   0.0000000   0.0000000   0.0000000   0.0000000   2.7928460   2.7928460
 AtZNuc=   6.0000000   6.0000000   6.0000000   6.0000000   6.0000000   6.0000000   8.0000000   6.0000000   1.0000000   1.0000000

  Atom        21          22          23          24          25          26          27          28
 IAtWgt=           1           1           1           1           1           1           1           1
 AtmWgt=   1.0078250   1.0078250   1.0078250   1.0078250   1.0078250   1.0078250   1.0078250   1.0078250
 NucSpn=           1           1           1           1           1           1           1           1
 AtZEff=  -0.0000000  -0.0000000  -0.0000000  -0.0000000  -0.0000000  -0.0000000  -0.0000000  -0.0000000
 NQMom=    0.0000000   0.0000000   0.0000000   0.0000000   0.0000000   0.0000000   0.0000000   0.0000000
 NMagM=    2.7928460   2.7928460   2.7928460   2.7928460   2.7928460   2.7928460   2.7928460   2.7928460
 AtZNuc=   1.0000000   1.0000000   1.0000000   1.0000000   1.0000000   1.0000000   1.0000000   1.0000000
 Leave Link  101 at Thu Dec 21 05:33:59 2023, MaxMem=  4026531840 cpu:               3.3 elap:               0.6
 (Enter /sysapps/ubuntu-applications/gaussian/Gaussian/AVX2/g16/l103.exe)

 GradGradGradGradGradGradGradGradGradGradGradGradGradGradGradGradGradGrad
 Berny optimization.
 Initialization pass.
                           ----------------------------
                           !    Initial Parameters    !
                           ! (Angstroms and Degrees)  !
 --------------------------                            --------------------------
 ! Name  Definition              Value          Derivative Info.                !
 --------------------------------------------------------------------------------
 ! R1    R(1,2)                  1.3898         estimate D2E/DX2                !
 ! R2    R(1,19)                 1.1122         estimate D2E/DX2                !
 ! R3    R(1,20)                 1.1295         estimate D2E/DX2                !
 ! R4    R(1,21)                 1.1193         estimate D2E/DX2                !
 ! R5    R(2,3)                  1.3838         estimate D2E/DX2                !
 ! R6    R(3,4)                  1.3769         estimate D2E/DX2                !
 ! R7    R(3,18)                 1.3785         estimate D2E/DX2                !
 ! R8    R(4,5)                  1.3875         estimate D2E/DX2                !
 ! R9    R(4,22)                 1.0669         estimate D2E/DX2                !
 ! R10   R(5,6)                  1.3954         estimate D2E/DX2                !
 ! R11   R(5,23)                 1.0716         estimate D2E/DX2                !
 ! R12   R(6,7)                  1.3758         estimate D2E/DX2                !
 ! R13   R(6,24)                 1.0964         estimate D2E/DX2                !
 ! R14   R(7,8)                  1.4592         estimate D2E/DX2                !
 ! R15   R(7,18)                 1.3808         estimate D2E/DX2                !
 ! R16   R(8,9)                  1.2461         estimate D2E/DX2                !
 ! R17   R(8,10)                 1.4716         estimate D2E/DX2                !
 ! R18   R(10,11)                1.3694         estimate D2E/DX2                !
 ! R19   R(10,15)                1.3781         estimate D2E/DX2                !
 ! R20   R(11,12)                1.3727         estimate D2E/DX2                !
 ! R21   R(11,25)                1.0808         estimate D2E/DX2                !
 ! R22   R(12,13)                1.3926         estimate D2E/DX2                !
 ! R23   R(12,26)                1.0683         estimate D2E/DX2                !
 ! R24   R(13,14)                1.3768         estimate D2E/DX2                !
 ! R25   R(13,27)                1.066          estimate D2E/DX2                !
 ! R26   R(14,15)                1.377          estimate D2E/DX2                !
 ! R27   R(14,28)                1.0954         estimate D2E/DX2                !
 ! R28   R(15,16)                1.4578         estimate D2E/DX2                !
 ! R29   R(16,17)                1.2527         estimate D2E/DX2                !
 ! R30   R(16,18)                1.4729         estimate D2E/DX2                !
 ! A1    A(2,1,19)             114.4975         estimate D2E/DX2                !
 ! A2    A(2,1,20)             107.1273         estimate D2E/DX2                !
 ! A3    A(2,1,21)             113.3497         estimate D2E/DX2                !
 ! A4    A(19,1,20)            108.0345         estimate D2E/DX2                !
 ! A5    A(19,1,21)            106.353          estimate D2E/DX2                !
 ! A6    A(20,1,21)            107.1517         estimate D2E/DX2                !
 ! A7    A(1,2,3)              125.7074         estimate D2E/DX2                !
 ! A8    A(2,3,4)              124.6494         estimate D2E/DX2                !
 ! A9    A(2,3,18)             117.9867         estimate D2E/DX2                !
 ! A10   A(4,3,18)             117.3639         estimate D2E/DX2                !
 ! A11   A(3,4,5)              121.1142         estimate D2E/DX2                !
 ! A12   A(3,4,22)             119.0757         estimate D2E/DX2                !
 ! A13   A(5,4,22)             119.8101         estimate D2E/DX2                !
 ! A14   A(4,5,6)              120.3478         estimate D2E/DX2                !
 ! A15   A(4,5,23)             123.4988         estimate D2E/DX2                !
 ! A16   A(6,5,23)             116.1533         estimate D2E/DX2                !
 ! A17   A(5,6,7)              118.9253         estimate D2E/DX2                !
 ! A18   A(5,6,24)             121.1367         estimate D2E/DX2                !
 ! A19   A(7,6,24)             119.938          estimate D2E/DX2                !
 ! A20   A(6,7,8)              117.5578         estimate D2E/DX2                !
 ! A21   A(6,7,18)             119.3571         estimate D2E/DX2                !
 ! A22   A(8,7,18)             123.0851         estimate D2E/DX2                !
 ! A23   A(7,8,9)              123.4512         estimate D2E/DX2                !
 ! A24   A(7,8,10)             119.6443         estimate D2E/DX2                !
 ! A25   A(9,8,10)             116.9044         estimate D2E/DX2                !
 ! A26   A(8,10,11)            121.0754         estimate D2E/DX2                !
 ! A27   A(8,10,15)            118.1539         estimate D2E/DX2                !
 ! A28   A(11,10,15)           120.7706         estimate D2E/DX2                !
 ! A29   A(10,11,12)           117.9714         estimate D2E/DX2                !
 ! A30   A(10,11,25)           120.7742         estimate D2E/DX2                !
 ! A31   A(12,11,25)           121.2544         estimate D2E/DX2                !
 ! A32   A(11,12,13)           121.8846         estimate D2E/DX2                !
 ! A33   A(11,12,26)           120.8839         estimate D2E/DX2                !
 ! A34   A(13,12,26)           117.2315         estimate D2E/DX2                !
 ! A35   A(12,13,14)           119.5419         estimate D2E/DX2                !
 ! A36   A(12,13,27)           122.5465         estimate D2E/DX2                !
 ! A37   A(14,13,27)           117.9116         estimate D2E/DX2                !
 ! A38   A(13,14,15)           118.4005         estimate D2E/DX2                !
 ! A39   A(13,14,28)           119.8166         estimate D2E/DX2                !
 ! A40   A(15,14,28)           121.7829         estimate D2E/DX2                !
 ! A41   A(10,15,14)           121.431          estimate D2E/DX2                !
 ! A42   A(10,15,16)           121.4256         estimate D2E/DX2                !
 ! A43   A(14,15,16)           117.1434         estimate D2E/DX2                !
 ! A44   A(15,16,17)           121.8062         estimate D2E/DX2                !
 ! A45   A(15,16,18)           121.3316         estimate D2E/DX2                !
 ! A46   A(17,16,18)           116.8622         estimate D2E/DX2                !
 ! A47   A(3,18,7)             122.8917         estimate D2E/DX2                !
 ! A48   A(3,18,16)            120.749          estimate D2E/DX2                !
 ! A49   A(7,18,16)            116.3593         estimate D2E/DX2                !
 ! D1    D(19,1,2,3)            20.9676         estimate D2E/DX2                !
 ! D2    D(20,1,2,3)           -98.7962         estimate D2E/DX2                !
 ! D3    D(21,1,2,3)           143.2248         estimate D2E/DX2                !
 ! D4    D(1,2,3,4)              0.0013         estimate D2E/DX2                !
 ! D5    D(1,2,3,18)          -179.999          estimate D2E/DX2                !
 ! D6    D(2,3,4,5)            179.9997         estimate D2E/DX2                !
 ! D7    D(2,3,4,22)            -0.0004         estimate D2E/DX2                !
 ! D8    D(18,3,4,5)             0.0            estimate D2E/DX2                !
 ! D9    D(18,3,4,22)          179.9999         estimate D2E/DX2                !
 ! D10   D(2,3,18,7)          -179.9997         estimate D2E/DX2                !
 ! D11   D(2,3,18,16)            0.001          estimate D2E/DX2                !
 ! D12   D(4,3,18,7)             0.0            estimate D2E/DX2                !
 ! D13   D(4,3,18,16)         -179.9992         estimate D2E/DX2                !
 ! D14   D(3,4,5,6)             -0.0001         estimate D2E/DX2                !
 ! D15   D(3,4,5,23)          -179.9999         estimate D2E/DX2                !
 ! D16   D(22,4,5,6)          -180.0            estimate D2E/DX2                !
 ! D17   D(22,4,5,23)            0.0002         estimate D2E/DX2                !
 ! D18   D(4,5,6,7)              0.0001         estimate D2E/DX2                !
 ! D19   D(4,5,6,24)          -179.9998         estimate D2E/DX2                !
 ! D20   D(23,5,6,7)           180.0            estimate D2E/DX2                !
 ! D21   D(23,5,6,24)            0.0            estimate D2E/DX2                !
 ! D22   D(5,6,7,8)            179.9992         estimate D2E/DX2                !
 ! D23   D(5,6,7,18)            -0.0001         estimate D2E/DX2                !
 ! D24   D(24,6,7,8)            -0.0009         estimate D2E/DX2                !
 ! D25   D(24,6,7,18)          179.9998         estimate D2E/DX2                !
 ! D26   D(6,7,8,9)              0.0007         estimate D2E/DX2                !
 ! D27   D(6,7,8,10)          -179.9993         estimate D2E/DX2                !
 ! D28   D(18,7,8,9)           179.9999         estimate D2E/DX2                !
 ! D29   D(18,7,8,10)           -0.0001         estimate D2E/DX2                !
 ! D30   D(6,7,18,3)             0.0            estimate D2E/DX2                !
 ! D31   D(6,7,18,16)          179.9993         estimate D2E/DX2                !
 ! D32   D(8,7,18,3)          -179.9992         estimate D2E/DX2                !
 ! D33   D(8,7,18,16)            0.0001         estimate D2E/DX2                !
 ! D34   D(7,8,10,11)          179.9995         estimate D2E/DX2                !
 ! D35   D(7,8,10,15)            0.0            estimate D2E/DX2                !
 ! D36   D(9,8,10,11)           -0.0005         estimate D2E/DX2                !
 ! D37   D(9,8,10,15)         -179.9999         estimate D2E/DX2                !
 ! D38   D(8,10,11,12)        -179.9996         estimate D2E/DX2                !
 ! D39   D(8,10,11,25)           0.0003         estimate D2E/DX2                !
 ! D40   D(15,10,11,12)         -0.0002         estimate D2E/DX2                !
 ! D41   D(15,10,11,25)        179.9997         estimate D2E/DX2                !
 ! D42   D(8,10,15,14)         179.9997         estimate D2E/DX2                !
 ! D43   D(8,10,15,16)           0.0            estimate D2E/DX2                !
 ! D44   D(11,10,15,14)          0.0003         estimate D2E/DX2                !
 ! D45   D(11,10,15,16)       -179.9995         estimate D2E/DX2                !
 ! D46   D(10,11,12,13)          0.0            estimate D2E/DX2                !
 ! D47   D(10,11,12,26)        179.9997         estimate D2E/DX2                !
 ! D48   D(25,11,12,13)       -179.9999         estimate D2E/DX2                !
 ! D49   D(25,11,12,26)         -0.0002         estimate D2E/DX2                !
 ! D50   D(11,12,13,14)          0.0001         estimate D2E/DX2                !
 ! D51   D(11,12,13,27)       -180.0            estimate D2E/DX2                !
 ! D52   D(26,12,13,14)       -179.9996         estimate D2E/DX2                !
 ! D53   D(26,12,13,27)          0.0003         estimate D2E/DX2                !
 ! D54   D(12,13,14,15)          0.0            estimate D2E/DX2                !
 ! D55   D(12,13,14,28)        179.9999         estimate D2E/DX2                !
 ! D56   D(27,13,14,15)       -179.9999         estimate D2E/DX2                !
 ! D57   D(27,13,14,28)         -0.0001         estimate D2E/DX2                !
 ! D58   D(13,14,15,10)         -0.0002         estimate D2E/DX2                !
 ! D59   D(13,14,15,16)        179.9996         estimate D2E/DX2                !
 ! D60   D(28,14,15,10)        179.9999         estimate D2E/DX2                !
 ! D61   D(28,14,15,16)         -0.0003         estimate D2E/DX2                !
 ! D62   D(10,15,16,17)       -179.9999         estimate D2E/DX2                !
 ! D63   D(10,15,16,18)          0.0            estimate D2E/DX2                !
 ! D64   D(14,15,16,17)          0.0003         estimate D2E/DX2                !
 ! D65   D(14,15,16,18)       -179.9997         estimate D2E/DX2                !
 ! D66   D(15,16,18,3)         179.9993         estimate D2E/DX2                !
 ! D67   D(15,16,18,7)          -0.0001         estimate D2E/DX2                !
 ! D68   D(17,16,18,3)          -0.0007         estimate D2E/DX2                !
 ! D69   D(17,16,18,7)         179.9999         estimate D2E/DX2                !
 --------------------------------------------------------------------------------
 Trust Radius=3.00D-01 FncErr=1.00D-07 GrdErr=1.00D-06 EigMax=2.50D+02 EigMin=1.00D-04
 Number of steps in this run=    158 maximum allowed number of steps=    168.
 GradGradGradGradGradGradGradGradGradGradGradGradGradGradGradGradGradGrad

 Leave Link  103 at Thu Dec 21 05:33:59 2023, MaxMem=  4026531840 cpu:               0.2 elap:               0.1
 (Enter /sysapps/ubuntu-applications/gaussian/Gaussian/AVX2/g16/l202.exe)
                          Input orientation:                          
 ---------------------------------------------------------------------
 Center     Atomic      Atomic             Coordinates (Angstroms)
 Number     Number       Type             X           Y           Z
 ---------------------------------------------------------------------
      1          6           0        3.544218    2.383652   -0.452760
      2          8           0        2.301599    1.768704   -0.356992
      3          6           0        2.080871    0.407559   -0.240595
      4          6           0        3.073420   -0.546039   -0.202366
      5          6           0        2.768136   -1.894299   -0.083794
      6          6           0        1.439163   -2.311600   -0.000475
      7          6           0        0.440998   -1.365460   -0.037900
      8          6           0       -0.937772   -1.834825    0.051414
      9          8           0       -1.248626   -3.036785    0.158581
     10          6           0       -2.041508   -0.862187    0.015856
     11          6           0       -3.346129   -1.270254    0.097493
     12          6           0       -4.325096   -0.308848    0.058109
     13          6           0       -4.022001    1.045175   -0.060835
     14          6           0       -2.706038    1.441662   -0.141984
     15          6           0       -1.726903    0.474281   -0.102133
     16          6           0       -0.343201    0.924508   -0.190115
     17          8           0       -0.049116    2.137496   -0.297524
     18          6           0        0.776895   -0.031436   -0.156499
     19          1           0        4.364679    1.714850   -0.794234
     20          1           0        3.808127    2.762647    0.578019
     21          1           0        3.550414    3.266563   -1.140669
     22          1           0        4.092498   -0.236519   -0.265426
     23          1           0        3.509064   -2.667767   -0.050363
     24          1           0        1.183221   -3.373605    0.093511
     25          1           0       -3.592928   -2.318388    0.190025
     26          1           0       -5.357895   -0.575138    0.118226
     27          1           0       -4.773586    1.800480   -0.092438
     28          1           0       -2.462504    2.505573   -0.235648
 ---------------------------------------------------------------------
                    Distance matrix (angstroms):
                    1          2          3          4          5
     1  C    0.000000
     2  O    1.389760   0.000000
     3  C    2.468065   1.383830   0.000000
     4  C    2.977824   2.444923   1.376940   0.000000
     5  C    4.363405   3.702686   2.407378   1.387467   0.000000
     6  C    5.165386   4.185663   2.804152   2.414283   1.395439
     7  C    4.884458   3.658776   2.423606   2.761910   2.386912
     8  C    6.175595   4.862688   3.771705   4.220786   3.708850
     9  O    7.261283   5.996885   4.807119   5.001417   4.183108
    10  C    6.477299   5.091481   4.321114   5.129333   4.920148
    11  C    7.818612   6.429514   5.690491   6.467226   6.148701
    12  C    8.332865   6.957127   6.452818   7.406898   7.269644
    13  C    7.693686   6.371744   6.138722   7.273032   7.399121
    14  C    6.328478   5.022910   4.898325   6.112016   6.410819
    15  C    5.617237   4.239023   3.810874   4.908584   5.080933
    16  C    4.160542   2.781273   2.479094   3.719671   4.199689
    17  O    3.605099   2.380212   2.744589   4.118331   4.923207
    18  C    3.684901   2.367578   1.378456   2.353922   2.727744
    19  H    1.112230   2.109592   2.689109   2.670070   4.009941
    20  H    1.129509   2.032682   3.033147   3.477959   4.817336
    21  H    1.119281   2.101731   3.338203   3.955233   5.325734
    22  H    2.683467   2.690096   2.112367   1.066911   2.129592
    23  H    5.067543   4.608065   3.396108   2.171318   1.071608
    24  H    6.246497   5.281767   3.900590   3.414019   2.175255
    25  H    8.570952   7.193678   6.309375   6.909080   6.381063
    26  H    9.398302   8.024169   7.511969   8.437458   8.234888
    27  H    8.346005   7.080201   6.996125   8.191077   8.398157
    28  H    6.011881   4.822279   5.004392   6.321384   6.836777
                    6          7          8          9         10
     6  C    0.000000
     7  C    1.375833   0.000000
     8  C    2.424836   1.459207   0.000000
     9  O    2.788441   2.384693   1.246123   0.000000
    10  C    3.770430   2.533576   1.471572   2.319033   0.000000
    11  C    4.898267   3.790742   2.474074   2.742970   1.369386
    12  C    6.102551   4.882755   3.715187   4.112956   2.350051
    13  C    6.410609   5.072479   4.221311   4.939854   2.750684
    14  C    5.593719   4.218365   3.728207   4.719203   2.402963
    15  C    4.218465   2.844040   2.445051   3.553070   1.378058
    16  C    3.699349   2.425302   2.832979   4.078385   2.473651
    17  O    4.700816   3.546593   4.085438   5.331045   3.614683
    18  C    2.379515   1.380765   2.497103   3.637875   2.943339
    19  H    5.039940   5.045356   6.436714   7.415866   6.952452
    20  H    5.629798   5.362666   6.628545   7.705847   6.904612
    21  H    6.072341   5.686845   6.898481   8.028140   7.046540
    22  H    3.378808   3.828803   5.287588   6.045566   6.172245
    23  H    2.100912   3.333045   4.525317   4.776551   5.837238
    24  H    1.096446   2.144950   2.620731   2.455924   4.088048
    25  H    5.035701   4.151214   2.702388   2.452109   2.134892
    26  H    7.016367   5.854583   4.596604   4.790348   3.330361
    27  H    7.450901   6.100659   5.286739   5.990617   3.816513
    28  H    6.203504   4.842966   4.609367   5.687411   3.403277
                   11         12         13         14         15
    11  C    0.000000
    12  C    1.372673   0.000000
    13  C    2.417247   1.392620   0.000000
    14  C    2.796704   2.392836   1.376788   0.000000
    15  C    2.388545   2.718377   2.365397   1.376997   0.000000
    16  C    3.730587   4.175915   3.683048   2.419249   1.457764
    17  O    4.758056   4.939137   4.127106   2.750930   2.370534
    18  C    4.312598   5.114032   4.919110   3.781673   2.554938
    19  H    8.316404   8.962925   8.445279   7.105991   6.255028
    20  H    8.226698   8.709402   8.041688   6.685638   6.027916
    21  H    8.347339   8.731798   7.965054   6.593242   6.060155
    22  H    7.518875   8.424119   8.217645   7.003686   5.864923
    23  H    6.997754   8.182317   8.396605   7.451395   6.106594
    24  H    4.993907   6.303614   6.829625   6.194239   4.828388
    25  H    1.080767   2.142831   3.400087   3.877471   3.371411
    26  H    2.128573   1.068269   2.107626   3.341786   3.786020
    27  H    3.391625   2.161729   1.066004   2.099038   3.322827
    28  H    3.892126   3.387699   2.143677   1.095440   2.164505
                   16         17         18         19         20
    16  C    0.000000
    17  O    1.252743   0.000000
    18  C    1.472947   2.325177   0.000000
    19  H    4.811832   4.461719   4.040843   0.000000
    20  H    4.604596   4.004461   4.187455   1.814031   0.000000
    21  H    4.642092   3.865528   4.420158   1.786298   1.809485
    22  H    4.585747   4.773881   3.323725   2.039990   3.128460
    23  H    5.269147   5.984337   3.798191   4.526892   5.474824
    24  H    4.569921   5.660725   3.376048   6.066476   6.691671
    25  H    4.606692   5.714125   4.944247   8.975482   8.985715
    26  H    5.243203   5.976150   6.164960  10.030208   9.765663
    27  H    4.517210   4.740914   5.845328   9.165574   8.661471
    28  H    2.644482   2.442079   4.115383   6.895483   6.328424
                   21         22         23         24         25
    21  H    0.000000
    22  H    3.651231   0.000000
    23  H    6.033801   2.509505   0.000000
    24  H    7.156720   4.293488   2.434841   0.000000
    25  H    9.164594   7.975424   7.114643   4.892280   0.000000
    26  H    9.782712   9.464237   9.112106   7.114650   2.481771
    27  H    8.516876   9.098722   9.411126   7.892356   4.294044
    28  H    6.128079   7.105491   7.902999   6.925633   4.972892
                   26         27         28
    26  H    0.000000
    27  H    2.455474   0.000000
    28  H    4.242558   2.420489   0.000000
 Symmetry turned off by external request.
 Stoichiometry    C15H10O3(1-,2)
 Framework group  C1[X(C15H10O3)]
 Deg. of freedom    78
 Full point group                 C1      NOp   1
 Rotational constants (GHZ):           0.7936164           0.3482619           0.2424309
 Leave Link  202 at Thu Dec 21 05:33:59 2023, MaxMem=  4026531840 cpu:               0.4 elap:               0.1
 (Enter /sysapps/ubuntu-applications/gaussian/Gaussian/AVX2/g16/l301.exe)
 Standard basis: 6-311++G(d,p) (5D, 7F)
 Ernie: Thresh=  0.10000D-02 Tol=  0.10000D-05 Strict=F.
   466 basis functions,   738 primitive gaussians,   484 cartesian basis functions
    63 alpha electrons       62 beta electrons
       nuclear repulsion energy      1234.1296990818 Hartrees.
 IExCor=  402 DFT=T Ex+Corr=B3LYP ExCW=0 ScaHFX=  0.200000
 ScaDFX=  0.800000  0.720000  1.000000  0.810000 ScalE2=  1.000000  1.000000
 IRadAn=      5 IRanWt=     -1 IRanGd=            0 ICorTp=0 IEmpDi=  4
 NAtoms=   28 NActive=   28 NUniq=   28 SFac= 1.00D+00 NAtFMM=   60 NAOKFM=F Big=F
 Integral buffers will be    131072 words long.
 Raffenetti 2 integral format.
 Two-electron integral symmetry is turned off.
 Leave Link  301 at Thu Dec 21 05:34:00 2023, MaxMem=  4026531840 cpu:               0.6 elap:               0.1
 (Enter /sysapps/ubuntu-applications/gaussian/Gaussian/AVX2/g16/l302.exe)
 NPDir=0 NMtPBC=     1 NCelOv=     1 NCel=       1 NClECP=     1 NCelD=      1
         NCelK=      1 NCelE2=     1 NClLst=     1 CellRange=     0.0.
 One-electron integrals computed using PRISM.
 NBasis=   466 RedAO= T EigKep=  1.13D-06  NBF=   466
 NBsUse=   459 1.00D-06 EigRej=  4.63D-07 NBFU=   459
 Precomputing XC quadrature grid using
 IXCGrd= 4 IRadAn=           5 IRanWt=          -1 IRanGd=           0 AccXCQ= 0.00D+00.
 Generated NRdTot=       0 NPtTot=           0 NUsed=           0 NTot=          32
 NSgBfM=   484   484   484   484   484 MxSgAt=    28 MxSgA2=    28.
 Leave Link  302 at Thu Dec 21 05:34:00 2023, MaxMem=  4026531840 cpu:               4.4 elap:               0.6
 (Enter /sysapps/ubuntu-applications/gaussian/Gaussian/AVX2/g16/l303.exe)
 DipDrv:  MaxL=1.
 Leave Link  303 at Thu Dec 21 05:34:01 2023, MaxMem=  4026531840 cpu:               1.4 elap:               0.4
 (Enter /sysapps/ubuntu-applications/gaussian/Gaussian/AVX2/g16/l401.exe)
 ExpMin= 3.60D-02 ExpMax= 8.59D+03 ExpMxC= 1.30D+03 IAcc=3 IRadAn=         5 AccDes= 0.00D+00
 Harris functional with IExCor=  402 and IRadAn=       5 diagonalized for initial guess.
 HarFok:  IExCor=  402 AccDes= 0.00D+00 IRadAn=         5 IDoV= 1 UseB2=F ITyADJ=14
 ICtDFT=  3500011 ScaDFX=  1.000000  1.000000  1.000000  1.000000
 FoFCou: FMM=F IPFlag=           0 FMFlag=      100000 FMFlg1=           0
         NFxFlg=           0 DoJE=T BraDBF=F KetDBF=T FulRan=T
         wScrn=  0.000000 ICntrl=       500 IOpCl=  0 I1Cent=   200000004 NGrid=           0
         NMat0=    1 NMatS0=      1 NMatT0=    0 NMatD0=    1 NMtDS0=    0 NMtDT0=    0
 Symmetry not used in FoFCou.
 Harris En= -803.740415283166    
 JPrj=0 DoOrth=F DoCkMO=F.
 Initial guess <Sx>= 0.0000 <Sy>= 0.0000 <Sz>= 0.5000 <S**2>= 0.7500 S= 0.5000
 Leave Link  401 at Thu Dec 21 05:34:04 2023, MaxMem=  4026531840 cpu:              23.8 elap:               3.0
 (Enter /sysapps/ubuntu-applications/gaussian/Gaussian/AVX2/g16/l502.exe)
 Two-electron integral symmetry not used.
 UHF open shell SCF:
 Using DIIS extrapolation, IDIIS=  1040.
 NGot=  4026531840 LenX=  4026055996 LenY=  4025821256
 Requested convergence on RMS density matrix=1.00D-08 within 128 cycles.
 Requested convergence on MAX density matrix=1.00D-06.
 Requested convergence on             energy=1.00D-06.
 No special actions if energy rises.
 Fock matrices will be formed incrementally for  20 cycles.

 Cycle   1  Pass 1  IDiag  1:
 FoFJK:  IHMeth= 1 ICntrl=       0 DoSepK=F KAlg= 0 I1Cent=           0 FoldK=F
 IRaf= 850000000 NMat=       1 IRICut=       1 DoRegI=T DoRafI=F ISym2E= 0 IDoP0=0 IntGTp=1.
 FoFCou: FMM=F IPFlag=           0 FMFlag=      100000 FMFlg1=           0
         NFxFlg=           0 DoJE=F BraDBF=F KetDBF=F FulRan=T
         wScrn=  0.000000 ICntrl=         0 IOpCl=  1 I1Cent=           0 NGrid=           0
         NMat0=    1 NMatS0=      1 NMatT0=    0 NMatD0=    1 NMtDS0=    0 NMtDT0=    0
 Symmetry not used in FoFCou.
 E= -803.018926756756    
 DIIS: error= 4.28D-02 at cycle   1 NSaved=   1.
 NSaved= 1 IEnMin= 1 EnMin= -803.018926756756     IErMin= 1 ErrMin= 4.28D-02
 ErrMax= 4.28D-02  0.00D+00 EMaxC= 1.00D-01 BMatC= 2.32D+00 BMatP= 2.32D+00
 IDIUse=3 WtCom= 5.72D-01 WtEn= 4.28D-01
 Coeff-Com:  0.100D+01
 Coeff-En:   0.100D+01
 Coeff:      0.100D+01
 Gap=     0.065 Goal=   None    Shift=    0.000
 Gap=     0.187 Goal=   None    Shift=    0.000
 GapD=    0.065 DampG=0.500 DampE=0.500 DampFc=0.2500 IDamp=-1.
 Damping current iteration by 2.50D-01
 RMSDP=5.41D-01 MaxDP=8.69D+01              OVMax= 9.95D-01

 Cycle   2  Pass 1  IDiag  1:
 RMSU=  1.31D-01    CP:  1.61D+00
 E= -803.040761865224     Delta-E=       -0.021835108468 Rises=F Damp=T
 DIIS: error= 1.81D-02 at cycle   2 NSaved=   2.
 NSaved= 2 IEnMin= 2 EnMin= -803.040761865224     IErMin= 2 ErrMin= 1.81D-02
 ErrMax= 1.81D-02  0.00D+00 EMaxC= 1.00D-01 BMatC= 4.92D-01 BMatP= 2.32D+00
 IDIUse=3 WtCom= 8.19D-01 WtEn= 1.81D-01
 Coeff-Com: -0.198D+00 0.120D+01
 Coeff-En:   0.463D+00 0.537D+00
 Coeff:     -0.787D-01 0.108D+01
 Gap=    -0.087 Goal=   None    Shift=    0.000
 Gap=     0.129 Goal=   None    Shift=    0.000
 RMSDP=1.36D-01 MaxDP=2.16D+01 DE=-2.18D-02 OVMax= 7.46D-01

 Cycle   3  Pass 1  IDiag  1:
 RMSU=  1.49D-02    CP:  1.18D+00 -1.64D-02
 E= -803.089894013742     Delta-E=       -0.049132148517 Rises=F Damp=F
 DIIS: error= 4.59D-02 at cycle   3 NSaved=   3.
 NSaved= 3 IEnMin= 3 EnMin= -803.089894013742     IErMin= 2 ErrMin= 1.81D-02
 ErrMax= 4.59D-02  0.00D+00 EMaxC= 1.00D-01 BMatC= 1.66D+00 BMatP= 4.92D-01
 IDIUse=2 WtCom= 0.00D+00 WtEn= 1.00D+00
 EnCoef did     3 forward-backward iterations
 Coeff-En:   0.537D-01 0.427D+00 0.519D+00
 Coeff:      0.537D-01 0.427D+00 0.519D+00
 Gap=     0.094 Goal=   None    Shift=    0.000
 Gap=     0.188 Goal=   None    Shift=    0.000
 RMSDP=3.23D-02 MaxDP=2.35D+00 DE=-4.91D-02 OVMax= 6.35D-01

 Cycle   4  Pass 1  IDiag  1:
 RMSU=  2.53D-02    CP:  1.22D+00  4.37D-02 -2.32D-01
 E= -803.144307765692     Delta-E=       -0.054413751950 Rises=F Damp=F
 DIIS: error= 6.39D-02 at cycle   4 NSaved=   4.
 NSaved= 4 IEnMin= 4 EnMin= -803.144307765692     IErMin= 2 ErrMin= 1.81D-02
 ErrMax= 6.39D-02  0.00D+00 EMaxC= 1.00D-01 BMatC= 1.62D+00 BMatP= 4.92D-01
 IDIUse=2 WtCom= 0.00D+00 WtEn= 1.00D+00
 Coeff-En:   0.000D+00 0.000D+00 0.475D+00 0.525D+00
 Coeff:      0.000D+00 0.000D+00 0.475D+00 0.525D+00
 Gap=     0.181 Goal=   None    Shift=    0.000
 Gap=     0.175 Goal=   None    Shift=    0.000
 RMSDP=2.46D-02 MaxDP=2.07D+00 DE=-5.44D-02 OVMax= 4.39D-01

 Cycle   5  Pass 1  IDiag  1:
 RMSU=  7.69D-03    CP:  1.06D+00  1.53D-02  4.71D-02  1.80D-01
 E= -803.484606990831     Delta-E=       -0.340299225139 Rises=F Damp=F
 DIIS: error= 1.77D-02 at cycle   5 NSaved=   5.
 NSaved= 5 IEnMin= 5 EnMin= -803.484606990831     IErMin= 5 ErrMin= 1.77D-02
 ErrMax= 1.77D-02  0.00D+00 EMaxC= 1.00D-01 BMatC= 1.92D-01 BMatP= 4.92D-01
 IDIUse=3 WtCom= 8.23D-01 WtEn= 1.77D-01
 Coeff-Com: -0.105D+00 0.291D+00 0.241D+00 0.201D+00 0.372D+00
 Coeff-En:   0.000D+00 0.000D+00 0.000D+00 0.595D-01 0.941D+00
 Coeff:     -0.866D-01 0.239D+00 0.199D+00 0.176D+00 0.473D+00
 Gap=     0.091 Goal=   None    Shift=    0.000
 Gap=     0.183 Goal=   None    Shift=    0.000
 RMSDP=5.18D-03 MaxDP=5.65D-01 DE=-3.40D-01 OVMax= 1.99D-01

 Cycle   6  Pass 1  IDiag  1:
 RMSU=  3.54D-03    CP:  1.11D+00  1.22D-02  1.37D-01  1.85D-01  7.28D-01
 E= -803.503397156641     Delta-E=       -0.018790165810 Rises=F Damp=F
 DIIS: error= 1.24D-02 at cycle   6 NSaved=   6.
 NSaved= 6 IEnMin= 6 EnMin= -803.503397156641     IErMin= 6 ErrMin= 1.24D-02
 ErrMax= 1.24D-02  0.00D+00 EMaxC= 1.00D-01 BMatC= 8.80D-02 BMatP= 1.92D-01
 IDIUse=3 WtCom= 8.76D-01 WtEn= 1.24D-01
 Coeff-Com: -0.123D+00 0.166D+00 0.623D-02 0.184D-01 0.418D+00 0.513D+00
 Coeff-En:   0.000D+00 0.000D+00 0.000D+00 0.000D+00 0.367D+00 0.633D+00
 Coeff:     -0.108D+00 0.146D+00 0.546D-02 0.161D-01 0.412D+00 0.528D+00
 Gap=     0.072 Goal=   None    Shift=    0.000
 Gap=     0.143 Goal=   None    Shift=    0.000
 RMSDP=2.71D-03 MaxDP=2.73D-01 DE=-1.88D-02 OVMax= 1.11D-01

 Cycle   7  Pass 1  IDiag  1:
 RMSU=  8.18D-04    CP:  1.08D+00  1.50D-02  7.89D-02  1.88D-01  8.92D-01
                    CP:  6.17D-01
 E= -803.524701363592     Delta-E=       -0.021304206951 Rises=F Damp=F
 DIIS: error= 4.07D-03 at cycle   7 NSaved=   7.
 NSaved= 7 IEnMin= 7 EnMin= -803.524701363592     IErMin= 7 ErrMin= 4.07D-03
 ErrMax= 4.07D-03  0.00D+00 EMaxC= 1.00D-01 BMatC= 6.85D-03 BMatP= 8.80D-02
 IDIUse=3 WtCom= 9.59D-01 WtEn= 4.07D-02
 Coeff-Com: -0.770D-01 0.943D-01-0.201D-01 0.203D-02 0.240D+00 0.335D+00
 Coeff-Com:  0.426D+00
 Coeff-En:   0.000D+00 0.000D+00 0.000D+00 0.000D+00 0.000D+00 0.000D+00
 Coeff-En:   0.100D+01
 Coeff:     -0.738D-01 0.904D-01-0.193D-01 0.194D-02 0.230D+00 0.321D+00
 Coeff:      0.449D+00
 Gap=     0.073 Goal=   None    Shift=    0.000
 Gap=     0.139 Goal=   None    Shift=    0.000
 RMSDP=7.49D-04 MaxDP=6.09D-02 DE=-2.13D-02 OVMax= 2.62D-02

 Cycle   8  Pass 1  IDiag  1:
 RMSU=  4.05D-04    CP:  1.08D+00  1.62D-02  5.63D-02  1.95D-01  9.25D-01
                    CP:  6.58D-01  5.69D-01
 E= -803.526177963724     Delta-E=       -0.001476600132 Rises=F Damp=F
 DIIS: error= 2.49D-03 at cycle   8 NSaved=   8.
 NSaved= 8 IEnMin= 8 EnMin= -803.526177963724     IErMin= 8 ErrMin= 2.49D-03
 ErrMax= 2.49D-03  0.00D+00 EMaxC= 1.00D-01 BMatC= 2.01D-03 BMatP= 6.85D-03
 IDIUse=3 WtCom= 9.75D-01 WtEn= 2.49D-02
 Coeff-Com: -0.309D-01 0.421D-01-0.122D-01 0.270D-02 0.286D-01 0.171D-01
 Coeff-Com:  0.116D+00 0.836D+00
 Coeff-En:   0.000D+00 0.000D+00 0.000D+00 0.000D+00 0.000D+00 0.000D+00
 Coeff-En:   0.000D+00 0.100D+01
 Coeff:     -0.301D-01 0.411D-01-0.119D-01 0.263D-02 0.279D-01 0.167D-01
 Coeff:      0.113D+00 0.840D+00
 Gap=     0.071 Goal=   None    Shift=    0.000
 Gap=     0.139 Goal=   None    Shift=    0.000
 RMSDP=6.13D-04 MaxDP=5.25D-02 DE=-1.48D-03 OVMax= 1.05D-02

 Cycle   9  Pass 1  IDiag  1:
 RMSU=  2.59D-04    CP:  1.08D+00  1.70D-02  3.23D-02  2.01D-01  9.72D-01
                    CP:  6.59D-01  5.42D-01  1.14D+00
 E= -803.526687957087     Delta-E=       -0.000509993363 Rises=F Damp=F
 DIIS: error= 1.23D-03 at cycle   9 NSaved=   9.
 NSaved= 9 IEnMin= 9 EnMin= -803.526687957087     IErMin= 9 ErrMin= 1.23D-03
 ErrMax= 1.23D-03  0.00D+00 EMaxC= 1.00D-01 BMatC= 4.27D-04 BMatP= 2.01D-03
 IDIUse=3 WtCom= 9.88D-01 WtEn= 1.23D-02
 Coeff-Com: -0.502D-02 0.893D-02-0.461D-02 0.372D-02-0.375D-01-0.720D-01
 Coeff-Com: -0.824D-01 0.549D+00 0.640D+00
 Coeff-En:   0.000D+00 0.000D+00 0.000D+00 0.000D+00 0.000D+00 0.000D+00
 Coeff-En:   0.000D+00 0.000D+00 0.100D+01
 Coeff:     -0.496D-02 0.882D-02-0.455D-02 0.367D-02-0.370D-01-0.712D-01
 Coeff:     -0.814D-01 0.543D+00 0.644D+00
 Gap=     0.069 Goal=   None    Shift=    0.000
 Gap=     0.139 Goal=   None    Shift=    0.000
 RMSDP=3.47D-04 MaxDP=2.73D-02 DE=-5.10D-04 OVMax= 6.51D-03

 Cycle  10  Pass 1  IDiag  1:
 RMSU=  9.90D-05    CP:  1.08D+00  1.75D-02  1.91D-02  2.05D-01  9.96D-01
                    CP:  6.54D-01  5.00D-01  1.44D+00  1.34D+00
 E= -803.526836910652     Delta-E=       -0.000148953565 Rises=F Damp=F
 DIIS: error= 2.94D-04 at cycle  10 NSaved=  10.
 NSaved=10 IEnMin=10 EnMin= -803.526836910652     IErMin=10 ErrMin= 2.94D-04
 ErrMax= 2.94D-04  0.00D+00 EMaxC= 1.00D-01 BMatC= 4.04D-05 BMatP= 4.27D-04
 IDIUse=3 WtCom= 9.97D-01 WtEn= 2.94D-03
 Coeff-Com:  0.251D-02-0.187D-02 0.831D-03 0.452D-03-0.195D-01-0.293D-01
 Coeff-Com: -0.876D-01 0.187D-01 0.343D+00 0.773D+00
 Coeff-En:   0.000D+00 0.000D+00 0.000D+00 0.000D+00 0.000D+00 0.000D+00
 Coeff-En:   0.000D+00 0.000D+00 0.000D+00 0.100D+01
 Coeff:      0.250D-02-0.186D-02 0.829D-03 0.451D-03-0.194D-01-0.292D-01
 Coeff:     -0.874D-01 0.187D-01 0.342D+00 0.773D+00
 Gap=     0.069 Goal=   None    Shift=    0.000
 Gap=     0.139 Goal=   None    Shift=    0.000
 RMSDP=8.33D-05 MaxDP=6.58D-03 DE=-1.49D-04 OVMax= 2.60D-03

 Cycle  11  Pass 1  IDiag  1:
 RMSU=  6.39D-05    CP:  1.08D+00  1.75D-02  1.89D-02  2.05D-01  9.98D-01
                    CP:  6.52D-01  4.90D-01  1.51D+00  1.46D+00  1.22D+00
 E= -803.526853910569     Delta-E=       -0.000016999917 Rises=F Damp=F
 DIIS: error= 1.39D-04 at cycle  11 NSaved=  11.
 NSaved=11 IEnMin=11 EnMin= -803.526853910569     IErMin=11 ErrMin= 1.39D-04
 ErrMax= 1.39D-04  0.00D+00 EMaxC= 1.00D-01 BMatC= 9.34D-06 BMatP= 4.04D-05
 IDIUse=3 WtCom= 9.99D-01 WtEn= 1.39D-03
 Coeff-Com:  0.225D-02-0.294D-02 0.117D-02-0.216D-03-0.327D-02-0.409D-02
 Coeff-Com: -0.285D-01-0.600D-01 0.801D-01 0.362D+00 0.653D+00
 Coeff-En:   0.000D+00 0.000D+00 0.000D+00 0.000D+00 0.000D+00 0.000D+00
 Coeff-En:   0.000D+00 0.000D+00 0.000D+00 0.000D+00 0.100D+01
 Coeff:      0.225D-02-0.294D-02 0.117D-02-0.215D-03-0.326D-02-0.408D-02
 Coeff:     -0.284D-01-0.599D-01 0.800D-01 0.362D+00 0.654D+00
 Gap=     0.069 Goal=   None    Shift=    0.000
 Gap=     0.139 Goal=   None    Shift=    0.000
 RMSDP=3.92D-05 MaxDP=3.09D-03 DE=-1.70D-05 OVMax= 9.12D-04

 Cycle  12  Pass 1  IDiag  1:
 RMSU=  2.65D-05    CP:  1.08D+00  1.75D-02  1.84D-02  2.05D-01  9.99D-01
                    CP:  6.52D-01  4.80D-01  1.56D+00  1.50D+00  1.30D+00
                    CP:  1.16D+00
 E= -803.526855874659     Delta-E=       -0.000001964089 Rises=F Damp=F
 DIIS: error= 8.11D-05 at cycle  12 NSaved=  12.
 NSaved=12 IEnMin=12 EnMin= -803.526855874659     IErMin=12 ErrMin= 8.11D-05
 ErrMax= 8.11D-05  0.00D+00 EMaxC= 1.00D-01 BMatC= 5.99D-06 BMatP= 9.34D-06
 IDIUse=1 WtCom= 1.00D+00 WtEn= 0.00D+00
 Coeff-Com:  0.470D-03-0.842D-03 0.790D-03-0.760D-03 0.476D-02 0.660D-02
 Coeff-Com:  0.173D-01-0.315D-01-0.749D-01-0.830D-01 0.415D+00 0.746D+00
 Coeff:      0.470D-03-0.842D-03 0.790D-03-0.760D-03 0.476D-02 0.660D-02
 Coeff:      0.173D-01-0.315D-01-0.749D-01-0.830D-01 0.415D+00 0.746D+00
 Gap=     0.069 Goal=   None    Shift=    0.000
 Gap=     0.139 Goal=   None    Shift=    0.000
 RMSDP=3.94D-05 MaxDP=3.61D-03 DE=-1.96D-06 OVMax= 5.79D-04

 Cycle  13  Pass 1  IDiag  1:
 RMSU=  1.50D-05    CP:  1.08D+00  1.74D-02  1.95D-02  2.05D-01  9.97D-01
                    CP:  6.49D-01  4.83D-01  1.53D+00  1.51D+00  1.39D+00
                    CP:  1.38D+00  1.25D+00
 E= -803.526857920764     Delta-E=       -0.000002046105 Rises=F Damp=F
 DIIS: error= 4.66D-05 at cycle  13 NSaved=  13.
 NSaved=13 IEnMin=13 EnMin= -803.526857920764     IErMin=13 ErrMin= 4.66D-05
 ErrMax= 4.66D-05  0.00D+00 EMaxC= 1.00D-01 BMatC= 9.91D-07 BMatP= 5.99D-06
 IDIUse=1 WtCom= 1.00D+00 WtEn= 0.00D+00
 Coeff-Com:  0.211D-03-0.459D-03 0.323D-03-0.440D-03 0.246D-02 0.303D-02
 Coeff-Com:  0.145D-01-0.431D-02-0.550D-01-0.118D+00 0.796D-01 0.383D+00
 Coeff-Com:  0.695D+00
 Coeff:      0.211D-03-0.459D-03 0.323D-03-0.440D-03 0.246D-02 0.303D-02
 Coeff:      0.145D-01-0.431D-02-0.550D-01-0.118D+00 0.796D-01 0.383D+00
 Coeff:      0.695D+00
 Gap=     0.069 Goal=   None    Shift=    0.000
 Gap=     0.140 Goal=   None    Shift=    0.000
 RMSDP=1.63D-05 MaxDP=1.31D-03 DE=-2.05D-06 OVMax= 3.07D-04

 Cycle  14  Pass 1  IDiag  1:
 RMSU=  5.51D-06    CP:  1.08D+00  1.74D-02  1.99D-02  2.05D-01  9.96D-01
                    CP:  6.48D-01  4.84D-01  1.54D+00  1.51D+00  1.38D+00
                    CP:  1.48D+00  1.49D+00  9.21D-01
 E= -803.526858205246     Delta-E=       -0.000000284482 Rises=F Damp=F
 DIIS: error= 1.53D-05 at cycle  14 NSaved=  14.
 NSaved=14 IEnMin=14 EnMin= -803.526858205246     IErMin=14 ErrMin= 1.53D-05
 ErrMax= 1.53D-05  0.00D+00 EMaxC= 1.00D-01 BMatC= 2.80D-07 BMatP= 9.91D-07
 IDIUse=1 WtCom= 1.00D+00 WtEn= 0.00D+00
 Coeff-Com: -0.735D-05-0.127D-05 0.417D-04-0.854D-04 0.635D-04-0.296D-03
 Coeff-Com:  0.393D-02 0.899D-02-0.115D-01-0.502D-01-0.697D-01 0.302D-01
 Coeff-Com:  0.461D+00 0.628D+00
 Coeff:     -0.735D-05-0.127D-05 0.417D-04-0.854D-04 0.635D-04-0.296D-03
 Coeff:      0.393D-02 0.899D-02-0.115D-01-0.502D-01-0.697D-01 0.302D-01
 Coeff:      0.461D+00 0.628D+00
 Gap=     0.069 Goal=   None    Shift=    0.000
 Gap=     0.140 Goal=   None    Shift=    0.000
 RMSDP=8.12D-06 MaxDP=7.97D-04 DE=-2.84D-07 OVMax= 1.41D-04

 Cycle  15  Pass 1  IDiag  1:
 RMSU=  2.75D-06    CP:  1.08D+00  1.74D-02  2.01D-02  2.05D-01  9.96D-01
                    CP:  6.48D-01  4.84D-01  1.54D+00  1.50D+00  1.40D+00
                    CP:  1.50D+00  1.51D+00  1.12D+00  8.81D-01
 E= -803.526858296567     Delta-E=       -0.000000091321 Rises=F Damp=F
 DIIS: error= 6.07D-06 at cycle  15 NSaved=  15.
 NSaved=15 IEnMin=15 EnMin= -803.526858296567     IErMin=15 ErrMin= 6.07D-06
 ErrMax= 6.07D-06  0.00D+00 EMaxC= 1.00D-01 BMatC= 1.92D-08 BMatP= 2.80D-07
 IDIUse=1 WtCom= 1.00D+00 WtEn= 0.00D+00
 Coeff-Com: -0.244D-05 0.132D-04-0.156D-04 0.273D-05-0.196D-03-0.344D-03
 Coeff-Com:  0.261D-03 0.343D-02 0.693D-03-0.928D-02-0.379D-01-0.238D-01
 Coeff-Com:  0.137D+00 0.285D+00 0.645D+00
 Coeff:     -0.244D-05 0.132D-04-0.156D-04 0.273D-05-0.196D-03-0.344D-03
 Coeff:      0.261D-03 0.343D-02 0.693D-03-0.928D-02-0.379D-01-0.238D-01
 Coeff:      0.137D+00 0.285D+00 0.645D+00
 Gap=     0.069 Goal=   None    Shift=    0.000
 Gap=     0.140 Goal=   None    Shift=    0.000
 RMSDP=1.83D-06 MaxDP=1.21D-04 DE=-9.13D-08 OVMax= 4.93D-05

 Cycle  16  Pass 1  IDiag  1:
 RMSU=  9.74D-07    CP:  1.08D+00  1.74D-02  2.01D-02  2.05D-01  9.96D-01
                    CP:  6.48D-01  4.85D-01  1.54D+00  1.50D+00  1.39D+00
                    CP:  1.50D+00  1.53D+00  1.12D+00  9.19D-01  8.95D-01
 E= -803.526858304861     Delta-E=       -0.000000008294 Rises=F Damp=F
 DIIS: error= 2.91D-06 at cycle  16 NSaved=  16.
 NSaved=16 IEnMin=16 EnMin= -803.526858304861     IErMin=16 ErrMin= 2.91D-06
 ErrMax= 2.91D-06  0.00D+00 EMaxC= 1.00D-01 BMatC= 7.40D-09 BMatP= 1.92D-08
 IDIUse=1 WtCom= 1.00D+00 WtEn= 0.00D+00
 Coeff-Com:  0.411D-05 0.230D-05-0.269D-04 0.373D-04-0.146D-03-0.137D-03
 Coeff-Com: -0.112D-02-0.989D-03 0.452D-02 0.104D-01-0.493D-03-0.224D-01
 Coeff-Com: -0.657D-01-0.404D-01 0.368D+00 0.749D+00
 Coeff:      0.411D-05 0.230D-05-0.269D-04 0.373D-04-0.146D-03-0.137D-03
 Coeff:     -0.112D-02-0.989D-03 0.452D-02 0.104D-01-0.493D-03-0.224D-01
 Coeff:     -0.657D-01-0.404D-01 0.368D+00 0.749D+00
 Gap=     0.069 Goal=   None    Shift=    0.000
 Gap=     0.140 Goal=   None    Shift=    0.000
 RMSDP=1.43D-06 MaxDP=1.92D-04 DE=-8.29D-09 OVMax= 4.15D-05

 Cycle  17  Pass 1  IDiag  1:
 RMSU=  6.59D-07    CP:  1.08D+00  1.74D-02  2.01D-02  2.05D-01  9.96D-01
                    CP:  6.48D-01  4.85D-01  1.54D+00  1.50D+00  1.39D+00
                    CP:  1.50D+00  1.53D+00  1.14D+00  9.12D-01  9.70D-01
                    CP:  1.01D+00
 E= -803.526858309509     Delta-E=       -0.000000004649 Rises=F Damp=F
 DIIS: error= 1.74D-06 at cycle  17 NSaved=  17.
 NSaved=17 IEnMin=17 EnMin= -803.526858309509     IErMin=17 ErrMin= 1.74D-06
 ErrMax= 1.74D-06  0.00D+00 EMaxC= 1.00D-01 BMatC= 1.63D-09 BMatP= 7.40D-09
 IDIUse=1 WtCom= 1.00D+00 WtEn= 0.00D+00
 Coeff-Com: -0.612D-05 0.823D-05-0.923D-05 0.122D-04 0.337D-04 0.724D-04
 Coeff-Com: -0.454D-03-0.166D-02 0.157D-02 0.684D-02 0.111D-01-0.226D-02
 Coeff-Com: -0.646D-01-0.108D+00-0.506D-01 0.293D+00 0.915D+00
 Coeff:     -0.612D-05 0.823D-05-0.923D-05 0.122D-04 0.337D-04 0.724D-04
 Coeff:     -0.454D-03-0.166D-02 0.157D-02 0.684D-02 0.111D-01-0.226D-02
 Coeff:     -0.646D-01-0.108D+00-0.506D-01 0.293D+00 0.915D+00
 Gap=     0.069 Goal=   None    Shift=    0.000
 Gap=     0.140 Goal=   None    Shift=    0.000
 RMSDP=6.15D-07 MaxDP=6.53D-05 DE=-4.65D-09 OVMax= 3.42D-05

 Cycle  18  Pass 1  IDiag  1:
 RMSU=  3.53D-07    CP:  1.08D+00  1.74D-02  2.01D-02  2.05D-01  9.96D-01
                    CP:  6.48D-01  4.85D-01  1.54D+00  1.50D+00  1.39D+00
                    CP:  1.49D+00  1.52D+00  1.14D+00  9.21D-01  1.03D+00
                    CP:  1.15D+00  8.97D-01
 E= -803.526858311129     Delta-E=       -0.000000001620 Rises=F Damp=F
 DIIS: error= 8.38D-07 at cycle  18 NSaved=  18.
 NSaved=18 IEnMin=18 EnMin= -803.526858311129     IErMin=18 ErrMin= 8.38D-07
 ErrMax= 8.38D-07  0.00D+00 EMaxC= 1.00D-01 BMatC= 7.41D-10 BMatP= 1.63D-09
 IDIUse=1 WtCom= 1.00D+00 WtEn= 0.00D+00
 Coeff-Com: -0.105D-04 0.108D-04 0.302D-05-0.207D-05 0.691D-04 0.689D-04
 Coeff-Com:  0.660D-04-0.638D-03-0.349D-03 0.893D-03 0.659D-02 0.449D-02
 Coeff-Com: -0.180D-01-0.536D-01-0.145D+00-0.663D-01 0.559D+00 0.713D+00
 Coeff:     -0.105D-04 0.108D-04 0.302D-05-0.207D-05 0.691D-04 0.689D-04
 Coeff:      0.660D-04-0.638D-03-0.349D-03 0.893D-03 0.659D-02 0.449D-02
 Coeff:     -0.180D-01-0.536D-01-0.145D+00-0.663D-01 0.559D+00 0.713D+00
 Gap=     0.069 Goal=   None    Shift=    0.000
 Gap=     0.140 Goal=   None    Shift=    0.000
 RMSDP=3.65D-07 MaxDP=2.94D-05 DE=-1.62D-09 OVMax= 1.67D-05

 Cycle  19  Pass 1  IDiag  1:
 RMSU=  1.98D-07    CP:  1.08D+00  1.74D-02  2.01D-02  2.05D-01  9.96D-01
                    CP:  6.48D-01  4.85D-01  1.54D+00  1.50D+00  1.39D+00
                    CP:  1.49D+00  1.52D+00  1.15D+00  9.15D-01  1.05D+00
                    CP:  1.22D+00  1.08D+00  9.78D-01
 E= -803.526858311596     Delta-E=       -0.000000000467 Rises=F Damp=F
 DIIS: error= 4.76D-07 at cycle  19 NSaved=  19.
 NSaved=19 IEnMin=19 EnMin= -803.526858311596     IErMin=19 ErrMin= 4.76D-07
 ErrMax= 4.76D-07  0.00D+00 EMaxC= 1.00D-01 BMatC= 1.02D-10 BMatP= 7.41D-10
 IDIUse=1 WtCom= 1.00D+00 WtEn= 0.00D+00
 Coeff-Com: -0.518D-05 0.574D-05 0.414D-05-0.428D-05 0.260D-04 0.153D-04
 Coeff-Com:  0.102D-03-0.516D-04-0.416D-03-0.754D-03 0.944D-03 0.159D-02
 Coeff-Com:  0.409D-02-0.698D-03-0.450D-01-0.770D-01 0.398D-01 0.294D+00
 Coeff-Com:  0.783D+00
 Coeff:     -0.518D-05 0.574D-05 0.414D-05-0.428D-05 0.260D-04 0.153D-04
 Coeff:      0.102D-03-0.516D-04-0.416D-03-0.754D-03 0.944D-03 0.159D-02
 Coeff:      0.409D-02-0.698D-03-0.450D-01-0.770D-01 0.398D-01 0.294D+00
 Coeff:      0.783D+00
 Gap=     0.069 Goal=   None    Shift=    0.000
 Gap=     0.140 Goal=   None    Shift=    0.000
 RMSDP=1.49D-07 MaxDP=9.76D-06 DE=-4.67D-10 OVMax= 7.11D-06

 Cycle  20  Pass 1  IDiag  1:
 RMSU=  7.41D-08    CP:  1.08D+00  1.74D-02  2.01D-02  2.05D-01  9.96D-01
                    CP:  6.48D-01  4.85D-01  1.54D+00  1.50D+00  1.39D+00
                    CP:  1.49D+00  1.52D+00  1.15D+00  9.07D-01  1.05D+00
                    CP:  1.21D+00  1.12D+00  1.07D+00  9.49D-01
 E= -803.526858311655     Delta-E=       -0.000000000059 Rises=F Damp=F
 DIIS: error= 1.65D-07 at cycle  20 NSaved=  20.
 NSaved=20 IEnMin=20 EnMin= -803.526858311655     IErMin=20 ErrMin= 1.65D-07
 ErrMax= 1.65D-07  0.00D+00 EMaxC= 1.00D-01 BMatC= 3.08D-11 BMatP= 1.02D-10
 IDIUse=1 WtCom= 1.00D+00 WtEn= 0.00D+00
 Coeff-Com: -0.886D-06 0.957D-06 0.235D-05-0.216D-05 0.207D-05-0.687D-05
 Coeff-Com:  0.487D-04 0.599D-04-0.171D-03-0.586D-03-0.414D-03 0.102D-03
 Coeff-Com:  0.500D-02 0.941D-02 0.173D-02-0.313D-01-0.854D-01 0.481D-01
 Coeff-Com:  0.419D+00 0.635D+00
 Coeff:     -0.886D-06 0.957D-06 0.235D-05-0.216D-05 0.207D-05-0.687D-05
 Coeff:      0.487D-04 0.599D-04-0.171D-03-0.586D-03-0.414D-03 0.102D-03
 Coeff:      0.500D-02 0.941D-02 0.173D-02-0.313D-01-0.854D-01 0.481D-01
 Coeff:      0.419D+00 0.635D+00
 Gap=     0.069 Goal=   None    Shift=    0.000
 Gap=     0.140 Goal=   None    Shift=    0.000
 RMSDP=7.59D-08 MaxDP=9.16D-06 DE=-5.87D-11 OVMax= 5.32D-06

 Cycle  21  Pass 1  IDiag  1:
 Restarting incremental Fock formation.
 E= -803.526858311659     Delta-E=       -0.000000000004 Rises=F Damp=F
 DIIS: error= 1.56D-07 at cycle  21 NSaved=  20.
 NSaved=20 IEnMin=20 EnMin= -803.526858311659     IErMin=20 ErrMin= 1.56D-07
 ErrMax= 1.56D-07  0.00D+00 EMaxC= 1.00D-01 BMatC= 7.31D-12 BMatP= 3.08D-11
 IDIUse=1 WtCom= 1.00D+00 WtEn= 0.00D+00
 Coeff-Com:  0.306D-06 0.408D-08-0.220D-06-0.338D-05-0.435D-05 0.172D-05
 Coeff-Com:  0.230D-04 0.475D-04-0.341D-04-0.361D-03-0.561D-03 0.661D-03
 Coeff-Com:  0.482D-02 0.138D-01 0.817D-02-0.519D-01-0.470D-01-0.697D-01
 Coeff-Com:  0.259D+00 0.883D+00
 Coeff:      0.306D-06 0.408D-08-0.220D-06-0.338D-05-0.435D-05 0.172D-05
 Coeff:      0.230D-04 0.475D-04-0.341D-04-0.361D-03-0.561D-03 0.661D-03
 Coeff:      0.482D-02 0.138D-01 0.817D-02-0.519D-01-0.470D-01-0.697D-01
 Coeff:      0.259D+00 0.883D+00
 Gap=     0.069 Goal=   None    Shift=    0.000
 Gap=     0.140 Goal=   None    Shift=    0.000
 RMSDP=7.92D-08 MaxDP=1.06D-05 DE=-3.87D-12 OVMax= 3.92D-06

 Cycle  22  Pass 1  IDiag  1:
 RMSU=  7.33D-08    CP:  1.00D+00
 E= -803.526858311664     Delta-E=       -0.000000000005 Rises=F Damp=F
 DIIS: error= 6.95D-08 at cycle  22 NSaved=  20.
 NSaved=20 IEnMin=20 EnMin= -803.526858311664     IErMin=20 ErrMin= 6.95D-08
 ErrMax= 6.95D-08  0.00D+00 EMaxC= 1.00D-01 BMatC= 1.54D-12 BMatP= 7.31D-12
 IDIUse=1 WtCom= 1.00D+00 WtEn= 0.00D+00
 Coeff-Com: -0.321D-06 0.107D-06-0.598D-06 0.176D-06-0.108D-05-0.111D-04
 Coeff-Com:  0.383D-04 0.642D-04 0.501D-04-0.212D-03-0.735D-03 0.313D-03
 Coeff-Com:  0.414D-02 0.666D-02-0.551D-02-0.165D-01-0.941D-01-0.305D-01
 Coeff-Com:  0.349D+00 0.787D+00
 Coeff:     -0.321D-06 0.107D-06-0.598D-06 0.176D-06-0.108D-05-0.111D-04
 Coeff:      0.383D-04 0.642D-04 0.501D-04-0.212D-03-0.735D-03 0.313D-03
 Coeff:      0.414D-02 0.666D-02-0.551D-02-0.165D-01-0.941D-01-0.305D-01
 Coeff:      0.349D+00 0.787D+00
 Gap=     0.069 Goal=   None    Shift=    0.000
 Gap=     0.140 Goal=   None    Shift=    0.000
 RMSDP=1.84D-08 MaxDP=1.20D-06 DE=-5.23D-12 OVMax= 1.96D-06

 Cycle  23  Pass 1  IDiag  1:
 RMSU=  1.77D-08    CP:  1.00D+00  1.05D+00
 E= -803.526858311679     Delta-E=       -0.000000000014 Rises=F Damp=F
 DIIS: error= 3.46D-08 at cycle  23 NSaved=  20.
 NSaved=20 IEnMin=20 EnMin= -803.526858311679     IErMin=20 ErrMin= 3.46D-08
 ErrMax= 3.46D-08  0.00D+00 EMaxC= 1.00D-01 BMatC= 6.96D-13 BMatP= 1.54D-12
 IDIUse=1 WtCom= 1.00D+00 WtEn= 0.00D+00
 Coeff-Com:  0.666D-07 0.606D-06 0.854D-06 0.274D-06-0.164D-04 0.714D-05
 Coeff-Com:  0.412D-04 0.183D-03 0.481D-04-0.628D-03-0.115D-02-0.227D-02
 Coeff-Com:  0.324D-03 0.131D-01 0.963D-02-0.338D-01-0.117D+00-0.640D-01
 Coeff-Com:  0.526D+00 0.669D+00
 Coeff:      0.666D-07 0.606D-06 0.854D-06 0.274D-06-0.164D-04 0.714D-05
 Coeff:      0.412D-04 0.183D-03 0.481D-04-0.628D-03-0.115D-02-0.227D-02
 Coeff:      0.324D-03 0.131D-01 0.963D-02-0.338D-01-0.117D+00-0.640D-01
 Coeff:      0.526D+00 0.669D+00
 Gap=     0.069 Goal=   None    Shift=    0.000
 Gap=     0.140 Goal=   None    Shift=    0.000
 RMSDP=1.09D-08 MaxDP=5.34D-07 DE=-1.43D-11 OVMax= 1.16D-06

 Cycle  24  Pass 1  IDiag  1:
 RMSU=  1.00D-08    CP:  1.00D+00  1.09D+00  1.16D+00
 E= -803.526858311661     Delta-E=        0.000000000017 Rises=F Damp=F
 DIIS: error= 1.75D-08 at cycle  24 NSaved=  20.
 NSaved=20 IEnMin=19 EnMin= -803.526858311679     IErMin=20 ErrMin= 1.75D-08
 ErrMax= 1.75D-08  0.00D+00 EMaxC= 1.00D-01 BMatC= 8.71D-14 BMatP= 6.96D-13
 IDIUse=1 WtCom= 1.00D+00 WtEn= 0.00D+00
 Coeff-Com: -0.295D-07-0.193D-06-0.696D-06-0.236D-05 0.815D-06 0.619D-05
 Coeff-Com:  0.546D-04 0.319D-04-0.150D-03-0.427D-03-0.155D-02-0.106D-02
 Coeff-Com:  0.595D-02 0.794D-02 0.489D-02-0.443D-01-0.116D+00-0.650D-03
 Coeff-Com:  0.226D+00 0.919D+00
 Coeff:     -0.295D-07-0.193D-06-0.696D-06-0.236D-05 0.815D-06 0.619D-05
 Coeff:      0.546D-04 0.319D-04-0.150D-03-0.427D-03-0.155D-02-0.106D-02
 Coeff:      0.595D-02 0.794D-02 0.489D-02-0.443D-01-0.116D+00-0.650D-03
 Coeff:      0.226D+00 0.919D+00
 Gap=     0.069 Goal=   None    Shift=    0.000
 Gap=     0.140 Goal=   None    Shift=    0.000
 RMSDP=7.04D-09 MaxDP=5.78D-07 DE= 1.73D-11 OVMax= 7.11D-07

 SCF Done:  E(UB3LYP) =  -803.526858312     A.U. after   24 cycles
            NFock= 24  Conv=0.70D-08     -V/T= 2.0030
 <Sx>= 0.0000 <Sy>= 0.0000 <Sz>= 0.5000 <S**2>= 0.7605 S= 0.5052
 <L.S>=  0.00000000000    
 KE= 8.011106418863D+02 PE=-4.361780876669D+03 EE= 1.523013677389D+03
 Annihilation of the first spin contaminant:
 S**2 before annihilation     0.7605,   after     0.7501
 Leave Link  502 at Thu Dec 21 05:41:08 2023, MaxMem=  4026531840 cpu:            3367.9 elap:             424.7
 (Enter /sysapps/ubuntu-applications/gaussian/Gaussian/AVX2/g16/l601.exe)
 Copying SCF densities to generalized density rwf, IOpCl= 1 IROHF=0.

 **********************************************************************

            Population analysis using the SCF density.

 **********************************************************************

 Alpha  occ. eigenvalues --  -19.02922 -18.93344 -18.92708 -10.13000 -10.11561
 Alpha  occ. eigenvalues --  -10.08528 -10.08243 -10.05279 -10.04863 -10.04767
 Alpha  occ. eigenvalues --  -10.04512 -10.04173 -10.04070 -10.03816 -10.03776
 Alpha  occ. eigenvalues --  -10.03665 -10.03402 -10.03336  -0.94914  -0.86838
 Alpha  occ. eigenvalues --   -0.86094  -0.74680  -0.73991  -0.66364  -0.64721
 Alpha  occ. eigenvalues --   -0.63096  -0.62549  -0.58455  -0.53222  -0.51818
 Alpha  occ. eigenvalues --   -0.49941  -0.46857  -0.44315  -0.41990  -0.41285
 Alpha  occ. eigenvalues --   -0.37408  -0.36548  -0.35793  -0.34569  -0.34218
 Alpha  occ. eigenvalues --   -0.33269  -0.32031  -0.30682  -0.29795  -0.28932
 Alpha  occ. eigenvalues --   -0.27640  -0.27250  -0.26112  -0.25007  -0.24334
 Alpha  occ. eigenvalues --   -0.24155  -0.22082  -0.21870  -0.21425  -0.20751
 Alpha  occ. eigenvalues --   -0.19762  -0.13774  -0.13283  -0.13058  -0.10944
 Alpha  occ. eigenvalues --   -0.10278  -0.08341   0.00202
 Alpha virt. eigenvalues --    0.07144   0.07651   0.08561   0.09051   0.10444
 Alpha virt. eigenvalues --    0.10469   0.10843   0.11058   0.12242   0.12545
 Alpha virt. eigenvalues --    0.12788   0.13734   0.14447   0.15063   0.15764
 Alpha virt. eigenvalues --    0.16286   0.16823   0.17177   0.17906   0.18300
 Alpha virt. eigenvalues --    0.18407   0.18817   0.19455   0.19804   0.20056
 Alpha virt. eigenvalues --    0.20321   0.20514   0.20750   0.21119   0.21537
 Alpha virt. eigenvalues --    0.21841   0.22199   0.22293   0.22980   0.23597
 Alpha virt. eigenvalues --    0.23783   0.24096   0.24438   0.24548   0.25063
 Alpha virt. eigenvalues --    0.25369   0.25632   0.25978   0.26558   0.27242
 Alpha virt. eigenvalues --    0.27683   0.27909   0.28570   0.29192   0.29626
 Alpha virt. eigenvalues --    0.30000   0.30222   0.31243   0.31523   0.31774
 Alpha virt. eigenvalues --    0.32076   0.32250   0.32976   0.33207   0.34214
 Alpha virt. eigenvalues --    0.34446   0.35603   0.36480   0.36591   0.37136
 Alpha virt. eigenvalues --    0.37333   0.37996   0.38037   0.38335   0.38553
 Alpha virt. eigenvalues --    0.38810   0.39704   0.40044   0.40445   0.41081
 Alpha virt. eigenvalues --    0.41305   0.41975   0.42366   0.42750   0.42786
 Alpha virt. eigenvalues --    0.43379   0.43754   0.43921   0.44682   0.44841
 Alpha virt. eigenvalues --    0.45164   0.45858   0.46310   0.46660   0.47150
 Alpha virt. eigenvalues --    0.47498   0.47996   0.48520   0.49179   0.49695
 Alpha virt. eigenvalues --    0.50760   0.51306   0.52484   0.54062   0.54640
 Alpha virt. eigenvalues --    0.56079   0.56542   0.57298   0.57805   0.60236
 Alpha virt. eigenvalues --    0.61212   0.62397   0.62988   0.63887   0.65393
 Alpha virt. eigenvalues --    0.66285   0.66789   0.67166   0.67493   0.68869
 Alpha virt. eigenvalues --    0.68953   0.69345   0.70427   0.70848   0.71046
 Alpha virt. eigenvalues --    0.71640   0.72222   0.72578   0.73055   0.73742
 Alpha virt. eigenvalues --    0.74899   0.76804   0.77487   0.77939   0.78130
 Alpha virt. eigenvalues --    0.78705   0.78976   0.79524   0.79916   0.80323
 Alpha virt. eigenvalues --    0.81512   0.81701   0.82905   0.83003   0.83838
 Alpha virt. eigenvalues --    0.85082   0.86530   0.87380   0.87872   0.88859
 Alpha virt. eigenvalues --    0.90079   0.91037   0.92350   0.93255   0.93679
 Alpha virt. eigenvalues --    0.93845   0.95691   0.96092   0.97202   0.98671
 Alpha virt. eigenvalues --    0.99746   1.00281   1.01416   1.02836   1.04087
 Alpha virt. eigenvalues --    1.06057   1.06614   1.06811   1.07096   1.07940
 Alpha virt. eigenvalues --    1.08147   1.10273   1.11350   1.12364   1.13573
 Alpha virt. eigenvalues --    1.13837   1.14181   1.15399   1.16300   1.16901
 Alpha virt. eigenvalues --    1.17218   1.18661   1.19279   1.19837   1.21071
 Alpha virt. eigenvalues --    1.22492   1.23362   1.23695   1.24672   1.26011
 Alpha virt. eigenvalues --    1.27431   1.27930   1.28495   1.30142   1.30886
 Alpha virt. eigenvalues --    1.31176   1.34656   1.37682   1.37880   1.40702
 Alpha virt. eigenvalues --    1.41057   1.41940   1.44044   1.45087   1.46450
 Alpha virt. eigenvalues --    1.48442   1.49819   1.51119   1.53871   1.55324
 Alpha virt. eigenvalues --    1.58081   1.60912   1.62754   1.64136   1.64349
 Alpha virt. eigenvalues --    1.64895   1.65559   1.65867   1.66530   1.67085
 Alpha virt. eigenvalues --    1.67354   1.69324   1.69439   1.70037   1.71179
 Alpha virt. eigenvalues --    1.72724   1.74023   1.76732   1.77712   1.78637
 Alpha virt. eigenvalues --    1.80587   1.80705   1.81402   1.82729   1.83884
 Alpha virt. eigenvalues --    1.86329   1.86658   1.86777   1.88295   1.88933
 Alpha virt. eigenvalues --    1.89641   1.91175   1.93114   1.93920   1.96807
 Alpha virt. eigenvalues --    1.97167   2.00058   2.03368   2.03998   2.04770
 Alpha virt. eigenvalues --    2.05854   2.06437   2.07050   2.07533   2.07566
 Alpha virt. eigenvalues --    2.09250   2.10445   2.10990   2.12250   2.12443
 Alpha virt. eigenvalues --    2.13893   2.15178   2.16305   2.16852   2.17080
 Alpha virt. eigenvalues --    2.21610   2.22264   2.22724   2.23477   2.24857
 Alpha virt. eigenvalues --    2.26014   2.27272   2.30808   2.31155   2.35999
 Alpha virt. eigenvalues --    2.38284   2.43903   2.44189   2.45787   2.49455
 Alpha virt. eigenvalues --    2.50770   2.51469   2.54224   2.55368   2.55994
 Alpha virt. eigenvalues --    2.56901   2.57401   2.61561   2.62469   2.63325
 Alpha virt. eigenvalues --    2.64514   2.69505   2.70097   2.72096   2.73953
 Alpha virt. eigenvalues --    2.77315   2.79231   2.80425   2.81795   2.83231
 Alpha virt. eigenvalues --    2.83289   2.83841   2.85559   2.87474   2.88113
 Alpha virt. eigenvalues --    2.90092   2.91397   2.92172   2.92418   2.92949
 Alpha virt. eigenvalues --    2.93603   2.93987   2.95789   2.97082   2.99093
 Alpha virt. eigenvalues --    2.99796   3.00594   3.00714   3.02033   3.03148
 Alpha virt. eigenvalues --    3.03324   3.07905   3.10743   3.11694   3.12368
 Alpha virt. eigenvalues --    3.13729   3.16960   3.18577   3.21395   3.22796
 Alpha virt. eigenvalues --    3.25090   3.26501   3.29395   3.33821   3.35405
 Alpha virt. eigenvalues --    3.37128   3.39717   3.41134   3.44134   3.44698
 Alpha virt. eigenvalues --    3.48636   3.51203   3.52328   3.54341   3.55339
 Alpha virt. eigenvalues --    3.58130   3.59879   3.67589   3.68100   3.71854
 Alpha virt. eigenvalues --    3.72972   3.73682   3.76230   3.78065   3.83248
 Alpha virt. eigenvalues --    3.85811   3.87645   3.89635   3.99446   4.01019
 Alpha virt. eigenvalues --    4.06261   4.19101   4.19883   4.22721   4.27027
 Alpha virt. eigenvalues --    4.29137   4.35938   4.39713   4.43337   4.47126
 Alpha virt. eigenvalues --    4.63060   4.96745   5.01656   5.02931   5.16993
 Alpha virt. eigenvalues --    5.22225   5.24161   5.43176   5.45070   5.59001
 Alpha virt. eigenvalues --    5.92180   5.97358   6.02280  23.66008  23.81047
 Alpha virt. eigenvalues --   23.98458  24.06972  24.09996  24.12104  24.12942
 Alpha virt. eigenvalues --   24.13702  24.16164  24.24848  24.27431  24.30036
 Alpha virt. eigenvalues --   24.30502  24.36428  24.39632  50.10835  50.21553
 Alpha virt. eigenvalues --   50.26086
  Beta  occ. eigenvalues --  -19.02927 -18.92726 -18.92137 -10.13000 -10.11599
  Beta  occ. eigenvalues --  -10.08434 -10.08064 -10.05234 -10.04764 -10.04739
  Beta  occ. eigenvalues --  -10.04446 -10.04203 -10.04068 -10.03807 -10.03685
  Beta  occ. eigenvalues --  -10.03575 -10.03317 -10.03255  -0.94918  -0.85795
  Beta  occ. eigenvalues --   -0.85126  -0.74428  -0.73878  -0.65962  -0.64626
  Beta  occ. eigenvalues --   -0.62940  -0.62342  -0.58359  -0.52514  -0.51668
  Beta  occ. eigenvalues --   -0.49688  -0.46813  -0.44181  -0.41797  -0.41052
  Beta  occ. eigenvalues --   -0.37256  -0.36472  -0.35781  -0.34377  -0.34044
  Beta  occ. eigenvalues --   -0.33153  -0.31962  -0.30655  -0.28855  -0.28794
  Beta  occ. eigenvalues --   -0.27391  -0.26899  -0.25736  -0.24615  -0.24059
  Beta  occ. eigenvalues --   -0.22490  -0.21974  -0.21272  -0.20740  -0.20571
  Beta  occ. eigenvalues --   -0.19073  -0.12740  -0.12549  -0.11339  -0.10314
  Beta  occ. eigenvalues --   -0.09712  -0.07821
  Beta virt. eigenvalues --    0.06132   0.07136   0.08507   0.08548   0.09035
  Beta virt. eigenvalues --    0.10454   0.10802   0.11044   0.11551   0.12237
  Beta virt. eigenvalues --    0.12702   0.12783   0.13731   0.14440   0.15091
  Beta virt. eigenvalues --    0.15812   0.16309   0.16841   0.17612   0.18009
  Beta virt. eigenvalues --    0.18376   0.18580   0.18902   0.19674   0.19902
  Beta virt. eigenvalues --    0.20064   0.20529   0.20666   0.21038   0.21496
  Beta virt. eigenvalues --    0.21592   0.21887   0.22271   0.22545   0.23120
  Beta virt. eigenvalues --    0.23625   0.23777   0.24140   0.24538   0.24648
  Beta virt. eigenvalues --    0.25163   0.25421   0.25636   0.26092   0.26594
  Beta virt. eigenvalues --    0.27272   0.27672   0.27928   0.28590   0.29205
  Beta virt. eigenvalues --    0.29652   0.30044   0.30531   0.31324   0.31553
  Beta virt. eigenvalues --    0.31815   0.32185   0.32387   0.32983   0.33226
  Beta virt. eigenvalues --    0.34232   0.34440   0.35597   0.36545   0.36640
  Beta virt. eigenvalues --    0.37202   0.37433   0.38093   0.38358   0.38635
  Beta virt. eigenvalues --    0.38841   0.38950   0.39818   0.40091   0.40479
  Beta virt. eigenvalues --    0.41153   0.41367   0.42019   0.42420   0.42818
  Beta virt. eigenvalues --    0.42906   0.43444   0.43830   0.44334   0.44767
  Beta virt. eigenvalues --    0.44933   0.45220   0.46000   0.46409   0.46925
  Beta virt. eigenvalues --    0.47264   0.47566   0.48085   0.48541   0.49225
  Beta virt. eigenvalues --    0.49783   0.50819   0.51367   0.52593   0.54165
  Beta virt. eigenvalues --    0.54755   0.56174   0.56720   0.57498   0.57942
  Beta virt. eigenvalues --    0.60356   0.61270   0.62540   0.63178   0.64005
  Beta virt. eigenvalues --    0.65502   0.66413   0.66902   0.67312   0.67619
  Beta virt. eigenvalues --    0.68979   0.69319   0.69432   0.70552   0.70951
  Beta virt. eigenvalues --    0.71123   0.71800   0.72315   0.72659   0.73136
  Beta virt. eigenvalues --    0.73919   0.75045   0.76925   0.77670   0.78045
  Beta virt. eigenvalues --    0.78317   0.78846   0.79096   0.79672   0.80027
  Beta virt. eigenvalues --    0.80432   0.81700   0.81863   0.83005   0.83360
  Beta virt. eigenvalues --    0.84022   0.85157   0.86613   0.87524   0.88191
  Beta virt. eigenvalues --    0.88937   0.90140   0.91078   0.92403   0.93307
  Beta virt. eigenvalues --    0.93765   0.94068   0.95757   0.96237   0.97270
  Beta virt. eigenvalues --    0.98747   0.99839   1.00371   1.01477   1.02894
  Beta virt. eigenvalues --    1.04248   1.06147   1.06739   1.07104   1.07371
  Beta virt. eigenvalues --    1.08032   1.08224   1.10395   1.11577   1.12630
  Beta virt. eigenvalues --    1.13671   1.13997   1.14369   1.15557   1.16548
  Beta virt. eigenvalues --    1.16990   1.17324   1.18744   1.19633   1.19943
  Beta virt. eigenvalues --    1.21276   1.22915   1.23486   1.23796   1.24802
  Beta virt. eigenvalues --    1.26180   1.28064   1.28300   1.29018   1.30291
  Beta virt. eigenvalues --    1.31378   1.32000   1.34826   1.37964   1.38821
  Beta virt. eigenvalues --    1.41248   1.41339   1.42219   1.44225   1.45230
  Beta virt. eigenvalues --    1.46546   1.48600   1.50033   1.51319   1.54030
  Beta virt. eigenvalues --    1.55410   1.58238   1.60992   1.62794   1.64412
  Beta virt. eigenvalues --    1.64527   1.64938   1.65655   1.65933   1.66829
  Beta virt. eigenvalues --    1.67247   1.67665   1.69423   1.69496   1.70160
  Beta virt. eigenvalues --    1.71323   1.72888   1.74116   1.76890   1.77832
  Beta virt. eigenvalues --    1.78726   1.80670   1.80830   1.81482   1.83036
  Beta virt. eigenvalues --    1.83951   1.86419   1.86758   1.86892   1.88493
  Beta virt. eigenvalues --    1.89103   1.89773   1.91302   1.93462   1.94061
  Beta virt. eigenvalues --    1.96866   1.97499   2.00300   2.03507   2.04121
  Beta virt. eigenvalues --    2.05043   2.06011   2.06625   2.07369   2.07639
  Beta virt. eigenvalues --    2.07812   2.09331   2.10585   2.11116   2.12531
  Beta virt. eigenvalues --    2.12750   2.14019   2.15569   2.16425   2.17002
  Beta virt. eigenvalues --    2.17194   2.21694   2.22386   2.22834   2.23721
  Beta virt. eigenvalues --    2.24951   2.26213   2.27379   2.30893   2.31313
  Beta virt. eigenvalues --    2.36090   2.38530   2.44177   2.44464   2.46095
  Beta virt. eigenvalues --    2.49476   2.51022   2.51760   2.54297   2.55744
  Beta virt. eigenvalues --    2.56126   2.57136   2.57455   2.61586   2.62493
  Beta virt. eigenvalues --    2.63357   2.64602   2.69584   2.70127   2.72157
  Beta virt. eigenvalues --    2.74016   2.77828   2.79480   2.80592   2.81870
  Beta virt. eigenvalues --    2.83290   2.83676   2.83874   2.85590   2.87535
  Beta virt. eigenvalues --    2.88594   2.90145   2.91444   2.92224   2.92704
  Beta virt. eigenvalues --    2.93024   2.94016   2.94175   2.95869   2.97347
  Beta virt. eigenvalues --    2.99233   3.00054   3.00794   3.01175   3.02470
  Beta virt. eigenvalues --    3.03665   3.04039   3.08232   3.11948   3.12918
  Beta virt. eigenvalues --    3.13412   3.14708   3.17314   3.18741   3.21579
  Beta virt. eigenvalues --    3.22873   3.25427   3.26981   3.29579   3.33824
  Beta virt. eigenvalues --    3.35969   3.37289   3.39837   3.41175   3.44252
  Beta virt. eigenvalues --    3.44857   3.50161   3.52444   3.52752   3.54389
  Beta virt. eigenvalues --    3.55412   3.58217   3.59952   3.67736   3.68307
  Beta virt. eigenvalues --    3.71933   3.73157   3.73893   3.76498   3.78147
  Beta virt. eigenvalues --    3.83297   3.85908   3.87667   3.89749   3.99862
  Beta virt. eigenvalues --    4.01211   4.06443   4.19191   4.19991   4.22836
  Beta virt. eigenvalues --    4.27151   4.29225   4.36060   4.39865   4.43571
  Beta virt. eigenvalues --    4.47382   4.63371   4.97145   5.01850   5.03061
  Beta virt. eigenvalues --    5.17080   5.24712   5.26503   5.43629   5.45436
  Beta virt. eigenvalues --    5.59177   5.92640   5.97516   6.02643  23.66068
  Beta virt. eigenvalues --   23.81102  23.98458  24.07120  24.10055  24.12207
  Beta virt. eigenvalues --   24.13037  24.13744  24.16253  24.24885  24.27513
  Beta virt. eigenvalues --   24.30053  24.30584  24.36492  24.39671  50.10838
  Beta virt. eigenvalues --   50.22144  50.26682
          Condensed to atoms (all electrons):
               1          2          3          4          5          6
     1  C    5.148397   0.172446  -0.119724   0.160575  -0.009841   0.067946
     2  O    0.172446   8.272317   0.156422   0.104639   0.053189   0.016399
     3  C   -0.119724   0.156422  16.828008  -3.381945  -1.662001   1.631504
     4  C    0.160575   0.104639  -3.381945  20.559736  -0.098159  -0.814146
     5  C   -0.009841   0.053189  -1.662001  -0.098159   8.483611   0.297666
     6  C    0.067946   0.016399   1.631504  -0.814146   0.297666  10.880017
     7  C   -0.118612  -0.007464  -2.055645  -1.441844  -1.413664   0.454991
     8  C   -0.055042   0.009434  -1.625047  -2.883362   0.857785  -3.303545
     9  O   -0.000025  -0.000024  -0.043169   0.008011   0.128055   0.211633
    10  C   -0.023180  -0.021885  -3.245925  -1.147093   0.489709  -1.016180
    11  C   -0.004227  -0.003578  -0.522304  -0.242321  -0.078168  -0.242479
    12  C   -0.000742  -0.001064  -0.160955  -0.047928  -0.033084  -0.104115
    13  C    0.003477   0.002982   0.273611   0.109595   0.016863  -0.045454
    14  C    0.002209   0.025870   0.253316   0.182949  -0.002917  -0.159748
    15  C   -0.011674  -0.020741   0.412196   0.707048  -0.102179  -1.613201
    16  C   -0.100574  -0.096057  -3.611859  -0.988819  -0.111318  -1.029282
    17  O    0.003494  -0.057197  -0.054780  -0.040904  -0.003252  -0.042349
    18  C   -0.025750  -0.296570   2.940850  -5.136111  -0.608346   0.612677
    19  H    0.372988  -0.049247   0.232304  -0.160309  -0.116084  -0.016204
    20  H    0.440363  -0.072203  -0.182659   0.118703   0.058533   0.009304
    21  H    0.367162  -0.078393   0.079681  -0.073672  -0.021261  -0.005340
    22  H    0.005125  -0.027702  -0.423375   0.774272   0.094838   0.035036
    23  H   -0.001356  -0.000256   0.080957  -0.077717   0.427509  -0.156828
    24  H    0.001120  -0.000038   0.023099  -0.036049  -0.192306   0.356058
    25  H   -0.000013  -0.000006   0.001563  -0.000616  -0.000978  -0.009726
    26  H    0.000001  -0.000030   0.001374   0.000717  -0.000644  -0.000245
    27  H    0.000014   0.000119   0.004417   0.000664   0.000381   0.000481
    28  H   -0.000208  -0.000669  -0.011542  -0.001995  -0.000404   0.002767
               7          8          9         10         11         12
     1  C   -0.118612  -0.055042  -0.000025  -0.023180  -0.004227  -0.000742
     2  O   -0.007464   0.009434  -0.000024  -0.021885  -0.003578  -0.001064
     3  C   -2.055645  -1.625047  -0.043169  -3.245925  -0.522304  -0.160955
     4  C   -1.441844  -2.883362   0.008011  -1.147093  -0.242321  -0.047928
     5  C   -1.413664   0.857785   0.128055   0.489709  -0.078168  -0.033084
     6  C    0.454991  -3.303545   0.211633  -1.016180  -0.242479  -0.104115
     7  C   16.613169  -0.569390  -0.208742  -1.041680  -1.079650  -0.087488
     8  C   -0.569390  14.080833   0.870963   2.541748  -1.861731  -0.009906
     9  O   -0.208742   0.870963   8.359590  -0.438566   0.125293   0.098776
    10  C   -1.041680   2.541748  -0.438566  22.152088   0.944162  -1.360287
    11  C   -1.079650  -1.861731   0.125293   0.944162   9.609326   0.799443
    12  C   -0.087488  -0.009906   0.098776  -1.360287   0.799443   7.770805
    13  C    0.012949   0.180627  -0.004055   0.975438  -0.697278  -0.335627
    14  C   -1.089395  -1.280831  -0.020939  -1.974068   1.776609  -0.198773
    15  C   -5.287201  -1.437611  -0.459357  -5.182918  -0.389527   0.325552
    16  C    1.607113   1.538405  -0.022519   1.346590  -0.823075  -0.123937
    17  O   -0.175520  -0.006329  -0.000233  -0.394763   0.000813  -0.010612
    18  C    1.197086  -0.411441  -0.227979  -6.561046  -1.613801  -0.386693
    19  H   -0.002232   0.004314   0.000025  -0.000493  -0.000610  -0.000042
    20  H   -0.010960   0.001424  -0.000020   0.000817   0.000417  -0.000000
    21  H    0.018147  -0.000343   0.000011   0.000872  -0.000372   0.000001
    22  H   -0.008234  -0.042843  -0.000046  -0.019385  -0.001127  -0.000282
    23  H   -0.048812   0.042077   0.003247   0.023888  -0.000260  -0.000580
    24  H    0.094029   0.109190  -0.007374  -0.035760  -0.001245   0.000021
    25  H   -0.027394   0.054286  -0.009485   0.010249   0.363429  -0.158500
    26  H    0.015899   0.026150   0.003533   0.007580  -0.147543   0.499819
    27  H   -0.006977  -0.011105  -0.000296  -0.025141  -0.001628  -0.077213
    28  H    0.020940   0.013538   0.000437   0.100696   0.007627   0.011321
              13         14         15         16         17         18
     1  C    0.003477   0.002209  -0.011674  -0.100574   0.003494  -0.025750
     2  O    0.002982   0.025870  -0.020741  -0.096057  -0.057197  -0.296570
     3  C    0.273611   0.253316   0.412196  -3.611859  -0.054780   2.940850
     4  C    0.109595   0.182949   0.707048  -0.988819  -0.040904  -5.136111
     5  C    0.016863  -0.002917  -0.102179  -0.111318  -0.003252  -0.608346
     6  C   -0.045454  -0.159748  -1.613201  -1.029282  -0.042349   0.612677
     7  C    0.012949  -1.089395  -5.287201   1.607113  -0.175520   1.197086
     8  C    0.180627  -1.280831  -1.437611   1.538405  -0.006329  -0.411441
     9  O   -0.004055  -0.020939  -0.459357  -0.022519  -0.000233  -0.227979
    10  C    0.975438  -1.974068  -5.182918   1.346590  -0.394763  -6.561046
    11  C   -0.697278   1.776609  -0.389527  -0.823075   0.000813  -1.613801
    12  C   -0.335627  -0.198773   0.325552  -0.123937  -0.010612  -0.386693
[...]
 1088,0.00005508,-0.00007431,0.00000174,-0.00007391,-0.00013307,0.00001
 711,0.00014468,0.00029522,0.00141548,-0.02577910,0.00373294,-0.0017491
 4,0.02679124,-0.00133785,0.00046286,-0.02766657,0.04932612,-0.00101136
 ,-0.00220807,0.00024869,0.00047326,-0.00071973,-0.00005140,-0.01906067
 ,-0.01018850,0.00165783,-0.31509056,-0.06979326,0.01576992,-0.00362314
 ,0.00056705,0.00004456,0.00181766,-0.00153484,0.00024669,0.00032711,0.
 00062659,-0.00009091,0.00021353,0.00016372,-0.00003646,-0.00021491,-0.
 00023759,0.00002939,0.00002998,-0.00001625,0.00000437,-0.00000309,0.00
 001785,-0.00000135,-0.00001028,0.00001019,-0.00000013,-0.00009765,0.00
 005542,-0.00000057,-0.00002989,-0.00017201,0.00002086,-0.00037022,0.00
 050788,-0.00005878,-0.00039919,-0.00157429,0.00018627,0.00015651,0.000
 38828,-0.00004470,-0.00105958,0.00429527,-0.00021725,0.00037821,-0.000
 69045,-0.00088085,0.00040405,-0.00061007,0.00096768,0.00105684,-0.0004
 5798,-0.00000856,0.33548557,0.00098464,-0.00378550,0.00034221,-0.00206
 220,0.00079846,-0.00033451,0.01960585,0.01107238,-0.00143627,-0.072321
 86,-0.07644655,0.00724257,-0.03084696,-0.00368667,0.00127349,-0.000075
 94,-0.00578252,0.00104299,0.00065726,-0.00092765,0.00000750,-0.0003000
 0,-0.00007762,-0.00002519,-0.00018695,0.00018293,-0.00001323,0.0000928
 8,-0.00017217,0.00002568,-0.00010445,0.00003997,0.00000019,0.00003492,
 -0.00009642,0.00000981,0.00004003,0.00006997,-0.00000305,0.00004120,0.
 00009212,-0.00000050,0.00035279,-0.00021767,-0.00005484,0.00041787,0.0
 0119456,-0.00006547,-0.00014095,-0.00020619,0.00001765,0.00294673,-0.0
 0328747,0.00073630,-0.00035160,-0.00154195,0.00034928,-0.00045153,-0.0
 0186899,-0.00003514,0.00042835,-0.00007608,-0.00006505,0.08188660,0.08
 383280,-0.00006143,0.00044645,0.00006918,0.00007757,-0.00038502,-0.003
 33944,-0.00121598,-0.00050742,0.00262513,0.01600941,0.00715765,-0.0258
 0457,0.00307102,0.00029721,-0.00058589,0.00010681,0.00108950,0.0049166
 2,-0.00009110,0.00000753,-0.00063436,0.00000638,-0.00003947,-0.0004342
 1,0.00002446,-0.00001187,-0.00001504,-0.00000518,0.00002778,0.00011990
 ,0.00000996,-0.00000370,0.00000713,-0.00000243,0.00001005,0.00001621,0
 .00000119,-0.00000284,0.00005264,-0.00000012,0.00000655,0.00010068,-0.
 00004233,-0.00006016,-0.00066763,-0.00000874,-0.00000170,0.00066263,0.
 00000730,0.00000192,-0.00006974,-0.00008334,0.00069326,0.00523471,0.00
 050725,0.00171717,-0.00036956,-0.00046213,-0.00138037,-0.00005711,-0.0
 0009310,-0.00003764,-0.00060377,-0.01773650,-0.00876264,0.02069204,-0.
 00014907,-0.00000946,0.00000700,0.00036085,-0.00011701,0.00000422,0.00
 109591,-0.00207663,0.00033501,0.00723196,-0.00639688,0.00042024,-0.204
 32562,0.13308390,-0.00738840,-0.01819371,0.02356154,-0.00160029,-0.004
 38817,-0.00395075,0.00077489,0.00002825,0.00201526,-0.00018784,-0.0001
 0997,-0.00040299,0.00005091,-0.00076159,-0.00035537,0.00003226,0.00002
 927,0.00021145,-0.00001872,-0.00011977,-0.00000282,0.00000642,-0.00001
 238,-0.00002416,0.00000229,0.00000207,0.00000017,0.00000045,0.00005149
 ,-0.00006767,0.00001265,0.00024924,-0.00030695,-0.00000333,-0.00007040
 ,0.00038763,-0.00003149,-0.00031485,-0.00069499,0.00005021,0.00002460,
 -0.00001991,0.00000903,0.00002391,-0.00002371,-0.00000717,-0.00002070,
 0.00002998,-0.00000149,0.00092646,0.00057523,-0.00016605,0.21724781,0.
 00075594,0.00030161,-0.00004838,0.00097538,-0.00206930,0.00018174,-0.0
 0358575,-0.00349623,0.00096463,0.02430572,-0.01589884,0.00086324,0.133
 00672,-0.17900043,0.01002116,-0.00743077,0.00937862,-0.00036569,-0.002
 25258,0.00080521,0.00077600,0.00004244,0.00019692,0.00000414,0.0001155
 2,0.00007010,0.00001548,-0.00019732,0.00018231,-0.00009252,0.00004812,
 -0.00001365,0.00000800,0.00001242,0.00012024,-0.00000512,-0.00004011,-
 0.00010559,0.00001021,0.00008453,0.00001350,-0.00000235,-0.00015708,-0
 .00017983,0.00004621,0.00019707,0.00017076,-0.00010130,0.00002917,-0.0
 0012809,0.00002445,-0.00070231,-0.00014387,-0.00004593,-0.00010035,0.0
 0004124,0.00007343,-0.00010622,0.00001939,-0.00007519,-0.00007224,-0.0
 0004518,0.00000888,-0.00046457,0.00106058,-0.00033696,-0.14495357,0.18
 800382,-0.00006662,-0.00002439,0.00005025,-0.00010105,0.00021541,0.000
 10912,0.00047997,0.00092027,0.00527269,-0.00253827,0.00182887,0.000877
 12,-0.00738117,0.01001514,-0.03230517,0.00138591,-0.00133784,0.0032344
 7,0.00061117,0.00083186,0.00802757,0.00000247,-0.00005887,0.00025951,0
 .00000130,0.00003324,0.00026628,0.00001570,-0.00008767,-0.00083422,-0.
 00000257,0.00000286,0.00008491,0.00000474,-0.00000444,0.00007207,0.000
 00392,0.00000945,-0.00001439,-0.00000775,0.00000043,0.00001749,0.00002
 135,0.00004316,0.00024206,-0.00005142,-0.00008651,-0.00080578,0.000003
 34,0.00001354,0.00013128,0.00004893,-0.00004759,-0.00084816,0.00001377
 ,0.00003321,-0.00002392,0.00000368,-0.00004033,-0.00000143,0.00000830,
 0.00000567,0.00002268,-0.00006406,-0.00036988,-0.00255423,0.00785032,-
 0.01135722,0.02367061,-0.00015018,-0.00003769,0.00000179,0.00030409,0.
 00024526,-0.00005464,-0.00122662,0.00017237,0.00000680,-0.00462506,-0.
 00042567,0.00043250,-0.00288246,-0.02848609,0.00292372,-0.07218513,-0.
 06654273,0.00756372,0.01118920,0.02222092,-0.00239185,-0.00115382,0.00
 333607,-0.00037328,-0.00095314,-0.00265289,0.00025778,0.00106409,-0.00
 108508,0.00007420,-0.00029114,-0.00013948,0.00002439,0.00007906,-0.000
 16596,0.00001485,-0.00007560,0.00009103,-0.00000744,0.00011760,-0.0001
 6904,0.00001359,0.00001422,0.00030369,-0.00003202,0.00111298,0.0012238
 3,-0.00015107,-0.00052147,0.00002962,0.00001455,-0.00369014,0.00180069
 ,0.00009327,0.00002700,0.00000340,-0.00006098,0.00002875,0.00000749,0.
 00005944,0.00005760,-0.00001566,-0.00000195,-0.00025674,-0.00123667,0.
 00014855,0.00124102,0.00047544,-0.00024123,0.07283077,-0.00005640,-0.0
 0004096,-0.00001424,-0.00011149,0.00016140,-0.00007750,0.00096518,0.00
 025247,-0.00010185,-0.00130331,0.00196987,0.00060559,0.00095931,-0.002
 79721,0.00050119,-0.06512429,-0.31729541,0.02919969,-0.00410277,-0.019
 02230,0.00228469,-0.00183721,-0.00363681,0.00014301,-0.00286666,0.0027
 0387,-0.00025222,-0.00009521,0.00018868,-0.00000494,0.00005628,-0.0000
 2505,0.00000555,-0.00000630,0.00006407,-0.00000209,0.00007832,-0.00003
 892,-0.00000194,-0.00008801,0.00009408,-0.00000344,0.00017481,-0.00013
 773,0.00000164,-0.00102596,-0.00058966,0.00009536,0.00038120,-0.000353
 38,0.00002702,0.00324485,-0.00037872,0.00039490,-0.00000093,0.00000027
 ,-0.00001165,-0.00000612,-0.00001989,0.00001759,-0.00000233,-0.0000047
 7,-0.00000452,0.00014180,-0.00017327,0.00007906,-0.00047429,0.00071744
 ,-0.00053567,0.07105823,0.33834640,0.00000349,-0.00001493,-0.00020560,
 -0.00001995,-0.00008823,-0.00066938,-0.00006476,-0.00007737,-0.0004742
 2,0.00051599,0.00058104,0.00774762,0.00007555,0.00141934,0.00256694,0.
 00743281,0.02925314,-0.03892234,0.00014872,0.00145537,0.00315737,0.000
 12631,-0.00002075,-0.00275913,0.00027905,-0.00025910,-0.00084615,-0.00
 002164,0.00002677,0.00010272,0.00000548,0.00001176,0.00004973,-0.00000
 054,0.00000330,0.00004039,-0.00000642,-0.00000254,-0.00003262,0.000005
 97,-0.00000083,0.00002965,-0.00002022,-0.00000260,-0.00006300,0.000065
 86,0.00002537,0.00006541,-0.00001877,0.00003659,0.00004112,-0.00004882
 ,0.00043740,0.00473633,0.00003082,0.00012035,0.00001040,-0.00003066,-0
 .00011510,0.00002866,-0.00000324,-0.00000408,-0.00005175,0.00001586,0.
 00012271,0.00067807,-0.00015066,-0.00056416,-0.00492614,-0.00831786,-0
 .03234252,0.02969361,-0.00003452,-0.00000030,0.00000110,0.00003516,0.0
 0011646,-0.00001233,0.00020855,-0.00003361,-0.00000250,-0.00014099,0.0
 0000022,0.00000314,0.00010564,0.00008984,-0.00001169,-0.00014966,0.000
 20175,-0.00001237,0.00118487,0.00053509,-0.00008677,-0.00140108,-0.003
 53485,0.00028684,0.00177792,0.00278201,-0.00034659,0.00011757,-0.03059
 104,0.00309003,-0.06427904,-0.04489520,0.00519443,0.00747174,0.0240180
 4,-0.00245478,-0.00309233,0.00272247,0.00009586,-0.00114121,0.00027553
 ,-0.00002180,-0.00537901,-0.00018393,0.00036974,0.00100674,-0.00165899
 ,0.00012468,-0.00073947,-0.00005228,0.00002820,-0.00023497,-0.00022361
 ,0.00003099,0.00000246,-0.00000533,-0.00000270,0.00000231,-0.00000486,
 0.00000343,0.00000410,0.00000436,-0.00000057,0.00000430,0.00001417,-0.
 00000148,0.00001344,-0.00000054,-0.00000062,-0.00010708,0.00002832,0.0
 0000108,0.06341038,0.00006412,0.00002117,-0.00000406,-0.00008712,-0.00
 008471,0.00001075,0.00009404,0.00007509,-0.00000823,-0.00006346,-0.000
 02919,0.00000131,0.00000885,0.00003463,-0.00000277,-0.00002507,-0.0000
 8101,0.00001601,-0.00028882,-0.00005455,0.00002179,0.00123377,-0.00273
 277,-0.00007193,0.00252252,0.00077868,-0.00022278,-0.00380904,-0.00763
 472,0.00126739,-0.04607940,-0.32358678,0.02917370,-0.00569490,-0.01323
 952,0.00180694,0.00364076,0.00004819,0.00066494,-0.00006633,0.00072881
 ,-0.00016455,-0.00154434,0.00107468,0.00048937,0.00059045,-0.00026994,
 -0.00000532,-0.00026286,-0.00027922,0.00003370,-0.00017623,0.00002862,
 0.00000946,-0.00001167,0.00000461,0.00000416,-0.00001299,0.00000344,-0
 .00000448,-0.00000125,-0.00001226,0.00000114,-0.00001425,0.00000056,0.
 00000049,-0.00002589,0.00000847,-0.00000069,0.00003516,0.00003270,-0.0
 0000248,0.04994760,0.34509229,-0.00000511,-0.00000207,0.00000002,0.000
 00725,0.00000440,-0.00000161,-0.00001499,-0.00000421,0.00002235,0.0000
 0954,-0.00000049,-0.00003628,-0.00000407,-0.00000560,0.00000917,0.0000
 0988,0.00000868,0.00007519,-0.00000830,-0.00000512,0.00007383,-0.00016
 848,0.00008216,-0.00303771,-0.00033664,-0.00024183,-0.00067762,0.00049
 551,0.00213244,0.00397638,0.00531402,0.02914124,-0.04093606,0.00042564
 ,0.00085266,0.00341953,0.00000692,0.00069420,0.00804231,0.00001186,-0.
 00017444,-0.00096896,0.00050225,0.00044543,0.00555295,-0.00009304,0.00
 006707,-0.00013334,0.00004830,0.00002683,-0.00002395,0.00002656,0.0000
 1128,0.00006574,0.00000641,0.00000132,-0.00000220,-0.00000427,-0.00000
 207,-0.00000089,-0.00000003,0.00000097,-0.00000089,0.00000128,-0.00000
 041,0.00000107,0.00000186,-0.00000150,-0.00000711,0.00000081,-0.000002
 37,0.00001874,-0.00601147,-0.03247585,0.02998432,0.00012860,0.00004322
 ,-0.00000797,-0.00014625,-0.00019227,0.00002322,0.00004147,0.00019383,
 -0.00001813,-0.00001499,-0.00010202,0.00000938,-0.00005554,0.00015601,
 -0.00001043,-0.00010765,-0.00018901,0.00002295,-0.00036763,0.00055070,
 -0.00006877,-0.00058602,-0.00155860,0.00018383,0.00001108,0.00040002,-
 0.00003185,-0.00120260,0.00454677,-0.00014298,-0.01961033,-0.01086335,
 0.00176976,-0.29569129,-0.08224952,0.01643364,-0.00294067,0.00115552,0
 .00001523,0.00196940,-0.00149334,0.00026535,0.00023568,0.00071989,-0.0
 0009228,0.00022965,0.00023148,-0.00006397,-0.00020292,-0.00033506,0.00
 004127,0.00003890,-0.00006128,0.00001141,-0.00002347,0.00001045,0.0000
 1064,-0.00002420,0.00000859,-0.00001110,-0.00000151,-0.00002087,0.0000
 0207,-0.00002449,-0.00000362,0.00000082,-0.00004476,0.00001212,0.00000
 005,0.00002419,0.00001978,-0.00000314,0.00110466,0.00033585,-0.0002248
 3,0.31674131,0.00003375,0.00001515,-0.00000194,-0.00002897,-0.00002652
 ,0.00000406,-0.00004602,0.00006002,0.00000138,-0.00001895,-0.00012695,
 0.00001007,0.00008039,0.00009657,-0.00000322,-0.00002327,0.00009296,-0
 .00000403,0.00046272,-0.00014975,-0.00008273,0.00031080,0.00094209,-0.
 00005780,-0.00007141,-0.00006328,0.00002994,0.00317645,-0.00246353,0.0
 0091651,0.02048450,0.01043143,-0.00140500,-0.08246871,-0.08677278,0.00
 793490,-0.03028330,-0.00411843,0.00146929,0.00014967,-0.00596669,0.001
 12937,0.00088657,-0.00074816,-0.00000070,-0.00033832,-0.00015364,-0.00
 007678,-0.00018975,0.00025954,-0.00001295,0.00001470,-0.00021412,0.000
 03992,-0.00000605,0.00000336,0.00000270,-0.00000634,0.00000353,-0.0000
 0328,0.00000146,-0.00000612,0.00000059,-0.00000566,-0.00000113,-0.0000
 0060,0.00001014,0.00000709,-0.00000162,-0.00000757,0.00000041,-0.00000
 117,-0.00067384,0.00084504,-0.00053474,0.08918594,0.08734676,-0.000007
 18,-0.00000225,0.00000656,0.00000765,0.00000925,0.00000492,0.00000517,
 -0.00000629,0.00005980,0.00000133,0.00001291,-0.00003051,-0.00000328,-
 0.00000592,0.00008983,0.00000709,0.00000120,0.00004291,-0.00006000,-0.
 00008497,-0.00083956,0.00000286,0.00000141,0.00044469,0.00001378,0.000
 01474,0.00021977,-0.00001197,0.00087270,0.00796423,-0.00126606,-0.0004
 0019,0.00279544,0.01645395,0.00792717,-0.03352099,0.00306358,0.0004612
 6,0.00086929,0.00010633,0.00118260,0.00561172,-0.00010899,0.00000361,-
 0.00046456,-0.00000787,-0.00009546,-0.00104991,0.00002691,-0.00000805,
 0.00006384,0.00000349,0.00004271,0.00019974,0.00000181,-0.00000466,-0.
 00000179,0.00000081,0.00000308,-0.00000123,-0.00000008,0.00000130,0.00
 000031,0.00000106,-0.00000062,-0.00000887,0.00000024,-0.00000171,-0.00
 000633,-0.00000048,-0.00000206,-0.00001410,-0.00012817,-0.00056635,-0.
 00483270,-0.01806841,-0.00906859,0.02478687,0.00010975,0.00005052,-0.0
 0000810,-0.00012931,-0.00017361,0.00001920,0.00013300,0.00034386,-0.00
 003500,-0.00013876,-0.00003935,0.00001140,-0.00000619,0.00000751,-0.00
 000164,-0.00001297,-0.00000838,0.00000320,0.00003091,-0.00007097,0.000
 01157,0.00021594,-0.00030998,-0.00000882,-0.00000633,0.00038010,-0.000
 03458,-0.00038044,-0.00088037,0.00008055,0.00129233,-0.00140295,0.0002
 7685,0.00693651,-0.00565309,0.00035304,-0.21022811,0.13223979,-0.00708
 503,-0.01886964,0.02239632,-0.00148536,-0.00407279,-0.00385129,0.00075
 659,0.00011185,0.00195688,-0.00017853,-0.00007051,-0.00042929,0.000052
 80,-0.00076523,-0.00032664,0.00002979,-0.00002247,0.00000589,0.0000077
 8,-0.00002328,0.00000405,-0.00000748,-0.00000509,-0.00002264,0.0000023
 7,-0.00003823,0.00001525,-0.00000068,-0.00002027,0.00001342,-0.0000009
 8,0.00000456,0.00001433,-0.00000148,0.00014896,-0.00029171,0.00003454,
 0.00078869,0.00069489,-0.00017969,0.22381723,-0.00006470,-0.00002316,0
 .00000484,0.00008001,0.00010487,-0.00001720,-0.00003245,-0.00009038,0.
 00001652,0.00004283,0.00014497,-0.00000535,-0.00006561,-0.00012425,0.0
 0001069,0.00011764,0.00001767,0.00000067,-0.00015192,-0.00018492,0.000
 03989,0.00020802,-0.00006779,-0.00009714,0.00024717,-0.00001124,-0.000
 00101,-0.00099627,-0.00007223,-0.00001211,-0.00305043,-0.00533103,0.00
 116480,0.02584957,-0.01413836,0.00062451,0.13234419,-0.17296966,0.0094
 8111,-0.00882628,0.00958564,-0.00040029,-0.00251582,0.00037333,0.00080
 505,-0.00001733,0.00037147,0.00001017,0.00010872,-0.00000107,0.0000225
 6,-0.00016634,0.00016692,-0.00008951,0.00001153,-0.00000596,-0.0000038
 8,0.00001080,-0.00000628,0.00000392,0.00000014,0.00001360,-0.00000123,
 0.00000863,0.00000563,-0.00000201,0.00001467,-0.00001099,-0.00000040,-
 0.00001683,-0.00000268,0.00000089,0.00119572,-0.00066847,0.00005979,-0
 .00064426,0.00093028,-0.00033113,-0.14419946,0.18121885,0.00000295,0.0
 0000118,0.00000589,-0.00000502,-0.00000911,-0.00004645,0.00000098,0.00
 000459,0.00006903,0.00000353,-0.00000273,0.00010345,0.00000543,0.00000
 836,-0.00003500,-0.00000888,0.00000452,0.00006221,0.00001884,0.0000369
 0,0.00017184,-0.00005848,-0.00008014,-0.00098833,-0.00002193,-0.000005
 39,0.00006207,0.00009244,-0.00001470,-0.00052987,0.00043690,0.00111192
 ,0.00555046,-0.00270198,0.00163452,0.00077696,-0.00709452,0.00948730,-
 0.03213662,0.00153884,-0.00140311,0.00261496,0.00062594,0.00084620,0.0
 0774112,0.00001417,-0.00005264,0.00047748,0.00000064,0.00003965,0.0002
 6381,0.00001510,-0.00008404,-0.00080262,0.00000453,0.00000559,-0.00000
 286,-0.00000538,-0.00000516,-0.00000175,0.00000018,-0.00000050,0.00000
 099,-0.00000002,-0.00000224,-0.00001241,-0.00000109,-0.00000034,-0.000
 01015,0.00000153,-0.00000009,0.00000107,-0.00010969,0.00010773,0.00033
 877,-0.00004947,-0.00037467,-0.00266105,0.00753751,-0.01072164,0.02378
 379,-0.00006377,-0.00006245,0.00000923,0.00013599,-0.00004576,-0.00000
 071,-0.00041827,0.00008337,0.00000813,0.00016273,-0.00025353,0.0000194
 1,-0.00003536,0.00017728,-0.00001580,0.00005854,-0.00018072,0.00001536
 ,0.00002325,0.00031856,-0.00002939,0.00116291,0.00135924,-0.00017167,-
 0.00060785,0.00000327,0.00001831,-0.00392998,0.00210766,0.00010561,-0.
 00098609,0.00041746,-0.00004105,-0.00475388,-0.00077976,0.00048947,-0.
 00179195,-0.02835191,0.00292525,-0.06740236,-0.05568193,0.00631813,0.0
 1099368,0.02301893,-0.00244434,-0.00099469,0.00301936,-0.00035996,-0.0
 0075158,-0.00269627,0.00026025,0.00102793,-0.00110822,0.00007764,0.000
 02767,-0.00000024,-0.00001268,0.00002826,0.00000243,0.00001035,-0.0000
 1081,0.00000894,-0.00000026,0.00001651,-0.00001102,-0.00000011,0.00000
 499,-0.00001064,0.00000083,0.00002345,-0.00002112,0.00000117,0.0001005
 6,-0.00001780,-0.00003138,-0.00026931,-0.00132384,0.00014611,0.0011998
 8,0.00050805,-0.00024307,0.06704954,-0.00006444,-0.00000238,0.00000560
 ,0.00004493,0.00015300,-0.00001864,0.00011476,-0.00026377,0.00002962,-
 0.00001661,0.00014513,-0.00001302,0.00002566,-0.00011608,0.00001061,-0
 .00001458,0.00008897,-0.00000886,0.00011043,-0.00014149,0.00001702,-0.
 00104779,-0.00057586,0.00008073,0.00037511,-0.00040293,0.00002364,0.00
 355493,-0.00045725,0.00048791,0.00066516,0.00057684,-0.00017485,-0.001
 56254,0.00172214,0.00067372,0.00106718,-0.00379083,0.00068701,-0.05432
 082,-0.31996622,0.02902845,-0.00310937,-0.01862426,0.00232758,-0.00201
 996,-0.00360226,0.00011587,-0.00296490,0.00276454,-0.00024398,0.000009
 16,0.00024223,-0.00001854,0.00000678,-0.00000823,-0.00000281,0.0000064
 8,-0.00000628,0.00000262,0.00000362,0.00001110,-0.00000039,0.00001824,
 -0.00000213,-0.00000223,0.00001311,-0.00000529,-0.00000002,-0.00002188
 ,-0.00001489,0.00000184,-0.00007320,-0.00010386,-0.00007778,0.00014300
 ,-0.00022312,0.00004431,-0.00046309,0.00077524,-0.00053194,0.05952064,
 0.34182793,0.00000934,0.00000561,0.00003415,-0.00000972,-0.00001622,-0
 .00002470,0.00000530,0.00003098,0.00007633,-0.00000360,-0.00000521,0.0
 0000620,-0.00000133,0.00000559,0.00000134,-0.00000077,-0.00000341,-0.0
 0000671,-0.00000933,0.00001029,0.00007058,0.00006183,0.00000346,-0.000
 09002,-0.00001793,0.00003638,-0.00003618,-0.00003457,0.00053483,0.0056
 8875,-0.00006521,-0.00016655,-0.00098310,0.00056465,0.00064694,0.00806
 016,0.00007067,0.00162829,0.00347808,0.00618517,0.02907886,-0.04173829
 ,0.00009105,0.00148630,0.00420096,0.00012852,-0.00004489,-0.00307013,0
 .00029285,-0.00025650,-0.00072911,-0.00003357,0.00001866,0.00005471,0.
 00000076,-0.00000713,-0.00000474,-0.00000426,0.00000730,-0.00000727,0.
 00000021,-0.00000061,0.00000826,-0.00000293,-0.00000129,-0.00001916,-0
 .00000147,0.00000076,-0.00000107,0.00000130,0.00000183,-0.00000340,-0.
 00002601,-0.00007940,-0.00092106,0.00000371,0.00009110,0.00027169,-0.0
 0014980,-0.00056252,-0.00479679,-0.00705485,-0.03244345,0.03048054\\-0
 .00000254,-0.00000222,0.00000540,-0.00000848,-0.00001417,-0.00000071,0
 .00002265,0.00001563,0.00000957,-0.00001063,0.00001138,-0.00001102,0.0
 0000015,-0.00001443,0.00000512,0.00000343,0.00000885,-0.00000205,0.000
 00265,-0.00000410,0.00000510,-0.00000373,0.00001040,-0.00002072,-0.000
 00027,-0.00000762,0.00001053,0.00000776,-0.00000036,0.00000671,-0.0000
 1499,0.00000733,0.00000064,0.00000078,-0.00000625,0.00000020,-0.000000
 40,0.00000747,-0.00000036,-0.00000523,0.00000157,-0.00000039,-0.000013
 29,-0.00000985,0.00000388,0.00002590,0.00000099,-0.00000389,0.00000923
 ,0.00000675,-0.00000572,-0.00003270,-0.00000369,0.00000252,0.00000543,
 -0.00000409,-0.00000184,0.00000073,-0.00000780,-0.00000309,0.00000207,
 -0.00000545,-0.00000055,0.00000986,0.00001364,0.00000585,0.00000207,0.
 00000378,-0.00000532,-0.00000554,0.00000090,-0.00000070,0.00000229,-0.
 00000167,0.00000049,-0.00000074,-0.00000177,0.00000042,-0.00000035,-0.
 00000064,-0.00000034,0.00000388,-0.00000460,0.00000028\\\@


 A true friend is someone who is there for
 you when he'd rather be anywhere else.
                               -- Len Wein
 Job cpu time:       0 days  6 hours 36 minutes  7.8 seconds.
 Elapsed time:       0 days  1 hours 21 minutes 59.4 seconds.
 File lengths (MBytes):  RWF=   1102 Int=      0 D2E=      0 Chk=     25 Scr=      1
 Normal termination of Gaussian 16 at Thu Dec 21 08:29:46 2023.
