 Entering Gaussian System, Link 0=g16
 Input=151-an.com
 Output=151-an.log
 Initial command:
 /sysapps/ubuntu-applications/gaussian/Gaussian/AVX2/g16/l1.exe "/scratch/selhajj1/4234784/Gau-1322035.inp" -scrdir="/scratch/selhajj1/4234784/"
 Entering Link 1 = /sysapps/ubuntu-applications/gaussian/Gaussian/AVX2/g16/l1.exe PID=   1322037.
  
 Copyright (c) 1988,1990,1992,1993,1995,1998,2003,2009,2016,
            Gaussian, Inc.  All Rights Reserved.
  
 This is part of the Gaussian(R) 16 program.  It is based on
 the Gaussian(R) 09 system (copyright 2009, Gaussian, Inc.),
 the Gaussian(R) 03 system (copyright 2003, Gaussian, Inc.),
 the Gaussian(R) 98 system (copyright 1998, Gaussian, Inc.),
 the Gaussian(R) 94 system (copyright 1995, Gaussian, Inc.),
 the Gaussian 92(TM) system (copyright 1992, Gaussian, Inc.),
 the Gaussian 90(TM) system (copyright 1990, Gaussian, Inc.),
 the Gaussian 88(TM) system (copyright 1988, Gaussian, Inc.),
 the Gaussian 86(TM) system (copyright 1986, Carnegie Mellon
 University), and the Gaussian 82(TM) system (copyright 1983,
 Carnegie Mellon University). Gaussian is a federally registered
 trademark of Gaussian, Inc.
  
 This software contains proprietary and confidential information,
 including trade secrets, belonging to Gaussian, Inc.
  
 This software is provided under written license and may be
 used, copied, transmitted, or stored only in accord with that
 written license.
  
 The following legend is applicable only to US Government
 contracts under FAR:
  
                    RESTRICTED RIGHTS LEGEND
  
 Use, reproduction and disclosure by the US Government is
 subject to restrictions as set forth in subparagraphs (a)
 and (c) of the Commercial Computer Software - Restricted
 Rights clause in FAR 52.227-19.
  
 Gaussian, Inc.
 340 Quinnipiac St., Bldg. 40, Wallingford CT 06492
  
  
 ---------------------------------------------------------------
 Warning -- This program may not be used in any manner that
 competes with the business of Gaussian, Inc. or will provide
 assistance to any competitor of Gaussian, Inc.  The licensee
 of this program is prohibited from giving any competitor of
 Gaussian, Inc. access to this program.  By using this program,
 the user acknowledges that Gaussian, Inc. is engaged in the
 business of creating and licensing software in the field of
 computational chemistry and represents and warrants to the
 licensee that it is not a competitor of Gaussian, Inc. and that
 it will not use this program in any manner prohibited above.
 ---------------------------------------------------------------
  

 Cite this work as:
 Gaussian 16, Revision A.03,
 M. J. Frisch, G. W. Trucks, H. B. Schlegel, G. E. Scuseria, 
 M. A. Robb, J. R. Cheeseman, G. Scalmani, V. Barone, 
 G. A. Petersson, H. Nakatsuji, X. Li, M. Caricato, A. V. Marenich, 
 J. Bloino, B. G. Janesko, R. Gomperts, B. Mennucci, H. P. Hratchian, 
 J. V. Ortiz, A. F. Izmaylov, J. L. Sonnenberg, D. Williams-Young, 
 F. Ding, F. Lipparini, F. Egidi, J. Goings, B. Peng, A. Petrone, 
 T. Henderson, D. Ranasinghe, V. G. Zakrzewski, J. Gao, N. Rega, 
 G. Zheng, W. Liang, M. Hada, M. Ehara, K. Toyota, R. Fukuda, 
 J. Hasegawa, M. Ishida, T. Nakajima, Y. Honda, O. Kitao, H. Nakai, 
 T. Vreven, K. Throssell, J. A. Montgomery, Jr., J. E. Peralta, 
 F. Ogliaro, M. J. Bearpark, J. J. Heyd, E. N. Brothers, K. N. Kudin, 
 V. N. Staroverov, T. A. Keith, R. Kobayashi, J. Normand, 
 K. Raghavachari, A. P. Rendell, J. C. Burant, S. S. Iyengar, 
 J. Tomasi, M. Cossi, J. M. Millam, M. Klene, C. Adamo, R. Cammi, 
 J. W. Ochterski, R. L. Martin, K. Morokuma, O. Farkas, 
 J. B. Foresman, and D. J. Fox, Gaussian, Inc., Wallingford CT, 2016.
 
 ******************************************
 Gaussian 16:  ES64L-G16RevA.03 25-Dec-2016
                27-Dec-2023 
 ******************************************
 %chk=151-an.chk
 %nproc=8
 Will use up to    8 processors via shared memory.
 %mem=30GB
 --------------------------------------
 #P UB3LYP/6-311++G(d,p) nosym opt freq
 --------------------------------------
 1/18=20,19=15,26=3,38=1/1,3;
 2/9=110,12=2,15=1,17=6,18=5,40=1/2;
 3/5=4,6=6,7=1111,11=2,25=1,30=1,71=1,74=-5,116=2/1,2,3;
 4//1;
 5/5=2,38=5/2;
 6/7=2,8=2,9=2,10=2,28=1/1;
 7/30=1/1,2,3,16;
 1/18=20,19=15,26=3/3(2);
 2/9=110,15=1/2;
 99//99;
 2/9=110,15=1/2;
 3/5=4,6=6,7=1111,11=2,25=1,30=1,71=1,74=-5,116=2/1,2,3;
 4/5=5,16=3,69=1/1;
 5/5=2,38=5/2;
 7/30=1/1,2,3,16;
 1/18=20,19=15,26=3/3(-5);
 2/9=110,15=1/2;
 6/7=2,8=2,9=2,10=2,19=2,28=1/1;
 99/9=1/99;
 Leave Link    1 at Wed Dec 27 20:37:10 2023, MaxMem=  4026531840 cpu:               0.9 elap:               0.2
 (Enter /sysapps/ubuntu-applications/gaussian/Gaussian/AVX2/g16/l101.exe)
 -------
 Reduced
 -------
 Symbolic Z-matrix:
 Charge = -2 Multiplicity = 1
 N                    -4.53382  -0.96706  -0.76524 
 C                    -3.2386   -0.67822  -0.23972 
 C                    -3.04365  -0.73647   1.17015 
 C                    -1.79042  -0.50669   1.69887 
 C                    -0.66176  -0.23123   0.892 
 C                     0.63106  -0.02357   1.52194 
 O                     0.8012   -0.08577   2.78813 
 C                     1.71418   0.26898   0.60094 
 C                     3.01721   0.48858   1.10918 
 C                     4.09196   0.76968   0.28854 
 C                     3.89641   0.84194  -1.11965 
 C                     2.63852   0.63368  -1.64685 
 C                     1.51283   0.34607  -0.83201 
 C                     0.22191   0.13697  -1.45656 
 O                     0.05058   0.2032   -2.72623 
 C                    -0.85802  -0.15962  -0.53594 
 C                    -2.16397  -0.38074  -1.05052 
 H                    -5.28169  -0.5321   -0.22068 
 H                    -4.62504  -0.66042  -1.72933 
 H                    -3.88392  -0.98227   1.81589 
 H                    -1.62289  -0.54711   2.77069 
 H                     3.13166   0.42554   2.18717 
 H                     5.0809    0.93321   0.71303 
 H                     4.73665   1.06139  -1.77644 
 H                     2.45863   0.68309  -2.71642 
 H                    -2.27992  -0.30104  -2.12828 
 
 ITRead=  0  0  0  0  0  0  0  0  0  0  0  0  0  0  0  0  0  0  0  0
 ITRead=  0  0  0  0  0  0
 MicOpt= -1 -1 -1 -1 -1 -1 -1 -1 -1 -1 -1 -1 -1 -1 -1 -1 -1 -1 -1 -1
 MicOpt= -1 -1 -1 -1 -1 -1
 NAtoms=     26 NQM=       26 NQMF=       0 NMMI=      0 NMMIF=      0
                NMic=       0 NMicF=      0.
                    Isotopes and Nuclear Properties:
 (Nuclear quadrupole moments (NQMom) in fm**2, nuclear magnetic moments (NMagM)
  in nuclear magnetons)

  Atom         1           2           3           4           5           6           7           8           9          10
 IAtWgt=          14          12          12          12          12          12          16          12          12          12
 AtmWgt=  14.0030740  12.0000000  12.0000000  12.0000000  12.0000000  12.0000000  15.9949146  12.0000000  12.0000000  12.0000000
 NucSpn=           2           0           0           0           0           0           0           0           0           0
 AtZEff=  -0.0000000  -0.0000000  -0.0000000  -0.0000000  -0.0000000  -0.0000000  -0.0000000  -0.0000000  -0.0000000  -0.0000000
 NQMom=    2.0440000   0.0000000   0.0000000   0.0000000   0.0000000   0.0000000   0.0000000   0.0000000   0.0000000   0.0000000
 NMagM=    0.4037610   0.0000000   0.0000000   0.0000000   0.0000000   0.0000000   0.0000000   0.0000000   0.0000000   0.0000000
 AtZNuc=   7.0000000   6.0000000   6.0000000   6.0000000   6.0000000   6.0000000   8.0000000   6.0000000   6.0000000   6.0000000

  Atom        11          12          13          14          15          16          17          18          19          20
 IAtWgt=          12          12          12          12          16          12          12           1           1           1
 AtmWgt=  12.0000000  12.0000000  12.0000000  12.0000000  15.9949146  12.0000000  12.0000000   1.0078250   1.0078250   1.0078250
 NucSpn=           0           0           0           0           0           0           0           1           1           1
 AtZEff=  -0.0000000  -0.0000000  -0.0000000  -0.0000000  -0.0000000  -0.0000000  -0.0000000  -0.0000000  -0.0000000  -0.0000000
 NQMom=    0.0000000   0.0000000   0.0000000   0.0000000   0.0000000   0.0000000   0.0000000   0.0000000   0.0000000   0.0000000
 NMagM=    0.0000000   0.0000000   0.0000000   0.0000000   0.0000000   0.0000000   0.0000000   2.7928460   2.7928460   2.7928460
 AtZNuc=   6.0000000   6.0000000   6.0000000   6.0000000   8.0000000   6.0000000   6.0000000   1.0000000   1.0000000   1.0000000

  Atom        21          22          23          24          25          26
 IAtWgt=           1           1           1           1           1           1
 AtmWgt=   1.0078250   1.0078250   1.0078250   1.0078250   1.0078250   1.0078250
 NucSpn=           1           1           1           1           1           1
 AtZEff=  -0.0000000  -0.0000000  -0.0000000  -0.0000000  -0.0000000  -0.0000000
 NQMom=    0.0000000   0.0000000   0.0000000   0.0000000   0.0000000   0.0000000
 NMagM=    2.7928460   2.7928460   2.7928460   2.7928460   2.7928460   2.7928460
 AtZNuc=   1.0000000   1.0000000   1.0000000   1.0000000   1.0000000   1.0000000
 Leave Link  101 at Wed Dec 27 20:37:11 2023, MaxMem=  4026531840 cpu:               6.5 elap:               0.9
 (Enter /sysapps/ubuntu-applications/gaussian/Gaussian/AVX2/g16/l103.exe)

 GradGradGradGradGradGradGradGradGradGradGradGradGradGradGradGradGradGrad
 Berny optimization.
 Initialization pass.
                           ----------------------------
                           !    Initial Parameters    !
                           ! (Angstroms and Degrees)  !
 --------------------------                            --------------------------
 ! Name  Definition              Value          Derivative Info.                !
 --------------------------------------------------------------------------------
 ! R1    R(1,2)                  1.4273         estimate D2E/DX2                !
 ! R2    R(1,18)                 1.0223         estimate D2E/DX2                !
 ! R3    R(1,19)                 1.0158         estimate D2E/DX2                !
 ! R4    R(2,3)                  1.4245         estimate D2E/DX2                !
 ! R5    R(2,17)                 1.3787         estimate D2E/DX2                !
 ! R6    R(3,4)                  1.3795         estimate D2E/DX2                !
 ! R7    R(3,20)                 1.0879         estimate D2E/DX2                !
 ! R8    R(4,5)                  1.4145         estimate D2E/DX2                !
 ! R9    R(4,21)                 1.0856         estimate D2E/DX2                !
 ! R10   R(5,6)                  1.453          estimate D2E/DX2                !
 ! R11   R(5,16)                 1.4431         estimate D2E/DX2                !
 ! R12   R(6,7)                  1.2791         estimate D2E/DX2                !
 ! R13   R(6,8)                  1.4515         estimate D2E/DX2                !
 ! R14   R(8,9)                  1.4158         estimate D2E/DX2                !
 ! R15   R(8,13)                 1.4491         estimate D2E/DX2                !
 ! R16   R(9,10)                 1.3811         estimate D2E/DX2                !
 ! R17   R(9,22)                 1.0859         estimate D2E/DX2                !
 ! R18   R(10,11)                1.4235         estimate D2E/DX2                !
 ! R19   R(10,23)                1.0886         estimate D2E/DX2                !
 ! R20   R(11,12)                1.3797         estimate D2E/DX2                !
 ! R21   R(11,24)                1.0888         estimate D2E/DX2                !
 ! R22   R(12,13)                1.4191         estimate D2E/DX2                !
 ! R23   R(12,25)                1.0857         estimate D2E/DX2                !
 ! R24   R(13,14)                1.4492         estimate D2E/DX2                !
 ! R25   R(14,15)                1.2829         estimate D2E/DX2                !
 ! R26   R(14,16)                1.4497         estimate D2E/DX2                !
 ! R27   R(16,17)                1.421          estimate D2E/DX2                !
 ! R28   R(17,26)                1.0869         estimate D2E/DX2                !
 ! A1    A(2,1,18)             112.4355         estimate D2E/DX2                !
 ! A2    A(2,1,19)             111.7062         estimate D2E/DX2                !
 ! A3    A(18,1,19)            108.1464         estimate D2E/DX2                !
 ! A4    A(1,2,3)              118.7068         estimate D2E/DX2                !
 ! A5    A(1,2,17)             122.3083         estimate D2E/DX2                !
 ! A6    A(3,2,17)             118.9614         estimate D2E/DX2                !
 ! A7    A(2,3,4)              119.7935         estimate D2E/DX2                !
 ! A8    A(2,3,20)             119.4084         estimate D2E/DX2                !
 ! A9    A(4,3,20)             120.7865         estimate D2E/DX2                !
 ! A10   A(3,4,5)              122.5957         estimate D2E/DX2                !
 ! A11   A(3,4,21)             120.8253         estimate D2E/DX2                !
 ! A12   A(5,4,21)             116.5711         estimate D2E/DX2                !
 ! A13   A(4,5,6)              119.3716         estimate D2E/DX2                !
 ! A14   A(4,5,16)             117.7473         estimate D2E/DX2                !
 ! A15   A(6,5,16)             122.8793         estimate D2E/DX2                !
 ! A16   A(5,6,7)              122.7218         estimate D2E/DX2                !
 ! A17   A(5,6,8)              114.6853         estimate D2E/DX2                !
 ! A18   A(7,6,8)              122.5918         estimate D2E/DX2                !
 ! A19   A(6,8,9)              119.3571         estimate D2E/DX2                !
 ! A20   A(6,8,13)             122.3082         estimate D2E/DX2                !
 ! A21   A(9,8,13)             118.3348         estimate D2E/DX2                !
 ! A22   A(8,9,10)             122.3074         estimate D2E/DX2                !
 ! A23   A(8,9,22)             116.3832         estimate D2E/DX2                !
 ! A24   A(10,9,22)            121.3094         estimate D2E/DX2                !
 ! A25   A(9,10,11)            119.4199         estimate D2E/DX2                !
 ! A26   A(9,10,23)            120.3862         estimate D2E/DX2                !
 ! A27   A(11,10,23)           120.1939         estimate D2E/DX2                !
 ! A28   A(10,11,12)           119.7072         estimate D2E/DX2                !
 ! A29   A(10,11,24)           120.0616         estimate D2E/DX2                !
 ! A30   A(12,11,24)           120.2312         estimate D2E/DX2                !
 ! A31   A(11,12,13)           122.3026         estimate D2E/DX2                !
 ! A32   A(11,12,25)           121.3734         estimate D2E/DX2                !
 ! A33   A(13,12,25)           116.3241         estimate D2E/DX2                !
 ! A34   A(8,13,12)            117.9279         estimate D2E/DX2                !
 ! A35   A(8,13,14)            122.8371         estimate D2E/DX2                !
 ! A36   A(12,13,14)           119.2344         estimate D2E/DX2                !
 ! A37   A(13,14,15)           122.5492         estimate D2E/DX2                !
 ! A38   A(13,14,16)           114.7963         estimate D2E/DX2                !
 ! A39   A(15,14,16)           122.6537         estimate D2E/DX2                !
 ! A40   A(5,16,14)            122.4922         estimate D2E/DX2                !
 ! A41   A(5,16,17)            118.3971         estimate D2E/DX2                !
 ! A42   A(14,16,17)           119.1094         estimate D2E/DX2                !
 ! A43   A(2,17,16)            122.478          estimate D2E/DX2                !
 ! A44   A(2,17,26)            121.0526         estimate D2E/DX2                !
 ! A45   A(16,17,26)           116.4692         estimate D2E/DX2                !
 ! D1    D(18,1,2,3)            42.9887         estimate D2E/DX2                !
 ! D2    D(18,1,2,17)         -138.7935         estimate D2E/DX2                !
 ! D3    D(19,1,2,3)           164.7937         estimate D2E/DX2                !
 ! D4    D(19,1,2,17)          -16.9886         estimate D2E/DX2                !
 ! D5    D(1,2,3,4)            177.7722         estimate D2E/DX2                !
 ! D6    D(1,2,3,20)            -0.9944         estimate D2E/DX2                !
 ! D7    D(17,2,3,4)            -0.5062         estimate D2E/DX2                !
 ! D8    D(17,2,3,20)         -179.2728         estimate D2E/DX2                !
 ! D9    D(1,2,17,16)         -176.7111         estimate D2E/DX2                !
 ! D10   D(1,2,17,26)            3.4529         estimate D2E/DX2                !
 ! D11   D(3,2,17,16)            1.5022         estimate D2E/DX2                !
 ! D12   D(3,2,17,26)         -178.3337         estimate D2E/DX2                !
 ! D13   D(2,3,4,5)             -1.0477         estimate D2E/DX2                !
 ! D14   D(2,3,4,21)          -179.9847         estimate D2E/DX2                !
 ! D15   D(20,3,4,5)           177.7017         estimate D2E/DX2                !
 ! D16   D(20,3,4,21)           -1.2353         estimate D2E/DX2                !
 ! D17   D(3,4,5,6)           -178.8991         estimate D2E/DX2                !
 ! D18   D(3,4,5,16)             1.5692         estimate D2E/DX2                !
 ! D19   D(21,4,5,6)             0.0803         estimate D2E/DX2                !
 ! D20   D(21,4,5,16)         -179.4514         estimate D2E/DX2                !
 ! D21   D(4,5,6,7)              0.3863         estimate D2E/DX2                !
 ! D22   D(4,5,6,8)           -179.2332         estimate D2E/DX2                !
 ! D23   D(16,5,6,7)           179.8928         estimate D2E/DX2                !
 ! D24   D(16,5,6,8)             0.2733         estimate D2E/DX2                !
 ! D25   D(4,5,16,14)          179.0037         estimate D2E/DX2                !
 ! D26   D(4,5,16,17)           -0.5723         estimate D2E/DX2                !
 ! D27   D(6,5,16,14)           -0.5104         estimate D2E/DX2                !
 ! D28   D(6,5,16,17)          179.9136         estimate D2E/DX2                !
 ! D29   D(5,6,8,9)           -179.997          estimate D2E/DX2                !
 ! D30   D(5,6,8,13)             0.0083         estimate D2E/DX2                !
 ! D31   D(7,6,8,9)              0.3829         estimate D2E/DX2                !
 ! D32   D(7,6,8,13)          -179.6118         estimate D2E/DX2                !
 ! D33   D(6,8,9,10)           179.9252         estimate D2E/DX2                !
 ! D34   D(6,8,9,22)            -0.1316         estimate D2E/DX2                !
 ! D35   D(13,8,9,10)           -0.0799         estimate D2E/DX2                !
 ! D36   D(13,8,9,22)          179.8634         estimate D2E/DX2                !
 ! D37   D(6,8,13,12)         -179.7868         estimate D2E/DX2                !
 ! D38   D(6,8,13,14)           -0.0725         estimate D2E/DX2                !
 ! D39   D(9,8,13,12)            0.2185         estimate D2E/DX2                !
 ! D40   D(9,8,13,14)          179.9327         estimate D2E/DX2                !
 ! D41   D(8,9,10,11)           -0.0981         estimate D2E/DX2                !
 ! D42   D(8,9,10,23)         -179.9991         estimate D2E/DX2                !
 ! D43   D(22,9,10,11)         179.9613         estimate D2E/DX2                !
 ! D44   D(22,9,10,23)           0.0603         estimate D2E/DX2                !
 ! D45   D(9,10,11,12)           0.1337         estimate D2E/DX2                !
 ! D46   D(9,10,11,24)        -179.9103         estimate D2E/DX2                !
 ! D47   D(23,10,11,12)       -179.9651         estimate D2E/DX2                !
 ! D48   D(23,10,11,24)         -0.0091         estimate D2E/DX2                !
 ! D49   D(10,11,12,13)          0.0129         estimate D2E/DX2                !
 ! D50   D(10,11,12,25)        179.9542         estimate D2E/DX2                !
 ! D51   D(24,11,12,13)       -179.943          estimate D2E/DX2                !
 ! D52   D(24,11,12,25)         -0.0017         estimate D2E/DX2                !
 ! D53   D(11,12,13,8)          -0.189          estimate D2E/DX2                !
 ! D54   D(11,12,13,14)       -179.9138         estimate D2E/DX2                !
 ! D55   D(25,12,13,8)         179.867          estimate D2E/DX2                !
 ! D56   D(25,12,13,14)          0.1421         estimate D2E/DX2                !
 ! D57   D(8,13,14,15)        -179.8188         estimate D2E/DX2                !
 ! D58   D(8,13,14,16)          -0.1331         estimate D2E/DX2                !
 ! D59   D(12,13,14,15)         -0.1082         estimate D2E/DX2                !
 ! D60   D(12,13,14,16)        179.5776         estimate D2E/DX2                !
 ! D61   D(13,14,16,5)           0.4133         estimate D2E/DX2                !
 ! D62   D(13,14,16,17)        179.9864         estimate D2E/DX2                !
 ! D63   D(15,14,16,5)        -179.9013         estimate D2E/DX2                !
 ! D64   D(15,14,16,17)         -0.3282         estimate D2E/DX2                !
 ! D65   D(5,16,17,2)           -0.9499         estimate D2E/DX2                !
 ! D66   D(5,16,17,26)         178.8931         estimate D2E/DX2                !
 ! D67   D(14,16,17,2)         179.4595         estimate D2E/DX2                !
 ! D68   D(14,16,17,26)         -0.6975         estimate D2E/DX2                !
 --------------------------------------------------------------------------------
 Trust Radius=3.00D-01 FncErr=1.00D-07 GrdErr=1.00D-06 EigMax=2.50D+02 EigMin=1.00D-04
 Number of steps in this run=    151 maximum allowed number of steps=    156.
 GradGradGradGradGradGradGradGradGradGradGradGradGradGradGradGradGradGrad

 Leave Link  103 at Wed Dec 27 20:37:11 2023, MaxMem=  4026531840 cpu:               0.3 elap:               0.1
 (Enter /sysapps/ubuntu-applications/gaussian/Gaussian/AVX2/g16/l202.exe)
                          Input orientation:                          
 ---------------------------------------------------------------------
 Center     Atomic      Atomic             Coordinates (Angstroms)
 Number     Number       Type             X           Y           Z
 ---------------------------------------------------------------------
      1          7           0       -4.533823   -0.967060   -0.765235
      2          6           0       -3.238601   -0.678216   -0.239724
      3          6           0       -3.043648   -0.736474    1.170145
      4          6           0       -1.790422   -0.506688    1.698871
      5          6           0       -0.661761   -0.231227    0.892001
      6          6           0        0.631062   -0.023567    1.521944
      7          8           0        0.801199   -0.085772    2.788130
      8          6           0        1.714183    0.268983    0.600942
      9          6           0        3.017209    0.488584    1.109179
     10          6           0        4.091956    0.769677    0.288539
     11          6           0        3.896406    0.841936   -1.119649
     12          6           0        2.638520    0.633677   -1.646846
     13          6           0        1.512830    0.346071   -0.832008
     14          6           0        0.221908    0.136968   -1.456555
     15          8           0        0.050578    0.203201   -2.726230
     16          6           0       -0.858015   -0.159623   -0.535937
     17          6           0       -2.163969   -0.380743   -1.050523
     18          1           0       -5.281689   -0.532104   -0.220683
     19          1           0       -4.625041   -0.660422   -1.729330
     20          1           0       -3.883920   -0.982273    1.815891
     21          1           0       -1.622889   -0.547112    2.770688
     22          1           0        3.131657    0.425541    2.187173
     23          1           0        5.080902    0.933206    0.713029
     24          1           0        4.736650    1.061392   -1.776443
     25          1           0        2.458632    0.683089   -2.716418
     26          1           0       -2.279917   -0.301044   -2.128280
 ---------------------------------------------------------------------
                    Distance matrix (angstroms):
                    1          2          3          4          5
     1  N    0.000000
     2  C    1.427303   0.000000
     3  C    2.453464   1.424476   0.000000
     4  C    3.716182   2.425860   1.379467   0.000000
     5  C    4.275599   2.849685   2.450719   1.414494   0.000000
     6  C    5.726902   4.301899   3.759720   2.475539   1.453046
     7  O    6.470358   5.083195   4.221864   2.842561   2.399315
     8  C    6.513971   5.112140   4.896110   3.753581   2.445411
     9  C    7.915201   6.505084   6.183726   4.944858   3.755012
    10  C    8.861758   7.490829   7.345922   6.182274   4.895283
    11  C    8.629417   7.348024   7.476556   6.488671   5.096597
    12  C    7.401493   6.183980   6.488435   5.666549   4.252724
    13  C    6.187955   4.896536   5.093330   4.247825   2.834489
    14  C    4.930900   3.757702   4.280924   3.797430   2.536169
    15  O    5.121694   4.216433   5.063493   4.845074   3.713186
    16  C    3.770424   2.454357   2.832042   2.446263   1.443139
    17  C    2.457919   1.378666   2.414901   2.777511   2.460159
    18  H    1.022266   2.048394   2.642915   3.984254   4.761547
    19  H    1.015789   2.035057   3.303565   4.450984   4.771077
    20  H    2.661732   2.175877   1.087870   2.150025   3.435106
    21  H    4.599200   3.419107   2.148523   1.085584   2.133780
    22  H    8.331605   6.905671   6.365455   5.033324   4.061876
    23  H    9.911570   8.527517   8.306931   7.089448   5.862262
    24  H    9.543523   8.306165   8.511624   7.559058   6.159083
    25  H    7.444766   6.359688   6.884447   6.242180   4.857316
    26  H    2.716903   2.151273   3.413575   3.863804   3.427156
                    6          7          8          9         10
     6  C    0.000000
     7  O    1.279079   0.000000
     8  C    1.451544   2.396494   0.000000
     9  C    2.475151   2.838919   1.415771   0.000000
    10  C    3.758765   4.220051   2.449917   1.381139   0.000000
    11  C    4.288307   5.070669   2.837394   2.421883   1.423536
    12  C    3.808292   4.854108   2.457631   2.785701   2.424188
    13  C    2.540716   3.714607   1.449079   2.460015   2.843758
    14  C    3.010753   4.289818   2.545114   3.810555   4.292196
    15  O    4.293643   5.572711   3.720481   4.857232   5.073703
    16  C    2.543764   3.715894   2.844714   4.259570   5.103486
    17  C    3.815411   4.859474   4.264920   5.680198   6.500242
    18  H    6.185142   6.801007   7.089361   8.466525   9.477297
    19  H    6.213130   7.083908   6.817604   8.232942   9.061071
    20  H    4.624996   4.868193   5.863489   7.091435   8.307631
    21  H    2.629402   2.467659   4.063232   5.036247   6.368238
    22  H    2.626253   2.460412   2.133043   1.085884   2.155322
    23  H    4.622860   4.864177   3.433446   2.147895   1.088553
    24  H    5.377020   6.135070   3.926217   3.407551   2.182860
    25  H    4.669378   5.799852   3.424991   3.871051   3.421259
    26  H    4.677064   5.806092   4.870977   6.258130   6.898422
                   11         12         13         14         15
    11  C    0.000000
    12  C    1.379705   0.000000
    13  C    2.451541   1.419104   0.000000
    14  C    3.756650   2.474458   1.449228   0.000000
    15  O    4.216572   2.836869   2.397221   1.282893   0.000000
    16  C    4.893706   3.753558   2.442190   1.449737   2.398868
    17  C    6.182869   4.944547   3.754312   2.474933   2.837817
    18  H    9.323816   8.131586   6.878255   5.680195   5.937298
    19  H    8.674321   7.378402   6.284240   4.919670   4.858093
    20  H    8.513437   7.559369   6.156361   5.368373   6.125070
    21  H    6.893968   6.250478   4.859005   4.662706   5.794788
    22  H    3.419546   3.871202   3.426714   4.671902   5.803793
    23  H    2.184049   3.409393   3.932303   5.380605   6.137228
    24  H    1.088829   2.145200   3.434626   4.619500   4.857763
    25  H    2.154553   1.085719   2.135210   2.624583   2.455425
    26  H    6.361659   5.029563   4.060050   2.627203   2.458254
                   16         17         18         19         20
    16  C    0.000000
    17  C    1.420989   0.000000
    18  H    4.450508   3.229818   0.000000
    19  H    3.983148   2.568244   1.650354   0.000000
    20  H    3.919687   3.396527   2.510786   3.636130   0.000000
    21  H    3.415984   3.862913   4.726028   5.410722   2.492642
    22  H    4.865720   6.259107   8.803366   8.756979   7.165062
    23  H    6.166435   7.571310  10.507247  10.134599   9.233277
    24  H    5.859182   7.086978  10.262881   9.518830   9.560108
    25  H    4.057685   5.027463   8.223014   7.277210   7.971400
    26  H    2.139477   1.086902   3.564120   2.405810   4.312005
                   21         22         23         24         25
    21  H    0.000000
    22  H    4.887970   0.000000
    23  H    7.167016   2.496073   0.000000
    24  H    7.981693   4.323258   2.516428   0.000000
    25  H    6.948420   4.956258   4.324346   2.493197   0.000000
    26  H    4.948952   6.959612   7.986117   7.156272   4.875271
                   26
    26  H    0.000000
 Symmetry turned off by external request.
 Stoichiometry    C14H9NO2(2-)
 Framework group  C1[X(C14H9NO2)]
 Deg. of freedom    72
 Full point group                 C1      NOp   1
 Rotational constants (GHZ):           1.0186040           0.3407279           0.2554284
 Leave Link  202 at Wed Dec 27 20:37:11 2023, MaxMem=  4026531840 cpu:               0.2 elap:               0.0
 (Enter /sysapps/ubuntu-applications/gaussian/Gaussian/AVX2/g16/l301.exe)
 Standard basis: 6-311++G(d,p) (5D, 7F)
 Ernie: Thresh=  0.10000D-02 Tol=  0.10000D-05 Strict=F.
   437 basis functions,   693 primitive gaussians,   454 cartesian basis functions
    59 alpha electrons       59 beta electrons
       nuclear repulsion energy      1081.9946303637 Hartrees.
 IExCor=  402 DFT=T Ex+Corr=B3LYP ExCW=0 ScaHFX=  0.200000
 ScaDFX=  0.800000  0.720000  1.000000  0.810000 ScalE2=  1.000000  1.000000
 IRadAn=      5 IRanWt=     -1 IRanGd=            0 ICorTp=0 IEmpDi=  4
 NAtoms=   26 NActive=   26 NUniq=   26 SFac= 1.00D+00 NAtFMM=   60 NAOKFM=F Big=F
 Integral buffers will be    131072 words long.
 Raffenetti 2 integral format.
 Two-electron integral symmetry is turned off.
 Leave Link  301 at Wed Dec 27 20:37:11 2023, MaxMem=  4026531840 cpu:               0.7 elap:               0.1
 (Enter /sysapps/ubuntu-applications/gaussian/Gaussian/AVX2/g16/l302.exe)
 NPDir=0 NMtPBC=     1 NCelOv=     1 NCel=       1 NClECP=     1 NCelD=      1
         NCelK=      1 NCelE2=     1 NClLst=     1 CellRange=     0.0.
 One-electron integrals computed using PRISM.
 NBasis=   437 RedAO= T EigKep=  1.02D-06  NBF=   437
 NBsUse=   431 1.00D-06 EigRej=  6.21D-07 NBFU=   431
 Precomputing XC quadrature grid using
 IXCGrd= 4 IRadAn=           5 IRanWt=          -1 IRanGd=           0 AccXCQ= 0.00D+00.
 Generated NRdTot=       0 NPtTot=           0 NUsed=           0 NTot=          32
 NSgBfM=   453   453   453   453   453 MxSgAt=    26 MxSgA2=    26.
 Leave Link  302 at Wed Dec 27 20:37:12 2023, MaxMem=  4026531840 cpu:               4.1 elap:               0.6
 (Enter /sysapps/ubuntu-applications/gaussian/Gaussian/AVX2/g16/l303.exe)
 DipDrv:  MaxL=1.
 Leave Link  303 at Wed Dec 27 20:37:12 2023, MaxMem=  4026531840 cpu:               0.6 elap:               0.1
 (Enter /sysapps/ubuntu-applications/gaussian/Gaussian/AVX2/g16/l401.exe)
 ExpMin= 3.60D-02 ExpMax= 8.59D+03 ExpMxC= 1.30D+03 IAcc=3 IRadAn=         5 AccDes= 0.00D+00
 Harris functional with IExCor=  402 and IRadAn=       5 diagonalized for initial guess.
 HarFok:  IExCor=  402 AccDes= 0.00D+00 IRadAn=         5 IDoV= 1 UseB2=F ITyADJ=14
 ICtDFT=  3500011 ScaDFX=  1.000000  1.000000  1.000000  1.000000
 FoFCou: FMM=F IPFlag=           0 FMFlag=      100000 FMFlg1=           0
         NFxFlg=           0 DoJE=T BraDBF=F KetDBF=T FulRan=T
         wScrn=  0.000000 ICntrl=       500 IOpCl=  0 I1Cent=   200000004 NGrid=           0
         NMat0=    1 NMatS0=      1 NMatT0=    0 NMatD0=    1 NMtDS0=    0 NMtDT0=    0
 Symmetry not used in FoFCou.
 Harris En= -744.792795240436    
 JPrj=0 DoOrth=F DoCkMO=F.
 Initial guess <Sx>= 0.0000 <Sy>= 0.0000 <Sz>= 0.0000 <S**2>=-0.0000 S=-0.0000
 Leave Link  401 at Wed Dec 27 20:37:14 2023, MaxMem=  4026531840 cpu:              14.7 elap:               1.9
 (Enter /sysapps/ubuntu-applications/gaussian/Gaussian/AVX2/g16/l502.exe)
 Two-electron integral symmetry not used.
 UHF open shell SCF:
 Using DIIS extrapolation, IDIIS=  1040.
 NGot=  4026531840 LenX=  4026112780 LenY=  4025906210
 Requested convergence on RMS density matrix=1.00D-08 within 128 cycles.
 Requested convergence on MAX density matrix=1.00D-06.
 Requested convergence on             energy=1.00D-06.
 No special actions if energy rises.
 Fock matrices will be formed incrementally for  20 cycles.

 Cycle   1  Pass 1  IDiag  1:
 FoFJK:  IHMeth= 1 ICntrl=       0 DoSepK=F KAlg= 0 I1Cent=           0 FoldK=F
 IRaf= 860000000 NMat=       1 IRICut=       1 DoRegI=T DoRafI=F ISym2E= 0 IDoP0=0 IntGTp=1.
 FoFCou: FMM=F IPFlag=           0 FMFlag=      100000 FMFlg1=           0
         NFxFlg=           0 DoJE=F BraDBF=F KetDBF=F FulRan=T
         wScrn=  0.000000 ICntrl=         0 IOpCl=  1 I1Cent=           0 NGrid=           0
         NMat0=    1 NMatS0=      1 NMatT0=    0 NMatD0=    1 NMtDS0=    0 NMtDT0=    0
 Symmetry not used in FoFCou.
 E= -743.680883527690    
 DIIS: error= 4.23D-02 at cycle   1 NSaved=   1.
 NSaved= 1 IEnMin= 1 EnMin= -743.680883527690     IErMin= 1 ErrMin= 4.23D-02
 ErrMax= 4.23D-02  0.00D+00 EMaxC= 1.00D-01 BMatC= 2.57D+00 BMatP= 2.57D+00
 IDIUse=3 WtCom= 5.77D-01 WtEn= 4.23D-01
 Coeff-Com:  0.100D+01
 Coeff-En:   0.100D+01
 Coeff:      0.100D+01
 Gap=     0.041 Goal=   None    Shift=    0.000
 Gap=     0.041 Goal=   None    Shift=    0.000
 GapD=    0.041 DampG=0.250 DampE=0.500 DampFc=0.2500 IDamp=-1.
 Damping current iteration by 2.50D-01
 RMSDP=5.11D+00 MaxDP=5.46D+02              OVMax= 9.95D-01

 Cycle   2  Pass 1  IDiag  1:
 RMSU=  1.25D+00    CP:  3.00D+00
 E= -743.555083807130     Delta-E=        0.125799720560 Rises=F Damp=T
 DIIS: error= 1.59D-02 at cycle   2 NSaved=   2.
 NSaved= 2 IEnMin= 1 EnMin= -743.680883527690     IErMin= 2 ErrMin= 1.59D-02
 ErrMax= 1.59D-02  0.00D+00 EMaxC= 1.00D-01 BMatC= 5.36D-01 BMatP= 2.57D+00
 IDIUse=3 WtCom= 8.41D-01 WtEn= 1.59D-01
 Coeff-Com:  0.230D-01 0.977D+00
 Coeff-En:   0.584D+00 0.416D+00
 Coeff:      0.112D+00 0.888D+00
 Gap=     0.015 Goal=   None    Shift=    0.000
 Gap=     0.015 Goal=   None    Shift=    0.000
 RMSDP=1.27D+00 MaxDP=1.36D+02 DE= 1.26D-01 OVMax= 7.16D-01

 Cycle   3  Pass 1  IDiag  1:
 RMSU=  2.28D-02    CP:  1.30D+00 -1.14D-03
 E= -743.615718509329     Delta-E=       -0.060634702200 Rises=F Damp=F
 DIIS: error= 4.51D-02 at cycle   3 NSaved=   3.
 NSaved= 3 IEnMin= 1 EnMin= -743.680883527690     IErMin= 2 ErrMin= 1.59D-02
 ErrMax= 4.51D-02  0.00D+00 EMaxC= 1.00D-01 BMatC= 2.37D+00 BMatP= 5.36D-01
 IDIUse=2 WtCom= 0.00D+00 WtEn= 1.00D+00
 EnCoef did     3 forward-backward iterations
 Coeff-En:   0.166D+00 0.407D+00 0.427D+00
 Coeff:      0.166D+00 0.407D+00 0.427D+00
 Gap=     0.182 Goal=   None    Shift=    0.000
 Gap=     0.182 Goal=   None    Shift=    0.000
 RMSDP=7.72D-01 MaxDP=4.52D+01 DE=-6.06D-02 OVMax= 9.88D-01

 Cycle   4  Pass 1  IDiag  1:
 RMSU=  7.38D-01    CP:  3.00D+00  1.23D-01  3.00D+00
 E= -743.514048783681     Delta-E=        0.101669725648 Rises=F Damp=F
 DIIS: error= 4.98D-02 at cycle   4 NSaved=   4.
 NSaved= 4 IEnMin= 1 EnMin= -743.680883527690     IErMin= 2 ErrMin= 1.59D-02
 ErrMax= 4.98D-02  0.00D+00 EMaxC= 1.00D-01 BMatC= 2.23D+00 BMatP= 5.36D-01
 IDIUse=2 WtCom= 0.00D+00 WtEn= 1.00D+00
 EnCoef did     4 forward-backward iterations
 Coeff-En:   0.134D+00 0.000D+00 0.422D+00 0.444D+00
 Coeff:      0.134D+00 0.000D+00 0.422D+00 0.444D+00
 Gap=    -0.051 Goal=   None    Shift=    0.000
 Gap=    -0.051 Goal=   None    Shift=    0.000
 RMSDP=7.76D-01 MaxDP=4.56D+01 DE= 1.02D-01 OVMax= 9.84D-01

 Cycle   5  Pass 1  IDiag  1:
 RMSU=  1.17D-02    CP:  1.13D+00 -2.39D-04  2.58D-01  8.82D-04
 E= -744.220400071791     Delta-E=       -0.706351288110 Rises=F Damp=F
 DIIS: error= 1.57D-02 at cycle   5 NSaved=   5.
 NSaved= 5 IEnMin= 5 EnMin= -744.220400071791     IErMin= 5 ErrMin= 1.57D-02
 ErrMax= 1.57D-02  0.00D+00 EMaxC= 1.00D-01 BMatC= 1.84D-01 BMatP= 5.36D-01
 IDIUse=3 WtCom= 8.43D-01 WtEn= 1.57D-01
 Coeff-Com: -0.442D-01 0.250D+00 0.243D+00 0.164D+00 0.387D+00
 Coeff-En:   0.000D+00 0.000D+00 0.000D+00 0.123D+00 0.877D+00
 Coeff:     -0.373D-01 0.211D+00 0.205D+00 0.157D+00 0.464D+00
 Gap=     0.053 Goal=   None    Shift=    0.000
 Gap=     0.053 Goal=   None    Shift=    0.000
 RMSDP=9.66D-03 MaxDP=4.79D-01 DE=-7.06D-01 OVMax= 2.70D-01

 Cycle   6  Pass 1  IDiag  1:
 RMSU=  7.22D-03    CP:  1.14D+00 -7.90D-04  4.45D-01  2.60D-03  6.13D-01
 E= -744.232637726199     Delta-E=       -0.012237654408 Rises=F Damp=F
 DIIS: error= 1.94D-02 at cycle   6 NSaved=   6.
 NSaved= 6 IEnMin= 6 EnMin= -744.232637726199     IErMin= 5 ErrMin= 1.57D-02
 ErrMax= 1.94D-02  0.00D+00 EMaxC= 1.00D-01 BMatC= 2.55D-01 BMatP= 1.84D-01
 IDIUse=2 WtCom= 0.00D+00 WtEn= 1.00D+00
 EnCoef did     3 forward-backward iterations
 Coeff-En:   0.000D+00 0.000D+00 0.000D+00 0.102D+00 0.380D+00 0.518D+00
 Coeff:      0.000D+00 0.000D+00 0.000D+00 0.102D+00 0.380D+00 0.518D+00
 Gap=    -0.003 Goal=   None    Shift=    0.000
 Gap=    -0.003 Goal=   None    Shift=    0.000
 RMSDP=9.22D-01 MaxDP=5.41D+01 DE=-1.22D-02 OVMax= 9.62D-01

 Cycle   7  Pass 1  IDiag  1:
 RMSU=  1.16D-01    CP:  3.00D+00  1.47D-01  3.00D+00  1.18D+00  4.32D-02
                    CP:  2.42D+00
 E= -744.008163285855     Delta-E=        0.224474440344 Rises=F Damp=F
 DIIS: error= 2.08D-02 at cycle   7 NSaved=   7.
 NSaved= 7 IEnMin= 6 EnMin= -744.232637726199     IErMin= 5 ErrMin= 1.57D-02
 ErrMax= 2.08D-02  0.00D+00 EMaxC= 1.00D-01 BMatC= 4.83D-01 BMatP= 1.84D-01
 IDIUse=2 WtCom= 0.00D+00 WtEn= 1.00D+00
 EnCoef did     3 forward-backward iterations
 Coeff-En:   0.000D+00 0.000D+00 0.000D+00 0.000D+00 0.370D+00 0.413D+00
 Coeff-En:   0.216D+00
 Coeff:      0.000D+00 0.000D+00 0.000D+00 0.000D+00 0.370D+00 0.413D+00
 Coeff:      0.216D+00
 Gap=    -0.017 Goal=   None    Shift=    0.000
 Gap=    -0.017 Goal=   None    Shift=    0.000
 RMSDP=9.13D-01 MaxDP=5.32D+01 DE= 2.24D-01 OVMax= 9.43D-01

 Cycle   8  Pass 1  IDiag  1:
 RMSU=  8.36D-03    CP:  1.26D+00  1.79D-04  4.99D-01  1.21D-02  1.22D+00
                    CP:  1.50D+00  2.69D-02
 E= -744.291114273384     Delta-E=       -0.282950987529 Rises=F Damp=F
 DIIS: error= 3.01D-03 at cycle   8 NSaved=   8.
 NSaved= 8 IEnMin= 8 EnMin= -744.291114273384     IErMin= 8 ErrMin= 3.01D-03
 ErrMax= 3.01D-03  0.00D+00 EMaxC= 1.00D-01 BMatC= 1.38D-02 BMatP= 1.84D-01
 IDIUse=3 WtCom= 9.70D-01 WtEn= 3.01D-02
 Coeff-Com: -0.186D-01 0.262D-01-0.307D-01-0.338D-01 0.165D+00 0.277D+00
 Coeff-Com:  0.165D+00 0.450D+00
 Coeff-En:   0.000D+00 0.000D+00 0.000D+00 0.000D+00 0.000D+00 0.000D+00
 Coeff-En:   0.833D-01 0.917D+00
 Coeff:     -0.181D-01 0.254D-01-0.298D-01-0.327D-01 0.160D+00 0.269D+00
 Coeff:      0.163D+00 0.464D+00
 Gap=     0.026 Goal=   None    Shift=    0.000
 Gap=     0.026 Goal=   None    Shift=    0.000
 RMSDP=1.08D-02 MaxDP=5.61D-01 DE=-2.83D-01 OVMax= 5.21D-02

 Cycle   9  Pass 1  IDiag  1:
 RMSU=  2.73D-03    CP:  1.29D+00  1.66D-03  6.23D-01  2.30D-02  1.15D+00
                    CP:  1.78D+00  5.09D-02  1.47D+00
 E= -744.293651346551     Delta-E=       -0.002537073167 Rises=F Damp=F
 DIIS: error= 2.31D-03 at cycle   9 NSaved=   9.
 NSaved= 9 IEnMin= 9 EnMin= -744.293651346551     IErMin= 9 ErrMin= 2.31D-03
 ErrMax= 2.31D-03  0.00D+00 EMaxC= 1.00D-01 BMatC= 8.89D-03 BMatP= 1.38D-02
 IDIUse=3 WtCom= 9.77D-01 WtEn= 2.31D-02
 EnCoef did   100 forward-backward iterations
 Coeff-Com: -0.115D-01 0.199D-01-0.279D-01-0.159D-01-0.174D-01 0.436D-01
 Coeff-Com:  0.760D-01 0.226D+00 0.707D+00
 Coeff-En:   0.000D+00 0.000D+00 0.000D+00 0.000D+00 0.000D+00 0.000D+00
 Coeff-En:   0.834D-01 0.298D-01 0.887D+00
 Coeff:     -0.112D-01 0.195D-01-0.272D-01-0.156D-01-0.170D-01 0.425D-01
 Coeff:      0.761D-01 0.221D+00 0.711D+00
 Gap=     0.011 Goal=   None    Shift=    0.000
 Gap=     0.011 Goal=   None    Shift=    0.000
 RMSDP=8.35D-02 MaxDP=5.39D+00 DE=-2.54D-03 OVMax= 1.82D-01

 Cycle  10  Pass 1  IDiag  1:
 RMSU=  1.53D-02    CP:  1.56D+00  1.41D-02  1.36D+00  1.19D-01  1.22D+00
                    CP:  2.95D+00  1.98D-01  3.00D+00  3.00D+00
 E= -744.299030704803     Delta-E=       -0.005379358252 Rises=F Damp=F
 DIIS: error= 1.19D-03 at cycle  10 NSaved=  10.
 NSaved=10 IEnMin=10 EnMin= -744.299030704803     IErMin=10 ErrMin= 1.19D-03
 ErrMax= 1.19D-03  0.00D+00 EMaxC= 1.00D-01 BMatC= 1.03D-03 BMatP= 8.89D-03
 IDIUse=3 WtCom= 9.88D-01 WtEn= 1.19D-02
 Coeff-Com: -0.531D-02 0.104D-01-0.117D-01-0.517D-02-0.161D-01-0.105D-01
 Coeff-Com:  0.301D-01 0.965D-01 0.448D+00 0.464D+00
 Coeff-En:   0.000D+00 0.000D+00 0.000D+00 0.000D+00 0.000D+00 0.000D+00
 Coeff-En:   0.000D+00 0.000D+00 0.000D+00 0.100D+01
 Coeff:     -0.524D-02 0.103D-01-0.116D-01-0.511D-02-0.159D-01-0.103D-01
 Coeff:      0.297D-01 0.954D-01 0.442D+00 0.470D+00
 Gap=     0.010 Goal=   None    Shift=    0.000
 Gap=     0.010 Goal=   None    Shift=    0.000
 RMSDP=1.38D-01 MaxDP=8.55D+00 DE=-5.38D-03 OVMax= 1.68D-01

 Cycle  11  Pass 1  IDiag  1:
 RMSU=  1.26D-02    CP:  1.96D+00  3.60D-02  2.63D+00  2.86D-01  1.16D+00
                    CP:  3.00D+00  3.76D-01  3.00D+00  3.00D+00  3.00D+00
 E= -744.296233898109     Delta-E=        0.002796806694 Rises=F Damp=F
 DIIS: error= 2.33D-03 at cycle  11 NSaved=  11.
 NSaved=11 IEnMin=10 EnMin= -744.299030704803     IErMin=10 ErrMin= 1.19D-03
 ErrMax= 2.33D-03  0.00D+00 EMaxC= 1.00D-01 BMatC= 7.83D-03 BMatP= 1.03D-03
 IDIUse=3 WtCom= 9.88D-01 WtEn= 1.19D-02
 Coeff-Com: -0.229D-02 0.653D-02-0.163D-02 0.832D-05 0.127D-02-0.119D-01
 Coeff-Com: -0.112D-01 0.113D+00 0.261D+00 0.353D+00 0.292D+00
 Coeff-En:   0.000D+00 0.000D+00 0.000D+00 0.000D+00 0.000D+00 0.000D+00
 Coeff-En:   0.000D+00 0.000D+00 0.000D+00 0.805D+00 0.195D+00
 Coeff:     -0.226D-02 0.645D-02-0.161D-02 0.822D-05 0.126D-02-0.118D-01
 Coeff:     -0.111D-01 0.112D+00 0.258D+00 0.358D+00 0.291D+00
 Gap=     0.012 Goal=   None    Shift=    0.000
 Gap=     0.012 Goal=   None    Shift=    0.000
 RMSDP=2.95D-02 MaxDP=1.49D+00 DE= 2.80D-03 OVMax= 2.48D-02

 Cycle  12  Pass 1  IDiag  1:
 RMSU=  5.46D-03    CP:  2.05D+00  4.09D-02  2.92D+00  3.22D-01  1.15D+00
                    CP:  3.00D+00  3.92D-01  3.00D+00  3.00D+00  3.00D+00
                    CP:  1.41D+00
 E= -744.295482015939     Delta-E=        0.000751882170 Rises=F Damp=F
 DIIS: error= 2.48D-03 at cycle  12 NSaved=  12.
 NSaved=12 IEnMin=10 EnMin= -744.299030704803     IErMin=10 ErrMin= 1.19D-03
 ErrMax= 2.48D-03  0.00D+00 EMaxC= 1.00D-01 BMatC= 8.76D-03 BMatP= 1.03D-03
 IDIUse=3 WtCom= 9.88D-01 WtEn= 1.19D-02
 Rare condition: small coef for last iteration:  0.000D+00
 Coeff-Com: -0.229D-02 0.657D-02-0.164D-02 0.122D-03 0.795D-03-0.122D-01
 Coeff-Com: -0.116D-01 0.114D+00 0.263D+00 0.350D+00 0.277D+00 0.165D-01
 Coeff-En:   0.000D+00 0.000D+00 0.000D+00 0.000D+00 0.000D+00 0.000D+00
 Coeff-En:   0.000D+00 0.000D+00 0.000D+00 0.828D+00 0.000D+00 0.172D+00
 Coeff:     -0.229D-02 0.657D-02-0.164D-02 0.122D-03 0.795D-03-0.122D-01
 Coeff:     -0.116D-01 0.114D+00 0.263D+00 0.350D+00 0.277D+00 0.165D-01
 Gap=     0.012 Goal=   None    Shift=    0.000
 Gap=     0.012 Goal=   None    Shift=    0.000
 RMSDP=2.07D-03 MaxDP=1.28D-01 DE= 7.52D-04 OVMax= 2.36D-03

 Cycle  13  Pass 1  IDiag  1:
 RMSU=  2.49D-04    CP:  2.05D+00  4.12D-02  2.94D+00  3.24D-01  1.15D+00
                    CP:  3.00D+00  3.95D-01  3.00D+00  3.00D+00  3.00D+00
                    CP:  1.43D+00  1.06D+00
 E= -744.295284163886     Delta-E=        0.000197852053 Rises=F Damp=F
 DIIS: error= 2.53D-03 at cycle  13 NSaved=  13.
 NSaved=13 IEnMin=10 EnMin= -744.299030704803     IErMin=10 ErrMin= 1.19D-03
 ErrMax= 2.53D-03  0.00D+00 EMaxC= 1.00D-01 BMatC= 9.13D-03 BMatP= 1.03D-03
 IDIUse=3 WtCom= 9.88D-01 WtEn= 1.19D-02
 Large coefficients: NSaved= 13 BigCof=   16.47 CofMax=   10.00 Det=-1.02D-07
 Inversion failed.  Reducing to 12 matrices.
 Large coefficients: NSaved= 12 BigCof=   16.33 CofMax=   10.00 Det=-1.03D-07
 Inversion failed.  Reducing to 11 matrices.
 Large coefficients: NSaved= 11 BigCof=   16.73 CofMax=   10.00 Det=-1.06D-07
 Inversion failed.  Reducing to 10 matrices.
 Large coefficients: NSaved= 10 BigCof=   15.66 CofMax=   10.00 Det=-1.08D-07
 Inversion failed.  Reducing to  9 matrices.
 Large coefficients: NSaved=  9 BigCof=   15.90 CofMax=   10.00 Det=-1.11D-07
 Inversion failed.  Reducing to  8 matrices.
 Large coefficients: NSaved=  8 BigCof=   16.42 CofMax=   10.00 Det=-1.13D-07
 Inversion failed.  Reducing to  7 matrices.
 Large coefficients: NSaved=  7 BigCof=   11.59 CofMax=   10.00 Det=-1.27D-07
 Inversion failed.  Reducing to  6 matrices.
 Large coefficients: NSaved=  6 BigCof=   11.87 CofMax=   10.00 Det=-3.85D-07
 Inversion failed.  Reducing to  5 matrices.
 Large coefficients: NSaved=  5 BigCof=   20.19 CofMax=   10.00 Det=-7.55D-07
 Inversion failed.  Reducing to  4 matrices.
 Large coefficients: NSaved=  4 BigCof=   22.42 CofMax=   10.00 Det=-9.51D-07
 Inversion failed.  Reducing to  3 matrices.
 Large coefficients: NSaved=  3 BigCof=   23.66 CofMax=   10.00 Det=-1.51D-06
 Inversion failed.  Reducing to  2 matrices.
 Large coefficients: NSaved=  2 BigCof=   43.68 CofMax=   10.00 Det=-4.22D-06
 Coeff-Com:  0.437D+02-0.427D+02
 Coeff-En:   0.000D+00 0.100D+01
 Coeff:      0.432D+02-0.422D+02
 Gap=     0.019 Goal=   None    Shift=    0.000
 Gap=     0.019 Goal=   None    Shift=    0.000
 RMSDP=1.14D-01 MaxDP=7.27D+00 DE= 1.98D-04 OVMax= 1.46D-01

 Cycle  14  Pass 1  IDiag  1:
 RMSU=  7.53D-03    CP:  1.71D+00  2.29D-02  1.98D+00  1.87D-01  1.17D+00
                    CP:  3.00D+00  2.05D-01  3.00D+00  3.00D+00  1.75D+00
                    CP:  5.38D-01  3.99D-01 -3.00D+00
 E= -744.298131798261     Delta-E=       -0.002847634375 Rises=F Damp=F
 DIIS: error= 2.64D-03 at cycle  14 NSaved=   3.
 NSaved= 3 IEnMin= 3 EnMin= -744.298131798261     IErMin= 1 ErrMin= 2.48D-03
 ErrMax= 2.64D-03  0.00D+00 EMaxC= 1.00D-01 BMatC= 6.59D-03 BMatP= 8.76D-03
 IDIUse=3 WtCom= 9.88D-01 WtEn= 1.19D-02
 Large coefficients: NSaved=  3 BigCof=   29.33 CofMax=   10.00 Det=-2.26D-06
 Inversion failed.  Reducing to  2 matrices.
 Coeff-Com:  0.445D+00 0.555D+00
 Coeff-En:   0.331D+00 0.669D+00
 Coeff:      0.444D+00 0.556D+00
 Gap=     0.025 Goal=   None    Shift=    0.000
 Gap=     0.025 Goal=   None    Shift=    0.000
 RMSDP=6.72D-02 MaxDP=4.26D+00 DE=-2.85D-03 OVMax= 1.18D-01

 Cycle  15  Pass 1  IDiag  1:
 RMSU=  3.89D-03    CP:  1.51D+00  1.27D-02  1.38D+00  1.07D-01  1.20D+00
                    CP:  2.23D+00  1.26D-01  3.00D+00  3.00D+00  4.72D-01
                    CP:  2.48D-01  4.05D-01 -3.00D+00  6.57D-01
 E= -744.291276883489     Delta-E=        0.006854914772 Rises=F Damp=F
 DIIS: error= 5.13D-03 at cycle  15 NSaved=   3.
 NSaved= 3 IEnMin= 2 EnMin= -744.298131798261     IErMin= 1 ErrMin= 2.53D-03
 ErrMax= 5.13D-03  0.00D+00 EMaxC= 1.00D-01 BMatC= 2.19D-02 BMatP= 6.59D-03
 IDIUse=3 WtCom= 9.88D-01 WtEn= 1.19D-02
 EnCoef did     2 forward-backward iterations
 Coeff-Com:  0.399D+00 0.366D+00 0.235D+00
 Coeff-En:   0.359D+00 0.486D+00 0.155D+00
 Coeff:      0.398D+00 0.367D+00 0.234D+00
 Gap=     0.018 Goal=   None    Shift=    0.000
 Gap=     0.018 Goal=   None    Shift=    0.000
 RMSDP=7.72D-02 MaxDP=4.75D+00 DE= 6.85D-03 OVMax= 1.17D-01

 Cycle  16  Pass 1  IDiag  1:
 RMSU=  2.37D-03    CP:  1.74D+00  2.46D-02  2.09D+00  2.00D-01  1.19D+00
                    CP:  3.00D+00  2.05D-01  3.00D+00  3.00D+00  1.77D+00
                    CP:  6.13D-01  4.67D-01 -3.00D+00  1.17D+00  4.43D-01
 E= -744.299905069061     Delta-E=       -0.008628185573 Rises=F Damp=F
 DIIS: error= 4.35D-04 at cycle  16 NSaved=   4.
 NSaved= 4 IEnMin= 4 EnMin= -744.299905069061     IErMin= 4 ErrMin= 4.35D-04
 ErrMax= 4.35D-04  0.00D+00 EMaxC= 1.00D-01 BMatC= 2.27D-04 BMatP= 6.59D-03
 IDIUse=3 WtCom= 9.96D-01 WtEn= 4.35D-03
 Coeff-Com:  0.241D+00 0.174D+00 0.107D+00 0.477D+00
 Coeff-En:   0.997D-01 0.000D+00 0.000D+00 0.900D+00
 Coeff:      0.241D+00 0.174D+00 0.107D+00 0.479D+00
 Gap=     0.017 Goal=   None    Shift=    0.000
 Gap=     0.017 Goal=   None    Shift=    0.000
 RMSDP=3.08D-02 MaxDP=1.84D+00 DE=-8.63D-03 OVMax= 3.65D-02

 Cycle  17  Pass 1  IDiag  1:
 RMSU=  6.62D-04    CP:  1.84D+00  2.95D-02  2.40D+00  2.38D-01  1.19D+00
                    CP:  3.00D+00  2.33D-01  3.00D+00  3.00D+00  2.24D+00
                    CP:  8.81D-01  4.06D-01 -3.00D+00  1.31D+00  3.89D-01
                    CP:  9.90D-01
 E= -744.300081161953     Delta-E=       -0.000176092892 Rises=F Damp=F
 DIIS: error= 1.92D-04 at cycle  17 NSaved=   5.
 NSaved= 5 IEnMin= 5 EnMin= -744.300081161953     IErMin= 5 ErrMin= 1.92D-04
 ErrMax= 1.92D-04  0.00D+00 EMaxC= 1.00D-01 BMatC= 6.32D-05 BMatP= 2.27D-04
 IDIUse=3 WtCom= 9.98D-01 WtEn= 1.92D-03
 Coeff-Com:  0.684D-01 0.635D-01 0.356D-01 0.323D+00 0.509D+00
 Coeff-En:   0.000D+00 0.000D+00 0.000D+00 0.173D+00 0.827D+00
 Coeff:      0.683D-01 0.634D-01 0.355D-01 0.323D+00 0.510D+00
 Gap=     0.017 Goal=   None    Shift=    0.000
 Gap=     0.017 Goal=   None    Shift=    0.000
 RMSDP=8.62D-03 MaxDP=4.77D-01 DE=-1.76D-04 OVMax= 8.23D-03

 Cycle  18  Pass 1  IDiag  1:
 RMSU=  1.62D-04    CP:  1.87D+00  3.08D-02  2.49D+00  2.48D-01  1.19D+00
                    CP:  3.00D+00  2.35D-01  3.00D+00  3.00D+00  2.35D+00
                    CP:  9.64D-01  4.27D-01 -3.00D+00  1.42D+00  3.85D-01
                    CP:  1.01D+00  1.28D+00
 E= -744.300057703297     Delta-E=        0.000023458656 Rises=F Damp=F
 DIIS: error= 2.58D-04 at cycle  18 NSaved=   6.
 NSaved= 6 IEnMin= 5 EnMin= -744.300081161953     IErMin= 5 ErrMin= 1.92D-04
 ErrMax= 2.58D-04  0.00D+00 EMaxC= 1.00D-01 BMatC= 9.06D-05 BMatP= 6.32D-05
 IDIUse=3 WtCom= 9.98D-01 WtEn= 1.92D-03
 EnCoef did     7 forward-backward iterations
 Coeff-Com: -0.109D-01 0.341D-01 0.212D-01 0.166D+00 0.330D+00 0.460D+00
 Coeff-En:   0.000D+00 0.000D+00 0.000D+00 0.173D+00 0.824D+00 0.269D-02
 Coeff:     -0.109D-01 0.340D-01 0.212D-01 0.166D+00 0.331D+00 0.459D+00
 Gap=     0.017 Goal=   None    Shift=    0.000
 Gap=     0.017 Goal=   None    Shift=    0.000
 RMSDP=3.91D-03 MaxDP=2.62D-01 DE= 2.35D-05 OVMax= 5.17D-03

 Cycle  19  Pass 1  IDiag  1:
 RMSU=  1.20D-04    CP:  1.85D+00  3.02D-02  2.46D+00  2.44D-01  1.19D+00
                    CP:  3.00D+00  2.26D-01  3.00D+00  3.00D+00  2.27D+00
                    CP:  9.40D-01  4.68D-01 -3.00D+00  1.46D+00  4.26D-01
                    CP:  1.09D+00  1.17D+00  1.14D+00
 E= -744.300092813875     Delta-E=       -0.000035110578 Rises=F Damp=F
 DIIS: error= 1.31D-04 at cycle  19 NSaved=   7.
 NSaved= 7 IEnMin= 7 EnMin= -744.300092813875     IErMin= 7 ErrMin= 1.31D-04
 ErrMax= 1.31D-04  0.00D+00 EMaxC= 1.00D-01 BMatC= 2.54D-05 BMatP= 6.32D-05
 IDIUse=3 WtCom= 9.99D-01 WtEn= 1.31D-03
 Coeff-Com: -0.382D-01 0.171D-01 0.122D-01 0.474D-01 0.116D+00 0.254D+00
 Coeff-Com:  0.591D+00
 Coeff-En:   0.000D+00 0.000D+00 0.000D+00 0.111D+00 0.000D+00 0.000D+00
 Coeff-En:   0.889D+00
 Coeff:     -0.382D-01 0.171D-01 0.122D-01 0.475D-01 0.116D+00 0.254D+00
 Coeff:      0.592D+00
 Gap=     0.018 Goal=   None    Shift=    0.000
 Gap=     0.018 Goal=   None    Shift=    0.000
 RMSDP=3.56D-03 MaxDP=2.35D-01 DE=-3.51D-05 OVMax= 4.81D-03

 Cycle  20  Pass 1  IDiag  1:
 RMSU=  3.35D-05    CP:  1.84D+00  2.96D-02  2.43D+00  2.40D-01  1.19D+00
                    CP:  3.00D+00  2.19D-01  3.00D+00  3.00D+00  2.20D+00
                    CP:  9.15D-01  5.00D-01 -3.00D+00  1.50D+00  4.60D-01
                    CP:  1.15D+00  1.05D+00  1.39D+00  1.70D+00
 E= -744.300106303017     Delta-E=       -0.000013489142 Rises=F Damp=F
 DIIS: error= 2.81D-05 at cycle  20 NSaved=   8.
 NSaved= 8 IEnMin= 8 EnMin= -744.300106303017     IErMin= 8 ErrMin= 2.81D-05
 ErrMax= 2.81D-05  0.00D+00 EMaxC= 1.00D-01 BMatC= 1.16D-06 BMatP= 2.54D-05
 IDIUse=1 WtCom= 1.00D+00 WtEn= 0.00D+00
 Coeff-Com: -0.187D-01 0.620D-02 0.462D-02 0.103D-01 0.279D-01 0.376D-01
 Coeff-Com:  0.276D+00 0.656D+00
 Coeff:     -0.187D-01 0.620D-02 0.462D-02 0.103D-01 0.279D-01 0.376D-01
 Coeff:      0.276D+00 0.656D+00
 Gap=     0.018 Goal=   None    Shift=    0.000
 Gap=     0.018 Goal=   None    Shift=    0.000
 RMSDP=6.67D-04 MaxDP=4.44D-02 DE=-1.35D-05 OVMax= 9.58D-04

 Cycle  21  Pass 1  IDiag  1:
 Restarting incremental Fock formation.
 E= -744.300106889507     Delta-E=       -0.000000586490 Rises=F Damp=F
 DIIS: error= 5.81D-06 at cycle  21 NSaved=   9.
 NSaved= 9 IEnMin= 9 EnMin= -744.300106889507     IErMin= 9 ErrMin= 5.81D-06
 ErrMax= 5.81D-06  0.00D+00 EMaxC= 1.00D-01 BMatC= 5.40D-08 BMatP= 1.16D-06
 IDIUse=1 WtCom= 1.00D+00 WtEn= 0.00D+00
 Coeff-Com: -0.148D-02-0.409D-03-0.158D-03-0.374D-02-0.791D-02-0.528D-01
 Coeff-Com:  0.894D-02 0.421D+00 0.637D+00
 Coeff:     -0.148D-02-0.409D-03-0.158D-03-0.374D-02-0.791D-02-0.528D-01
 Coeff:      0.894D-02 0.421D+00 0.637D+00
 Gap=     0.018 Goal=   None    Shift=    0.000
 Gap=     0.018 Goal=   None    Shift=    0.000
 RMSDP=2.55D-04 MaxDP=1.91D-02 DE=-5.86D-07 OVMax= 3.42D-04

 Cycle  22  Pass 1  IDiag  1:
 RMSU=  2.19D-04    CP:  9.99D-01
 E= -744.300106916923     Delta-E=       -0.000000027416 Rises=F Damp=F
 DIIS: error= 2.24D-06 at cycle  22 NSaved=  10.
 NSaved=10 IEnMin=10 EnMin= -744.300106916923     IErMin=10 ErrMin= 2.24D-06
 ErrMax= 2.24D-06  0.00D+00 EMaxC= 1.00D-01 BMatC= 7.59D-09 BMatP= 5.40D-08
 IDIUse=1 WtCom= 1.00D+00 WtEn= 0.00D+00
 Coeff-Com:  0.853D-03-0.842D-03-0.501D-03-0.372D-02-0.755D-02-0.301D-01
 Coeff-Com: -0.119D-01 0.148D+00 0.349D+00 0.557D+00
 Coeff:      0.853D-03-0.842D-03-0.501D-03-0.372D-02-0.755D-02-0.301D-01
 Coeff:     -0.119D-01 0.148D+00 0.349D+00 0.557D+00
 Gap=     0.018 Goal=   None    Shift=    0.000
 Gap=     0.018 Goal=   None    Shift=    0.000
 RMSDP=7.71D-05 MaxDP=4.12D-03 DE=-2.74D-08 OVMax= 6.64D-05

 Cycle  23  Pass 1  IDiag  1:
 RMSU=  3.07D-05    CP:  1.00D+00  1.26D+00
 E= -744.300106918886     Delta-E=       -0.000000001963 Rises=F Damp=F
 DIIS: error= 1.80D-06 at cycle  23 NSaved=  11.
 NSaved=11 IEnMin=11 EnMin= -744.300106918886     IErMin=11 ErrMin= 1.80D-06
 ErrMax= 1.80D-06  0.00D+00 EMaxC= 1.00D-01 BMatC= 5.33D-09 BMatP= 7.59D-09
 IDIUse=1 WtCom= 1.00D+00 WtEn= 0.00D+00
 Coeff-Com:  0.784D-03-0.370D-03-0.231D-03-0.103D-02-0.150D-02-0.519D-02
 Coeff-Com: -0.323D-02-0.180D-02 0.882D-01 0.366D+00 0.559D+00
 Coeff:      0.784D-03-0.370D-03-0.231D-03-0.103D-02-0.150D-02-0.519D-02
 Coeff:     -0.323D-02-0.180D-02 0.882D-01 0.366D+00 0.559D+00
 Gap=     0.018 Goal=   None    Shift=    0.000
 Gap=     0.018 Goal=   None    Shift=    0.000
 RMSDP=9.33D-05 MaxDP=5.22D-03 DE=-1.96D-09 OVMax= 1.06D-04

 Cycle  24  Pass 1  IDiag  1:
 RMSU=  3.62D-06    CP:  1.00D+00  1.36D+00  2.21D+00
 E= -744.300106922165     Delta-E=       -0.000000003279 Rises=F Damp=F
 DIIS: error= 2.78D-07 at cycle  24 NSaved=  12.
 NSaved=12 IEnMin=12 EnMin= -744.300106922165     IErMin=12 ErrMin= 2.78D-07
 ErrMax= 2.78D-07  0.00D+00 EMaxC= 1.00D-01 BMatC= 1.24D-10 BMatP= 5.33D-09
 IDIUse=1 WtCom= 1.00D+00 WtEn= 0.00D+00
 Coeff-Com:  0.172D-03 0.541D-04 0.339D-04 0.295D-03 0.113D-02 0.459D-02
 Coeff-Com:  0.396D-02-0.429D-01-0.433D-01 0.507D-01 0.312D+00 0.713D+00
 Coeff:      0.172D-03 0.541D-04 0.339D-04 0.295D-03 0.113D-02 0.459D-02
 Coeff:      0.396D-02-0.429D-01-0.433D-01 0.507D-01 0.312D+00 0.713D+00
 Gap=     0.018 Goal=   None    Shift=    0.000
 Gap=     0.018 Goal=   None    Shift=    0.000
 RMSDP=4.41D-05 MaxDP=2.40D-03 DE=-3.28D-09 OVMax= 4.79D-05

 Cycle  25  Pass 1  IDiag  1:
 RMSU=  4.70D-06    CP:  1.00D+00  1.46D+00  2.86D+00  2.00D+00
 E= -744.300106922050     Delta-E=        0.000000000116 Rises=F Damp=F
 DIIS: error= 7.07D-07 at cycle  25 NSaved=  13.
 NSaved=13 IEnMin=12 EnMin= -744.300106922165     IErMin=12 ErrMin= 2.78D-07
 ErrMax= 7.07D-07  0.00D+00 EMaxC= 1.00D-01 BMatC= 5.78D-10 BMatP= 1.24D-10
 IDIUse=1 WtCom= 1.00D+00 WtEn= 0.00D+00
 Coeff-Com: -0.165D-03 0.137D-03 0.857D-04 0.271D-03 0.786D-03 0.361D-02
 Coeff-Com:  0.345D-02-0.282D-01-0.551D-01-0.823D-01 0.484D-01 0.519D+00
 Coeff-Com:  0.590D+00
 Coeff:     -0.165D-03 0.137D-03 0.857D-04 0.271D-03 0.786D-03 0.361D-02
 Coeff:      0.345D-02-0.282D-01-0.551D-01-0.823D-01 0.484D-01 0.519D+00
 Coeff:      0.590D+00
 Gap=     0.018 Goal=   None    Shift=    0.000
 Gap=     0.018 Goal=   None    Shift=    0.000
 RMSDP=2.04D-05 MaxDP=1.60D-03 DE= 1.16D-10 OVMax= 2.49D-05

 Cycle  26  Pass 1  IDiag  1:
 RMSU=  4.95D-07    CP:  1.00D+00  1.54D+00  2.98D+00  2.64D+00  2.18D+00
 E= -744.300106922376     Delta-E=       -0.000000000326 Rises=F Damp=F
 DIIS: error= 1.83D-07 at cycle  26 NSaved=  14.
 NSaved=14 IEnMin=14 EnMin= -744.300106922376     IErMin=14 ErrMin= 1.83D-07
 ErrMax= 1.83D-07  0.00D+00 EMaxC= 1.00D-01 BMatC= 5.86D-11 BMatP= 1.24D-10
 IDIUse=1 WtCom= 1.00D+00 WtEn= 0.00D+00
 Coeff-Com: -0.546D-04 0.366D-04 0.228D-04 0.714D-04 0.777D-04 0.143D-03
 Coeff-Com: -0.202D-03-0.220D-02-0.101D-01-0.278D-01-0.170D-01 0.763D-01
 Coeff-Com:  0.160D+00 0.821D+00
 Coeff:     -0.546D-04 0.366D-04 0.228D-04 0.714D-04 0.777D-04 0.143D-03
 Coeff:     -0.202D-03-0.220D-02-0.101D-01-0.278D-01-0.170D-01 0.763D-01
 Coeff:      0.160D+00 0.821D+00
 Gap=     0.018 Goal=   None    Shift=    0.000
 Gap=     0.018 Goal=   None    Shift=    0.000
 RMSDP=7.60D-06 MaxDP=5.04D-04 DE=-3.26D-10 OVMax= 1.04D-05

 Cycle  27  Pass 1  IDiag  1:
 RMSU=  8.53D-07    CP:  1.00D+00  1.56D+00  2.98D+00  3.00D+00  2.87D+00
                    CP:  1.57D+00
 E= -744.300106922399     Delta-E=       -0.000000000023 Rises=F Damp=F
 DIIS: error= 2.38D-08 at cycle  27 NSaved=  15.
 NSaved=15 IEnMin=15 EnMin= -744.300106922399     IErMin=15 ErrMin= 2.38D-08
 ErrMax= 2.38D-08  0.00D+00 EMaxC= 1.00D-01 BMatC= 8.98D-13 BMatP= 5.86D-11
 IDIUse=1 WtCom= 1.00D+00 WtEn= 0.00D+00
 Coeff-Com: -0.702D-05 0.391D-05 0.214D-05 0.103D-04-0.341D-04-0.201D-03
 Coeff-Com: -0.470D-03 0.170D-02 0.630D-03-0.417D-02-0.114D-01-0.121D-01
 Coeff-Com: -0.734D-03 0.275D+00 0.752D+00
 Coeff:     -0.702D-05 0.391D-05 0.214D-05 0.103D-04-0.341D-04-0.201D-03
 Coeff:     -0.470D-03 0.170D-02 0.630D-03-0.417D-02-0.114D-01-0.121D-01
 Coeff:     -0.734D-03 0.275D+00 0.752D+00
 Gap=     0.018 Goal=   None    Shift=    0.000
 Gap=     0.018 Goal=   None    Shift=    0.000
 RMSDP=2.36D-06 MaxDP=1.38D-04 DE=-2.27D-11 OVMax= 3.34D-06

 Cycle  28  Pass 1  IDiag  1:
 RMSU=  1.11D-06    CP:  1.00D+00  1.57D+00  3.00D+00  3.00D+00  3.00D+00
                    CP:  1.85D+00  2.62D+00
 E= -744.300106922415     Delta-E=       -0.000000000017 Rises=F Damp=F
 DIIS: error= 1.64D-08 at cycle  28 NSaved=  16.
 NSaved=16 IEnMin=16 EnMin= -744.300106922415     IErMin=16 ErrMin= 1.64D-08
 ErrMax= 1.64D-08  0.00D+00 EMaxC= 1.00D-01 BMatC= 2.35D-13 BMatP= 8.98D-13
 IDIUse=1 WtCom= 1.00D+00 WtEn= 0.00D+00
 Coeff-Com:  0.537D-05-0.402D-05-0.283D-05-0.899D-05-0.407D-04-0.126D-03
 Coeff-Com: -0.235D-03 0.163D-02 0.247D-02 0.263D-02-0.397D-02-0.208D-01
 Coeff-Com: -0.345D-01-0.213D-01 0.493D+00 0.582D+00
 Coeff:      0.537D-05-0.402D-05-0.283D-05-0.899D-05-0.407D-04-0.126D-03
 Coeff:     -0.235D-03 0.163D-02 0.247D-02 0.263D-02-0.397D-02-0.208D-01
 Coeff:     -0.345D-01-0.213D-01 0.493D+00 0.582D+00
 Gap=     0.018 Goal=   None    Shift=    0.000
 Gap=     0.018 Goal=   None    Shift=    0.000
 RMSDP=1.42D-06 MaxDP=1.01D-04 DE=-1.66D-11 OVMax= 1.88D-06

 Cycle  29  Pass 1  IDiag  1:
 RMSU=  6.94D-07    CP:  1.00D+00  1.57D+00  3.00D+00  3.00D+00  3.00D+00
                    CP:  2.03D+00  3.00D+00  1.85D+00
 E= -744.300106922411     Delta-E=        0.000000000004 Rises=F Damp=F
 DIIS: error= 6.71D-09 at cycle  29 NSaved=  17.
 NSaved=17 IEnMin=16 EnMin= -744.300106922415     IErMin=17 ErrMin= 6.71D-09
 ErrMax= 6.71D-09  0.00D+00 EMaxC= 1.00D-01 BMatC= 1.13D-13 BMatP= 2.35D-13
 IDIUse=1 WtCom= 1.00D+00 WtEn= 0.00D+00
 Coeff-Com:  0.429D-05-0.338D-05-0.212D-05-0.114D-04-0.169D-04 0.176D-05
 Coeff-Com:  0.550D-04 0.392D-03 0.108D-02 0.210D-02 0.948D-03-0.552D-02
 Coeff-Com: -0.153D-01-0.111D+00 0.579D-02 0.302D+00 0.820D+00
 Coeff:      0.429D-05-0.338D-05-0.212D-05-0.114D-04-0.169D-04 0.176D-05
 Coeff:      0.550D-04 0.392D-03 0.108D-02 0.210D-02 0.948D-03-0.552D-02
 Coeff:     -0.153D-01-0.111D+00 0.579D-02 0.302D+00 0.820D+00
 Gap=     0.018 Goal=   None    Shift=    0.000
 Gap=     0.018 Goal=   None    Shift=    0.000
 RMSDP=1.31D-06 MaxDP=1.06D-04 DE= 4.32D-12 OVMax= 1.67D-06

 Cycle  30  Pass 1  IDiag  1:
 RMSU=  1.18D-07    CP:  1.00D+00  1.57D+00  3.00D+00  3.00D+00  3.00D+00
                    CP:  2.20D+00  3.00D+00  2.54D+00  2.42D+00
 E= -744.300106922415     Delta-E=       -0.000000000004 Rises=F Damp=F
 DIIS: error= 5.42D-09 at cycle  30 NSaved=  18.
 NSaved=18 IEnMin=16 EnMin= -744.300106922415     IErMin=18 ErrMin= 5.42D-09
 ErrMax= 5.42D-09  0.00D+00 EMaxC= 1.00D-01 BMatC= 4.57D-14 BMatP= 1.13D-13
 IDIUse=1 WtCom= 1.00D+00 WtEn= 0.00D+00
 Coeff-Com:  0.896D-06-0.105D-05-0.575D-06-0.499D-05-0.446D-06 0.344D-04
 Coeff-Com:  0.116D-03-0.188D-03-0.269D-04 0.458D-03 0.148D-02 0.296D-02
 Coeff-Com:  0.144D-02-0.623D-01-0.136D+00 0.132D-01 0.456D+00 0.722D+00
 Coeff:      0.896D-06-0.105D-05-0.575D-06-0.499D-05-0.446D-06 0.344D-04
 Coeff:      0.116D-03-0.188D-03-0.269D-04 0.458D-03 0.148D-02 0.296D-02
 Coeff:      0.144D-02-0.623D-01-0.136D+00 0.132D-01 0.456D+00 0.722D+00
 Gap=     0.018 Goal=   None    Shift=    0.000
 Gap=     0.018 Goal=   None    Shift=    0.000
 RMSDP=7.45D-07 MaxDP=6.78D-05 DE=-3.87D-12 OVMax= 9.26D-07

 Cycle  31  Pass 1  IDiag  1:
 RMSU=  1.74D-07    CP:  1.00D+00  1.57D+00  3.00D+00  3.00D+00  3.00D+00
                    CP:  2.29D+00  3.00D+00  2.86D+00  3.00D+00  1.89D+00
 E= -744.300106922419     Delta-E=       -0.000000000005 Rises=F Damp=F
 DIIS: error= 1.86D-09 at cycle  31 NSaved=  19.
 NSaved=19 IEnMin=19 EnMin= -744.300106922419     IErMin=19 ErrMin= 1.86D-09
 ErrMax= 1.86D-09  0.00D+00 EMaxC= 1.00D-01 BMatC= 5.48D-15 BMatP= 4.57D-14
 IDIUse=1 WtCom= 1.00D+00 WtEn= 0.00D+00
 Large coefficients: NSaved= 19 BigCof=    0.00 CofMax=   10.00 Det=-7.67D-15
 Inversion failed.  Reducing to 18 matrices.
 Large coefficients: NSaved= 18 BigCof=    0.00 CofMax=   10.00 Det=-7.68D-15
 Inversion failed.  Reducing to 17 matrices.
 Large coefficients: NSaved= 17 BigCof=    0.00 CofMax=   10.00 Det=-7.68D-15
 Inversion failed.  Reducing to 16 matrices.
 Large coefficients: NSaved= 16 BigCof=    0.00 CofMax=   10.00 Det=-7.88D-15
 Inversion failed.  Reducing to 15 matrices.
 Coeff-Com:  0.295D-05 0.125D-04 0.436D-04-0.156D-03-0.208D-03-0.208D-03
 Coeff-Com:  0.402D-03 0.242D-02 0.365D-02-0.802D-02-0.620D-01-0.440D-01
 Coeff-Com:  0.594D-01 0.339D+00 0.709D+00
 Coeff:      0.295D-05 0.125D-04 0.436D-04-0.156D-03-0.208D-03-0.208D-03
 Coeff:      0.402D-03 0.242D-02 0.365D-02-0.802D-02-0.620D-01-0.440D-01
 Coeff:      0.594D-01 0.339D+00 0.709D+00
 Gap=     0.018 Goal=   None    Shift=    0.000
 Gap=     0.018 Goal=   None    Shift=    0.000
 RMSDP=3.37D-07 MaxDP=3.27D-05 DE=-4.55D-12 OVMax= 4.30D-07

 Cycle  32  Pass 1  IDiag  1:
 RMSU=  8.58D-08    CP:  1.00D+00  1.57D+00  3.00D+00  3.00D+00  3.00D+00
                    CP:  2.34D+00  3.00D+00  2.92D+00  3.00D+00  2.70D+00
                    CP:  2.48D+00
 E= -744.300106922429     Delta-E=       -0.000000000010 Rises=F Damp=F
 DIIS: error= 1.49D-09 at cycle  32 NSaved=  16.
 NSaved=16 IEnMin=16 EnMin= -744.300106922429     IErMin=16 ErrMin= 1.49D-09
 ErrMax= 1.49D-09  0.00D+00 EMaxC= 1.00D-01 BMatC= 1.08D-15 BMatP= 5.48D-15
 IDIUse=1 WtCom= 1.00D+00 WtEn= 0.00D+00
 Large coefficients: NSaved= 16 BigCof=    0.00 CofMax=   10.00 Det=-1.34D-15
 Inversion failed.  Reducing to 15 matrices.
 Coeff-Com:  0.111D-05 0.218D-04-0.600D-04-0.881D-04-0.153D-03 0.858D-04
 Coeff-Com:  0.127D-02 0.244D-02-0.335D-03-0.363D-01-0.336D-01 0.124D-01
 Coeff-Com:  0.215D+00 0.540D+00 0.299D+00
 Coeff:      0.111D-05 0.218D-04-0.600D-04-0.881D-04-0.153D-03 0.858D-04
 Coeff:      0.127D-02 0.244D-02-0.335D-03-0.363D-01-0.336D-01 0.124D-01
 Coeff:      0.215D+00 0.540D+00 0.299D+00
 Gap=     0.018 Goal=   None    Shift=    0.000
 Gap=     0.018 Goal=   None    Shift=    0.000
 RMSDP=1.62D-07 MaxDP=9.68D-06 DE=-1.02D-11 OVMax= 2.01D-07

 Cycle  33  Pass 1  IDiag  1:
 RMSU=  2.51D-08    CP:  1.00D+00  1.57D+00  3.00D+00  3.00D+00  3.00D+00
                    CP:  2.35D+00  3.00D+00  2.92D+00  3.00D+00  3.00D+00
                    CP:  3.00D+00  2.43D+00
 E= -744.300106922457     Delta-E=       -0.000000000027 Rises=F Damp=F
 DIIS: error= 1.60D-09 at cycle  33 NSaved=  16.
 NSaved=16 IEnMin=16 EnMin= -744.300106922457     IErMin=15 ErrMin= 1.49D-09
 ErrMax= 1.60D-09  0.00D+00 EMaxC= 1.00D-01 BMatC= 1.40D-15 BMatP= 1.08D-15
 IDIUse=1 WtCom= 1.00D+00 WtEn= 0.00D+00
 Large coefficients: NSaved= 16 BigCof=    0.00 CofMax=   10.00 Det=-1.10D-16
 Inversion failed.  Reducing to 15 matrices.
 Coeff-Com:  0.152D-04-0.853D-04-0.137D-03-0.187D-03 0.103D-03 0.138D-02
 Coeff-Com:  0.256D-02 0.430D-02-0.280D-01-0.368D-01-0.322D-01 0.172D+00
 Coeff-Com:  0.653D+00 0.173D+01-0.147D+01
 Coeff:      0.152D-04-0.853D-04-0.137D-03-0.187D-03 0.103D-03 0.138D-02
 Coeff:      0.256D-02 0.430D-02-0.280D-01-0.368D-01-0.322D-01 0.172D+00
 Coeff:      0.653D+00 0.173D+01-0.147D+01
 Gap=     0.018 Goal=   None    Shift=    0.000
 Gap=     0.018 Goal=   None    Shift=    0.000
 RMSDP=4.51D-07 MaxDP=2.71D-05 DE=-2.71D-11 OVMax= 5.22D-07

 Cycle  34  Pass 1  IDiag  1:
 RMSU=  2.98D-08    CP:  1.00D+00  1.57D+00  3.00D+00  3.00D+00  3.00D+00
                    CP:  2.34D+00  3.00D+00  2.93D+00  3.00D+00  1.88D+00
                    CP:  1.76D+00 -1.79D+00 -9.71D-01
 E= -744.300106922426     Delta-E=        0.000000000031 Rises=F Damp=F
 DIIS: error= 1.03D-09 at cycle  34 NSaved=  16.
 NSaved=16 IEnMin=15 EnMin= -744.300106922457     IErMin=16 ErrMin= 1.03D-09
 ErrMax= 1.03D-09  0.00D+00 EMaxC= 1.00D-01 BMatC= 8.71D-16 BMatP= 1.08D-15
 IDIUse=1 WtCom= 1.00D+00 WtEn= 0.00D+00
 Large coefficients: NSaved= 16 BigCof=    0.00 CofMax=   10.00 Det=-1.08D-16
 Inversion failed.  Reducing to 15 matrices.
 Coeff-Com: -0.624D-04-0.994D-04-0.127D-03 0.712D-04 0.890D-03 0.155D-02
 Coeff-Com:  0.646D-02-0.570D-02-0.182D-01-0.538D-01 0.209D-01 0.289D+00
 Coeff-Com:  0.158D+01-0.155D+01 0.731D+00
 Coeff:     -0.624D-04-0.994D-04-0.127D-03 0.712D-04 0.890D-03 0.155D-02
 Coeff:      0.646D-02-0.570D-02-0.182D-01-0.538D-01 0.209D-01 0.289D+00
 Coeff:      0.158D+01-0.155D+01 0.731D+00
 Gap=     0.018 Goal=   None    Shift=    0.000
 Gap=     0.018 Goal=   None    Shift=    0.000
 RMSDP=1.96D-07 MaxDP=1.42D-05 DE= 3.07D-11 OVMax= 2.28D-07

 Cycle  35  Pass 1  IDiag  1:
 RMSU=  6.58D-08    CP:  1.00D+00  1.57D+00  3.00D+00  3.00D+00  3.00D+00
                    CP:  2.35D+00  3.00D+00  2.93D+00  3.00D+00  1.35D+00
                    CP:  1.41D+00 -3.00D+00 -1.83D+00  1.82D+00
 E= -744.300106922430     Delta-E=       -0.000000000005 Rises=F Damp=F
 DIIS: error= 4.37D-10 at cycle  35 NSaved=  16.
 NSaved=16 IEnMin=14 EnMin= -744.300106922457     IErMin=16 ErrMin= 4.37D-10
 ErrMax= 4.37D-10  0.00D+00 EMaxC= 1.00D-01 BMatC= 2.34D-16 BMatP= 8.71D-16
 IDIUse=1 WtCom= 1.00D+00 WtEn= 0.00D+00
 Large coefficients: NSaved= 16 BigCof=    0.00 CofMax=   10.00 Det=-4.18D-17
 Inversion failed.  Reducing to 15 matrices.
 Coeff-Com:  0.114D-04 0.492D-04 0.186D-04-0.190D-03-0.321D-03 0.102D-02
 Coeff-Com:  0.396D-02 0.277D-02-0.179D-01-0.288D-01-0.174D-01 0.502D+00
 Coeff-Com: -0.575D+00 0.450D+00 0.681D+00
 Coeff:      0.114D-04 0.492D-04 0.186D-04-0.190D-03-0.321D-03 0.102D-02
 Coeff:      0.396D-02 0.277D-02-0.179D-01-0.288D-01-0.174D-01 0.502D+00
 Coeff:     -0.575D+00 0.450D+00 0.681D+00
 Gap=     0.018 Goal=   None    Shift=    0.000
 Gap=     0.018 Goal=   None    Shift=    0.000
 RMSDP=6.46D-08 MaxDP=4.45D-06 DE=-4.55D-12 OVMax= 8.84D-08

 Cycle  36  Pass 1  IDiag  1:
 RMSU=  6.32D-09    CP:  1.00D+00  1.57D+00  3.00D+00  3.00D+00  3.00D+00
                    CP:  2.36D+00  3.00D+00  2.92D+00  3.00D+00  1.18D+00
                    CP:  1.38D+00 -3.00D+00 -2.21D+00  2.19D+00  1.74D+00
 E= -744.300106922389     Delta-E=        0.000000000041 Rises=F Damp=F
 DIIS: error= 1.33D-10 at cycle  36 NSaved=  16.
 NSaved=16 IEnMin=13 EnMin= -744.300106922457     IErMin=16 ErrMin= 1.33D-10
 ErrMax= 1.33D-10  0.00D+00 EMaxC= 1.00D-01 BMatC= 2.49D-17 BMatP= 2.34D-16
 IDIUse=1 WtCom= 1.00D+00 WtEn= 0.00D+00
 Large coefficients: NSaved= 16 BigCof=    0.00 CofMax=   10.00 Det=-2.73D-17
 Inversion failed.  Reducing to 15 matrices.
 Coeff-Com:  0.141D-04 0.117D-04-0.806D-04-0.145D-03 0.365D-03 0.205D-02
 Coeff-Com:  0.251D-02-0.327D-02-0.177D-01-0.725D-01-0.901D-01 0.438D-01
 Coeff-Com:  0.985D-01 0.363D+00 0.674D+00
 Coeff:      0.141D-04 0.117D-04-0.806D-04-0.145D-03 0.365D-03 0.205D-02
 Coeff:      0.251D-02-0.327D-02-0.177D-01-0.725D-01-0.901D-01 0.438D-01
 Coeff:      0.985D-01 0.363D+00 0.674D+00
 Gap=     0.018 Goal=   None    Shift=    0.000
 Gap=     0.018 Goal=   None    Shift=    0.000
 RMSDP=2.38D-08 MaxDP=1.08D-06 DE= 4.12D-11 OVMax= 3.52D-08

 Cycle  37  Pass 1  IDiag  1:
 RMSU=  2.51D-09    CP:  1.00D+00  1.57D+00  3.00D+00  3.00D+00  3.00D+00
                    CP:  2.37D+00  3.00D+00  2.92D+00  3.00D+00  1.14D+00
                    CP:  1.45D+00 -3.00D+00 -2.27D+00  2.40D+00  1.78D+00
                    CP:  2.34D+00
 E= -744.300106922421     Delta-E=       -0.000000000032 Rises=F Damp=F
 DIIS: error= 1.02D-10 at cycle  37 NSaved=  16.
 NSaved=16 IEnMin=12 EnMin= -744.300106922457     IErMin=16 ErrMin= 1.02D-10
 ErrMax= 1.02D-10  0.00D+00 EMaxC= 1.00D-01 BMatC= 1.13D-17 BMatP= 2.49D-17
 IDIUse=1 WtCom= 1.00D+00 WtEn= 0.00D+00
 Large coefficients: NSaved= 16 BigCof=    0.00 CofMax=   10.00 Det=-2.60D-17
 Inversion failed.  Reducing to 15 matrices.
 Coeff-Com: -0.228D-05-0.498D-04-0.724D-04-0.103D-03 0.102D-02 0.201D-02
 Coeff-Com:  0.393D-02-0.486D-02-0.533D-01-0.206D+00 0.190D+00-0.610D-01
 Coeff-Com:  0.835D-01 0.426D+00 0.619D+00
 Coeff:     -0.228D-05-0.498D-04-0.724D-04-0.103D-03 0.102D-02 0.201D-02
 Coeff:      0.393D-02-0.486D-02-0.533D-01-0.206D+00 0.190D+00-0.610D-01
 Coeff:      0.835D-01 0.426D+00 0.619D+00
 Gap=     0.018 Goal=   None    Shift=    0.000
 Gap=     0.018 Goal=   None    Shift=    0.000
 RMSDP=1.31D-08 MaxDP=1.01D-06 DE=-3.23D-11 OVMax= 1.80D-08

 Cycle  38  Pass 1  IDiag  1:
 RMSU=  2.01D-09    CP:  1.00D+00  1.57D+00  3.00D+00  3.00D+00  3.00D+00
                    CP:  2.37D+00  3.00D+00  2.91D+00  3.00D+00  1.09D+00
                    CP:  1.44D+00 -3.00D+00 -2.34D+00  2.56D+00  1.82D+00
                    CP:  3.00D+00  1.54D+00
 E= -744.300106922438     Delta-E=       -0.000000000016 Rises=F Damp=F
 DIIS: error= 7.09D-11 at cycle  38 NSaved=  16.
 NSaved=16 IEnMin=11 EnMin= -744.300106922457     IErMin=16 ErrMin= 7.09D-11
 ErrMax= 7.09D-11  0.00D+00 EMaxC= 1.00D-01 BMatC= 3.74D-18 BMatP= 1.13D-17
 IDIUse=1 WtCom= 1.00D+00 WtEn= 0.00D+00
 Large coefficients: NSaved= 16 BigCof=    0.00 CofMax=   10.00 Det=-1.14D-17
 Inversion failed.  Reducing to 15 matrices.
 Coeff-Com: -0.244D-04-0.169D-04-0.943D-04 0.470D-05 0.270D-03 0.380D-02
 Coeff-Com:  0.276D-02-0.180D-01-0.134D+00 0.139D+00-0.817D-01-0.590D-01
 Coeff-Com:  0.123D+00 0.466D+00 0.558D+00
 Coeff:     -0.244D-04-0.169D-04-0.943D-04 0.470D-05 0.270D-03 0.380D-02
 Coeff:      0.276D-02-0.180D-01-0.134D+00 0.139D+00-0.817D-01-0.590D-01
 Coeff:      0.123D+00 0.466D+00 0.558D+00
 Gap=     0.018 Goal=   None    Shift=    0.000
 Gap=     0.018 Goal=   None    Shift=    0.000
 RMSDP=7.30D-09 MaxDP=4.19D-07 DE=-1.61D-11 OVMax= 1.05D-08

 SCF Done:  E(UB3LYP) =  -744.300106922     A.U. after   38 cycles
            NFock= 38  Conv=0.73D-08     -V/T= 2.0041
 <Sx>= 0.0000 <Sy>= 0.0000 <Sz>= 0.0000 <S**2>=-0.0000 S=-0.0000
 <L.S>=  0.00000000000    
 KE= 7.412599360641D+02 PE=-3.931047313431D+03 EE= 1.363492640081D+03
 Annihilation of the first spin contaminant:
 S**2 before annihilation    -0.0000,   after    -0.0000
 Leave Link  502 at Wed Dec 27 20:43:46 2023, MaxMem=  4026531840 cpu:            3125.6 elap:             392.7
 (Enter /sysapps/ubuntu-applications/gaussian/Gaussian/AVX2/g16/l601.exe)
 Copying SCF densities to generalized density rwf, IOpCl= 1 IROHF=0.

 **********************************************************************

            Population analysis using the SCF density.

 **********************************************************************

 Alpha  occ. eigenvalues --  -18.79712 -18.79125 -14.09740  -9.96966  -9.95477
 Alpha  occ. eigenvalues --   -9.94904  -9.93845  -9.93732  -9.93201  -9.93044
 Alpha  occ. eigenvalues --   -9.92965  -9.92914  -9.91907  -9.91483  -9.91446
 Alpha  occ. eigenvalues --   -9.91441  -9.91122  -0.71505  -0.70750  -0.68707
 Alpha  occ. eigenvalues --   -0.60618  -0.59211  -0.52786  -0.50465  -0.49946
 Alpha  occ. eigenvalues --   -0.48135  -0.41258  -0.39341  -0.36766  -0.34670
 Alpha  occ. eigenvalues --   -0.30788  -0.29521  -0.28409  -0.26897  -0.23754
 Alpha  occ. eigenvalues --   -0.22186  -0.20993  -0.19897  -0.18238  -0.17827
 Alpha  occ. eigenvalues --   -0.16395  -0.15535  -0.15167  -0.14351  -0.13440
 Alpha  occ. eigenvalues --   -0.12889  -0.10438  -0.10115  -0.09785  -0.09375
 Alpha  occ. eigenvalues --   -0.07668  -0.05695  -0.01223  -0.00014   0.00381
 Alpha  occ. eigenvalues --    0.02415   0.02726   0.03509   0.12777
 Alpha virt. eigenvalues --    0.14557   0.15636   0.17190   0.17396   0.19135
 Alpha virt. eigenvalues --    0.19535   0.20051   0.20766   0.21844   0.22287
 Alpha virt. eigenvalues --    0.23006   0.23844   0.24785   0.25308   0.26221
 Alpha virt. eigenvalues --    0.26582   0.26714   0.27473   0.27679   0.28283
 Alpha virt. eigenvalues --    0.28498   0.28826   0.29239   0.29292   0.29793
 Alpha virt. eigenvalues --    0.30349   0.30991   0.31239   0.32070   0.32258
 Alpha virt. eigenvalues --    0.32827   0.33007   0.33220   0.33482   0.33717
 Alpha virt. eigenvalues --    0.33963   0.34186   0.34230   0.34838   0.35562
 Alpha virt. eigenvalues --    0.35956   0.36647   0.37267   0.37611   0.37800
 Alpha virt. eigenvalues --    0.38199   0.39101   0.40588   0.40783   0.41026
 Alpha virt. eigenvalues --    0.41486   0.41572   0.42244   0.42670   0.42751
 Alpha virt. eigenvalues --    0.43199   0.44141   0.44648   0.44804   0.45311
 Alpha virt. eigenvalues --    0.46522   0.46940   0.47039   0.47618   0.47719
 Alpha virt. eigenvalues --    0.48130   0.48583   0.49339   0.49516   0.49949
 Alpha virt. eigenvalues --    0.50366   0.51049   0.51576   0.52072   0.52349
 Alpha virt. eigenvalues --    0.52495   0.53328   0.54056   0.54302   0.54528
 Alpha virt. eigenvalues --    0.55238   0.55343   0.55811   0.56125   0.56720
 Alpha virt. eigenvalues --    0.56847   0.57646   0.58173   0.58702   0.60124
 Alpha virt. eigenvalues --    0.60385   0.61167   0.61638   0.63698   0.64954
 Alpha virt. eigenvalues --    0.66185   0.66612   0.67711   0.70228   0.72266
 Alpha virt. eigenvalues --    0.73177   0.73969   0.75614   0.76250   0.77288
 Alpha virt. eigenvalues --    0.77920   0.78876   0.79602   0.80278   0.80916
 Alpha virt. eigenvalues --    0.81466   0.81528   0.82062   0.82625   0.83283
 Alpha virt. eigenvalues --    0.84004   0.84586   0.85702   0.86687   0.88097
 Alpha virt. eigenvalues --    0.88883   0.88922   0.89752   0.90610   0.91010
 Alpha virt. eigenvalues --    0.91135   0.92014   0.92298   0.92636   0.94363
 Alpha virt. eigenvalues --    0.95620   0.96789   0.96915   0.98850   0.99178
 Alpha virt. eigenvalues --    0.99587   1.01478   1.01881   1.02534   1.03302
 Alpha virt. eigenvalues --    1.04155   1.04912   1.05017   1.05913   1.07065
 Alpha virt. eigenvalues --    1.07416   1.09058   1.10427   1.11344   1.13551
 Alpha virt. eigenvalues --    1.14001   1.14931   1.16101   1.17814   1.17900
 Alpha virt. eigenvalues --    1.18830   1.19272   1.19698   1.20194   1.20847
 Alpha virt. eigenvalues --    1.23134   1.23967   1.24790   1.25522   1.26290
 Alpha virt. eigenvalues --    1.26886   1.27455   1.27849   1.30430   1.30560
 Alpha virt. eigenvalues --    1.31392   1.32754   1.34203   1.35013   1.37775
 Alpha virt. eigenvalues --    1.38674   1.39960   1.41644   1.41894   1.43083
 Alpha virt. eigenvalues --    1.43207   1.45701   1.50417   1.50976   1.52051
 Alpha virt. eigenvalues --    1.52746   1.55573   1.56545   1.58219   1.59962
 Alpha virt. eigenvalues --    1.60899   1.61650   1.64521   1.68417   1.70837
 Alpha virt. eigenvalues --    1.72502   1.73523   1.74464   1.74828   1.75669
 Alpha virt. eigenvalues --    1.76065   1.77532   1.77816   1.78746   1.79775
 Alpha virt. eigenvalues --    1.80091   1.80896   1.83505   1.85323   1.86218
 Alpha virt. eigenvalues --    1.86645   1.88353   1.89302   1.91826   1.93403
 Alpha virt. eigenvalues --    1.95394   1.95640   1.96196   1.97365   1.97486
 Alpha virt. eigenvalues --    1.99292   2.01282   2.02834   2.03162   2.05974
 Alpha virt. eigenvalues --    2.06390   2.08288   2.10632   2.11666   2.13294
 Alpha virt. eigenvalues --    2.15011   2.15863   2.16184   2.17675   2.18613
 Alpha virt. eigenvalues --    2.19827   2.20475   2.20827   2.21608   2.22580
 Alpha virt. eigenvalues --    2.22673   2.24507   2.25228   2.26901   2.28931
 Alpha virt. eigenvalues --    2.30409   2.32205   2.32538   2.34344   2.37774
 Alpha virt. eigenvalues --    2.40657   2.41209   2.43927   2.47593   2.49424
 Alpha virt. eigenvalues --    2.52018   2.53223   2.54307   2.58264   2.59487
 Alpha virt. eigenvalues --    2.62455   2.64407   2.66411   2.67132   2.70971
 Alpha virt. eigenvalues --    2.71484   2.72879   2.78832   2.81308   2.82574
 Alpha virt. eigenvalues --    2.83210   2.84713   2.86996   2.89282   2.90672
 Alpha virt. eigenvalues --    2.91792   2.93355   2.94700   2.96643   2.97161
 Alpha virt. eigenvalues --    2.98224   2.99036   2.99694   3.01599   3.01985
 Alpha virt. eigenvalues --    3.02319   3.02853   3.04176   3.04928   3.06938
 Alpha virt. eigenvalues --    3.07962   3.09111   3.09614   3.11078   3.13078
 Alpha virt. eigenvalues --    3.13559   3.14198   3.15445   3.15988   3.16904
 Alpha virt. eigenvalues --    3.20897   3.21808   3.23012   3.23309   3.25757
 Alpha virt. eigenvalues --    3.29054   3.34423   3.36358   3.40402   3.40955
 Alpha virt. eigenvalues --    3.45131   3.46192   3.46869   3.50850   3.52047
 Alpha virt. eigenvalues --    3.55845   3.59220   3.59363   3.59438   3.61561
 Alpha virt. eigenvalues --    3.63926   3.67561   3.71222   3.75601   3.75980
 Alpha virt. eigenvalues --    3.78881   3.79643   3.81931   3.82426   3.84088
 Alpha virt. eigenvalues --    3.91957   4.03025   4.06295   4.11665   4.13530
 Alpha virt. eigenvalues --    4.27354   4.29734   4.31095   4.33576   4.43353
 Alpha virt. eigenvalues --    4.45892   4.55360   4.59688   4.73719   4.94854
 Alpha virt. eigenvalues --    5.06792   5.08665   5.09926   5.19155   5.36443
 Alpha virt. eigenvalues --    5.38022   5.54846   5.57708   6.02551   6.09660
 Alpha virt. eigenvalues --   23.77274  23.94995  24.14142  24.15666  24.17231
 Alpha virt. eigenvalues --   24.20982  24.22096  24.22935  24.24181  24.28650
 Alpha virt. eigenvalues --   24.35939  24.36548  24.42093  24.42382  35.84132
 Alpha virt. eigenvalues --   50.33018  50.38992
[...]
 462,-0.00002332,-0.00073547,0.00010641,0.00002368,0.00008768,-0.000212
 15,-0.00002992,-0.00031186,0.00024203,0.00001404,0.00029846,-0.0004343
 5,-0.00008857,0.00009823,0.00140027,0.00031099,0.00041727,0.00008712,0
 .00014635,-0.00290187,0.00081126,-0.00007786,0.00265213,-0.00279591,-0
 .00068550,0.00140620,0.00388092,0.00037986,-0.00213369,0.00352036,-0.0
 1103405,0.02689932,0.06420091,0.02025936,-0.05136627,0.14378736,-0.006
 02353,-0.00172171,-0.01241807,-0.00180178,0.00133233,-0.00022181,-0.00
 015879,0.00092823,-0.00058029,-0.00063875,0.00017495,-0.00062220,0.000
 52133,-0.00002178,0.00051130,-0.00012718,-0.00001613,-0.00047569,0.000
 57699,0.00016693,0.00009591,-0.00036814,-0.00007060,-0.00000431,0.0002
 5211,0.00007331,-0.00003791,-0.00011143,-0.00004293,0.00005944,0.00017
 392,0.00003421,-0.00004038,-0.00037158,-0.00020660,-0.00005299,-0.0001
 3795,0.00006306,0.00083247,-0.00005999,-0.00005587,-0.00035930,0.00119
 723,-0.00055438,0.00032349,0.00046209,-0.00013443,-0.00118017,-0.00117
 208,0.00120037,-0.01868809,-0.01263710,0.05067685,-0.02205404,0.097038
 47,-0.37874290,-0.00449976,0.00419377,-0.01549326,-0.00249180,0.001209
 46,0.00214702,-0.00001590,0.00045848,-0.00074473,0.00092527,-0.0000954
 4,0.00026031,-0.00127516,-0.00042085,0.00065775,0.00016795,0.00022872,
 -0.00071710,0.00052137,0.00021046,-0.00093637,-0.00009146,-0.00009317,
 0.00007653,-0.00012423,0.00004208,-0.00045649,0.00024540,0.00001185,0.
 00041119,-0.00040740,-0.00004869,0.00004195,0.00128635,0.00006935,0.00
 046695,-0.00020887,0.00065952,-0.00202401,0.00055119,-0.00019832,0.001
 96891,-0.00240119,-0.00137642,0.00000424,0.00592475,-0.00102769,0.0021
 7935,-0.00436691,0.00941800,-0.01641459,0.02937960,-0.11095179,0.40661
 655,0.00099700,0.00042006,-0.00056359,0.00246276,0.00148279,-0.0040252
 3,-0.20797163,-0.05408331,0.12091609,-0.01938497,-0.00571517,0.0201713
 6,-0.00186698,-0.00221634,-0.00441409,0.00005885,-0.00019103,0.0011185
 2,-0.00010246,-0.00023941,0.00039160,-0.00140712,0.00023004,0.00005400
 ,0.00032743,-0.00000144,0.00016710,-0.00020670,-0.00011507,0.00026955,
 -0.00008867,0.00002213,-0.00028265,0.00016133,-0.00001627,-0.00000016,
 -0.00046410,-0.00009005,-0.00034698,0.00056514,-0.00006197,0.00037980,
 -0.00030046,0.00013975,-0.00039242,-0.00002509,0.00011923,-0.00098733,
 0.00120341,0.00023031,-0.00090482,0.00043425,-0.00004139,0.00032416,0.
 00028937,0.00009386,0.00028620,0.22418791,-0.00058336,-0.00151082,0.00
 032791,-0.00097783,0.00035941,-0.00026446,-0.05411084,-0.04145496,0.03
 819953,-0.00201058,0.00010511,0.00398317,-0.00291765,0.00770043,0.0002
 1544,-0.00005293,0.00088504,0.00062073,0.00006123,0.00030114,0.0001723
 9,0.00031235,-0.00132016,0.00001087,-0.00018567,0.00012375,0.00004547,
 0.00013639,0.00006737,0.00005257,-0.00015454,-0.00006673,-0.00000010,0
 .00019317,0.00020075,-0.00005027,-0.00047503,-0.00003208,0.00012484,-0
 .00054190,-0.00082037,0.00086562,0.00000407,0.00001862,-0.00075163,0.0
 0144673,0.00027427,-0.00114833,-0.00105929,0.00306277,0.00057146,0.001
 00481,0.00023964,-0.00006640,0.00004972,-0.00053218,-0.00015192,0.0586
 1681,0.03675100,0.00177514,-0.00030891,0.00227656,0.02631151,0.0063631
 6,-0.01249829,0.11950772,0.03911403,-0.15267994,-0.01010819,-0.0035426
 0,0.01023116,-0.00334818,0.00027291,-0.00075656,0.00018653,0.00004890,
 0.00136685,-0.00001959,0.00014991,-0.00102336,0.00043556,-0.00014869,-
 0.00028997,-0.00025570,0.00001411,0.00005207,0.00008999,0.00003281,-0.
 00013801,0.00000233,-0.00001805,0.00013606,-0.00003062,0.00000893,0.00
 002179,0.00039540,0.00012142,0.00017110,0.00004760,0.00006101,-0.00093
 556,0.00051480,-0.00004300,0.00104119,-0.00143997,-0.00039420,0.000441
 77,-0.00258678,0.00012878,-0.00594881,-0.00135913,0.00074642,-0.000427
 43,-0.00025523,-0.00013117,0.00016495,-0.13160409,-0.04240798,0.158494
 73,0.00026431,0.00013829,-0.00131042,-0.00404549,-0.00268106,-0.000969
 90,-0.00071090,0.00111017,-0.02779761,-0.06010922,-0.00182967,-0.03968
 369,0.00881800,-0.00084763,0.02432539,-0.00113026,-0.00008916,0.004197
 16,0.00049359,0.00050304,-0.00347987,0.00165331,0.00047613,-0.00133520
 ,-0.00061014,-0.00014309,-0.00015389,0.00024124,0.00009136,-0.00043354
 ,-0.00009486,-0.00004645,0.00033452,0.00012520,0.00003938,-0.00022687,
 0.00014332,-0.00006148,0.00049982,0.00080869,0.00024234,0.00118228,-0.
 00041665,-0.00016987,0.00030610,-0.00386304,-0.00182866,0.00180426,-0.
 00088004,0.00000567,0.00019578,0.00000096,-0.00000936,0.00009081,-0.00
 035910,-0.00005447,-0.00018181,0.00093758,0.00131146,0.00065839,0.0587
 9037,-0.00025143,0.00037226,-0.00001229,-0.00239570,0.00800799,0.00048
 192,-0.00146505,0.00348787,-0.00497485,-0.00177437,-0.03905280,0.01188
 278,0.00101940,0.00439766,0.00640159,0.00046990,-0.00284458,0.00080933
 ,0.00041065,-0.00065861,-0.00082403,0.00028115,0.00007937,-0.00027172,
 -0.00011578,0.00006725,-0.00001484,0.00002902,0.00002592,-0.00007788,-
 0.00001550,-0.00001797,0.00004979,0.00002017,0.00002105,-0.00002571,-0
 .00001968,0.00002066,0.00008288,0.00029813,-0.00022166,0.00022740,-0.0
 0012534,0.00002133,0.00008416,-0.00195451,0.00459700,0.00073244,0.0001
 1708,-0.00100958,0.00000588,0.00006587,-0.00004240,-0.00018148,-0.0001
 2083,-0.00017573,-0.00027088,0.00168138,-0.00483364,-0.00042551,0.0037
 2101,0.02841300,0.00015906,0.00015780,-0.00045757,-0.00210354,0.000017
 42,0.00209731,0.00110127,0.00086445,-0.00688075,-0.03831140,0.01206498
 ,-0.32207059,-0.00193557,0.00108220,-0.01797652,-0.00186373,-0.0001983
 3,-0.00327129,-0.00234907,-0.00070275,0.00223111,0.00008463,0.00000232
 ,0.00010198,0.00002418,0.00001801,-0.00003169,-0.00001599,-0.00000492,
 0.00002644,0.00013007,0.00002930,-0.00000568,-0.00019423,-0.00005139,0
 .00011719,0.00038063,0.00011362,-0.00009533,-0.00093933,-0.00025395,-0
 .00101621,0.00043163,0.00015132,-0.00002755,0.00309560,0.00090110,0.00
 009618,0.00086059,0.00004705,0.00065317,-0.00003001,-0.00003233,-0.000
 00854,-0.00014340,-0.00001473,-0.00008690,-0.00032093,-0.00051248,0.00
 088116,0.04198236,-0.01361351,0.34579958,0.00002050,-0.00010327,0.0000
 3134,0.00001137,-0.00001530,-0.00025555,0.00024105,0.00001480,0.000256
 55,-0.00042809,-0.00010999,0.00025869,0.00164636,0.00024874,0.00084979
 ,-0.00180805,0.00043314,-0.00435884,0.00202686,0.00033847,0.00338103,0
 .00126828,0.00183982,-0.02997751,-0.05808993,-0.00172930,-0.03088219,0
 .00569047,-0.00144667,0.02446684,-0.00284102,-0.00235012,0.00202765,-0
 .00097690,-0.00005419,0.00012781,-0.00478817,-0.00198518,-0.00034874,0
 .00064592,0.00039662,-0.00157909,-0.00060174,-0.00014135,-0.00008977,-
 0.00000866,-0.00000614,-0.00043949,0.00006847,0.00002807,0.00021918,-0
 .00009322,0.00006792,0.00003530,0.00000438,0.00002512,-0.00002311,0.00
 000870,0.00002802,0.00001863,-0.00012747,-0.00003253,0.00002399,0.0569
 4229,-0.00001591,-0.00006178,-0.00000035,0.00008131,-0.00001451,-0.000
 06884,0.00000426,0.00009346,0.00007796,-0.00007810,0.00002311,0.000047
 74,0.00035562,-0.00006193,0.00021102,0.00003983,-0.00249946,-0.0008795
 9,0.00036457,-0.00086611,0.00055372,-0.00029694,0.00468403,-0.00470018
 ,-0.00166264,-0.03876814,0.01653607,0.00098522,0.00258581,0.00616616,-
 0.00251581,0.00759788,0.00101465,0.00002906,-0.00093020,-0.00011926,-0
 .00190577,0.00506330,0.00027453,0.00019265,-0.00059564,-0.00023809,-0.
 00013306,0.00011266,-0.00006185,0.00007796,0.00017702,-0.00014150,-0.0
 0005570,0.00004000,0.00004111,-0.00002191,0.00001693,0.00000414,0.0000
 0202,0.00000688,0.00001644,0.00000840,-0.00004565,-0.00000241,-0.00003
 149,0.00001737,0.00000543,0.00328218,0.02847218,0.00016038,0.00000901,
 0.00004100,-0.00019159,-0.00006319,0.00002049,-0.00002262,-0.00000451,
 0.00000164,0.00002772,0.00003096,-0.00008882,-0.00037427,-0.00008854,-
 0.00008020,0.00143239,0.00029285,-0.00284751,0.00258936,0.00038635,0.0
 0099553,-0.00363492,0.00053524,-0.01112746,-0.03245427,0.01628193,-0.3
 2242665,-0.00478088,0.00031044,-0.01260975,0.00350052,0.00128863,0.000
 63275,-0.00043867,-0.00020055,0.00082382,-0.00191687,-0.00008974,0.001
 08926,0.00057354,0.00011413,-0.00074420,-0.00027756,-0.00004317,-0.000
 03612,-0.00032849,-0.00003869,0.00010182,0.00017278,0.00002609,0.00000
 454,-0.00008260,0.00000081,0.00002192,-0.00003852,0.00000696,-0.000029
 19,-0.00001315,0.00000619,-0.00001450,0.00001333,0.00000115,0.00003836
 ,0.03566415,-0.01840303,0.34608106,0.00029651,0.00004709,0.00006658,-0
 .00030618,-0.00013347,0.00006924,-0.00014698,-0.00001072,-0.00000400,0
 .00006628,-0.00000621,-0.00024162,-0.00078700,0.00005228,0.00047933,-0
 .00066672,-0.00015550,-0.00153275,-0.00000499,-0.00007050,0.00007443,-
 0.00046865,-0.00206408,0.00447145,-0.02063144,-0.00313093,-0.01331659,
 -0.26845197,-0.04154295,-0.09347038,-0.00242868,-0.00026699,0.00198105
 ,0.00190621,-0.00035700,-0.00158015,0.00057987,0.00008391,0.00108325,0
 .00006856,0.00015442,-0.00034422,-0.00011810,-0.00002928,0.00023720,-0
 .00028430,-0.00005910,0.00024858,0.00022882,0.00001554,-0.00004844,-0.
 00012626,-0.00000417,0.00004143,-0.00006723,0.00000486,-0.00005040,-0.
 00002431,0.00000725,-0.00003335,0.00000596,0.00000592,0.00001760,0.001
 03023,0.00115183,0.00063143,0.28982039,0.00001257,0.00003088,0.0000085
 5,-0.00006985,0.00005507,0.00003060,-0.00002655,-0.00009593,0.00001222
 ,-0.00004580,0.00026675,-0.00001325,0.00007448,-0.00114276,0.00003225,
 -0.00034164,0.00051127,-0.00031012,-0.00003810,0.00030733,0.00002443,-
 0.00186147,0.00740069,0.00173304,-0.00578013,-0.00036838,-0.00344884,-
 0.04138819,-0.03074579,-0.01283703,0.00217569,-0.00148122,0.00064039,-
 0.00050779,0.00437921,0.00053935,0.00006618,-0.00032933,0.00020883,0.0
 0023386,-0.00055906,-0.00005491,-0.00000208,-0.00009337,-0.00001641,-0
 .00009595,0.00012554,0.00004400,0.00004847,0.00004192,0.00002580,0.000
 00291,-0.00001589,-0.00002116,-0.00000865,-0.00000405,-0.00000951,0.00
 001179,0.00000099,-0.00001482,0.00000922,-0.00002578,-0.00000237,0.001
 25214,-0.00463830,-0.00035688,0.04591129,0.02744760,0.00018024,0.00001
 696,0.00006680,-0.00010780,-0.00006214,-0.00017222,0.00002223,0.000019
 22,0.00012524,0.00001638,0.00002678,0.00005699,0.00035667,-0.00003864,
 -0.00004217,-0.00007851,-0.00008330,0.00097660,-0.00000774,0.00004739,
 -0.00024053,0.00271880,0.00139876,-0.00218751,0.01785894,0.00278038,0.
 01052889,-0.09347763,-0.01286844,-0.09749581,-0.02969698,-0.00558448,-
 0.00556982,0.00105815,0.00102102,-0.00630135,0.00083379,0.00020312,-0.
 00026774,-0.00036748,-0.00007856,-0.00017325,-0.00014629,-0.00007115,0
 .00036343,0.00000401,-0.00000887,-0.00015369,-0.00002320,0.00001692,0.
 00002842,-0.00007862,0.00001191,0.00002871,-0.00003024,0.00000041,-0.0
 0003259,0.00002302,0.00000751,-0.00001118,-0.00001922,-0.00000380,0.00
 000030,-0.00057444,-0.00058960,0.00094717,0.10194745,0.01405062,0.0989
 6678,0.00023507,0.00001860,0.00007465,-0.00036440,-0.00011950,0.000083
 56,-0.00003561,0.00001319,-0.00011104,0.00008311,0.00002771,-0.0000107
 4,-0.00019936,-0.00009002,-0.00020843,0.00024671,0.00013121,0.00012740
 ,-0.00011003,-0.00000334,-0.00003455,-0.00009659,0.00020312,-0.0011471
 3,0.00155749,-0.00058925,-0.00064842,0.00454621,0.00153053,-0.00458658
 ,-0.20800883,-0.04589023,0.12014856,-0.01987087,-0.00596397,0.02133619
 ,-0.00245145,-0.00169199,-0.00463790,-0.00015744,-0.00017416,0.0016820
 3,-0.00000654,-0.00007942,-0.00001576,-0.00109357,-0.00004266,-0.00016
 231,0.00024766,0.00000576,0.00018005,-0.00013170,-0.00000371,0.0000239
 2,-0.00006524,0.00001003,-0.00005153,0.00000126,0.00001432,-0.00002015
 ,-0.00000931,-0.00000151,0.00000771,0.00005526,-0.00006561,-0.00023401
 ,0.00078075,0.00044145,0.00093011,0.22378320,0.00002896,0.00000601,0.0
 0002732,-0.00011498,0.00008123,0.00000784,0.00001125,-0.00003549,-0.00
 001458,-0.00001810,0.00008287,0.00001102,-0.00006725,0.00013811,-0.000
 02064,0.00012881,-0.00061773,0.00001568,-0.00002703,-0.00005853,-0.000
 05627,0.00014546,-0.00036278,-0.00031224,-0.00036289,0.00447054,0.0006
 9325,-0.00093927,-0.00164286,-0.00007207,-0.04600954,-0.03676342,0.034
 01189,-0.00333866,0.00009906,0.00359373,-0.00188458,0.00781268,-0.0002
 4922,-0.00011716,0.00042402,0.00035763,-0.00007064,0.00033400,0.000033
 57,-0.00000147,-0.00118739,-0.00013877,0.00004827,0.00015159,0.0000877
 0,0.00000362,-0.00002141,-0.00001070,-0.00000785,0.00000591,-0.0000226
 2,-0.00000143,0.00000782,-0.00000328,-0.00000179,-0.00000595,-0.000000
 47,-0.00019095,0.00048364,0.00004936,0.00057700,-0.00165761,-0.0000286
 1,0.05104756,0.03309431,-0.00023064,-0.00000663,-0.00005750,0.00018736
 ,0.00005753,0.00013766,-0.00004422,0.00001609,-0.00008571,0.00007245,-
 0.00001974,0.00001688,-0.00002145,0.00002257,-0.00007365,0.00030532,0.
 00007518,-0.00031192,0.00026334,0.00001488,0.00031995,-0.00093010,-0.0
 0022328,0.00028051,-0.00326009,0.00019095,-0.00590618,0.02699927,0.006
 16401,-0.01201446,0.12019708,0.03406107,-0.15266629,-0.00980916,-0.002
 65529,0.00963327,-0.00290183,0.00011983,-0.00025066,0.00038597,0.00003
 875,0.00049409,-0.00007492,0.00004183,-0.00022648,-0.00006184,-0.00014
 642,0.00006838,-0.00009149,0.00003326,0.00002738,0.00011445,-0.0000169
 1,-0.00003525,0.00005594,-0.00000943,0.00004581,-0.00000536,-0.0000153
 2,0.00001886,-0.00000677,-0.00000139,0.00000357,0.00122693,0.00033898,
 -0.00067219,-0.00084509,-0.00036379,0.00091048,-0.13220679,-0.03736261
 ,0.15941843,-0.00010653,-0.00002160,-0.00004882,0.00028809,0.00010330,
 -0.00035678,-0.00015197,-0.00003197,0.00024377,0.00016304,0.00006749,-
 0.00019324,0.00009505,-0.00002307,0.00047446,0.00074227,0.00020817,0.0
 0125723,-0.00044645,-0.00014824,0.00016623,-0.00381384,-0.00193456,0.0
 0140890,-0.00077000,-0.00000011,0.00031435,-0.00405563,-0.00231823,-0.
 00097037,-0.00088447,0.00143610,-0.02784451,-0.06075795,-0.00121162,-0
 .04245931,0.00923838,-0.00112102,0.02448141,-0.00135542,-0.00016816,0.
 00414071,0.00054669,0.00057463,-0.00332547,0.00160459,0.00051188,-0.00
 136807,-0.00059631,-0.00015925,-0.00017124,0.00005776,0.00002319,0.000
 00505,0.00001766,-0.00001200,0.00002152,-0.00000046,-0.00003926,-0.000
 01106,0.00002820,0.00000745,-0.00001341,0.00006664,0.00020015,0.000030
 09,-0.00024665,-0.00007390,-0.00134800,0.00106862,0.00116430,0.0006555
 1,0.05940759,-0.00003234,-0.00005305,-0.00000210,0.00007242,-0.0000394
 2,-0.00009192,-0.00004360,0.00004072,0.00005210,0.00006314,0.00000104,
 -0.00005885,-0.00002877,0.00005795,0.00011192,0.00032987,-0.00066164,0
 .00026567,-0.00014239,0.00016480,0.00008265,-0.00202088,0.00468902,0.0
 0067211,-0.00001631,-0.00092109,-0.00005336,-0.00224095,0.00773060,0.0
 0034247,-0.00088188,0.00312472,-0.00479505,-0.00134819,-0.03857357,0.0
 1408567,0.00092116,0.00448348,0.00666026,0.00043853,-0.00255508,0.0009
 4675,0.00047701,-0.00082218,-0.00095316,0.00036842,-0.00002817,-0.0003
 1720,-0.00017482,0.00017810,0.00000946,0.00002902,0.00001527,-0.000000
 91,0.00000002,0.00000275,-0.00000620,-0.00000133,-0.00001492,0.0000012
 0,0.00000490,0.00000693,0.00000272,0.00021028,-0.00089975,-0.00005762,
 -0.00018895,0.00059382,-0.00018932,0.00126146,-0.00480882,-0.00034950,
 0.00298096,0.02827760,-0.00015374,-0.00002990,-0.00004553,0.00012974,0
 .00004866,0.00009882,0.00010765,0.00000236,-0.00005419,-0.00014788,-0.
 00003641,0.00009610,0.00027412,0.00006509,-0.00010874,-0.00088461,-0.0
 0017156,-0.00091237,0.00037489,0.00010952,-0.00016193,0.00301730,0.001
 00285,0.00014531,0.00098457,0.00008830,0.00061867,-0.00244259,0.000013
 59,0.00190498,0.00137695,0.00103703,-0.00664234,-0.04099076,0.01438842
 ,-0.32048086,-0.00191752,0.00145922,-0.01817947,-0.00183041,-0.0003121
 7,-0.00339549,-0.00246461,-0.00075204,0.00232525,0.00003206,-0.0000189
 0,0.00011670,-0.00000732,0.00004155,-0.00000468,0.00006218,0.00000179,
 -0.00002115,0.00003940,0.00000033,0.00002896,-0.00000097,0.00000296,0.
 00001979,-0.00000951,-0.00000217,-0.00001683,-0.00005669,-0.00007947,-
 0.00011445,0.00010298,0.00009882,-0.00036548,-0.00051827,-0.00059294,0
 .00094295,0.04488721,-0.01635650,0.34418346,0.00305312,0.00119304,0.00
 151679,0.00365360,-0.00275058,0.02266940,-0.00287835,-0.00199243,0.002
 29128,-0.00097930,-0.00000258,-0.00004942,-0.00496745,-0.00204473,-0.0
 0052333,0.00079178,0.00023896,-0.00132423,-0.00061985,-0.00008416,-0.0
 0037968,-0.00007254,0.00002506,-0.00059507,0.00026442,0.00006167,0.000
 19648,-0.00025216,-0.00004548,-0.00026085,0.00030214,0.00003286,0.0003
 5812,-0.00052921,-0.00013176,0.00028309,0.00204306,0.00025928,0.001047
 82,-0.00212500,0.00044935,-0.00474412,0.00223782,0.00037620,0.00378294
 ,0.00143918,0.00235929,-0.02943115,-0.05694513,-0.00156966,-0.02993473
 ,-0.00008075,0.00019808,0.00000411,-0.00051025,0.00009787,-0.00106603,
 0.00020793,-0.00007746,0.00112843,0.00004575,0.00014514,-0.00007870,0.
 00003649,0.00000787,-0.00000729,-0.00002411,0.00000004,0.00000634,-0.0
 0000440,-0.00000164,0.00002615,-0.00013890,-0.00003676,0.00003582,0.05
 605212,0.00050055,-0.00436290,-0.00104039,-0.00010708,0.00401079,0.006
 38130,-0.00165185,0.00582411,0.00082486,-0.00053512,-0.00108251,0.0000
 1997,-0.00134827,0.00466288,-0.00013083,0.00019523,-0.00013551,-0.0005
 8732,-0.00014164,0.00004420,0.00017885,-0.00023798,0.00003915,0.000086
 74,0.00015306,0.00001970,0.00001727,-0.00009531,-0.00001715,0.00006559
 ,0.00008047,0.00003608,-0.00006985,-0.00014782,0.00012678,0.00010198,0
 .00028911,-0.00010648,-0.00005591,0.00050486,-0.00232242,-0.00099934,0
 .00033368,-0.00106283,0.00043134,-0.00075051,0.00371770,-0.00407978,-0
 .00082259,-0.03622610,0.02169327,0.00086859,-0.00039100,-0.00042315,-0
 .00024271,0.00023690,0.00111692,-0.00028232,0.00053340,0.00037700,0.00
 014118,-0.00064697,-0.00007050,-0.00000032,0.00000718,0.00000582,0.000
 00846,-0.00000361,0.00000591,0.00001044,-0.00002981,-0.00000462,-0.000
 01463,0.00001089,-0.00000848,0.00329253,0.02711755,-0.00197225,-0.0010
 5992,0.00135575,-0.00503267,0.00089372,-0.01517746,0.00311962,0.001178
 58,0.00068978,-0.00016159,-0.00019254,0.00062181,-0.00170984,-0.000225
 51,0.00159157,0.00070726,0.00008927,-0.00122277,-0.00031141,-0.0000109
 2,0.00054933,-0.00066236,-0.00015358,0.00043846,0.00024648,0.00004457,
 -0.00002516,-0.00007052,-0.00004734,0.00027155,-0.00013277,0.00001415,
 -0.00022986,0.00021253,0.00009469,-0.00010832,-0.00100811,-0.00010614,
 -0.00036282,0.00168612,0.00038233,-0.00170277,0.00207087,0.00024363,-0
 .00015167,-0.00320642,0.00037492,-0.01149654,-0.03106850,0.02220860,-0
 .31810682,0.00035945,-0.00015667,0.00027615,0.00207202,0.00017065,0.00
 060766,-0.00023964,0.00016223,-0.00059443,0.00001811,-0.00005923,-0.00
 010091,-0.00000247,-0.00000378,-0.00000831,0.00001496,0.00000019,0.000
 01353,-0.00000058,-0.00000396,-0.00001793,0.00002384,-0.00000128,0.000
 02253,0.03504785,-0.02383665,0.34286766\\0.00005861,-0.00003095,0.0000
 1286,-0.00003827,-0.00000816,-0.00003696,0.00003248,0.00000095,0.00001
 912,0.00000483,0.00000008,-0.00002291,0.00000106,-0.00000087,0.0000538
 9,-0.00000129,-0.00001038,0.00003105,-0.00000515,0.00000081,-0.0000270
 3,0.00001577,0.00000155,0.00001206,-0.00000210,-0.00000012,-0.00001788
 ,0.00000424,-0.00000078,0.00001373,-0.00000456,-0.00000032,-0.00001550
 ,0.00001817,0.00000424,0.00000672,-0.00001134,-0.00000769,-0.00000019,
 -0.00000463,0.00001755,-0.00007645,0.00000786,-0.00000410,0.00005394,-
 0.00004113,-0.00000291,-0.00004006,0.00005139,-0.00000312,0.00005161,-
 0.00004697,0.00002201,0.00001482,-0.00001881,0.00001501,-0.00003589,-0
 .00000308,0.00000658,0.00000613,-0.00000496,0.00000060,0.00000511,0.,-
 0.00000256,0.00000383,-0.00000358,-0.00000214,0.00000533,-0.00000342,-
 0.00000212,-0.00000182,0.00000112,0.00000079,-0.00000397,-0.00000626,0
 .00000605,-0.00001152\\\@


 There ain't no surer way to find out whether you
 like people or hate them than to travel with them.
                                     -- Mark Twain
 Job cpu time:       0 days  4 hours 17 minutes 27.3 seconds.
 Elapsed time:       0 days  0 hours 32 minutes 17.9 seconds.
 File lengths (MBytes):  RWF=    914 Int=      0 D2E=      0 Chk=     21 Scr=      1
 Normal termination of Gaussian 16 at Wed Dec 27 21:16:40 2023.
