 Entering Gaussian System, Link 0=g16
 Input=004.com
 Output=004.log
 Initial command:
 /sysapps/ubuntu-applications/gaussian/Gaussian/AVX2/g16/l1.exe "/scratch/selhajj1/4406281/Gau-847377.inp" -scrdir="/scratch/selhajj1/4406281/"
 Entering Link 1 = /sysapps/ubuntu-applications/gaussian/Gaussian/AVX2/g16/l1.exe PID=    847387.
  
 Copyright (c) 1988,1990,1992,1993,1995,1998,2003,2009,2016,
            Gaussian, Inc.  All Rights Reserved.
  
 This is part of the Gaussian(R) 16 program.  It is based on
 the Gaussian(R) 09 system (copyright 2009, Gaussian, Inc.),
 the Gaussian(R) 03 system (copyright 2003, Gaussian, Inc.),
 the Gaussian(R) 98 system (copyright 1998, Gaussian, Inc.),
 the Gaussian(R) 94 system (copyright 1995, Gaussian, Inc.),
 the Gaussian 92(TM) system (copyright 1992, Gaussian, Inc.),
 the Gaussian 90(TM) system (copyright 1990, Gaussian, Inc.),
 the Gaussian 88(TM) system (copyright 1988, Gaussian, Inc.),
 the Gaussian 86(TM) system (copyright 1986, Carnegie Mellon
 University), and the Gaussian 82(TM) system (copyright 1983,
 Carnegie Mellon University). Gaussian is a federally registered
 trademark of Gaussian, Inc.
  
 This software contains proprietary and confidential information,
 including trade secrets, belonging to Gaussian, Inc.
  
 This software is provided under written license and may be
 used, copied, transmitted, or stored only in accord with that
 written license.
  
 The following legend is applicable only to US Government
 contracts under FAR:
  
                    RESTRICTED RIGHTS LEGEND
  
 Use, reproduction and disclosure by the US Government is
 subject to restrictions as set forth in subparagraphs (a)
 and (c) of the Commercial Computer Software - Restricted
 Rights clause in FAR 52.227-19.
  
 Gaussian, Inc.
 340 Quinnipiac St., Bldg. 40, Wallingford CT 06492
  
  
 ---------------------------------------------------------------
 Warning -- This program may not be used in any manner that
 competes with the business of Gaussian, Inc. or will provide
 assistance to any competitor of Gaussian, Inc.  The licensee
 of this program is prohibited from giving any competitor of
 Gaussian, Inc. access to this program.  By using this program,
 the user acknowledges that Gaussian, Inc. is engaged in the
 business of creating and licensing software in the field of
 computational chemistry and represents and warrants to the
 licensee that it is not a competitor of Gaussian, Inc. and that
 it will not use this program in any manner prohibited above.
 ---------------------------------------------------------------
  

 Cite this work as:
 Gaussian 16, Revision A.03,
 M. J. Frisch, G. W. Trucks, H. B. Schlegel, G. E. Scuseria, 
 M. A. Robb, J. R. Cheeseman, G. Scalmani, V. Barone, 
 G. A. Petersson, H. Nakatsuji, X. Li, M. Caricato, A. V. Marenich, 
 J. Bloino, B. G. Janesko, R. Gomperts, B. Mennucci, H. P. Hratchian, 
 J. V. Ortiz, A. F. Izmaylov, J. L. Sonnenberg, D. Williams-Young, 
 F. Ding, F. Lipparini, F. Egidi, J. Goings, B. Peng, A. Petrone, 
 T. Henderson, D. Ranasinghe, V. G. Zakrzewski, J. Gao, N. Rega, 
 G. Zheng, W. Liang, M. Hada, M. Ehara, K. Toyota, R. Fukuda, 
 J. Hasegawa, M. Ishida, T. Nakajima, Y. Honda, O. Kitao, H. Nakai, 
 T. Vreven, K. Throssell, J. A. Montgomery, Jr., J. E. Peralta, 
 F. Ogliaro, M. J. Bearpark, J. J. Heyd, E. N. Brothers, K. N. Kudin, 
 V. N. Staroverov, T. A. Keith, R. Kobayashi, J. Normand, 
 K. Raghavachari, A. P. Rendell, J. C. Burant, S. S. Iyengar, 
 J. Tomasi, M. Cossi, J. M. Millam, M. Klene, C. Adamo, R. Cammi, 
 J. W. Ochterski, R. L. Martin, K. Morokuma, O. Farkas, 
 J. B. Foresman, and D. J. Fox, Gaussian, Inc., Wallingford CT, 2016.
 
 ******************************************
 Gaussian 16:  ES64L-G16RevA.03 25-Dec-2016
                10-Feb-2024 
 ******************************************
 %chk=004.chk
 %nproc=8
 Will use up to    8 processors via shared memory.
 %mem=30GB
 ----------------------------------------------------------------------
 #P UB3LYP/6-311++G(d,p) nosym opt freq SCRF=(PCM,Solvent=n,n-DiMethylF
 ormamide)
 ----------------------------------------------------------------------
 1/18=20,19=15,26=3,38=1/1,3;
 2/9=110,12=2,15=1,17=6,18=5,40=1/2;
 3/5=4,6=6,7=1111,11=2,25=1,30=1,70=2201,71=1,72=148,74=-5,116=2/1,2,3;
 4//1;
 5/5=2,38=5,53=148/2;
 6/7=2,8=2,9=2,10=2,28=1/1;
 7/30=1/1,2,3,16;
 1/18=20,19=15,26=3/3(2);
 2/9=110,15=1/2;
 99//99;
 2/9=110,15=1/2;
 3/5=4,6=6,7=1111,11=2,25=1,30=1,70=2205,71=1,72=148,74=-5,116=2/1,2,3;
 4/5=5,16=3,69=1/1;
 5/5=2,38=5,53=148/2;
 7/30=1/1,2,3,16;
 1/18=20,19=15,26=3/3(-5);
 2/9=110,15=1/2;
 6/7=2,8=2,9=2,10=2,19=2,28=1/1;
 99/9=1/99;
 Leave Link    1 at Sat Feb 10 10:01:26 2024, MaxMem=  4026531840 cpu:               0.6 elap:               0.1
 (Enter /sysapps/ubuntu-applications/gaussian/Gaussian/AVX2/g16/l101.exe)
 --------
 Oxidized
 --------
 Symbolic Z-matrix:
 Charge =  0 Multiplicity = 1
 C                    -1.07437   1.57106   1.01419 
 C                    -2.39319   0.90357   0.92071 
 C                    -2.71919  -0.0454    0.02245 
 C                    -1.6522   -0.45408  -0.96039 
 C                    -0.32061   0.20184  -0.88605 
 C                    -0.03861   1.14119   0.02323 
 Br                    1.65861   1.97963   0.12129 
 C                    -4.09685  -0.71056  -0.04044 
 C                    -4.74299  -0.44066  -1.42293 
 C                    -5.03818  -0.1553    1.04432 
 C                    -3.94957  -2.2367    0.18495 
 O                    -0.86108   2.42021   1.85618 
 O                    -1.83354  -1.30265  -1.81773 
 H                    -3.0953    1.25869   1.66367 
 H                     0.39894  -0.13792  -1.62059 
 H                    -4.85297   0.63344  -1.59901 
 H                    -5.74134  -0.88657  -1.44768 
 H                    -4.15616  -0.86986  -2.23344 
 H                    -5.21165   0.91815   0.92813 
 H                    -4.6565   -0.33754   2.05278 
 H                    -6.00692  -0.65419   0.96537 
 H                    -3.34592  -2.70307  -0.59198 
 H                    -4.94026  -2.69992   0.17524 
 H                    -3.49342  -2.44501   1.15723 
 
 ITRead=  0  0  0  0  0  0  0  0  0  0  0  0  0  0  0  0  0  0  0  0
 ITRead=  0  0  0  0
 MicOpt= -1 -1 -1 -1 -1 -1 -1 -1 -1 -1 -1 -1 -1 -1 -1 -1 -1 -1 -1 -1
 MicOpt= -1 -1 -1 -1
 NAtoms=     24 NQM=       24 NQMF=       0 NMMI=      0 NMMIF=      0
                NMic=       0 NMicF=      0.
                    Isotopes and Nuclear Properties:
 (Nuclear quadrupole moments (NQMom) in fm**2, nuclear magnetic moments (NMagM)
  in nuclear magnetons)

  Atom         1           2           3           4           5           6           7           8           9          10
 IAtWgt=          12          12          12          12          12          12          79          12          12          12
 AtmWgt=  12.0000000  12.0000000  12.0000000  12.0000000  12.0000000  12.0000000  78.9183361  12.0000000  12.0000000  12.0000000
 NucSpn=           0           0           0           0           0           0           3           0           0           0
 AtZEff=  -0.0000000  -0.0000000  -0.0000000  -0.0000000  -0.0000000  -0.0000000  -0.0000000  -0.0000000  -0.0000000  -0.0000000
 NQMom=    0.0000000   0.0000000   0.0000000   0.0000000   0.0000000   0.0000000  31.3000000   0.0000000   0.0000000   0.0000000
 NMagM=    0.0000000   0.0000000   0.0000000   0.0000000   0.0000000   0.0000000   2.1063990   0.0000000   0.0000000   0.0000000
 AtZNuc=   6.0000000   6.0000000   6.0000000   6.0000000   6.0000000   6.0000000  35.0000000   6.0000000   6.0000000   6.0000000

  Atom        11          12          13          14          15          16          17          18          19          20
 IAtWgt=          12          16          16           1           1           1           1           1           1           1
 AtmWgt=  12.0000000  15.9949146  15.9949146   1.0078250   1.0078250   1.0078250   1.0078250   1.0078250   1.0078250   1.0078250
 NucSpn=           0           0           0           1           1           1           1           1           1           1
 AtZEff=  -0.0000000  -0.0000000  -0.0000000  -0.0000000  -0.0000000  -0.0000000  -0.0000000  -0.0000000  -0.0000000  -0.0000000
 NQMom=    0.0000000   0.0000000   0.0000000   0.0000000   0.0000000   0.0000000   0.0000000   0.0000000   0.0000000   0.0000000
 NMagM=    0.0000000   0.0000000   0.0000000   2.7928460   2.7928460   2.7928460   2.7928460   2.7928460   2.7928460   2.7928460
 AtZNuc=   6.0000000   8.0000000   8.0000000   1.0000000   1.0000000   1.0000000   1.0000000   1.0000000   1.0000000   1.0000000

  Atom        21          22          23          24
 IAtWgt=           1           1           1           1
 AtmWgt=   1.0078250   1.0078250   1.0078250   1.0078250
 NucSpn=           1           1           1           1
 AtZEff=  -0.0000000  -0.0000000  -0.0000000  -0.0000000
 NQMom=    0.0000000   0.0000000   0.0000000   0.0000000
 NMagM=    2.7928460   2.7928460   2.7928460   2.7928460
 AtZNuc=   1.0000000   1.0000000   1.0000000   1.0000000
 Leave Link  101 at Sat Feb 10 10:01:27 2024, MaxMem=  4026531840 cpu:               4.3 elap:               0.7
 (Enter /sysapps/ubuntu-applications/gaussian/Gaussian/AVX2/g16/l103.exe)

 GradGradGradGradGradGradGradGradGradGradGradGradGradGradGradGradGradGrad
 Berny optimization.
 Initialization pass.
                           ----------------------------
                           !    Initial Parameters    !
                           ! (Angstroms and Degrees)  !
 --------------------------                            --------------------------
 ! Name  Definition              Value          Derivative Info.                !
 --------------------------------------------------------------------------------
 ! R1    R(1,2)                  1.4811         estimate D2E/DX2                !
 ! R2    R(1,6)                  1.4965         estimate D2E/DX2                !
 ! R3    R(1,12)                 1.2147         estimate D2E/DX2                !
 ! R4    R(2,3)                  1.3467         estimate D2E/DX2                !
 ! R5    R(2,14)                 1.0822         estimate D2E/DX2                !
 ! R6    R(3,4)                  1.5071         estimate D2E/DX2                !
 ! R7    R(3,8)                  1.5311         estimate D2E/DX2                !
 ! R8    R(4,5)                  1.4862         estimate D2E/DX2                !
 ! R9    R(4,13)                 1.2198         estimate D2E/DX2                !
 ! R10   R(5,6)                  1.3374         estimate D2E/DX2                !
 ! R11   R(5,15)                 1.0829         estimate D2E/DX2                !
 ! R12   R(6,7)                  1.8956         estimate D2E/DX2                !
 ! R13   R(8,9)                  1.5497         estimate D2E/DX2                !
 ! R14   R(8,10)                 1.5398         estimate D2E/DX2                !
 ! R15   R(8,11)                 1.5497         estimate D2E/DX2                !
 ! R16   R(9,16)                 1.094          estimate D2E/DX2                !
 ! R17   R(9,17)                 1.0937         estimate D2E/DX2                !
 ! R18   R(9,18)                 1.0888         estimate D2E/DX2                !
 ! R19   R(10,19)                1.0936         estimate D2E/DX2                !
 ! R20   R(10,20)                1.0936         estimate D2E/DX2                !
 ! R21   R(10,21)                1.0925         estimate D2E/DX2                !
 ! R22   R(11,22)                1.0888         estimate D2E/DX2                !
 ! R23   R(11,23)                1.0937         estimate D2E/DX2                !
 ! R24   R(11,24)                1.094          estimate D2E/DX2                !
 ! A1    A(2,1,6)              116.4259         estimate D2E/DX2                !
 ! A2    A(2,1,12)             121.0087         estimate D2E/DX2                !
 ! A3    A(6,1,12)             122.5654         estimate D2E/DX2                !
 ! A4    A(1,2,3)              125.115          estimate D2E/DX2                !
 ! A5    A(1,2,14)             112.7366         estimate D2E/DX2                !
 ! A6    A(3,2,14)             122.1484         estimate D2E/DX2                !
 ! A7    A(2,3,4)              117.0434         estimate D2E/DX2                !
 ! A8    A(2,3,8)              123.4574         estimate D2E/DX2                !
 ! A9    A(4,3,8)              119.4993         estimate D2E/DX2                !
 ! A10   A(3,4,5)              118.8162         estimate D2E/DX2                !
 ! A11   A(3,4,13)             122.8012         estimate D2E/DX2                !
 ! A12   A(5,4,13)             118.3826         estimate D2E/DX2                !
 ! A13   A(4,5,6)              122.2012         estimate D2E/DX2                !
 ! A14   A(4,5,15)             115.0189         estimate D2E/DX2                !
 ! A15   A(6,5,15)             122.7798         estimate D2E/DX2                !
 ! A16   A(1,6,5)              120.3983         estimate D2E/DX2                !
 ! A17   A(1,6,7)              117.2831         estimate D2E/DX2                !
 ! A18   A(5,6,7)              122.3186         estimate D2E/DX2                !
 ! A19   A(3,8,9)              109.6413         estimate D2E/DX2                !
 ! A20   A(3,8,10)             111.3743         estimate D2E/DX2                !
 ! A21   A(3,8,11)             109.6542         estimate D2E/DX2                !
 ! A22   A(9,8,10)             108.1048         estimate D2E/DX2                !
 ! A23   A(9,8,11)             109.9303         estimate D2E/DX2                !
 ! A24   A(10,8,11)            108.1046         estimate D2E/DX2                !
 ! A25   A(8,9,16)             110.8853         estimate D2E/DX2                !
 ! A26   A(8,9,17)             109.2557         estimate D2E/DX2                !
 ! A27   A(8,9,18)             111.7587         estimate D2E/DX2                !
 ! A28   A(16,9,17)            107.7516         estimate D2E/DX2                !
 ! A29   A(16,9,18)            108.7475         estimate D2E/DX2                !
 ! A30   A(17,9,18)            108.3257         estimate D2E/DX2                !
 ! A31   A(8,10,19)            112.0915         estimate D2E/DX2                !
 ! A32   A(8,10,20)            112.0976         estimate D2E/DX2                !
 ! A33   A(8,10,21)            109.0559         estimate D2E/DX2                !
 ! A34   A(19,10,20)           108.4772         estimate D2E/DX2                !
 ! A35   A(19,10,21)           107.4518         estimate D2E/DX2                !
 ! A36   A(20,10,21)           107.4589         estimate D2E/DX2                !
 ! A37   A(8,11,22)            111.7603         estimate D2E/DX2                !
 ! A38   A(8,11,23)            109.2522         estimate D2E/DX2                !
 ! A39   A(8,11,24)            110.879          estimate D2E/DX2                !
 ! A40   A(22,11,23)           108.3283         estimate D2E/DX2                !
 ! A41   A(22,11,24)           108.7505         estimate D2E/DX2                !
 ! A42   A(23,11,24)           107.7546         estimate D2E/DX2                !
 ! D1    D(6,1,2,3)             -0.0183         estimate D2E/DX2                !
 ! D2    D(6,1,2,14)           179.9957         estimate D2E/DX2                !
 ! D3    D(12,1,2,3)           179.9807         estimate D2E/DX2                !
 ! D4    D(12,1,2,14)           -0.0053         estimate D2E/DX2                !
 ! D5    D(2,1,6,5)              0.018          estimate D2E/DX2                !
 ! D6    D(2,1,6,7)           -179.9848         estimate D2E/DX2                !
 ! D7    D(12,1,6,5)          -179.981          estimate D2E/DX2                !
 ! D8    D(12,1,6,7)             0.0162         estimate D2E/DX2                !
 ! D9    D(1,2,3,4)              0.016          estimate D2E/DX2                !
 ! D10   D(1,2,3,8)           -179.9697         estimate D2E/DX2                !
 ! D11   D(14,2,3,4)          -179.9993         estimate D2E/DX2                !
 ! D12   D(14,2,3,8)             0.015          estimate D2E/DX2                !
 ! D13   D(2,3,4,5)             -0.0129         estimate D2E/DX2                !
 ! D14   D(2,3,4,13)           179.9904         estimate D2E/DX2                !
 ! D15   D(8,3,4,5)            179.9733         estimate D2E/DX2                !
 ! D16   D(8,3,4,13)            -0.0233         estimate D2E/DX2                !
 ! D17   D(2,3,8,9)            119.5829         estimate D2E/DX2                !
 ! D18   D(2,3,8,10)            -0.0214         estimate D2E/DX2                !
 ! D19   D(2,3,8,11)          -119.6338         estimate D2E/DX2                !
 ! D20   D(4,3,8,9)            -60.4024         estimate D2E/DX2                !
 ! D21   D(4,3,8,10)           179.9933         estimate D2E/DX2                !
 ! D22   D(4,3,8,11)            60.3809         estimate D2E/DX2                !
 ! D23   D(3,4,5,6)              0.0143         estimate D2E/DX2                !
 ! D24   D(3,4,5,15)          -179.9944         estimate D2E/DX2                !
 ! D25   D(13,4,5,6)          -179.989          estimate D2E/DX2                !
 ! D26   D(13,4,5,15)            0.0024         estimate D2E/DX2                !
 ! D27   D(4,5,6,1)             -0.017          estimate D2E/DX2                !
 ! D28   D(4,5,6,7)            179.9859         estimate D2E/DX2                !
 ! D29   D(15,5,6,1)           179.9923         estimate D2E/DX2                !
 ! D30   D(15,5,6,7)            -0.0047         estimate D2E/DX2                !
 ! D31   D(3,8,9,16)           -59.2958         estimate D2E/DX2                !
 ! D32   D(3,8,9,17)          -177.9135         estimate D2E/DX2                !
 ! D33   D(3,8,9,18)            62.2168         estimate D2E/DX2                !
 ! D34   D(10,8,9,16)           62.2929         estimate D2E/DX2                !
 ! D35   D(10,8,9,17)          -56.3249         estimate D2E/DX2                !
 ! D36   D(10,8,9,18)         -176.1945         estimate D2E/DX2                !
 ! D37   D(11,8,9,16)         -179.9118         estimate D2E/DX2                !
 ! D38   D(11,8,9,17)           61.4705         estimate D2E/DX2                !
 ! D39   D(11,8,9,18)          -58.3991         estimate D2E/DX2                !
 ! D40   D(3,8,10,19)           61.1449         estimate D2E/DX2                !
 ! D41   D(3,8,10,20)          -61.1277         estimate D2E/DX2                !
 ! D42   D(3,8,10,21)         -179.9977         estimate D2E/DX2                !
 ! D43   D(9,8,10,19)          -59.3671         estimate D2E/DX2                !
 ! D44   D(9,8,10,20)          178.3603         estimate D2E/DX2                !
 ! D45   D(9,8,10,21)           59.4903         estimate D2E/DX2                !
 ! D46   D(11,8,10,19)        -178.3274         estimate D2E/DX2                !
 ! D47   D(11,8,10,20)          59.4            estimate D2E/DX2                !
 ! D48   D(11,8,10,21)         -59.47           estimate D2E/DX2                !
 ! D49   D(3,8,11,22)          -62.1826         estimate D2E/DX2                !
 ! D50   D(3,8,11,23)          177.9458         estimate D2E/DX2                !
 ! D51   D(3,8,11,24)           59.3305         estimate D2E/DX2                !
 ! D52   D(9,8,11,22)           58.4256         estimate D2E/DX2                !
 ! D53   D(9,8,11,23)          -61.4459         estimate D2E/DX2                !
 ! D54   D(9,8,11,24)          179.9387         estimate D2E/DX2                !
 ! D55   D(10,8,11,22)         176.2211         estimate D2E/DX2                !
 ! D56   D(10,8,11,23)          56.3495         estimate D2E/DX2                !
 ! D57   D(10,8,11,24)         -62.2658         estimate D2E/DX2                !
 --------------------------------------------------------------------------------
 Trust Radius=3.00D-01 FncErr=1.00D-07 GrdErr=1.00D-06 EigMax=2.50D+02 EigMin=1.00D-04
 Number of steps in this run=    133 maximum allowed number of steps=    144.
 GradGradGradGradGradGradGradGradGradGradGradGradGradGradGradGradGradGrad

 Leave Link  103 at Sat Feb 10 10:01:27 2024, MaxMem=  4026531840 cpu:               0.3 elap:               0.1
 (Enter /sysapps/ubuntu-applications/gaussian/Gaussian/AVX2/g16/l202.exe)
                          Input orientation:                          
 ---------------------------------------------------------------------
 Center     Atomic      Atomic             Coordinates (Angstroms)
 Number     Number       Type             X           Y           Z
 ---------------------------------------------------------------------
      1          6           0       -1.074371    1.571055    1.014194
      2          6           0       -2.393189    0.903566    0.920709
      3          6           0       -2.719188   -0.045396    0.022449
      4          6           0       -1.652199   -0.454080   -0.960391
      5          6           0       -0.320607    0.201843   -0.886052
      6          6           0       -0.038607    1.141194    0.023227
      7         35           0        1.658609    1.979626    0.121287
      8          6           0       -4.096845   -0.710561   -0.040435
      9          6           0       -4.742991   -0.440661   -1.422925
     10          6           0       -5.038176   -0.155304    1.044321
     11          6           0       -3.949572   -2.236702    0.184946
     12          8           0       -0.861075    2.420213    1.856176
     13          8           0       -1.833539   -1.302645   -1.817730
     14          1           0       -3.095298    1.258691    1.663674
     15          1           0        0.398941   -0.137921   -1.620588
     16          1           0       -4.852971    0.633440   -1.599007
     17          1           0       -5.741343   -0.886571   -1.447682
     18          1           0       -4.156156   -0.869863   -2.233436
     19          1           0       -5.211652    0.918151    0.928131
     20          1           0       -4.656501   -0.337543    2.052783
     21          1           0       -6.006916   -0.654191    0.965371
     22          1           0       -3.345919   -2.703067   -0.591980
     23          1           0       -4.940255   -2.699917    0.175240
     24          1           0       -3.493421   -2.445007    1.157228
 ---------------------------------------------------------------------
                    Distance matrix (angstroms):
                    1          2          3          4          5
     1  C    0.000000
     2  C    1.481068   0.000000
     3  C    2.510358   1.346728   0.000000
     4  C    2.886874   2.435325   1.507137   0.000000
     5  C    2.460455   2.837675   2.576760   1.486236   0.000000
     6  C    1.496530   2.531007   2.931469   2.473072   1.337420
     7  Br   2.904030   4.267792   4.824478   4.249047   2.844739
     8  C    3.931077   2.536069   1.531123   2.624575   3.975868
     9  C    4.842037   3.580661   2.518158   3.125238   4.500947
    10  C    4.323537   2.851744   2.536535   3.946261   5.109731
    11  C    4.842876   3.581195   2.518347   3.125294   4.501436
    12  O    1.214701   2.350040   3.590873   4.101279   3.568345
    13  O    4.105397   3.560846   2.398188   1.219827   2.328191
    14  H    2.145587   1.082159   2.129723   3.449904   3.913686
    15  H    3.468908   3.916488   3.525742   2.177841   1.082928
    16  H    4.688897   3.531638   2.764592   3.440272   4.608352
    17  H    5.820772   4.474819   3.464431   4.140725   5.557378
    18  H    5.099273   4.025138   2.798864   2.839599   4.204216
    19  H    4.189366   2.818511   2.821535   4.256670   5.265613
    20  H    4.189638   2.818603   2.821487   4.256598   5.265707
    21  H    5.411479   3.935432   3.474031   4.765728   6.041082
    22  H    5.099789   4.025385   2.798844   2.839429   4.204461
    23  H    5.821521   4.475305   3.464530   4.140622   5.557670
    24  H    4.690524   3.532618   2.765012   3.440668   4.609507
                    6          7          8          9         10
     6  C    0.000000
     7  Br   1.895554   0.000000
     8  C    4.461204   6.355196   0.000000
     9  C    5.169608   7.015901   1.549719   0.000000
    10  C    5.264906   7.089206   1.539841   2.501173   0.000000
    11  C    5.170298   7.016635   1.549707   2.537819   2.501160
    12  O    2.381606   3.090755   4.885600   5.831499   4.973989
    13  O    3.547288   5.169931   2.938009   3.060032   4.447182
    14  H    3.471056   5.049588   2.790168   3.889702   2.481482
    15  H    2.128312   3.017432   4.799676   5.154628   6.055104
    16  H    5.105640   6.868210   2.192535   1.093981   2.764706
    17  H    6.228692   8.089255   2.171566   1.093689   2.690590
    18  H    5.107944   6.890268   2.199579   1.088815   3.468753
    19  H    5.256329   6.998444   2.198549   2.755627   1.093572
    20  H    5.256492   6.998612   2.198617   3.478313   1.093564
    21  H    6.303313   8.149217   2.159443   2.710546   1.092510
    22  H    5.108340   6.890694   2.199584   2.785814   3.468762
    23  H    6.229237   8.089873   2.171496   2.774398   2.690715
    24  H    5.107106   6.869786   2.192446   3.498002   2.764373
                   11         12         13         14         15
    11  C    0.000000
    12  O    5.832554   0.000000
    13  O    3.059537   5.320051   0.000000
    14  H    3.890269   2.525459   4.502516   0.000000
    15  H    5.155036   4.496618   2.525750   4.994658   0.000000
    16  H    3.498047   5.573695   3.593499   3.758383   5.308299
    17  H    2.774666   6.757760   3.947276   4.613485   6.188171
    18  H    2.785587   6.197345   2.398888   4.565482   4.654055
    19  H    3.478256   4.695208   4.887058   2.266262   6.252200
    20  H    2.755970   4.695650   4.886861   2.266434   6.252279
    21  H    2.710363   6.060130   5.057986   3.553064   6.927389
    22  H    1.088810   6.198057   2.398111   4.565776   4.654244
    23  H    1.093670   6.758771   3.946642   4.614096   6.188363
    24  H    1.093982   5.575674   3.593129   3.759304   5.309368
                   16         17         18         19         20
    16  H    0.000000
    17  H    1.767070   0.000000
    18  H    1.774252   1.769324   0.000000
    19  H    2.568295   3.030195   3.782403   0.000000
    20  H    3.783778   3.705613   4.348032   1.774768   0.000000
    21  H    3.092833   2.438720   3.701918   1.762411   1.762484
    22  H    3.797050   3.125690   2.590656   4.347978   3.782605
    23  H    3.777147   2.562000   3.125001   3.705525   3.030923
    24  H    4.349948   3.777225   3.796959   3.783601   2.568303
                   21         22         23         24
    21  H    0.000000
    22  H    3.701910   0.000000
    23  H    2.438661   1.769334   0.000000
    24  H    3.092166   1.774283   1.767090   0.000000
 Symmetry turned off by external request.
 Stoichiometry    C10H11BrO2
 Framework group  C1[X(C10H11BrO2)]
 Deg. of freedom    66
 Full point group                 C1      NOp   1
 Rotational constants (GHZ):           1.4000810           0.2890748           0.2531556
 Leave Link  202 at Sat Feb 10 10:01:27 2024, MaxMem=  4026531840 cpu:               0.5 elap:               0.1
 (Enter /sysapps/ubuntu-applications/gaussian/Gaussian/AVX2/g16/l301.exe)
 Standard basis: 6-311++G(d,p) (5D, 7F)
 Ernie: Thresh=  0.10000D-02 Tol=  0.10000D-05 Strict=F.
   389 basis functions,   625 primitive gaussians,   404 cartesian basis functions
    61 alpha electrons       61 beta electrons
       nuclear repulsion energy      1061.4101128040 Hartrees.
 IExCor=  402 DFT=T Ex+Corr=B3LYP ExCW=0 ScaHFX=  0.200000
 ScaDFX=  0.800000  0.720000  1.000000  0.810000 ScalE2=  1.000000  1.000000
 IRadAn=      5 IRanWt=     -1 IRanGd=            0 ICorTp=0 IEmpDi=  4
 NAtoms=   24 NActive=   24 NUniq=   24 SFac= 1.00D+00 NAtFMM=   60 NAOKFM=F Big=F
 Integral buffers will be    131072 words long.
 Raffenetti 2 integral format.
 Two-electron integral symmetry is turned off.
 ------------------------------------------------------------------------------
 Polarizable Continuum Model (PCM)
 =================================
 Model                : PCM.
 Atomic radii         : UFF (Universal Force Field).
 Polarization charges : Total charges.
 Charge compensation  : None.
 Solution method      : On-the-fly selection.
 Cavity type          : Scaled VdW (van der Waals Surface) (Alpha=1.100).
 Cavity algorithm     : GePol (No added spheres)
                        Default sphere list used, NSphG=   24.
                        Lebedev-Laikov grids with approx.  5.0 points / Ang**2.
                        Smoothing algorithm: York/Karplus (Gamma=1.0000).
                        Polarization charges: spherical gaussians, with
                                              point-specific exponents (IZeta= 3).
                        Self-potential: point-specific (ISelfS= 7).
                        Self-field    : sphere-specific E.n sum rule (ISelfD= 2).
 1st derivatives      : Analytical E(r).r(x)/FMM algorithm (CHGder, D1EAlg=3).
                        Cavity 1st derivative terms included.
 Solvent              : n,n-DiMethylFormamide, Eps=  37.219000 Eps(inf)=   2.046330
 ------------------------------------------------------------------------------
 GePol: Number of generator spheres                  =      24
 GePol: Total number of spheres                      =      24
 GePol: Number of exposed spheres                    =      24 (100.00%)
 GePol: Number of points                             =    1904
 GePol: Average weight of points                     =       0.14
 GePol: Minimum weight of points                     =   0.63D-08
 GePol: Maximum weight of points                     =    0.20577
 GePol: Number of points with low weight             =      98
 GePol: Fraction of low-weight points (<1% of avg)   =       5.15%
 GePol: Cavity surface area                          =    258.972 Ang**2
 GePol: Cavity volume                                =    276.668 Ang**3
 Leave Link  301 at Sat Feb 10 10:01:27 2024, MaxMem=  4026531840 cpu:               0.7 elap:               0.2
 (Enter /sysapps/ubuntu-applications/gaussian/Gaussian/AVX2/g16/l302.exe)
 NPDir=0 NMtPBC=     1 NCelOv=     1 NCel=       1 NClECP=     1 NCelD=      1
         NCelK=      1 NCelE2=     1 NClLst=     1 CellRange=     0.0.
 One-electron integrals computed using PRISM.
 NBasis=   389 RedAO= T EigKep=  2.04D-06  NBF=   389
 NBsUse=   387 1.00D-06 EigRej=  8.68D-07 NBFU=   387
 Precomputing XC quadrature grid using
 IXCGrd= 4 IRadAn=           5 IRanWt=          -1 IRanGd=           0 AccXCQ= 0.00D+00.
 Generated NRdTot=       0 NPtTot=           0 NUsed=           0 NTot=          32
 NSgBfM=   403   403   403   403   403 MxSgAt=    24 MxSgA2=    24.
 Leave Link  302 at Sat Feb 10 10:01:28 2024, MaxMem=  4026531840 cpu:               9.8 elap:               1.5
 (Enter /sysapps/ubuntu-applications/gaussian/Gaussian/AVX2/g16/l303.exe)
 DipDrv:  MaxL=1.
 Leave Link  303 at Sat Feb 10 10:01:29 2024, MaxMem=  4026531840 cpu:               1.2 elap:               0.3
 (Enter /sysapps/ubuntu-applications/gaussian/Gaussian/AVX2/g16/l401.exe)
 ExpMin= 3.50D-02 ExpMax= 4.40D+05 ExpMxC= 1.51D+04 IAcc=3 IRadAn=         5 AccDes= 0.00D+00
 Harris functional with IExCor=  402 and IRadAn=       5 diagonalized for initial guess.
 HarFok:  IExCor=  402 AccDes= 0.00D+00 IRadAn=         5 IDoV= 1 UseB2=F ITyADJ=14
 ICtDFT=  3500011 ScaDFX=  1.000000  1.000000  1.000000  1.000000
 FoFCou: FMM=F IPFlag=           0 FMFlag=      100000 FMFlg1=           0
         NFxFlg=           0 DoJE=T BraDBF=F KetDBF=T FulRan=T
         wScrn=  0.000000 ICntrl=       500 IOpCl=  0 I1Cent=   200000004 NGrid=           0
         NMat0=    1 NMatS0=      1 NMatT0=    0 NMatD0=    1 NMtDS0=    0 NMtDT0=    0
 Symmetry not used in FoFCou.
 Harris En= -3112.52864091150    
 JPrj=0 DoOrth=F DoCkMO=F.
 Initial guess <Sx>= 0.0000 <Sy>= 0.0000 <Sz>= 0.0000 <S**2>= 0.0000 S= 0.0000
 Leave Link  401 at Sat Feb 10 10:01:32 2024, MaxMem=  4026531840 cpu:              21.9 elap:               2.8
 (Enter /sysapps/ubuntu-applications/gaussian/Gaussian/AVX2/g16/l502.exe)
 Two-electron integral symmetry not used.
 UHF open shell SCF:
 Using DIIS extrapolation, IDIIS=  1040.
 NGot=  4026531840 LenX=  4026199240 LenY=  4026035583
 Requested convergence on RMS density matrix=1.00D-08 within 128 cycles.
 Requested convergence on MAX density matrix=1.00D-06.
 Requested convergence on             energy=1.00D-06.
 No special actions if energy rises.
 Fock matrices will be formed incrementally for  20 cycles.

 Cycle   1  Pass 1  IDiag  1:
 FoFJK:  IHMeth= 1 ICntrl=       0 DoSepK=F KAlg= 0 I1Cent=           0 FoldK=F
 IRaf= 890000000 NMat=       1 IRICut=       1 DoRegI=T DoRafI=F ISym2E= 0 IDoP0=0 IntGTp=1.
 FoFCou: FMM=F IPFlag=           0 FMFlag=      100000 FMFlg1=           0
         NFxFlg=           0 DoJE=F BraDBF=F KetDBF=F FulRan=T
         wScrn=  0.000000 ICntrl=         0 IOpCl=  1 I1Cent=           0 NGrid=           0
         NMat0=    1 NMatS0=      1 NMatT0=    0 NMatD0=    1 NMtDS0=    0 NMtDT0=    0
 Symmetry not used in FoFCou.
 Inv3:  Mode=1 IEnd=    10875648.
 Iteration    1 A*A^-1 deviation from unit magnitude is 3.44D-15 for    625.
 Iteration    1 A*A^-1 deviation from orthogonality  is 2.55D-15 for   1349    110.
 Iteration    1 A^-1*A deviation from unit magnitude is 3.44D-15 for    625.
 Iteration    1 A^-1*A deviation from orthogonality  is 2.54D-15 for   1533   1120.
 E= -3112.01789389901    
 DIIS: error= 9.97D-02 at cycle   1 NSaved=   1.
 NSaved= 1 IEnMin= 1 EnMin= -3112.01789389901     IErMin= 1 ErrMin= 9.97D-02
 ErrMax= 9.97D-02  0.00D+00 EMaxC= 1.00D-01 BMatC= 6.47D+00 BMatP= 6.47D+00
 IDIUse=3 WtCom= 2.78D-03 WtEn= 9.97D-01
 Coeff-Com:  0.100D+01
 Coeff-En:   0.100D+01
 Coeff:      0.100D+01
 Gap=     0.178 Goal=   None    Shift=    0.000
 Gap=     0.178 Goal=   None    Shift=    0.000
 GapD=    0.178 DampG=1.000 DampE=0.500 DampFc=0.5000 IDamp=-1.
 Damping current iteration by 5.00D-01
 RMSDP=1.38D-02 MaxDP=1.11D+00              OVMax= 2.37D-01

 Cycle   2  Pass 1  IDiag  1:
 RMSU=  6.88D-03    CP:  9.79D-01
 E= -3112.15030271739     Delta-E=       -0.132408818386 Rises=F Damp=T
 DIIS: error= 5.07D-02 at cycle   2 NSaved=   2.
 NSaved= 2 IEnMin= 2 EnMin= -3112.15030271739     IErMin= 2 ErrMin= 5.07D-02
 ErrMax= 5.07D-02  0.00D+00 EMaxC= 1.00D-01 BMatC= 9.59D-01 BMatP= 6.47D+00
 IDIUse=3 WtCom= 4.93D-01 WtEn= 5.07D-01
 Coeff-Com: -0.134D+00 0.113D+01
 Coeff-En:   0.279D+00 0.721D+00
 Coeff:      0.754D-01 0.925D+00
 Gap=     0.161 Goal=   None    Shift=    0.000
 Gap=     0.161 Goal=   None    Shift=    0.000
 RMSDP=8.99D-03 MaxDP=9.76D-01 DE=-1.32D-01 OVMax= 2.57D-01

 Cycle   3  Pass 1  IDiag  1:
 RMSU=  5.68D-03    CP:  7.99D-01  5.06D-01
 E= -3112.31766961362     Delta-E=       -0.167366896228 Rises=F Damp=F
 DIIS: error= 2.44D-02 at cycle   3 NSaved=   3.
 NSaved= 3 IEnMin= 3 EnMin= -3112.31766961362     IErMin= 3 ErrMin= 2.44D-02
 ErrMax= 2.44D-02  0.00D+00 EMaxC= 1.00D-01 BMatC= 4.85D-01 BMatP= 9.59D-01
 IDIUse=3 WtCom= 7.56D-01 WtEn= 2.44D-01
 Coeff-Com: -0.138D+00 0.522D+00 0.616D+00
 Coeff-En:   0.000D+00 0.000D+00 0.100D+01
 Coeff:     -0.104D+00 0.394D+00 0.710D+00
 Gap=     0.148 Goal=   None    Shift=    0.000
 Gap=     0.148 Goal=   None    Shift=    0.000
 RMSDP=5.67D-03 MaxDP=5.15D-01 DE=-1.67D-01 OVMax= 1.67D-01

 Cycle   4  Pass 1  IDiag  1:
 RMSU=  3.29D-03    CP:  9.03D-01  8.71D-01  7.12D-01
 E= -3112.31501278455     Delta-E=        0.002656829074 Rises=F Damp=F
 DIIS: error= 2.93D-02 at cycle   4 NSaved=   4.
 NSaved= 4 IEnMin= 3 EnMin= -3112.31766961362     IErMin= 3 ErrMin= 2.44D-02
 ErrMax= 2.93D-02  0.00D+00 EMaxC= 1.00D-01 BMatC= 4.84D-01 BMatP= 4.85D-01
 IDIUse=3 WtCom= 7.07D-01 WtEn= 2.93D-01
 Coeff-Com: -0.499D-01 0.146D+00 0.507D+00 0.397D+00
 Coeff-En:   0.000D+00 0.000D+00 0.505D+00 0.495D+00
 Coeff:     -0.353D-01 0.103D+00 0.506D+00 0.426D+00
 Gap=     0.146 Goal=   None    Shift=    0.000
 Gap=     0.146 Goal=   None    Shift=    0.000
 RMSDP=3.86D-03 MaxDP=3.65D-01 DE= 2.66D-03 OVMax= 1.00D-01

 Cycle   5  Pass 1  IDiag  1:
 RMSU=  7.32D-04    CP:  8.28D-01  6.56D-01  8.18D-01  2.96D-01
 E= -3112.40783495740     Delta-E=       -0.092822172854 Rises=F Damp=F
 DIIS: error= 2.63D-03 at cycle   5 NSaved=   5.
 NSaved= 5 IEnMin= 5 EnMin= -3112.40783495740     IErMin= 5 ErrMin= 2.63D-03
 ErrMax= 2.63D-03  0.00D+00 EMaxC= 1.00D-01 BMatC= 4.46D-03 BMatP= 4.84D-01
 IDIUse=3 WtCom= 9.74D-01 WtEn= 2.63D-02
 Coeff-Com: -0.253D-02 0.144D-01 0.185D+00 0.184D+00 0.619D+00
 Coeff-En:   0.000D+00 0.000D+00 0.000D+00 0.000D+00 0.100D+01
 Coeff:     -0.246D-02 0.140D-01 0.180D+00 0.180D+00 0.629D+00
 Gap=     0.141 Goal=   None    Shift=    0.000
 Gap=     0.141 Goal=   None    Shift=    0.000
 RMSDP=3.88D-04 MaxDP=2.08D-02 DE=-9.28D-02 OVMax= 7.20D-03

 Cycle   6  Pass 1  IDiag  1:
 RMSU=  1.69D-04    CP:  8.29D-01  6.45D-01  8.47D-01  3.59D-01  7.20D-01
 E= -3112.40881579323     Delta-E=       -0.000980835831 Rises=F Damp=F
 DIIS: error= 7.47D-04 at cycle   6 NSaved=   6.
 NSaved= 6 IEnMin= 6 EnMin= -3112.40881579323     IErMin= 6 ErrMin= 7.47D-04
 ErrMax= 7.47D-04  0.00D+00 EMaxC= 1.00D-01 BMatC= 5.67D-04 BMatP= 4.46D-03
 IDIUse=3 WtCom= 9.93D-01 WtEn= 7.47D-03
 Coeff-Com:  0.357D-02-0.656D-02 0.441D-01 0.544D-01 0.355D+00 0.550D+00
 Coeff-En:   0.000D+00 0.000D+00 0.000D+00 0.000D+00 0.850D-02 0.991D+00
 Coeff:      0.354D-02-0.651D-02 0.438D-01 0.540D-01 0.352D+00 0.553D+00
 Gap=     0.140 Goal=   None    Shift=    0.000
 Gap=     0.140 Goal=   None    Shift=    0.000
 RMSDP=9.63D-05 MaxDP=8.37D-03 DE=-9.81D-04 OVMax= 3.46D-03

 Cycle   7  Pass 1  IDiag  1:
 RMSU=  5.67D-05    CP:  8.28D-01  6.43D-01  8.50D-01  3.60D-01  7.78D-01
                    CP:  6.80D-01
 E= -3112.40891598527     Delta-E=       -0.000100192034 Rises=F Damp=F
 DIIS: error= 4.81D-04 at cycle   7 NSaved=   7.
 NSaved= 7 IEnMin= 7 EnMin= -3112.40891598527     IErMin= 7 ErrMin= 4.81D-04
 ErrMax= 4.81D-04  0.00D+00 EMaxC= 1.00D-01 BMatC= 1.05D-04 BMatP= 5.67D-04
 IDIUse=3 WtCom= 9.95D-01 WtEn= 4.81D-03
 Coeff-Com:  0.217D-02-0.467D-02 0.801D-02 0.129D-01 0.154D+00 0.354D+00
 Coeff-Com:  0.473D+00
 Coeff-En:   0.000D+00 0.000D+00 0.000D+00 0.000D+00 0.000D+00 0.108D+00
 Coeff-En:   0.892D+00
 Coeff:      0.216D-02-0.465D-02 0.797D-02 0.129D-01 0.154D+00 0.353D+00
 Coeff:      0.475D+00
 Gap=     0.140 Goal=   None    Shift=    0.000
 Gap=     0.140 Goal=   None    Shift=    0.000
 RMSDP=3.81D-05 MaxDP=2.75D-03 DE=-1.00D-04 OVMax= 2.13D-03

 Cycle   8  Pass 1  IDiag  1:
 RMSU=  2.23D-05    CP:  8.29D-01  6.43D-01  8.49D-01  3.61D-01  7.85D-01
                    CP:  7.41D-01  5.54D-01
 E= -3112.40893468865     Delta-E=       -0.000018703380 Rises=F Damp=F
 DIIS: error= 1.68D-04 at cycle   8 NSaved=   8.
 NSaved= 8 IEnMin= 8 EnMin= -3112.40893468865     IErMin= 8 ErrMin= 1.68D-04
 ErrMax= 1.68D-04  0.00D+00 EMaxC= 1.00D-01 BMatC= 1.27D-05 BMatP= 1.05D-04
 IDIUse=3 WtCom= 9.98D-01 WtEn= 1.68D-03
 Coeff-Com:  0.907D-03-0.199D-02-0.324D-03 0.886D-03 0.542D-01 0.153D+00
 Coeff-Com:  0.304D+00 0.489D+00
 Coeff-En:   0.000D+00 0.000D+00 0.000D+00 0.000D+00 0.000D+00 0.000D+00
 Coeff-En:   0.754D-01 0.925D+00
 Coeff:      0.905D-03-0.199D-02-0.323D-03 0.884D-03 0.541D-01 0.153D+00
 Coeff:      0.304D+00 0.490D+00
 Gap=     0.141 Goal=   None    Shift=    0.000
 Gap=     0.141 Goal=   None    Shift=    0.000
 RMSDP=1.23D-05 MaxDP=9.35D-04 DE=-1.87D-05 OVMax= 6.04D-04

 Cycle   9  Pass 1  IDiag  1:
 RMSU=  6.21D-06    CP:  8.29D-01  6.42D-01  8.48D-01  3.59D-01  7.87D-01
                    CP:  7.50D-01  6.44D-01  7.28D-01
 E= -3112.40893719643     Delta-E=       -0.000002507781 Rises=F Damp=F
 DIIS: error= 2.04D-05 at cycle   9 NSaved=   9.
 NSaved= 9 IEnMin= 9 EnMin= -3112.40893719643     IErMin= 9 ErrMin= 2.04D-05
 ErrMax= 2.04D-05  0.00D+00 EMaxC= 1.00D-01 BMatC= 3.91D-07 BMatP= 1.27D-05
 IDIUse=1 WtCom= 1.00D+00 WtEn= 0.00D+00
 Coeff-Com:  0.401D-03-0.888D-03-0.428D-03-0.196D-03 0.207D-01 0.598D-01
 Coeff-Com:  0.131D+00 0.238D+00 0.552D+00
 Coeff:      0.401D-03-0.888D-03-0.428D-03-0.196D-03 0.207D-01 0.598D-01
 Coeff:      0.131D+00 0.238D+00 0.552D+00
 Gap=     0.140 Goal=   None    Shift=    0.000
 Gap=     0.140 Goal=   None    Shift=    0.000
 RMSDP=3.79D-06 MaxDP=3.43D-04 DE=-2.51D-06 OVMax= 1.34D-04

 Cycle  10  Pass 1  IDiag  1:
 RMSU=  1.54D-06    CP:  8.29D-01  6.42D-01  8.48D-01  3.59D-01  7.87D-01
                    CP:  7.51D-01  6.40D-01  7.23D-01  7.60D-01
 E= -3112.40893727076     Delta-E=       -0.000000074335 Rises=F Damp=F
 DIIS: error= 9.07D-06 at cycle  10 NSaved=  10.
 NSaved=10 IEnMin=10 EnMin= -3112.40893727076     IErMin=10 ErrMin= 9.07D-06
 ErrMax= 9.07D-06  0.00D+00 EMaxC= 1.00D-01 BMatC= 7.75D-08 BMatP= 3.91D-07
 IDIUse=1 WtCom= 1.00D+00 WtEn= 0.00D+00
 Coeff-Com:  0.782D-04-0.175D-03-0.131D-03-0.289D-03 0.241D-02 0.707D-02
 Coeff-Com:  0.238D-01 0.523D-01 0.338D+00 0.577D+00
 Coeff:      0.782D-04-0.175D-03-0.131D-03-0.289D-03 0.241D-02 0.707D-02
 Coeff:      0.238D-01 0.523D-01 0.338D+00 0.577D+00
 Gap=     0.140 Goal=   None    Shift=    0.000
 Gap=     0.140 Goal=   None    Shift=    0.000
 RMSDP=1.40D-06 MaxDP=1.38D-04 DE=-7.43D-08 OVMax= 6.33D-05

 Cycle  11  Pass 1  IDiag  1:
 RMSU=  6.11D-07    CP:  8.29D-01  6.42D-01  8.49D-01  3.59D-01  7.87D-01
                    CP:  7.49D-01  6.45D-01  7.22D-01  8.13D-01  8.51D-01
 E= -3112.40893728954     Delta-E=       -0.000000018776 Rises=F Damp=F
 DIIS: error= 1.28D-06 at cycle  11 NSaved=  11.
 NSaved=11 IEnMin=11 EnMin= -3112.40893728954     IErMin=11 ErrMin= 1.28D-06
 ErrMax= 1.28D-06  0.00D+00 EMaxC= 1.00D-01 BMatC= 2.51D-09 BMatP= 7.75D-08
 IDIUse=1 WtCom= 1.00D+00 WtEn= 0.00D+00
 Coeff-Com: -0.167D-05 0.209D-05-0.179D-04-0.988D-04-0.533D-03-0.133D-02
 Coeff-Com:  0.102D-02 0.466D-02 0.835D-01 0.238D+00 0.675D+00
 Coeff:     -0.167D-05 0.209D-05-0.179D-04-0.988D-04-0.533D-03-0.133D-02
 Coeff:      0.102D-02 0.466D-02 0.835D-01 0.238D+00 0.675D+00
 Gap=     0.140 Goal=   None    Shift=    0.000
 Gap=     0.140 Goal=   None    Shift=    0.000
 RMSDP=4.78D-07 MaxDP=4.87D-05 DE=-1.88D-08 OVMax= 8.73D-06

 Cycle  12  Pass 1  IDiag  1:
 RMSU=  2.85D-07    CP:  8.29D-01  6.42D-01  8.49D-01  3.59D-01  7.87D-01
                    CP:  7.49D-01  6.46D-01  7.24D-01  8.18D-01  8.50D-01
                    CP:  1.08D+00
 E= -3112.40893729011     Delta-E=       -0.000000000571 Rises=F Damp=F
 DIIS: error= 5.26D-07 at cycle  12 NSaved=  12.
 NSaved=12 IEnMin=12 EnMin= -3112.40893729011     IErMin=12 ErrMin= 5.26D-07
 ErrMax= 5.26D-07  0.00D+00 EMaxC= 1.00D-01 BMatC= 3.72D-10 BMatP= 2.51D-09
 IDIUse=1 WtCom= 1.00D+00 WtEn= 0.00D+00
 Coeff-Com: -0.759D-05 0.159D-04-0.625D-05-0.196D-04-0.432D-03-0.117D-02
 Coeff-Com: -0.159D-02-0.308D-02-0.166D-02 0.605D-01 0.315D+00 0.633D+00
 Coeff:     -0.759D-05 0.159D-04-0.625D-05-0.196D-04-0.432D-03-0.117D-02
 Coeff:     -0.159D-02-0.308D-02-0.166D-02 0.605D-01 0.315D+00 0.633D+00
 Gap=     0.140 Goal=   None    Shift=    0.000
 Gap=     0.140 Goal=   None    Shift=    0.000
 RMSDP=8.30D-08 MaxDP=4.61D-06 DE=-5.71D-10 OVMax= 4.96D-06

 Cycle  13  Pass 1  IDiag  1:
 RMSU=  5.92D-08    CP:  8.29D-01  6.42D-01  8.49D-01  3.59D-01  7.87D-01
                    CP:  7.49D-01  6.46D-01  7.24D-01  8.20D-01  8.53D-01
                    CP:  1.06D+00  8.72D-01
 E= -3112.40893729014     Delta-E=       -0.000000000027 Rises=F Damp=F
 DIIS: error= 2.90D-07 at cycle  13 NSaved=  13.
 NSaved=13 IEnMin=13 EnMin= -3112.40893729014     IErMin=13 ErrMin= 2.90D-07
 ErrMax= 2.90D-07  0.00D+00 EMaxC= 1.00D-01 BMatC= 7.67D-11 BMatP= 3.72D-10
 IDIUse=1 WtCom= 1.00D+00 WtEn= 0.00D+00
 Coeff-Com: -0.377D-05 0.802D-05-0.248D-05-0.259D-05-0.202D-03-0.583D-03
 Coeff-Com: -0.964D-03-0.220D-02-0.799D-02 0.218D-01 0.127D+00 0.364D+00
 Coeff-Com:  0.500D+00
 Coeff:     -0.377D-05 0.802D-05-0.248D-05-0.259D-05-0.202D-03-0.583D-03
 Coeff:     -0.964D-03-0.220D-02-0.799D-02 0.218D-01 0.127D+00 0.364D+00
 Coeff:      0.500D+00
 Gap=     0.140 Goal=   None    Shift=    0.000
 Gap=     0.140 Goal=   None    Shift=    0.000
 RMSDP=4.52D-08 MaxDP=3.07D-06 DE=-2.73D-11 OVMax= 2.04D-06

 Cycle  14  Pass 1  IDiag  1:
 RMSU=  1.72D-08    CP:  8.29D-01  6.42D-01  8.49D-01  3.59D-01  7.87D-01
                    CP:  7.49D-01  6.47D-01  7.24D-01  8.18D-01  8.62D-01
                    CP:  1.09D+00  9.30D-01  6.86D-01
 E= -3112.40893729018     Delta-E=       -0.000000000043 Rises=F Damp=F
 DIIS: error= 9.50D-08 at cycle  14 NSaved=  14.
 NSaved=14 IEnMin=14 EnMin= -3112.40893729018     IErMin=14 ErrMin= 9.50D-08
 ErrMax= 9.50D-08  0.00D+00 EMaxC= 1.00D-01 BMatC= 1.11D-11 BMatP= 7.67D-11
 IDIUse=1 WtCom= 1.00D+00 WtEn= 0.00D+00
 Coeff-Com: -0.862D-06 0.186D-05-0.326D-06 0.267D-05-0.427D-04-0.133D-03
 Coeff-Com: -0.270D-03-0.787D-03-0.576D-02 0.634D-03 0.216D-02 0.733D-01
 Coeff-Com:  0.279D+00 0.652D+00
 Coeff:     -0.862D-06 0.186D-05-0.326D-06 0.267D-05-0.427D-04-0.133D-03
 Coeff:     -0.270D-03-0.787D-03-0.576D-02 0.634D-03 0.216D-02 0.733D-01
 Coeff:      0.279D+00 0.652D+00
 Gap=     0.140 Goal=   None    Shift=    0.000
 Gap=     0.140 Goal=   None    Shift=    0.000
 RMSDP=1.77D-08 MaxDP=1.54D-06 DE=-4.27D-11 OVMax= 7.95D-07

 Cycle  15  Pass 1  IDiag  1:
 RMSU=  8.01D-09    CP:  8.29D-01  6.42D-01  8.49D-01  3.59D-01  7.87D-01
                    CP:  7.49D-01  6.47D-01  7.24D-01  8.17D-01  8.67D-01
                    CP:  1.10D+00  9.38D-01  7.35D-01  8.24D-01
 E= -3112.40893729015     Delta-E=        0.000000000025 Rises=F Damp=F
 DIIS: error= 3.04D-08 at cycle  15 NSaved=  15.
 NSaved=15 IEnMin=14 EnMin= -3112.40893729018     IErMin=15 ErrMin= 3.04D-08
 ErrMax= 3.04D-08  0.00D+00 EMaxC= 1.00D-01 BMatC= 1.40D-12 BMatP= 1.11D-11
 IDIUse=1 WtCom= 1.00D+00 WtEn= 0.00D+00
 Coeff-Com: -0.149D-06 0.320D-06 0.246D-06 0.155D-05-0.402D-05-0.148D-04
 Coeff-Com: -0.242D-04-0.181D-03-0.257D-02-0.920D-03-0.106D-01 0.123D-01
 Coeff-Com:  0.112D+00 0.355D+00 0.535D+00
 Coeff:     -0.149D-06 0.320D-06 0.246D-06 0.155D-05-0.402D-05-0.148D-04
 Coeff:     -0.242D-04-0.181D-03-0.257D-02-0.920D-03-0.106D-01 0.123D-01
 Coeff:      0.112D+00 0.355D+00 0.535D+00
 Gap=     0.140 Goal=   None    Shift=    0.000
 Gap=     0.140 Goal=   None    Shift=    0.000
 RMSDP=4.21D-09 MaxDP=2.63D-07 DE= 2.55D-11 OVMax= 3.21D-07

 Error on total polarization charges =  0.01812
 SCF Done:  E(UB3LYP) =  -3112.40893729     A.U. after   15 cycles
            NFock= 15  Conv=0.42D-08     -V/T= 2.0017
 <Sx>= 0.0000 <Sy>= 0.0000 <Sz>= 0.0000 <S**2>=-0.0000 S=-0.0000
 <L.S>=  0.00000000000    
 KE= 3.107037881881D+03 PE=-9.528708723382D+03 EE= 2.247851791407D+03
 Annihilation of the first spin contaminant:
 S**2 before annihilation    -0.0000,   after    -0.0000
 Leave Link  502 at Sat Feb 10 10:05:25 2024, MaxMem=  4026531840 cpu:            1658.5 elap:             233.5
 (Enter /sysapps/ubuntu-applications/gaussian/Gaussian/AVX2/g16/l601.exe)
 Copying SCF densities to generalized density rwf, IOpCl= 1 IROHF=0.

 **********************************************************************

            Population analysis using the SCF density.

 **********************************************************************

 Alpha  occ. eigenvalues -- -482.85284 -62.50555 -56.32598 -56.32214 -56.32176
 Alpha  occ. eigenvalues --  -19.15184 -19.14909 -10.30056 -10.29721 -10.26794
 Alpha  occ. eigenvalues --  -10.22548 -10.22200 -10.21071 -10.20766 -10.16454
 Alpha  occ. eigenvalues --  -10.16270 -10.16269  -8.71522  -6.54686  -6.53399
 Alpha  occ. eigenvalues --   -6.53289  -2.65778  -2.65426  -2.65342  -2.64319
 Alpha  occ. eigenvalues --   -2.64318  -1.08560  -1.08113  -0.88723  -0.85360
 Alpha  occ. eigenvalues --   -0.80930  -0.76755  -0.71288  -0.69477  -0.69263
 Alpha  occ. eigenvalues --   -0.64358  -0.61627  -0.56017  -0.53874  -0.50635
 Alpha  occ. eigenvalues --   -0.49123  -0.47365  -0.46599  -0.45749  -0.44833
 Alpha  occ. eigenvalues --   -0.44607  -0.43447  -0.42947  -0.40984  -0.39259
 Alpha  occ. eigenvalues --   -0.38704  -0.37273  -0.36378  -0.35843  -0.34665
 Alpha  occ. eigenvalues --   -0.34293  -0.31259  -0.30598  -0.29926  -0.28409
 Alpha  occ. eigenvalues --   -0.28322
 Alpha virt. eigenvalues --   -0.14273  -0.03809  -0.02784  -0.01255  -0.00731
 Alpha virt. eigenvalues --    0.00537   0.01217   0.01864   0.02477   0.03064
 Alpha virt. eigenvalues --    0.03690   0.03842   0.04500   0.04889   0.05291
 Alpha virt. eigenvalues --    0.06132   0.06137   0.06989   0.07970   0.08085
 Alpha virt. eigenvalues --    0.08307   0.08407   0.09629   0.09942   0.10519
 Alpha virt. eigenvalues --    0.11282   0.11491   0.11766   0.12109   0.12169
 Alpha virt. eigenvalues --    0.12766   0.13119   0.13544   0.13659   0.14520
 Alpha virt. eigenvalues --    0.14640   0.14685   0.15198   0.15239   0.15472
 Alpha virt. eigenvalues --    0.15591   0.16241   0.16918   0.17394   0.17904
 Alpha virt. eigenvalues --    0.18134   0.18806   0.19077   0.19181   0.19358
 Alpha virt. eigenvalues --    0.19504   0.19938   0.20242   0.20914   0.21791
 Alpha virt. eigenvalues --    0.22141   0.22489   0.23686   0.24504   0.24937
 Alpha virt. eigenvalues --    0.25312   0.26232   0.26624   0.26758   0.27437
 Alpha virt. eigenvalues --    0.27862   0.27881   0.28921   0.29931   0.30206
 Alpha virt. eigenvalues --    0.30944   0.31942   0.32188   0.32409   0.32536
 Alpha virt. eigenvalues --    0.33571   0.33985   0.34450   0.35524   0.36089
 Alpha virt. eigenvalues --    0.37358   0.38092   0.38657   0.39857   0.40687
 Alpha virt. eigenvalues --    0.41998   0.42774   0.43784   0.44257   0.45015
 Alpha virt. eigenvalues --    0.46603   0.49084   0.49853   0.50517   0.51644
 Alpha virt. eigenvalues --    0.53033   0.53278   0.55493   0.56782   0.57091
 Alpha virt. eigenvalues --    0.57238   0.57587   0.58918   0.59337   0.60939
 Alpha virt. eigenvalues --    0.61153   0.61835   0.62516   0.62871   0.63543
 Alpha virt. eigenvalues --    0.64358   0.65797   0.65925   0.66067   0.67578
 Alpha virt. eigenvalues --    0.68286   0.68694   0.69229   0.69304   0.70830
 Alpha virt. eigenvalues --    0.72307   0.72519   0.74164   0.75289   0.75622
 Alpha virt. eigenvalues --    0.77210   0.78081   0.78752   0.79468   0.82128
 Alpha virt. eigenvalues --    0.83163   0.83448   0.85601   0.87472   0.87930
 Alpha virt. eigenvalues --    0.90137   0.90497   0.91502   0.93040   0.95172
 Alpha virt. eigenvalues --    0.95620   0.95774   0.99235   1.01065   1.02786
 Alpha virt. eigenvalues --    1.03498   1.06587   1.07242   1.07680   1.08955
 Alpha virt. eigenvalues --    1.11571   1.12827   1.15941   1.18067   1.19615
 Alpha virt. eigenvalues --    1.19848   1.21795   1.22715   1.24728   1.25626
 Alpha virt. eigenvalues --    1.26384   1.26652   1.29315   1.31086   1.40736
 Alpha virt. eigenvalues --    1.42460   1.43782   1.44192   1.45465   1.46083
 Alpha virt. eigenvalues --    1.48442   1.48451   1.49841   1.51456   1.52484
 Alpha virt. eigenvalues --    1.53925   1.55164   1.56486   1.59273   1.59762
 Alpha virt. eigenvalues --    1.61865   1.63599   1.64284   1.64980   1.67001
 Alpha virt. eigenvalues --    1.67677   1.69240   1.69373   1.71277   1.71572
 Alpha virt. eigenvalues --    1.74816   1.75840   1.76409   1.77928   1.78213
 Alpha virt. eigenvalues --    1.79195   1.80452   1.81622   1.83440   1.85091
 Alpha virt. eigenvalues --    1.89251   1.91507   1.92892   1.96487   1.96807
 Alpha virt. eigenvalues --    1.97345   1.98936   1.99653   2.02758   2.05384
 Alpha virt. eigenvalues --    2.06780   2.09222   2.09815   2.12038   2.12673
 Alpha virt. eigenvalues --    2.14407   2.17454   2.19430   2.21060   2.21070
 Alpha virt. eigenvalues --    2.23826   2.26472   2.27600   2.28108   2.34849
 Alpha virt. eigenvalues --    2.39061   2.43132   2.45158   2.47176   2.49930
 Alpha virt. eigenvalues --    2.51541   2.51737   2.52452   2.54227   2.54991
 Alpha virt. eigenvalues --    2.57296   2.57511   2.58501   2.61030   2.61494
 Alpha virt. eigenvalues --    2.63455   2.66587   2.67865   2.69778   2.70502
 Alpha virt. eigenvalues --    2.73072   2.73242   2.75139   2.77389   2.79964
 Alpha virt. eigenvalues --    2.82320   2.82623   2.84213   2.85488   2.88170
 Alpha virt. eigenvalues --    2.89819   2.90796   2.93559   2.94206   2.98663
 Alpha virt. eigenvalues --    3.01185   3.03916   3.04560   3.07501   3.09208
 Alpha virt. eigenvalues --    3.15473   3.18947   3.19767   3.21322   3.26037
 Alpha virt. eigenvalues --    3.29419   3.31588   3.33769   3.40931   3.47197
 Alpha virt. eigenvalues --    3.54632   3.58913   3.62286   3.68454   3.75081
 Alpha virt. eigenvalues --    3.77213   3.78784   3.79766   3.81081   3.81822
 Alpha virt. eigenvalues --    3.84824   3.87670   4.06393   4.10187   4.12421
 Alpha virt. eigenvalues --    4.15237   4.18515   4.20660   4.25759   4.26770
 Alpha virt. eigenvalues --    4.37274   4.39072   4.56479   4.67372   5.02545
 Alpha virt. eigenvalues --    5.04833   5.19864   5.24779   5.69260   5.78226
 Alpha virt. eigenvalues --    6.75311   7.54460   7.66826   7.73464  23.55635
 Alpha virt. eigenvalues --   23.70930  23.78518  23.83669  23.88520  23.97358
 Alpha virt. eigenvalues --   23.98665  24.00272  24.15113  24.20010  48.00529
 Alpha virt. eigenvalues --   49.97629  50.01980 289.74193 289.86532 289.95726
 Alpha virt. eigenvalues -- 1020.81754
  Beta  occ. eigenvalues -- -482.85284 -62.50555 -56.32598 -56.32214 -56.32176
  Beta  occ. eigenvalues --  -19.15184 -19.14909 -10.30056 -10.29721 -10.26794
  Beta  occ. eigenvalues --  -10.22548 -10.22200 -10.21071 -10.20766 -10.16454
  Beta  occ. eigenvalues --  -10.16270 -10.16269  -8.71522  -6.54686  -6.53399
  Beta  occ. eigenvalues --   -6.53289  -2.65778  -2.65426  -2.65342  -2.64319
  Beta  occ. eigenvalues --   -2.64318  -1.08560  -1.08113  -0.88723  -0.85360
  Beta  occ. eigenvalues --   -0.80930  -0.76755  -0.71288  -0.69477  -0.69263
  Beta  occ. eigenvalues --   -0.64358  -0.61627  -0.56017  -0.53874  -0.50635
  Beta  occ. eigenvalues --   -0.49123  -0.47365  -0.46599  -0.45749  -0.44833
  Beta  occ. eigenvalues --   -0.44607  -0.43447  -0.42947  -0.40984  -0.39259
  Beta  occ. eigenvalues --   -0.38704  -0.37273  -0.36378  -0.35843  -0.34665
  Beta  occ. eigenvalues --   -0.34293  -0.31259  -0.30598  -0.29926  -0.28409
  Beta  occ. eigenvalues --   -0.28322
  Beta virt. eigenvalues --   -0.14273  -0.03809  -0.02784  -0.01255  -0.00731
  Beta virt. eigenvalues --    0.00537   0.01217   0.01864   0.02477   0.03064
  Beta virt. eigenvalues --    0.03690   0.03842   0.04500   0.04889   0.05291
  Beta virt. eigenvalues --    0.06132   0.06137   0.06989   0.07970   0.08085
  Beta virt. eigenvalues --    0.08307   0.08407   0.09629   0.09942   0.10519
  Beta virt. eigenvalues --    0.11282   0.11491   0.11766   0.12109   0.12169
  Beta virt. eigenvalues --    0.12766   0.13119   0.13544   0.13659   0.14520
  Beta virt. eigenvalues --    0.14640   0.14685   0.15198   0.15239   0.15472
  Beta virt. eigenvalues --    0.15591   0.16241   0.16918   0.17394   0.17904
  Beta virt. eigenvalues --    0.18134   0.18806   0.19077   0.19181   0.19358
  Beta virt. eigenvalues --    0.19504   0.19938   0.20242   0.20914   0.21791
  Beta virt. eigenvalues --    0.22141   0.22489   0.23686   0.24504   0.24937
  Beta virt. eigenvalues --    0.25312   0.26232   0.26624   0.26758   0.27437
  Beta virt. eigenvalues --    0.27862   0.27881   0.28921   0.29931   0.30206
  Beta virt. eigenvalues --    0.30944   0.31942   0.32188   0.32409   0.32536
  Beta virt. eigenvalues --    0.33571   0.33985   0.34450   0.35524   0.36089
  Beta virt. eigenvalues --    0.37358   0.38092   0.38657   0.39857   0.40687
  Beta virt. eigenvalues --    0.41998   0.42774   0.43784   0.44257   0.45015
  Beta virt. eigenvalues --    0.46603   0.49084   0.49853   0.50517   0.51644
  Beta virt. eigenvalues --    0.53033   0.53278   0.55493   0.56782   0.57091
  Beta virt. eigenvalues --    0.57238   0.57587   0.58918   0.59337   0.60939
  Beta virt. eigenvalues --    0.61153   0.61835   0.62516   0.62871   0.63543
  Beta virt. eigenvalues --    0.64358   0.65797   0.65925   0.66067   0.67578
  Beta virt. eigenvalues --    0.68286   0.68694   0.69229   0.69304   0.70830
  Beta virt. eigenvalues --    0.72307   0.72519   0.74164   0.75289   0.75622
  Beta virt. eigenvalues --    0.77210   0.78081   0.78752   0.79468   0.82128
  Beta virt. eigenvalues --    0.83163   0.83448   0.85601   0.87472   0.87930
  Beta virt. eigenvalues --    0.90137   0.90497   0.91502   0.93040   0.95172
  Beta virt. eigenvalues --    0.95620   0.95774   0.99235   1.01065   1.02786
  Beta virt. eigenvalues --    1.03498   1.06587   1.07242   1.07680   1.08955
  Beta virt. eigenvalues --    1.11571   1.12827   1.15941   1.18067   1.19615
  Beta virt. eigenvalues --    1.19848   1.21795   1.22715   1.24728   1.25626
  Beta virt. eigenvalues --    1.26384   1.26652   1.29315   1.31086   1.40736
  Beta virt. eigenvalues --    1.42460   1.43782   1.44192   1.45465   1.46083
  Beta virt. eigenvalues --    1.48442   1.48451   1.49841   1.51456   1.52484
  Beta virt. eigenvalues --    1.53925   1.55164   1.56486   1.59273   1.59762
  Beta virt. eigenvalues --    1.61865   1.63599   1.64284   1.64980   1.67001
  Beta virt. eigenvalues --    1.67677   1.69240   1.69373   1.71277   1.71572
  Beta virt. eigenvalues --    1.74816   1.75840   1.76409   1.77928   1.78213
  Beta virt. eigenvalues --    1.79195   1.80452   1.81622   1.83440   1.85091
  Beta virt. eigenvalues --    1.89251   1.91507   1.92892   1.96487   1.96807
  Beta virt. eigenvalues --    1.97345   1.98936   1.99653   2.02758   2.05384
  Beta virt. eigenvalues --    2.06780   2.09222   2.09815   2.12038   2.12673
  Beta virt. eigenvalues --    2.14407   2.17454   2.19430   2.21060   2.21070
  Beta virt. eigenvalues --    2.23826   2.26472   2.27600   2.28108   2.34849
  Beta virt. eigenvalues --    2.39061   2.43132   2.45158   2.47176   2.49930
  Beta virt. eigenvalues --    2.51541   2.51737   2.52452   2.54227   2.54991
  Beta virt. eigenvalues --    2.57296   2.57511   2.58501   2.61030   2.61494
  Beta virt. eigenvalues --    2.63455   2.66587   2.67865   2.69778   2.70502
  Beta virt. eigenvalues --    2.73072   2.73242   2.75139   2.77389   2.79964
  Beta virt. eigenvalues --    2.82320   2.82623   2.84213   2.85488   2.88170
  Beta virt. eigenvalues --    2.89819   2.90796   2.93559   2.94206   2.98663
  Beta virt. eigenvalues --    3.01185   3.03916   3.04560   3.07501   3.09208
  Beta virt. eigenvalues --    3.15473   3.18947   3.19767   3.21322   3.26037
  Beta virt. eigenvalues --    3.29419   3.31588   3.33769   3.40931   3.47197
  Beta virt. eigenvalues --    3.54632   3.58913   3.62286   3.68454   3.75081
  Beta virt. eigenvalues --    3.77213   3.78784   3.79766   3.81081   3.81822
  Beta virt. eigenvalues --    3.84824   3.87670   4.06393   4.10187   4.12421
  Beta virt. eigenvalues --    4.15237   4.18515   4.20660   4.25759   4.26770
  Beta virt. eigenvalues --    4.37274   4.39072   4.56479   4.67372   5.02545
  Beta virt. eigenvalues --    5.04833   5.19864   5.24779   5.69260   5.78226
  Beta virt. eigenvalues --    6.75311   7.54460   7.66826   7.73464  23.55635
  Beta virt. eigenvalues --   23.70930  23.78518  23.83669  23.88520  23.97358
  Beta virt. eigenvalues --   23.98665  24.00272  24.15113  24.20010  48.00529
  Beta virt. eigenvalues --   49.97629  50.01980 289.74193 289.86532 289.95726
  Beta virt. eigenvalues -- 1020.81754
          Condensed to atoms (all electrons):
               1          2          3          4          5          6
     1  C    8.759809   1.166707  -1.039471  -0.256646   0.185179  -1.734924
     2  C    1.166707   7.608846   0.860894  -1.003917   0.782162  -2.533824
     3  C   -1.039471   0.860894  12.804629  -3.129848  -2.299940   0.632782
     4  C   -0.256646  -1.003917  -3.129848   9.854923  -0.149204  -0.458586
     5  C    0.185179   0.782162  -2.299940  -0.149204  10.164860  -1.478720
     6  C   -1.734924  -2.533824   0.632782  -0.458586  -1.478720  10.159519
     7  Br  -0.069243  -0.026831   0.057269   0.107620   0.073925   0.066465
     8  C   -0.652075  -1.023715  -3.244329   1.411965  -1.299343   0.897355
     9  C    0.089653   0.090745   0.426144  -0.234794  -0.099836   0.001920
    10  C   -0.165627  -0.002854  -0.089445  -0.015715   0.162829  -0.066211
    11  C    0.089639   0.090556   0.424949  -0.234571  -0.100839   0.002120
    12  O    0.510541  -0.187551   0.049945  -0.007346  -0.070409  -0.139979
    13  O   -0.033145  -0.016569  -0.236558   0.627451  -0.133067   0.060965
    14  H   -0.119135   0.554205  -0.029370   0.069242   0.107080  -0.205900
    15  H    0.075216   0.048932  -0.151038  -0.088634   0.541495  -0.090663
    16  H   -0.009483  -0.000787  -0.063201   0.014626  -0.006319   0.007368
    17  H    0.000256  -0.001066   0.034924   0.006470  -0.002324   0.000442
    18  H    0.002810  -0.012508  -0.079204   0.063106   0.025331  -0.002592
    19  H    0.003793  -0.004793  -0.002396  -0.014143  -0.011319   0.009180
    20  H    0.003938  -0.004641  -0.002480  -0.014140  -0.011346   0.009225
    21  H   -0.007217   0.012658  -0.000826  -0.004909   0.000644   0.004282
    22  H    0.002823  -0.012537  -0.079467   0.063292   0.025345  -0.002553
    23  H    0.000249  -0.001043   0.035006   0.006377  -0.002380   0.000455
    24  H   -0.009474  -0.000753  -0.062971   0.014547  -0.006217   0.007333
               7          8          9         10         11         12
     1  C   -0.069243  -0.652075   0.089653  -0.165627   0.089639   0.510541
     2  C   -0.026831  -1.023715   0.090745  -0.002854   0.090556  -0.187551
     3  C    0.057269  -3.244329   0.426144  -0.089445   0.424949   0.049945
     4  C    0.107620   1.411965  -0.234794  -0.015715  -0.234571  -0.007346
     5  C    0.073925  -1.299343  -0.099836   0.162829  -0.100839  -0.070409
     6  C    0.066465   0.897355   0.001920  -0.066211   0.002120  -0.139979
     7  Br  34.942332  -0.003318   0.001120  -0.002971   0.001126  -0.036155
     8  C   -0.003318   9.888112  -0.170962  -0.040498  -0.169312   0.023727
     9  C    0.001120  -0.170962   5.899642  -0.233365  -0.132746  -0.000560
    10  C   -0.002971  -0.040498  -0.233365   5.927512  -0.233336   0.006517
    11  C    0.001126  -0.169312  -0.132746  -0.233336   5.899731  -0.000566
    12  O   -0.036155   0.023727  -0.000560   0.006517  -0.000566   8.111308
    13  O    0.001721   0.096204  -0.069677   0.024431  -0.069728   0.000597
    14  H   -0.007465  -0.104849  -0.000861   0.025113  -0.000892  -0.028453
    15  H   -0.045295  -0.025566  -0.004881   0.004064  -0.004903   0.000604
    16  H    0.000097   0.051757   0.349813   0.008233   0.002521  -0.000020
    17  H   -0.000065  -0.062298   0.378675  -0.014834   0.005359   0.000062
    18  H   -0.000038  -0.056433   0.435980   0.010869  -0.024069  -0.000225
    19  H    0.000351  -0.001298  -0.010265   0.382392   0.017179   0.000291
    20  H    0.000351  -0.001750   0.017129   0.382615  -0.010224   0.000292
    21  H   -0.000001  -0.009954  -0.028127   0.409630  -0.028177   0.000382
    22  H   -0.000038  -0.056402  -0.024029   0.010803   0.435997  -0.000225
    23  H   -0.000065  -0.062279   0.005323  -0.014773   0.378669   0.000062
    24  H    0.000096   0.051438   0.002464   0.008360   0.349782  -0.000021
              13         14         15         16         17         18
     1  C   -0.033145  -0.119135   0.075216  -0.009483   0.000256   0.002810
     2  C   -0.016569   0.554205   0.048932  -0.000787  -0.001066  -0.012508
     3  C   -0.236558  -0.029370  -0.151038  -0.063201   0.034924  -0.079204
     4  C    0.627451   0.069242  -0.088634   0.014626   0.006470   0.063106
     5  C   -0.133067   0.107080   0.541495  -0.006319  -0.002324   0.025331
     6  C    0.060965  -0.205900  -0.090663   0.007368   0.000442  -0.002592
     7  Br   0.001721  -0.007465  -0.045295   0.000097  -0.000065  -0.000038
     8  C    0.096204  -0.104849  -0.025566   0.051757  -0.062298  -0.056433
     9  C   -0.069677  -0.000861  -0.004881   0.349813   0.378675   0.435980
    10  C    0.024431   0.025113   0.004064   0.008233  -0.014834   0.010869
    11  C   -0.069728  -0.000892  -0.004903   0.002521   0.005359  -0.024069
    12  O    0.000597  -0.028453   0.000604  -0.000020   0.000062  -0.000225
    13  O    8.014601   0.000342  -0.022327   0.003042   0.001018  -0.010044
    14  H    0.000342   0.503646   0.005601  -0.000588  -0.000515   0.000192
    15  H   -0.022327   0.005601   0.478488  -0.000351   0.000047   0.000700
    16  H    0.003042  -0.000588  -0.000351   0.541790  -0.027734  -0.022410
    17  H    0.001018  -0.000515   0.000047  -0.027734   0.545897  -0.034720
    18  H   -0.010044   0.000192   0.000700  -0.022410  -0.034720   0.535490
    19  H   -0.000341  -0.008424  -0.000386   0.002552   0.005272  -0.000163
    20  H   -0.000341  -0.008419  -0.000387   0.000909  -0.001250  -0.003596
    21  H   -0.000048   0.000876  -0.000113  -0.000278   0.000759   0.002028
    22  H   -0.010022   0.000189   0.000698   0.000987   0.005397  -0.011328
    23  H    0.001008  -0.000523   0.000046   0.001182  -0.009349   0.005392
    24  H    0.003043  -0.000587  -0.000349  -0.004103   0.001182   0.000985
              19         20         21         22         23         24
     1  C    0.003793   0.003938  -0.007217   0.002823   0.000249  -0.009474
     2  C   -0.004793  -0.004641   0.012658  -0.012537  -0.001043  -0.000753
     3  C   -0.002396  -0.002480  -0.000826  -0.079467   0.035006  -0.062971
     4  C   -0.014143  -0.014140  -0.004909   0.063292   0.006377   0.014547
     5  C   -0.011319  -0.011346   0.000644   0.025345  -0.002380  -0.006217
     6  C    0.009180   0.009225   0.004282  -0.002553   0.000455   0.007333
     7  Br   0.000351   0.000351  -0.000001  -0.000038  -0.000065   0.000096
     8  C   -0.001298  -0.001750  -0.009954  -0.056402  -0.062279   0.051438
     9  C   -0.010265   0.017129  -0.028127  -0.024029   0.005323   0.002464
    10  C    0.382392   0.382615   0.409630   0.010803  -0.014773   0.008360
    11  C    0.017179  -0.010224  -0.028177   0.435997   0.378669   0.349782
    12  O    0.000291   0.000292   0.000382  -0.000225   0.000062  -0.000021
    13  O   -0.000341  -0.000341  -0.000048  -0.010022   0.001008   0.003043
    14  H   -0.008424  -0.008419   0.000876   0.000189  -0.000523  -0.000587
    15  H   -0.000386  -0.000387  -0.000113   0.000698   0.000046  -0.000349
    16  H    0.002552   0.000909  -0.000278   0.000987   0.001182  -0.004103
    17  H    0.005272  -0.001250   0.000759   0.005397  -0.009349   0.001182
    18  H   -0.000163  -0.003596   0.002028  -0.011328   0.005392   0.000985
    19  H    0.557639  -0.041671  -0.023119  -0.003597  -0.001242   0.000906
    20  H   -0.041671   0.557688  -0.023102  -0.000154   0.005267   0.002555
    21  H   -0.023119  -0.023102   0.508469   0.002026   0.000777  -0.000276
    22  H   -0.003597  -0.000154   0.002026   0.535369  -0.034701  -0.022392
    23  H   -0.001242   0.005267   0.000777  -0.034701   0.545890  -0.027729
    24  H    0.000906   0.002555  -0.000276  -0.022392  -0.027729   0.541812
          Atomic-Atomic Spin Densities.
               1          2          3          4          5          6
     1  C    0.000000  -0.000000  -0.000000   0.000000   0.000000   0.000000
     2  C   -0.000000  -0.000000   0.000000  -0.000000   0.000000   0.000000
     3  C   -0.000000   0.000000   0.000000  -0.000000   0.000000  -0.000000
     4  C    0.000000  -0.000000  -0.000000   0.000000  -0.000000   0.000000
     5  C    0.000000   0.000000   0.000000  -0.000000   0.000000   0.000000
     6  C    0.000000   0.000000  -0.000000   0.000000   0.000000  -0.000000
     7  Br  -0.000000   0.000000  -0.000000  -0.000000  -0.000000   0.000000
     8  C   -0.000000  -0.000000  -0.000000   0.000000  -0.000000   0.000000
     9  C   -0.000000  -0.000000  -0.000000   0.000000  -0.000000   0.000000
    10  C   -0.000000   0.000000   0.000000  -0.000000   0.000000  -0.000000
    11  C   -0.000000   0.000000   0.000000  -0.000000   0.000000  -0.000000
    12  O   -0.000000   0.000000   0.000000  -0.000000   0.000000  -0.000000
    13  O   -0.000000   0.000000   0.000000  -0.000000  -0.000000   0.000000
    14  H    0.000000  -0.000000  -0.000000   0.000000  -0.000000   0.000000
    15  H   -0.000000  -0.000000   0.000000   0.000000  -0.000000   0.000000
    16  H   -0.000000  -0.000000  -0.000000   0.000000   0.000000   0.000000
    17  H    0.000000   0.000000   0.000000  -0.000000  -0.000000  -0.000000
    18  H    0.000000  -0.000000  -0.000000   0.000000  -0.000000   0.000000
    19  H   -0.000000  -0.000000  -0.000000   0.000000  -0.000000  -0.000000
    20  H   -0.000000  -0.000000   0.000000   0.000000   0.000000  -0.000000
    21  H   -0.000000   0.000000   0.000000  -0.000000   0.000000   0.000000
    22  H    0.000000   0.000000   0.000000   0.000000   0.000000  -0.000000
    23  H   -0.000000  -0.000000  -0.000000   0.000000  -0.000000   0.000000
    24  H   -0.000000   0.000000  -0.000000   0.000000   0.000000   0.000000
               7          8          9         10         11         12
     1  C   -0.000000  -0.000000  -0.000000  -0.000000  -0.000000  -0.000000
     2  C    0.000000  -0.000000  -0.000000   0.000000   0.000000   0.000000
     3  C   -0.000000  -0.000000  -0.000000   0.000000   0.000000   0.000000
     4  C   -0.000000   0.000000   0.000000  -0.000000  -0.000000  -0.000000
     5  C   -0.000000  -0.000000  -0.000000   0.000000   0.000000   0.000000
     6  C    0.000000   0.000000   0.000000  -0.000000  -0.000000  -0.000000
     7  Br  -0.000000  -0.000000   0.000000  -0.000000  -0.000000   0.000000
     8  C   -0.000000   0.000000   0.000000  -0.000000  -0.000000  -0.000000
     9  C    0.000000   0.000000  -0.000000   0.000000   0.000000   0.000000
    10  C   -0.000000  -0.000000   0.000000   0.000000   0.000000   0.000000
    11  C   -0.000000  -0.000000   0.000000   0.000000   0.000000  -0.000000
    12  O    0.000000  -0.000000   0.000000   0.000000  -0.000000  -0.000000
    13  O   -0.000000  -0.000000  -0.000000   0.000000   0.000000  -0.000000
    14  H    0.000000   0.000000  -0.000000  -0.000000   0.000000   0.000000
    15  H   -0.000000  -0.000000  -0.000000   0.000000   0.000000   0.000000
    16  H   -0.000000   0.000000   0.000000  -0.000000  -0.000000   0.000000
    17  H   -0.000000  -0.000000   0.000000   0.000000   0.000000  -0.000000
    18  H    0.000000   0.000000  -0.000000  -0.000000  -0.000000  -0.000000
    19  H   -0.000000   0.000000   0.000000  -0.000000  -0.000000  -0.000000
    20  H   -0.000000   0.000000  -0.000000  -0.000000  -0.000000  -0.000000
    21  H   -0.000000  -0.000000   0.000000   0.000000   0.000000   0.000000
    22  H   -0.000000  -0.000000  -0.000000  -0.000000   0.000000  -0.000000
    23  H    0.000000   0.000000   0.000000   0.000000  -0.000000  -0.000000
    24  H    0.000000   0.000000   0.000000  -0.000000  -0.000000   0.000000
              13         14         15         16         17         18
     1  C   -0.000000   0.000000  -0.000000  -0.000000   0.000000   0.000000
     2  C    0.000000  -0.000000  -0.000000  -0.000000   0.000000  -0.000000
     3  C    0.000000  -0.000000   0.000000  -0.000000   0.000000  -0.000000
     4  C   -0.000000   0.000000   0.000000   0.000000  -0.000000   0.000000
     5  C   -0.000000  -0.000000  -0.000000   0.000000  -0.000000  -0.000000
     6  C    0.000000   0.000000   0.000000   0.000000  -0.000000   0.000000
     7  Br  -0.000000   0.000000  -0.000000  -0.000000  -0.000000   0.000000
     8  C   -0.000000   0.000000  -0.000000   0.000000  -0.000000   0.000000
     9  C   -0.000000  -0.000000  -0.000000   0.000000   0.000000  -0.000000
    10  C    0.000000  -0.000000   0.000000  -0.000000   0.000000  -0.000000
    11  C    0.000000   0.000000   0.000000  -0.000000   0.000000  -0.000000
    12  O   -0.000000   0.000000   0.000000   0.000000  -0.000000  -0.000000
    13  O   -0.000000  -0.000000  -0.000000   0.000000  -0.000000   0.000000
    14  H   -0.000000  -0.000000  -0.000000   0.000000   0.000000   0.000000
    15  H   -0.000000  -0.000000  -0.000000   0.000000   0.000000   0.000000
    16  H    0.000000   0.000000   0.000000  -0.000000   0.000000   0.000000
    17  H   -0.000000   0.000000   0.000000   0.000000  -0.000000   0.000000
    18  H    0.000000   0.000000   0.000000   0.000000   0.000000   0.000000
    19  H   -0.000000   0.000000   0.000000   0.000000  -0.000000   0.000000
    20  H   -0.000000   0.000000   0.000000  -0.000000  -0.000000  -0.000000
    21  H    0.000000  -0.000000  -0.000000  -0.000000   0.000000  -0.000000
    22  H    0.000000   0.000000   0.000000   0.000000  -0.000000   0.000000
    23  H   -0.000000   0.000000  -0.000000   0.000000  -0.000000  -0.000000
    24  H    0.000000  -0.000000  -0.000000   0.000000   0.000000   0.000000
              19         20         21         22         23         24
     1  C   -0.000000  -0.000000  -0.000000   0.000000  -0.000000  -0.000000
     2  C   -0.000000  -0.000000   0.000000   0.000000  -0.000000   0.000000
     3  C   -0.000000   0.000000   0.000000   0.000000  -0.000000  -0.000000
     4  C    0.000000   0.000000  -0.000000   0.000000   0.000000   0.000000
     5  C   -0.000000   0.000000   0.000000   0.000000  -0.000000   0.000000
     6  C   -0.000000  -0.000000   0.000000  -0.000000   0.000000   0.000000
     7  Br  -0.000000  -0.000000  -0.000000  -0.000000   0.000000   0.000000
     8  C    0.000000   0.000000  -0.000000  -0.000000   0.000000   0.000000
     9  C    0.000000  -0.000000   0.000000  -0.000000   0.000000   0.000000
    10  C   -0.000000  -0.000000   0.000000  -0.000000   0.000000  -0.000000
    11  C   -0.000000  -0.000000   0.000000   0.000000  -0.000000  -0.000000
    12  O   -0.000000  -0.000000   0.000000  -0.000000  -0.000000   0.000000
    13  O   -0.000000  -0.000000   0.000000   0.000000  -0.000000   0.000000
    14  H    0.000000   0.000000  -0.000000   0.000000   0.000000  -0.000000
    15  H    0.000000   0.000000  -0.000000   0.000000  -0.000000  -0.000000
    16  H    0.000000  -0.000000  -0.000000   0.000000   0.000000   0.000000
    17  H   -0.000000  -0.000000   0.000000  -0.000000  -0.000000   0.000000
    18  H    0.000000  -0.000000  -0.000000   0.000000  -0.000000   0.000000
    19  H    0.000000  -0.000000  -0.000000  -0.000000   0.000000   0.000000
    20  H   -0.000000  -0.000000  -0.000000  -0.000000   0.000000   0.000000
    21  H   -0.000000  -0.000000   0.000000   0.000000   0.000000  -0.000000
    22  H   -0.000000  -0.000000   0.000000   0.000000  -0.000000   0.000000
    23  H    0.000000   0.000000   0.000000  -0.000000  -0.000000   0.000000
    24  H    0.000000   0.000000  -0.000000   0.000000   0.000000  -0.000000
 Mulliken charges and spin densities:
               1          2
     1  C   -0.794174  -0.000000
     2  C   -0.382317  -0.000000
     3  C    1.184002  -0.000000
     4  C   -0.627165   0.000000
     5  C   -0.397587  -0.000000
     6  C    0.854538   0.000000
     7  Br  -0.060987   0.000000
     8  C    0.563825  -0.000000
     9  C   -0.688507  -0.000000
    10  C   -0.483739   0.000000
    11  C   -0.688265   0.000000
    12  O   -0.232818   0.000000
    13  O   -0.232556  -0.000000
    14  H    0.249496   0.000000
    15  H    0.279001  -0.000000
    16  H    0.150396  -0.000000
    17  H    0.168396  -0.000000
    18  H    0.174445   0.000000
    19  H    0.143601  -0.000000
    20  H    0.143531  -0.000000
    21  H    0.183617   0.000000
    22  H    0.174517   0.000000
    23  H    0.168381  -0.000000
    24  H    0.150367  -0.000000
 Sum of Mulliken charges =  -0.00000  -0.00000
 Mulliken charges and spin densities with hydrogens summed into heavy atoms:
               1          2
     1  C   -0.794174  -0.000000
     2  C   -0.132821  -0.000000
     3  C    1.184002  -0.000000
     4  C   -0.627165   0.000000
     5  C   -0.118586  -0.000000
     6  C    0.854538   0.000000
     7  Br  -0.060987   0.000000
     8  C    0.563825  -0.000000
     9  C   -0.195270  -0.000000
    10  C   -0.012989   0.000000
    11  C   -0.195001   0.000000
    12  O   -0.232818   0.000000
    13  O   -0.232556  -0.000000
 Electronic spatial extent (au):  <R**2>=           4966.6796
 Charge=              0.0000 electrons
 Dipole moment (field-independent basis, Debye):
    X=             -2.3726    Y=             -1.4017    Z=             -0.3938  Tot=              2.7838
 Quadrupole moment (field-independent basis, Debye-Ang):
   XX=            -75.4589   YY=           -100.4313   ZZ=            -98.1014
   XY=             -0.4254   XZ=             -4.5053   YZ=             -9.9395
 Traceless Quadrupole moment (field-independent basis, Debye-Ang):
   XX=             15.8716   YY=             -9.1007   ZZ=             -6.7709
   XY=             -0.4254   XZ=             -4.5053   YZ=             -9.9395
 Octapole moment (field-independent basis, Debye-Ang**2):
  XXX=            397.5019  YYY=           -127.0872  ZZZ=             -5.7544  XYY=            160.8115
  XXY=            -34.8560  XXZ=             10.6405  XZZ=            163.3574  YZZ=            -43.2800
  YYZ=            -14.4805  XYZ=             10.1367
 Hexadecapole moment (field-independent basis, Debye-Ang**3):
 XXXX=          -4185.5437 YYYY=          -1312.3503 ZZZZ=           -685.2693 XXXY=           -373.7743
 XXXZ=            -54.3495 YYYX=           -428.5138 YYYZ=           -238.3736 ZZZX=            -43.5222
 ZZZY=           -226.8693 XXYY=           -937.7407 XXZZ=           -879.4169 YYZZ=           -370.2477
 XXYZ=            -65.2576 YYXZ=             -4.2167 ZZXY=           -155.1179
 N-N= 1.061410112804D+03 E-N=-9.528708734516D+03  KE= 3.107037881881D+03
                          Isotropic Fermi Contact Couplings
        Atom                 a.u.       MegaHertz       Gauss      10(-4) cm-1
     1  C(13)             -0.00000      -0.00000      -0.00000      -0.00000
     2  C(13)             -0.00000      -0.00000      -0.00000      -0.00000
     3  C(13)              0.00000       0.00000       0.00000       0.00000
     4  C(13)             -0.00000      -0.00000      -0.00000      -0.00000
     5  C(13)             -0.00000      -0.00000      -0.00000      -0.00000
     6  C(13)             -0.00000      -0.00000      -0.00000      -0.00000
     7  Br(79)            -0.00000      -0.00000      -0.00000      -0.00000
     8  C(13)             -0.00000      -0.00000      -0.00000      -0.00000
     9  C(13)             -0.00000      -0.00000      -0.00000      -0.00000
    10  C(13)             -0.00000      -0.00000      -0.00000      -0.00000
    11  C(13)              0.00000       0.00000       0.00000       0.00000
    12  O(17)             -0.00000       0.00000       0.00000       0.00000
    13  O(17)              0.00000      -0.00000      -0.00000      -0.00000
    14  H(1)               0.00000       0.00000       0.00000       0.00000
    15  H(1)               0.00000       0.00000       0.00000       0.00000
    16  H(1)               0.00000       0.00000       0.00000       0.00000
    17  H(1)               0.00000       0.00000       0.00000       0.00000
    18  H(1)               0.00000       0.00000       0.00000       0.00000
    19  H(1)               0.00000       0.00000       0.00000       0.00000
    20  H(1)               0.00000       0.00000       0.00000       0.00000
    21  H(1)               0.00000       0.00000       0.00000       0.00000
[...]
 000171,-0.00002714,0.00003708,-0.00001893,-0.00002859,-0.00000431,-0.0
 0000844,-0.00000671,-0.00329662,0.01379816,-0.00201620,-0.04878349,0.0
 2333194,-0.00269847,0.00004079,-0.00029418,0.00086046,-0.00106249,-0.0
 0006905,-0.00266219,0.00005749,0.00003668,0.00003094,-0.00050096,-0.00
 019761,-0.00011799,0.00002425,-0.00000265,-0.00001207,-0.00000287,-0.0
 0000456,-0.00000198,0.04949652,-0.00025637,-0.00019105,0.00001464,0.00
 054687,0.00048729,0.00014099,-0.00092631,0.00004293,-0.00023635,0.0000
 2583,-0.00033967,-0.00021059,0.00008802,0.00006329,0.00000890,-0.00004
 682,-0.00004324,-0.00004223,0.00006805,0.00003190,0.00000242,0.0005130
 3,-0.00483643,-0.00001201,0.02381011,-0.29890410,0.03694905,-0.0001288
 9,0.00037004,-0.00062991,0.00095205,0.00108889,0.00154646,0.00011074,0
 .00017381,0.00012197,0.00051953,0.00013097,0.00018653,-0.00000653,0.00
 001459,-0.00000888,0.00001271,0.00000337,0.00000259,-0.02660717,0.3242
 0629,-0.00017324,0.00003974,-0.00014530,0.00005736,-0.00023805,-0.0000
 3806,0.00112726,0.00101477,0.00095106,-0.00006340,-0.00014043,-0.00010
 394,-0.00002253,0.00012537,0.00001678,0.00002227,-0.00002920,0.0000067
 0,0.00001703,0.00000241,0.00000103,-0.00242786,0.02736469,-0.00508219,
 -0.00258118,0.03485148,-0.05222795,-0.00026665,0.00114959,0.00144407,-
 0.00270251,0.00023363,-0.00531776,0.00004157,-0.00000216,0.00005065,0.
 00032361,0.00001184,0.00018640,-0.00000245,-0.00005143,-0.00000844,-0.
 00001705,-0.00000403,-0.00000371,0.00622157,-0.04131887,0.05655480,0.0
 0086062,0.00012096,0.00019867,-0.00102361,-0.00023285,0.00023527,0.000
 64730,0.00131345,-0.00293008,0.00070675,0.00025629,0.00025273,-0.00021
 266,-0.00024887,0.00005572,0.00011438,0.00017990,0.00011416,-0.0002086
 9,-0.00008248,-0.00001463,-0.01434688,-0.00589006,-0.00066803,-0.26220
 182,-0.09769302,-0.00118765,0.00041928,0.00003832,0.00159958,0.0003218
 0,-0.00052258,0.00087356,-0.00035233,-0.00035344,-0.00032871,-0.001001
 09,0.00016914,-0.00032655,-0.00000261,0.00003144,-0.00010094,-0.000040
 99,-0.00001022,0.00000607,0.00412464,0.00141769,0.00023608,0.28500961,
 0.00004597,0.00011674,-0.00006067,0.00015467,0.00046211,-0.00004340,0.
 00014260,0.00006937,0.00075247,-0.00002296,-0.00044121,-0.00040169,-0.
 00000325,0.00005413,0.00004568,-0.00001131,-0.00000072,0.00001060,0.00
 002597,0.00000965,0.00000842,0.00578004,0.00133227,0.00058818,-0.09831
 092,-0.09067869,-0.00143655,-0.00010217,-0.00004004,-0.00011484,0.0009
 1392,0.00061033,-0.00006879,0.00000605,-0.00001246,0.00003449,0.000700
 81,0.00000696,0.00030208,0.00002170,-0.00003965,0.00002469,-0.00000734
 ,-0.00000773,0.00000245,-0.02911390,-0.01197210,-0.00012353,0.10767928
 ,0.09441978,0.00171286,-0.00020449,0.00048385,-0.00184966,-0.00135394,
 0.00019357,-0.00052390,0.00203810,-0.00496754,-0.00008865,-0.00077671,
 -0.00083418,-0.00019657,0.00015934,0.00003737,-0.00012616,0.00022409,0
 .00012823,-0.00005815,-0.00000795,0.00003380,-0.02800709,-0.01119186,-
 0.00427498,0.00068354,-0.00047224,-0.04459419,-0.00132418,-0.00048130,
 0.00111313,0.00023081,-0.00118278,0.00140021,-0.00056798,-0.00033992,-
 0.00049782,0.00089849,0.00017067,0.00085476,-0.00020792,0.00023551,-0.
 00026046,-0.00001873,-0.00003385,0.00003189,0.00438544,0.00138995,-0.0
 0078882,0.00325692,-0.00045547,0.05096570,-0.00013763,-0.00010631,-0.0
 0013657,0.00004153,0.00001477,-0.00001324,0.00081288,-0.00027190,0.000
 54555,-0.00160583,-0.00119347,-0.00181452,0.00025503,0.00025067,0.0002
 0992,-0.00015679,-0.00010925,-0.00008298,0.00015326,0.00008871,0.00001
 371,0.00749048,-0.00625207,-0.01139218,-0.12652450,0.05826405,0.111904
 34,-0.00079922,0.00042349,-0.00206914,0.00042569,-0.00058874,0.0005027
 2,0.00007274,0.00013334,0.00012546,-0.00270628,0.00122233,0.00059936,0
 .00003776,0.00004874,0.00001962,0.00001470,0.00000527,0.00000148,-0.00
 128040,0.00013260,0.00029997,-0.01438342,0.01205647,0.02054061,0.13748
 720,0.00007627,-0.00002145,-0.00003493,-0.00005945,-0.00003225,-0.0000
 1153,0.00025859,-0.00010465,-0.00051768,-0.00025265,-0.00000135,-0.000
 11593,-0.00004446,0.00013138,-0.00013453,-0.00006177,-0.00001883,0.000
 03198,0.00004208,0.00001010,0.00001736,-0.00411899,0.00076240,0.004674
 00,0.05735004,-0.09055299,-0.08030656,0.00019458,0.00013435,0.00117542
 ,-0.00059042,0.00071530,0.00038243,-0.00001090,0.00002095,0.00002213,0
 .00135539,-0.00052838,0.00036474,-0.00000185,0.00001217,-0.00000111,0.
 00000161,-0.00000251,0.00000158,0.01728018,-0.01100731,-0.02359964,-0.
 00727053,0.00591966,0.01162214,-0.06436505,0.09363368,0.00030029,0.000
 00269,-0.00014884,-0.00025104,-0.00030740,-0.00007203,0.00094973,0.000
 27996,0.00073653,-0.00094453,-0.00181539,-0.00164487,-0.00008786,0.000
 47173,0.00009207,-0.00017760,-0.00003581,0.00006306,0.00015864,0.00007
 024,0.00004867,0.01579879,-0.01079254,-0.02036046,0.10739826,-0.078204
 05,-0.19429357,-0.00388159,0.00165833,-0.00478699,0.00083849,-0.001173
 60,0.00124733,-0.00007631,0.00002371,0.00004168,0.00271623,0.00037253,
 0.00167346,0.00007175,0.00011728,0.00003405,-0.00002735,-0.00001582,0.
 00000951,-0.00385895,0.00181605,0.00476644,-0.00077474,0.00125615,0.00
 110399,-0.11847940,0.08608548,0.21211971,-0.00006224,-0.00032806,-0.00
 018847,-0.00058344,0.00021156,-0.00010304,0.00102000,0.00067894,-0.000
 31726,0.00006159,0.00001750,0.00051496,0.00004953,0.00007924,-0.000101
 69,0.00005009,0.00001516,-0.00006195,0.00006237,0.00000392,-0.00000669
 ,-0.00380863,0.01920464,-0.00356827,0.00030700,-0.00021886,-0.00107515
 ,-0.05205187,0.03722652,-0.00391609,-0.00246829,0.00077305,0.00308602,
 0.00004634,0.00010700,0.00007281,-0.00000330,-0.00014051,-0.00018234,-
 0.00179362,-0.00013266,-0.00060243,0.00001301,0.00000103,0.00000195,0.
 00029646,-0.00030129,0.00020287,-0.00000900,-0.00010117,0.00010811,-0.
 00016962,-0.00015728,-0.00011054,0.05544831,-0.00031352,0.00007704,0.0
 0027641,-0.00039687,0.00012440,-0.00056343,-0.00113909,0.00000064,0.00
 003573,0.00038186,-0.00009260,-0.00024434,0.00004810,-0.00006347,-0.00
 005732,-0.00007925,-0.00004933,-0.00003320,-0.00002276,-0.00000704,0.0
 0002317,0.00072497,-0.01098349,0.00188755,-0.00021665,0.00037149,0.000
 87529,0.03861252,-0.29673711,0.02971098,0.00226237,0.00002144,-0.00316
 285,0.00007962,0.00011954,0.00005364,0.00007216,0.00026939,0.00007591,
 -0.00057281,0.00040992,0.00037368,0.00002658,0.00000190,0.00000833,-0.
 00020917,0.00039482,-0.00051752,0.00003015,-0.00006173,-0.00002293,0.0
 0002226,0.00030716,-0.00013341,-0.04162807,0.32389416,0.00001543,-0.00
 008887,-0.00010050,0.00014755,0.00050220,0.00046803,-0.00075781,-0.000
 06576,0.00048158,-0.00022942,0.00006033,-0.00032150,0.00001713,-0.0000
 5818,0.00007778,-0.00001346,0.00002525,0.00002678,0.00005321,0.0000218
 8,-0.00001516,0.00173433,-0.02248169,0.00206881,0.00011023,-0.00091129
 ,0.00139569,-0.00480744,0.03089155,-0.05136203,0.00274437,-0.00132583,
 -0.00316936,0.00003405,0.00004294,0.00001865,0.00006533,0.00003118,0.0
 0000582,-0.00026263,-0.00008376,-0.00004884,-0.00000104,-0.00000355,-0
 .00000444,0.00001678,0.00028312,-0.00036625,-0.00007691,-0.00000361,-0
 .00008264,0.00001169,0.00020225,0.00023824,0.00319741,-0.03150968,0.05
 296827,-0.00024918,-0.00007872,-0.00009750,-0.00029013,-0.00077610,0.0
 0021264,0.00102936,-0.00009604,0.00017933,0.00005684,0.00052729,-0.000
 08665,0.00012547,-0.00010002,0.00000456,0.00002923,-0.00006238,-0.0000
 3697,0.00000807,0.00001827,-0.00001304,0.00698427,-0.00411076,0.018258
 32,-0.00207463,0.00117500,0.00232903,-0.08095867,0.01743979,-0.0870187
 6,0.00065261,-0.00087972,0.00007062,0.00007238,0.00009451,0.00010192,0
 .00004549,-0.00010125,-0.00002821,-0.00106565,-0.00102251,0.00069638,0
 .00001712,0.00001628,-0.00000473,-0.00015003,0.00001848,-0.00006288,0.
 00029501,0.00020602,0.00011018,0.00064591,0.00001247,0.00103683,-0.002
 53861,0.00010985,-0.00330272,0.08718802,-0.00004276,-0.00016237,-0.000
 23337,-0.00001712,0.00026198,0.00061091,-0.00022313,0.00017811,0.00039
 513,-0.00009508,-0.00012880,0.00011613,0.00001300,0.00003868,-0.000025
 35,0.00002379,0.00000156,0.00002148,0.00007650,0.00001816,-0.00001383,
 -0.00535810,0.00020485,-0.01028131,0.00130034,-0.00070908,-0.00157677,
 0.01685949,-0.05521151,0.04169916,-0.00053174,0.00080843,-0.00075371,0
 .00005975,0.00006634,0.00006767,0.00005969,-0.00004511,-0.00006916,-0.
 00076569,-0.00073365,0.00028589,0.00000383,-0.00000067,-0.00000496,-0.
 00004397,0.00027186,-0.00026280,0.00026803,-0.00004785,0.00018357,-0.0
 0004559,0.00059775,-0.00070721,0.01145091,-0.00407283,0.02893795,-0.01
 838599,0.05625542,-0.00024109,0.00016055,0.00032231,0.00017332,-0.0003
 3486,0.00006294,-0.00154493,-0.00047896,0.00040633,0.00038446,-0.00031
 994,-0.00027626,-0.00002606,0.00001432,-0.00009971,-0.00009489,-0.0000
 3930,-0.00000273,-0.00003848,0.00000260,0.00001429,-0.00908922,0.00431
 666,-0.01992971,0.00447105,-0.00261514,-0.00283292,-0.08527184,0.04090
 709,-0.26397804,-0.00070721,0.00119341,0.00063478,0.00007081,0.0000460
 1,0.00004556,0.00014004,0.00016432,0.00027047,0.00008779,0.00063938,0.
 00037681,0.00001252,0.00001330,-0.00000563,0.00002057,0.00011663,0.000
 28970,-0.00000524,-0.00002745,0.00047414,-0.00074871,0.00032312,-0.001
 46381,-0.00084909,0.00049373,-0.00229327,0.09359626,-0.04396207,0.2888
 1691,0.00059269,0.00035467,0.00015920,-0.00008175,0.00002851,0.0002119
 1,-0.00128192,0.00222051,0.00324246,-0.00041151,-0.00125385,-0.0009705
 7,-0.00045209,0.00010831,0.00030753,0.00011052,0.00017089,0.00013014,-
 0.00015722,-0.00007535,-0.00000900,-0.01943063,-0.00889426,-0.00121625
 ,0.00047493,-0.00036219,-0.00161273,-0.25050983,-0.10731063,-0.0189033
 3,0.00034145,-0.00141564,-0.00074159,-0.00023795,-0.00032589,-0.000244
 18,0.00009787,0.00038054,0.00034978,0.00007367,0.00025259,0.00003713,-
 0.00012984,-0.00005675,-0.00001202,0.00004640,0.00005730,0.00004006,0.
 00078496,0.00004558,0.00041255,0.00032498,0.00032957,-0.00008819,0.005
 45975,0.00218622,0.00071265,-0.00962921,-0.00478602,-0.00089400,0.2730
 5359,0.00001758,0.00028448,0.00017370,-0.00029606,-0.00026551,-0.00048
 102,0.00124645,-0.00074772,-0.00176823,0.00058744,0.00048253,-0.000236
 74,0.00008374,-0.00012844,-0.00010799,-0.00006737,-0.00003834,0.000007
 18,-0.00005084,-0.00000897,0.00002048,0.01093561,0.00352484,0.00052356
 ,0.00004429,0.00013848,0.00027531,-0.10933106,-0.10282664,-0.00929681,
 0.00118285,0.00064584,-0.00006634,-0.00004582,-0.00005734,-0.00004334,
 -0.00005102,0.00006259,0.00015215,0.00003858,0.00009429,0.00055260,0.0
 0005180,0.00001386,0.00001714,-0.00009847,-0.00001437,-0.00003612,-0.0
 0000828,0.00016648,0.00007455,0.00016306,-0.00003264,0.00017251,-0.027
 91684,-0.01365724,-0.00318159,0.00599341,0.00249295,0.00007404,0.11738
 184,0.10998470,-0.00021367,0.00000497,0.00023336,-0.00012616,-0.000630
 41,-0.00034587,0.00215520,-0.00225080,-0.00330870,0.00107497,0.0006747
 2,0.00065470,0.00028450,-0.00012065,-0.00034200,-0.00013700,-0.0001107
 2,-0.00007106,0.00001950,0.00003314,0.00002213,0.02098109,0.01033270,-
 0.00057174,0.00116881,0.00070471,0.00092547,-0.02114958,-0.01027332,-0
 .04719623,-0.00017469,0.00098512,0.00053587,0.00006805,0.00009615,0.00
 007472,-0.00013080,-0.00006105,-0.00005593,-0.00020664,0.00044146,0.00
 017284,0.00011043,0.00007071,0.00000077,-0.00004282,0.00000221,-0.0000
 8221,-0.00020138,-0.00025070,-0.00062324,-0.00017466,-0.00008867,0.000
 29980,0.00378801,0.00191398,-0.00050586,-0.02561903,-0.01461528,-0.001
 56838,0.01894910,0.01337842,0.05169604,-0.00016986,-0.00014523,-0.0000
 2083,0.00013053,0.00005750,0.00006632,0.00018453,0.00011992,-0.0005024
 0,-0.00059845,-0.00123978,0.00001587,0.00017899,0.00016390,-0.00000730
 ,-0.00007250,-0.00010602,-0.00005610,0.00008519,0.00003440,0.00001178,
 -0.00221206,-0.00004313,0.00063352,-0.00009758,-0.00004125,0.00039372,
 0.00036694,0.00111633,-0.00046367,-0.13012062,0.06475072,0.10678890,0.
 00007649,0.00012049,0.00008050,-0.00183544,-0.00113895,0.00161979,-0.0
 0000093,0.00000221,-0.00000172,0.00002397,0.00000855,-0.00000124,0.000
 03740,-0.00009119,-0.00009254,-0.00004325,0.00002966,0.00004106,0.0000
 9477,0.00012698,-0.00025586,0.00027079,0.00015885,0.00043419,-0.000043
 87,-0.00006518,0.00024782,0.00049505,-0.00006530,-0.00018592,0.1390622
 8,0.00022873,-0.00008058,-0.00016038,-0.00026142,-0.00015211,-0.000175
 81,0.00068169,0.00138051,-0.00017113,-0.00129472,-0.00274258,-0.001774
 52,0.00019318,0.00017517,0.00050016,-0.00022718,-0.00008184,0.00002194
 ,0.00019423,0.00013756,0.00001798,0.01770952,-0.01314391,-0.02277233,-
 0.00035649,0.00162823,-0.00128342,-0.00028101,-0.00637721,0.00198029,0
 .06171954,-0.09370911,-0.08035018,-0.00003166,0.00006552,0.00010400,0.
 00074447,0.00215296,0.00062078,0.00010634,0.00007157,0.00008915,-0.000
 02331,-0.00000013,-0.00000138,-0.00032934,0.00013081,-0.00000396,0.000
 01419,-0.00004418,0.00013745,0.00018299,-0.00000009,0.00084307,0.00133
 913,-0.00093380,-0.00139714,-0.00027559,0.00011575,0.00001232,0.000074
 50,0.00020230,0.00021894,-0.06908667,0.10311356,0.00016108,0.00007538,
 -0.00005185,-0.00012992,-0.00007031,-0.00004141,0.00030764,-0.00043474
 ,-0.00009005,0.00011062,0.00035847,0.00008106,-0.00000265,-0.00024255,
 0.00012964,-0.00004356,0.00005503,0.00004257,-0.00000751,0.00002128,-0
 .00001100,-0.00420138,0.00261111,0.00325584,-0.00029883,0.00011662,0.0
 0086790,-0.00046760,0.00070583,0.00055059,0.10687746,-0.08441527,-0.18
 765379,-0.00004841,-0.00004399,-0.00001037,0.00178884,0.00162777,-0.00
 170682,0.00000524,-0.00000390,0.00001359,-0.00001235,-0.00000205,-0.00
 000229,0.00002089,-0.00012645,0.00009413,-0.00001368,-0.00002116,-0.00
 000463,0.00004004,0.00003567,0.00008448,0.00003341,0.00024766,0.000442
 86,-0.00006395,0.00016501,0.00029146,0.00007352,0.00011104,-0.00010255
 ,-0.11872255,0.08888808,0.20093570,0.00015661,-0.00003175,0.00018057,0
 .00018394,0.00007270,0.00052098,0.00079207,0.00031723,-0.00007853,0.00
 047881,0.00058331,0.00012945,-0.00020344,0.00000283,-0.00016879,0.0001
 1816,0.00010108,0.00000613,-0.00012570,-0.00007860,-0.00000419,0.00125
 688,0.00218301,-0.00031041,0.00056015,0.00036403,0.00009010,0.00043566
 ,0.00109784,0.00001631,-0.26407300,-0.09789469,-0.00162499,-0.00009419
 ,-0.00007467,-0.00012922,-0.00047384,-0.00080470,0.00031378,0.00002199
 ,0.00006838,-0.00010626,-0.00002003,-0.00001829,0.00001146,0.00024442,
 -0.00004030,0.00013456,0.00018955,-0.00006265,0.00027524,-0.00005354,-
 0.00003821,-0.00004461,0.00036640,-0.00005411,-0.00004461,-0.00006711,
 -0.00007404,0.00003376,0.00045357,0.00018818,-0.00015947,-0.01474621,-
 0.00673214,-0.00138286,0.28604772,0.00126879,0.00131220,-0.00078241,-0
 .00239396,-0.00068179,-0.00028963,0.00319224,-0.00524688,0.00109113,0.
 00018998,-0.00047098,-0.00073802,-0.00022612,-0.00006689,0.00014850,0.
 00000848,0.00011950,0.00030886,-0.00014482,-0.00004228,0.00002260,-0.0
 2931379,-0.01759929,0.00035264,-0.00095220,0.00162289,-0.00097289,-0.0
 0165888,0.00107895,0.00037341,-0.09568434,-0.08704529,-0.00104475,-0.0
 0050215,-0.00082378,-0.00026165,0.00014623,0.00072349,0.00017917,0.000
 05916,-0.00033165,0.00022333,-0.00005607,0.00001265,-0.00001159,0.0002
 3566,0.00028727,-0.00031360,0.00069789,0.00005939,0.00053723,0.0000795
 1,0.00000106,0.00010264,0.00013698,0.00047820,0.00024697,0.00011445,-0
 .00005298,-0.00006354,0.00083920,-0.00025635,-0.00035154,0.01258862,0.
 00585877,0.00178046,0.10555176,0.09901401,0.00005336,-0.00001530,-0.00
 001251,0.00028501,-0.00000346,0.00011963,-0.00054924,0.00065224,0.0002
 0679,-0.00029405,-0.00070711,-0.00058373,0.00010573,0.00004293,0.00015
 155,-0.00007453,-0.00004532,0.00000569,0.00008684,0.00006079,0.0000020
 2,0.00485061,0.00225589,-0.00094995,0.00086439,0.00021079,0.00014191,-
 0.00027927,-0.00069587,-0.00002307,-0.00174801,-0.00125492,-0.04650669
 ,0.00002885,0.00007095,0.00005642,0.00074596,0.00105752,-0.00039654,-0
 .00002144,-0.00000156,0.00001080,-0.00000173,0.00000809,-0.00000971,-0
 .00004980,-0.00018419,0.00004551,-0.00021622,0.00015349,0.00000181,0.0
 0003767,0.00001349,-0.00003730,-0.00000790,0.00010580,-0.00012308,-0.0
 0009234,-0.00001835,-0.00003718,0.00001938,-0.00033312,0.00014864,0.02
 062250,0.01057183,0.00154116,0.00196024,0.00020915,0.04549132,-0.00023
 543,-0.00005121,-0.00001336,0.00035065,0.00025946,0.00005785,0.0000474
 7,-0.00056080,0.00067651,0.00002636,0.00009883,0.00011211,0.00001611,-
 0.00001316,-0.00003195,0.00000732,-0.00003687,-0.00002760,0.00001843,0
 .00000361,-0.00000291,-0.00211921,-0.00032633,-0.00099448,0.00040083,0
 .00084968,0.00017849,-0.00012810,-0.00009452,-0.00055449,-0.09308476,0
 .01963554,-0.09680942,0.00008247,0.00008186,0.00007120,-0.00025392,-0.
 00019617,0.00000489,0.00002942,0.00000344,0.00001412,0.00000684,0.0000
 0501,-0.00000411,0.00035041,0.00013185,-0.00031195,0.00035243,-0.00007
 307,0.00031317,-0.00003969,-0.00005621,-0.00021045,0.00003697,-0.00008
 321,0.00020167,-0.00008269,0.00031908,0.00027235,0.00001252,0.00001624
 ,-0.00007785,0.00893385,-0.00428897,0.01597650,-0.01144890,0.00582335,
 -0.02632601,0.09672060,-0.00013550,-0.00023776,0.00009496,-0.00000443,
 0.00002915,-0.00028945,0.00130333,0.00135830,0.00107850,-0.00006352,-0
 .00003771,0.00002046,0.00002209,-0.00001101,0.00011513,0.00001577,0.00
 000953,-0.00004755,0.00001161,0.00000440,-0.00000700,0.01288654,-0.006
 61265,0.02778712,0.00011291,-0.00661799,0.00010935,-0.00043274,0.00140
 003,0.00122882,0.01883410,-0.05403708,0.03820289,0.00003359,0.00008095
 ,-0.00000145,-0.00002228,0.00013370,-0.00007236,-0.00001206,-0.0000084
 1,-0.00004680,-0.00001396,-0.00001110,0.00000076,0.00096116,-0.0003899
 0,0.00184782,0.00009561,0.00011949,-0.00024915,-0.00015590,0.00005652,
 -0.00008713,-0.00032084,0.00018852,-0.00013466,0.00016325,-0.00014700,
 -0.00063622,0.00005035,-0.00005979,-0.00010410,-0.00725543,0.00223283,
 -0.01143899,-0.00462621,0.00204977,-0.01215378,-0.02144744,0.06050719,
 -0.00019825,-0.00007917,-0.00006192,0.00048956,0.00029652,0.00023553,-
 0.00066374,-0.00032669,0.00003305,-0.00004865,-0.00025002,-0.00045421,
 0.00009399,0.00005781,0.00004304,-0.00004785,-0.00004339,-0.00001512,0
 .00006302,0.00003275,0.00000377,-0.00081457,0.00039619,-0.00450557,0.0
 0050068,0.00156120,0.00092683,0.00037791,-0.00062967,0.00052783,-0.097
 34407,0.04010483,-0.25281763,0.00008451,0.00012934,0.00010927,0.000573
 32,0.00053818,-0.00005555,-0.00000925,-0.00001307,0.00001132,0.0000076
 7,0.00000591,0.00000065,-0.00032323,0.00018796,-0.00024264,0.00001600,
 -0.00017084,0.00010604,0.00005924,-0.00014120,0.00024886,0.00008532,0.
 00016284,0.00020042,-0.00016931,0.00004127,0.00048193,0.00004645,0.000
 01861,0.00000944,-0.01064584,0.00408424,-0.01865624,0.00038136,-0.0007
 4646,0.00075653,0.10748572,-0.04521715,0.27311439\\0.00003009,-0.00004
 791,0.00005589,0.00000577,0.00002395,-0.00001140,0.00001208,-0.0000098
 5,-0.00000299,-0.00002251,0.00002494,-0.00002179,0.00001110,-0.0000063
 6,-0.00000138,-0.00001739,0.00001526,-0.00001109,-0.00000352,0.0000021
 1,0.00000171,0.00000557,-0.00000564,0.00000174,-0.00000359,0.00000343,
 0.00000329,-0.00000554,-0.00000280,0.00000061,-0.00000606,-0.00000163,
 -0.00000074,-0.00001181,0.00001289,-0.00001491,0.00000755,-0.00000351,
 0.00000404,0.00000148,0.00000078,0.00000415,-0.00000178,0.00000106,-0.
 00000047,0.00000043,0.00000341,0.00000293,-0.00000148,0.00000094,-0.00
 000219,-0.00000368,0.00000403,0.00000108,-0.00000097,-0.00000535,0.000
 00198,0.00000387,-0.00000383,-0.00000150,0.00000041,-0.00000302,0.0000
 0112,-0.00000314,0.00000142,-0.00000257,0.00000041,-0.00000370,-0.0000
 0357,0.00000273,-0.00000063,-0.00000394\\\@


 "THE TIME HAS COME", THE WALRUS SAID,
 "TO TALK OF MANY THINGS,
 OF SHOES AND SHIPS AND SEALING WAX,
 OF CABBAGES AND KINGS,
 AND WHY THE SEA IS BOILING HOT,
 AND WHETHER PIGS HAVE WINGS."
 Job cpu time:       0 days  3 hours 50 minutes 39.0 seconds.
 Elapsed time:       0 days  0 hours 39 minutes  8.7 seconds.
 File lengths (MBytes):  RWF=    814 Int=      0 D2E=      0 Chk=     26 Scr=      1
 Normal termination of Gaussian 16 at Sat Feb 10 11:12:01 2024.
