
Running Job 1 of 1 183-COSMO.in
qchem 183-COSMO.in_987859.0 /expanse/lustre/scratch/selhajj/temp_project/qcscratch/28870389/qchem987859/ 0
/cm/shared/apps/spack/cpu/opt/spack/linux-centos8-zen2/gcc-10.2.0/qchem-5.4-akfmr7b3t57bfs6qan3padb2wnb2i7cl/exe/qcprog.exe_s 183-COSMO.in_987859.0 /expanse/lustre/scratch/selhajj/temp_project/qcscratch/28870389/qchem987859/
                  Welcome to Q-Chem
     A Quantum Leap Into The Future Of Chemistry


 Q-Chem 5.4, Q-Chem, Inc., Pleasanton, CA (2021)

 License issued to: University of California, San Diego (site)

 E. Epifanovsky,  A. T. B. Gilbert,  Xintian Feng,  Joonho Lee,  Yuezhi Mao,  
 N. Mardirossian,  P. Pokhilko,  A. White,  M. Wormit,  M. P. Coons,  
 A. L. Dempwolff,  Zhengting Gan,  D. Hait,  P. R. Horn,  L. D. Jacobson,  
 I. Kaliman,  J. Kussmann,  A. W. Lange,  Ka Un Lao,  D. S. Levine,  Jie Liu,  
 S. C. McKenzie,  A. F. Morrison,  K. Nanda,  F. Plasser,  D. R. Rehn,  
 M. L. Vidal,  Zhi-Qiang You,  Ying Zhu,  B. Alam,  B. Albrecht,  
 A. Aldossary,  E. Alguire,  J. H. Andersen,  D. Barton,  K. Begam,  A. Behn,  
 Y. A. Bernard,  E. J. Berquist,  H. Burton,  A. Carreras,  K. Carter-Fenk,  
 R. Chakraborty,  A. D. Chien,  K. D. Closser,  V. Cofer-Shabica,  
 S. Dasgupta,  Jia Deng,  M. de Wergifosse,  M. Diedenhofen,  Hainam Do,  
 S. Ehlert,  Po-Tung Fang,  S. Fatehi,  Qingguo Feng,  J. Gayvert,  
 Qinghui Ge,  G. Gidofalvi,  M. Goldey,  J. Gomes,  C. Gonzalez-Espinoza,  
 S. Gulania,  A. Gunina,  M. W. D. Hanson-Heine,  P. H. P. Harbach,  
 A. W. Hauser,  M. F. Herbst,  M. Hernandez Vera,  M. Hodecker,  
 Z. C. Holden,  S. Houck,  Xunkun Huang,  Kerwin Hui,  B. C. Huynh,  
 M. Ivanov,  Hyunjun Ji,  Hanjie Jiang,  B. Kaduk,  S. Kaehler,  
 K. Khistyaev,  Jaehoon Kim,  P. Klunzinger,  Z. Koczor-Benda,  
 Joong Hoon Koh,  D. Kosenkov,  L. Koulias,  T. Kowalczyk,  C. M. Krauter,  
 K. Kue,  A. Kunitsa,  T. Kus,  A. Landau,  K. V. Lawler,  D. Lefrancois,  
 S. Lehtola,  Rain Li,  Yi-Pei Li,  Jiashu Liang,  M. Liebenthal,  
 Hung-Hsuan Lin,  You-Sheng Lin,  Fenglai Liu,  Kuan-Yu Liu,  
 M. Loipersberger,  A. Luenser,  A. Manjanath,  P. Manohar,  E. Mansoor,  
 S. F. Manzer,  Shan-Ping Mao,  A. V. Marenich,  T. Markovich,  S. Mason,  
 S. A. Maurer,  P. F. McLaughlin,  M. F. S. J. Menger,  J.-M. Mewes,  
 S. A. Mewes,  P. Morgante,  J. W. Mullinax,  T. S. Nguyen-Beck,  
 K. J. Oosterbaan,  G. Paran,  Alexander C. Paul,  Suranjan K. Paul,  
 F. Pavosevic,  Zheng Pei,  S. Prager,  E. I. Proynov,  E. Ramos,  B. Rana,  
 A. E. Rask,  A. Rettig,  R. M. Richard,  F. Rob,  E. Rossomme,  T. Scheele,  
 M. Scheurer,  M. Schneider,  N. Sergueev,  S. M. Sharada,  W. Skomorowski,  
 D. W. Small,  C. J. Stein,  Yu-Chuan Su,  E. J. Sundstrom,  Zhen Tao,  
 J. Thirman,  T. Tsuchimochi,  N. M. Tubman,  S. P. Veccham,  O. Vydrov,  
 J. Wenzel,  J. Witte,  A. Yamada,  Kun Yao,  S. Yeganeh,  S. R. Yost,  
 A. Zech,  Igor Ying Zhang,  Xing Zhang,  Yu Zhang,  D. Zuev,  
 A. Aspuru-Guzik,  A. T. Bell,  N. A. Besley,  K. B. Bravaya,  B. R. Brooks,  
 D. Casanova,  Jeng-Da Chai,  S. Coriani,  C. J. Cramer,  
 A. E. DePrince, III,  R. A. DiStasio Jr.,  A. Dreuw,  B. D. Dunietz,  
 T. R. Furlani,  W. A. Goddard III,  S. Grimme,  S. Hammes-Schiffer,  
 T. Head-Gordon,  W. J. Hehre,  Chao-Ping Hsu,  T.-C. Jagau,  Yousung Jung,  
 A. Klamt,  Jing Kong,  D. S. Lambrecht,  WanZhen Liang,  N. J. Mayhall,  
 C. W. McCurdy,  J. B. Neaton,  C. Ochsenfeld,  J. A. Parkhill,  R. Peverati,  
 V. A. Rassolov,  Yihan Shao,  L. V. Slipchenko,  T. Stauch,  R. P. Steele,  
 J. E. Subotnik,  A. J. W. Thom,  A. Tkatchenko,  D. G. Truhlar,  
 T. Van Voorhis,  T. A. Wesolowski,  K. B. Whaley,  H. L. Woodcock III,  
 P. M. Zimmerman,  S. Faraji,  P. M. W. Gill,  M. Head-Gordon,  
 J. M. Herbert,  A. I. Krylov

 Contributors to earlier versions of Q-Chem not listed above: 
 R. D. Adamson,  B. Austin,  R. Baer,  J. Baker,  G. J. O. Beran,  
 K. Brandhorst,  S. T. Brown,  E. F. C. Byrd,  A. K. Chakraborty,  
 G. K. L. Chan,  Chun-Min Chang,  Yunqing Chen,  C.-L. Cheng,  
 Siu Hung Chien,  D. M. Chipman,  D. L. Crittenden,  H. Dachsel,  
 R. J. Doerksen,  A. D. Dutoi,  R. G. Edgar,  J. Fosso-Tande,  
 L. Fusti-Molnar,  D. Ghosh,  A. Ghysels,  A. Golubeva-Zadorozhnaya,  
 J. Gonthier,  M. S. Gordon,  S. R. Gwaltney,  G. Hawkins,  J. E. Herr,  
 A. Heyden,  S. Hirata,  E. G. Hohenstein,  G. Kedziora,  F. J. Keil,  
 C. Kelley,  Jihan Kim,  R. A. King,  R. Z. Khaliullin,  P. P. Korambath,  
 W. Kurlancheek,  A. Laurent,  A. M. Lee,  M. S. Lee,  S. V. Levchenko,  
 Ching Yeh Lin,  D. Liotard,  E. Livshits,  R. C. Lochan,  I. Lotan,  
 L. A. Martinez-Martinez,  P. E. Maslen,  N. Nair,  D. P. O'Neill,  
 D. Neuhauser,  E. Neuscamman,  C. M. Oana,  R. Olivares-Amaya,  R. Olson,  
 T. M. Perrine,  B. Peters,  P. A. Pieniazek,  A. Prociuk,  Y. M. Rhee,  
 J. Ritchie,  M. A. Rohrdanz,  E. Rosta,  N. J. Russ,  H. F. Schaefer III,  
 M. W. Schmidt,  N. E. Schultz,  S. Sharma,  N. Shenvi,  C. D. Sherrill,  
 A. C. Simmonett,  A. Sodt,  T. Stein,  D. Stuck,  K. S. Thanthiriwatte,  
 V. Vanovschi,  L. Vogt,  Tao Wang,  A. Warshel,  M. A. Watson,  
 C. F. Williams,  Q. Wu,  X. Xu,  Jun Yang,  W. Zhang,  Yan Zhao

 Please cite Q-Chem as follows:
 Y. Shao et al., Mol. Phys. 113, 184-215 (2015)
 DOI: 10.1080/00268976.2014.952696

 Q-Chem 5.4.0 for Intel X86 EM64T Linux

 Parts of Q-Chem use Armadillo 9.800.1 (Horizon Scraper).
 http://arma.sourceforge.net/

 Q-Chem begins on Thu Feb 22 05:12:27 2024  

 Host: 
0

     Scratch files written to /expanse/lustre/scratch/selhajj/temp_project/qcscratch/28870389/qchem987859//
 May1621 |scratch|qcdevops|jenkins|workspace|build_RNUM    
 Processing $rem in /cm/shared/apps/spack/cpu/opt/spack/linux-centos8-zen2/gcc-10.2.0/qchem-5.4-akfmr7b3t57bfs6qan3padb2wnb2i7cl/config/preferences:
 Processing $rem in /home/selhajj/.qchemrc:

 Checking the input file for inconsistencies... 
 Q-Chem warning in module libgen/CheckREMs.C, line 172:

 Found a $solvent section, which is only used for PCM and Kirkwood-Onsager solvation models

	...done.

--------------------------------------------------------------
User input:
--------------------------------------------------------------
$molecule
0 1
C                  4.8787200000     -2.8508180000     -0.3596580000
C                  5.6055120000     -1.9535660000     -1.1301920000
C                  5.0179820000     -0.7556970000     -1.5505090000
C                  3.5570810000     -2.5573140000     -0.0027080000
C                  2.9655460000     -1.3554270000     -0.4235680000
C                  3.7071900000     -0.4581660000     -1.1999300000
C                  2.7915230000     -3.5177680000      0.8170790000
C                  1.4113710000     -3.1863680000      1.1762920000
C                  0.7998780000     -1.9631100000      0.7518940000
C                  1.5618680000     -1.0098730000     -0.0625140000
C                  0.6876230000     -4.1030390000      1.9558830000
C                 -0.6436680000     -3.8078980000      2.3157550000
C                 -0.5409700000     -1.6658160000      1.1145280000
C                 -1.2256790000     -2.6386660000      1.9092070000
O                  3.3176330000     -4.5821070000      1.1887400000
O                  1.0860080000      0.0621390000     -0.4583890000
O                  1.1881130000     -5.2652640000      2.3904950000
Br                -3.0382530000     -2.3001540000      2.4335840000
N                 -1.1606780000     -0.5249640000      0.7384050000
H                  5.3110430000     -3.7843010000     -0.0222350000
H                  6.6286880000     -2.1818080000     -1.4059960000
H                  5.5871320000     -0.0561470000     -2.1522380000
H                  3.2348950000      0.4633910000     -1.5152350000
H                 -1.1845790000     -4.5267860000      2.9166750000
H                  2.1202180000     -5.3142020000      2.0529750000
H                 -0.6335230000      0.1333970000      0.1758970000
H                 -2.1120040000     -0.3536390000      1.0171830000
$end
$rem
MAX_SCF_CYCLES=200
BASIS  =  6-311++G(d,p)
GUI  =  2
JOB_TYPE  =  SP
METHOD  =  B3LYP
SOLVENT_METHOD = COSMO
$end
$solvent
dielectric 37.219
opticaldielectric 1.43
$end





--------------------------------------------------------------
 ----------------------------------------------------------------
             Standard Nuclear Orientation (Angstroms)
    I     Atom           X                Y                Z
 ----------------------------------------------------------------
    1      C       4.1799758315    -0.8898893381     0.0001930923
    2      C       5.2092341870     0.0415813403     0.0000484829
    3      C       4.9155396007     1.4092404550    -0.0001936251
    4      C       2.8471915224    -0.4609679870     0.0001109586
    5      C       2.5503054100     0.9114123391    -0.0000718052
    6      C       3.5954757629     1.8417187331    -0.0002350466
    7      C       1.7588056153    -1.4589748907     0.0001254667
    8      C       0.3739983053    -0.9835927468     0.0000078200
    9      C       0.0616250469     0.4138407696     0.0000367525
   10      C       1.1441429744     1.4041462090     0.0000823815
   11      C      -0.6573236161    -1.9366059173    -0.0000831032
   12      C      -1.9999990276    -1.5051264509    -0.0001321137
   13      C      -1.2907571707     0.8483782522     0.0001513063
   14      C      -2.2959550508    -0.1696371867    -0.0000438974
   15      O       2.0242056455    -2.6744188262     0.0001651814
   16      O       0.9348565523     2.6242152729    -0.0003128613
   17      O      -0.4466931006    -3.2578854345    -0.0001515346
   18      Br     -4.1417773444     0.3479786731    -0.0000533370
   19      N      -1.6351371872     2.1554559411     0.0005004838
   20      H       4.3815520254    -1.9536162743     0.0003019881
   21      H       6.2407596179    -0.2915952897     0.0000987582
   22      H       5.7206862201     2.1352698091    -0.0003056286
   23      H       3.3477522854     2.8954645218    -0.0003108192
   24      H      -2.7802198087    -2.2546229711    -0.0002404511
   25      H       0.5375320543    -3.3860854876    -0.0001553398
   26      H      -0.8866682506     2.8392256509     0.0007925986
   27      H      -2.6057359063     2.4200853129     0.0005959989
 ----------------------------------------------------------------
 Molecular Point Group                 C1    NOp =  1
 Largest Abelian Subgroup              C1    NOp =  1
 Nuclear Repulsion Energy =        1704.64013695 hartrees
 There are       79 alpha and       79 beta electrons
 Requested basis set is 6-311++G(d,p)
 There are 167 shells and 500 basis functions

 Total QAlloc Memory Limit   8000 MB
 Mega-Array Size       188 MB
 MEM_STATIC part       192 MB
 A cutoff of  1.0D-08 yielded   9213 shell pairs
 There are     87452 function pairs (     93998 Cartesian)
 Smallest overlap matrix eigenvalue = 5.60E-08

 Q-Chem warning in module stvman/mkSTV.C, line 323:

 Overlap eigenvalue is smaller than square root of threshold
 Use THRESH >= 12 to get rid of this warning

 Linear dependence detected in AO basis
 Tighter screening thresholds may be required for diffuse basis sets
 Use S2THRESH > 14 and THRESH = 14 in case of SCF convergence issues
 Number of orthogonalized atomic orbitals = 492
 Maximum deviation from orthogonality = 1.424E-10

 Scale SEOQF with 1.000000e-02/1.000000e-01/1.000000e-01

 Standard Electronic Orientation quadrupole field applied
 Nucleus-field energy     =     0.0000000335 hartrees
 Guess from superposition of atomic densities
 Warning:  Energy on first SCF cycle will be non-variational
 SAD guess density has 158.000000 electrons

 -----------------------------------------------------------------------
  General SCF calculation program by
  Eric Jon Sundstrom, Paul Horn, Yuezhi Mao, Dmitri Zuev, Alec White,
  David Stuck, Shaama M.S., Shane Yost, Joonho Lee, David Small,
  Daniel Levine, Susi Lehtola, Hugh Burton, Evgeny Epifanovsky,
  Bang C. Huynh
 -----------------------------------------------------------------------
 Exchange:     0.2000 Hartree-Fock + 0.0800 Slater + 0.7200 B88
 Correlation:  0.1900 VWN1RPA + 0.8100 LYP
 Using SG-1 standard quadrature grid
 using 8 threads for integral computing
 -------------------------------------------------------
 OpenMP Integral computing Module                
 Release: version 1.0, May 2013, Q-Chem Inc. Pittsburgh 
 -------------------------------------------------------
 A restricted SCF calculation will be
 performed using DIIS
 SCF converges when DIIS error is below 1.0e-05
 ---------------------------------------
  Cycle       Energy         DIIS error
 ---------------------------------------
    1   -3397.8631393857      3.03e-02  
    2   -3392.8548636341      3.33e-03  
    3   -3392.4857387741      5.26e-03  
    4   -3393.0835795559      1.40e-03  
    5   -3393.1324857838      3.24e-04  
    6   -3393.1349104046      1.13e-04  
    7   -3393.1351320132      6.76e-05  
    8   -3393.1352741386      1.87e-05  
    9   -3393.1352818136      6.72e-06  Convergence criterion met
 ---------------------------------------
 SCF time:   CPU 286.26s  wall 36.00s 
 SCF   energy in the final basis set =    -3393.1352818136
 Total energy in the final basis set =    -3393.1352818136
 Exchange:     0.2000 Hartree-Fock + 0.0800 Slater + 0.7200 B88
 Correlation:  0.1900 VWN1RPA + 0.8100 LYP
 Using SG-1 standard quadrature grid
 in get_qchem_info
 IBasis=      401111
 IBasis=      401111
 USING 1082 GRID
 MICHARGE=           0
 Set epsilon to    37.2190017700195     
==== cosmo data ====
outfile: 183-COSMO.out.cosmo.0
phsran:    0.00000D+00
ampran:    0.10000D-04
volume:   1922.4386541
area:    927.2492961
routf:      0.8500000
rsolv [a.u]:      2.4566438
disex:     10.0000000
disex2:   4861.9037715
fepsi:      0.9602322
eps :    37.2190018
lcavity:     1
nppa:  1082
nspa:    92
nsph:    32
maxnps:  2004
natoms:    27
Atom   Radius [a.u.] nuc. charge
    1      3.7794520    6
    2      3.7794520    6
    3      3.7794520    6
    4      3.7794520    6
    5      3.7794520    6
    6      3.7794520    6
    7      3.7794520    6
    8      3.7794520    6
    9      3.7794520    6
   10      3.7794520    6
   11      3.7794520    6
   12      3.7794520    6
   13      3.7794520    6
   14      3.7794520    6
   15      3.2503287    8
   16      3.2503287    8
   17      3.2503287    8
   18      4.0818081   35
   19      3.4581986    7
   20      2.4566438    1
   21      2.4566438    1
   22      2.4566438    1
   23      2.4566438    1
   24      2.4566438    1
   25      2.4566438    1
   26      2.4566438    1
   27      2.4566438    1
=== end cosmo data ===
 number of segments:         1080
 f_epsilon=  0.960232245562971     
Ediel:   -0.0127875
 A restricted SCF calculation will be
 performed using Roothaan-Hall, DIIS
 SCF converges when DIIS error is below 1.0e-05
 ---------------------------------------
  Cycle       Energy         DIIS error
 ---------------------------------------
 number of segments:         1080
 f_epsilon=  0.960232245562971     
Ediel:   -0.0169586
    1   -3393.1480705890      1.35e-04  Roothaan Step
 ---------------------------------------
  Cycle       Energy         DIIS error
 ---------------------------------------
 number of segments:         1080
 f_epsilon=  0.960232245562971     
Ediel:   -0.0148861
    1   -3393.1490284626      1.57e-04  
 number of segments:         1080
 f_epsilon=  0.960232245562971     
Ediel:   -0.0162406
    2   -3393.1469793291      3.41e-04  
 number of segments:         1080
 f_epsilon=  0.960232245562971     
Ediel:   -0.0163184
    3   -3393.1496348684      2.26e-05  
 number of segments:         1080
 f_epsilon=  0.960232245562971     
Ediel:   -0.0163409
    4   -3393.1496449137      1.03e-05  
    5   -3393.1496450211      2.70e-06  Convergence criterion met
 ---------------------------------------
 SCF time:   CPU 213.09s  wall 28.00s 
before final oc correction, ETot:     -3393.1496450211
 number of outlayer segments:          481
SCF energy after oc correction:     -3393.1499398171
 SCF   energy in the final basis set =    -3393.1499398171
 Total energy in the final basis set =    -3393.1496450211
 
 --------------------------------------------------------------
 
                    Orbital Energies (a.u.)
 --------------------------------------------------------------
 
 Alpha MOs
 -- Occupied --
******** -62.5045 -56.3250 -56.3211 -56.3209 -19.1646 -19.1366 -19.1256
-14.3393 -10.2860 -10.2794 -10.2683 -10.2610 -10.2598 -10.2100 -10.2095
-10.2093 -10.2068 -10.2062 -10.1956 -10.1955 -10.1944 -10.1937  -8.7132
 -6.5447  -6.5317  -6.5315  -2.6557  -2.6518  -2.6517  -2.6414  -2.6414
 -1.0937  -1.0602  -1.0588  -0.9565  -0.8913  -0.8769  -0.8408  -0.7990
 -0.7779  -0.7678  -0.7540  -0.6944  -0.6680  -0.6562  -0.6284  -0.5998
 -0.5822  -0.5599  -0.5482  -0.5384  -0.5117  -0.4936  -0.4850  -0.4811
 -0.4679  -0.4614  -0.4537  -0.4497  -0.4431  -0.4399  -0.4303  -0.4259
 -0.4053  -0.3958  -0.3911  -0.3799  -0.3769  -0.3661  -0.3377  -0.3165
 -0.3154  -0.2937  -0.2850  -0.2778  -0.2773  -0.2727  -0.2208
 -- Virtual --
 -0.1208  -0.0679  -0.0417  -0.0296  -0.0134  -0.0050   0.0034   0.0092
  0.0192   0.0233   0.0292   0.0353   0.0402   0.0408   0.0432   0.0459
  0.0557   0.0561   0.0610   0.0685   0.0728   0.0773   0.0800   0.0875
  0.0923   0.1011   0.1015   0.1101   0.1103   0.1181   0.1195   0.1214
  0.1240   0.1258   0.1281   0.1298   0.1299   0.1311   0.1361   0.1451
  0.1479   0.1520   0.1616   0.1637   0.1686   0.1726   0.1727   0.1735
  0.1798   0.1855   0.1861   0.1899   0.1919   0.1985   0.2019   0.2045
  0.2066   0.2116   0.2187   0.2228   0.2278   0.2288   0.2302   0.2353
  0.2404   0.2442   0.2484   0.2513   0.2545   0.2580   0.2619   0.2666
  0.2717   0.2725   0.2736   0.2747   0.2763   0.2922   0.2939   0.2949
  0.3009   0.3038   0.3061   0.3140   0.3168   0.3222   0.3243   0.3249
  0.3349   0.3372   0.3452   0.3506   0.3572   0.3653   0.3683   0.3722
  0.3815   0.3887   0.3937   0.4000   0.4086   0.4173   0.4302   0.4316
  0.4407   0.4549   0.4603   0.4617   0.4902   0.4934   0.5027   0.5193
  0.5228   0.5263   0.5315   0.5358   0.5411   0.5471   0.5478   0.5535
  0.5578   0.5689   0.5801   0.5886   0.5910   0.5925   0.6008   0.6015
  0.6160   0.6184   0.6287   0.6326   0.6343   0.6474   0.6477   0.6495
  0.6589   0.6636   0.6685   0.6881   0.6889   0.7024   0.7118   0.7154
  0.7348   0.7456   0.7481   0.7515   0.7567   0.7731   0.7801   0.7816
  0.7876   0.7983   0.8180   0.8238   0.8500   0.8551   0.8627   0.8673
  0.8701   0.8793   0.8866   0.8929   0.9108   0.9143   0.9154   0.9213
  0.9292   0.9314   0.9442   0.9491   0.9613   0.9691   0.9782   0.9850
  0.9854   1.0048   1.0067   1.0194   1.0368   1.0525   1.0572   1.0615
  1.0702   1.0772   1.0810   1.0879   1.1092   1.1159   1.1241   1.1458
  1.1631   1.1640   1.1727   1.1872   1.1895   1.2084   1.2089   1.2177
  1.2205   1.2437   1.2545   1.2548   1.2669   1.3054   1.3186   1.3302
  1.3465   1.3660   1.3929   1.4151   1.4192   1.4353   1.4663   1.4773
  1.4812   1.4974   1.4989   1.5116   1.5190   1.5284   1.5386   1.5591
  1.5710   1.5870   1.5974   1.6069   1.6103   1.6487   1.6602   1.6623
  1.6689   1.6794   1.6990   1.7191   1.7195   1.7427   1.7431   1.7457
  1.7757   1.7867   1.8117   1.8147   1.8303   1.8533   1.8553   1.8708
  1.8853   1.8909   1.9014   1.9078   1.9250   1.9354   1.9405   1.9576
  1.9616   1.9706   1.9796   1.9881   2.0000   2.0082   2.0335   2.0416
  2.0541   2.0603   2.0771   2.1031   2.1065   2.1071   2.1177   2.1758
  2.2027   2.2312   2.2340   2.2864   2.2989   2.2998   2.3136   2.3216
  2.3493   2.3544   2.4051   2.4160   2.4456   2.4491   2.4693   2.4879
  2.4919   2.4989   2.5253   2.5712   2.6036   2.6274   2.6292   2.6398
  2.6687   2.6909   2.6939   2.7198   2.7275   2.7335   2.7390   2.7548
  2.7559   2.7653   2.7719   2.7822   2.7982   2.8077   2.8330   2.8337
  2.8440   2.8550   2.8633   2.8790   2.8976   2.9185   2.9186   2.9522
  2.9697   2.9944   3.0297   3.0743   3.0751   3.0827   3.0884   3.0948
  3.1109   3.1385   3.1653   3.1802   3.1889   3.2015   3.2233   3.2319
  3.2458   3.3031   3.3203   3.3302   3.3378   3.3780   3.4099   3.4198
  3.4713   3.4903   3.5251   3.5369   3.5634   3.5699   3.5876   3.6244
  3.6784   3.7274   3.8037   3.8185   3.8624   3.8766   3.9104   3.9936
  4.0193   4.0333   4.0686   4.0738   4.0778   4.1630   4.1941   4.2387
  4.2583   4.2825   4.4082   4.4568   4.7637   4.8118   4.8277   4.8507
  4.9977   5.0387   5.0467   5.0579   5.2870   5.3279   5.4844   5.7390
  5.7939   5.8335   6.7966   7.5574   7.6799   7.7652  23.4854  23.6385
 23.8395  23.8691  23.8775  23.9244  23.9453  23.9506  23.9647  24.0084
 24.0552  24.0860  24.1291  24.1744  35.6878  48.0416  49.9752  50.0326
 50.0832 289.7540 289.8789 289.98781020.8675
 --------------------------------------------------------------
 
          Ground-State Mulliken Net Atomic Charges

     Atom                 Charge (a.u.)
  ----------------------------------------
      1 C                     0.085312
      2 C                    -0.495881
      3 C                    -0.552185
      4 C                     0.139253
      5 C                    -0.032360
      6 C                     0.161602
      7 C                    -0.279716
      8 C                     0.684873
      9 C                     0.515461
     10 C                    -0.162300
     11 C                    -0.325747
     12 C                     0.008812
     13 C                    -0.593741
     14 C                     0.268148
     15 O                    -0.356789
     16 O                    -0.347436
     17 O                    -0.345530
     18 Br                   -0.174865
     19 N                    -0.357090
     20 H                     0.206214
     21 H                     0.223678
     22 H                     0.225114
     23 H                     0.202927
     24 H                     0.273421
     25 H                     0.368404
     26 H                     0.364944
     27 H                     0.295476
  ----------------------------------------
  Sum of atomic charges =     0.000000

 -----------------------------------------------------------------
                    Cartesian Multipole Moments
 -----------------------------------------------------------------
    Charge (ESU x 10^10)
                -0.0000
    Dipole Moment (Debye)
         X       0.5644      Y       2.3998      Z       0.0014
       Tot       2.4653
    Quadrupole Moments (Debye-Ang)
        XX     -92.4990     XY       0.3705     YY    -130.6406
        XZ      -0.0022     YZ       0.0055     ZZ    -124.6939
    Octopole Moments (Debye-Ang^2)
       XXX     -16.3942    XXY      38.3474    XYY     -61.5798
       YYY      45.7333    XXZ      -0.0052    XYZ      -0.0057
       YYZ       0.0140    XZZ     -51.4763    YZZ      -1.2411
       ZZZ      -0.0024
    Hexadecapole Moments (Debye-Ang^3)
      XXXX   -5154.8182   XXXY      16.4301   XXYY   -1253.3333
      XYYY     -75.9426   YYYY   -2046.2703   XXXZ      -0.0132
      XXYZ       0.0033   XYYZ      -0.0230   YYYZ       0.0475
      XXZZ   -1141.8181   XYZZ     -25.5642   YYZZ    -357.3514
      XZZZ       0.0068   YZZZ      -0.0011   ZZZZ    -138.9969
 -----------------------------------------------------------------
 Total job time:  67.84s(wall), 508.21s(cpu) 
 Thu Feb 22 05:13:35 2024

        *************************************************************
        *                                                           *
        *  Thank you very much for using Q-Chem.  Have a nice day.  *
        *                                                           *
        *************************************************************


