 Entering Gaussian System, Link 0=g16
 Input=016.com
 Output=016.log
 Initial command:
 /sysapps/ubuntu-applications/gaussian/Gaussian/AVX2/g16/l1.exe "/scratch/selhajj1/4406476/Gau-1254661.inp" -scrdir="/scratch/selhajj1/4406476/"
 Entering Link 1 = /sysapps/ubuntu-applications/gaussian/Gaussian/AVX2/g16/l1.exe PID=   1254663.
  
 Copyright (c) 1988,1990,1992,1993,1995,1998,2003,2009,2016,
            Gaussian, Inc.  All Rights Reserved.
  
 This is part of the Gaussian(R) 16 program.  It is based on
 the Gaussian(R) 09 system (copyright 2009, Gaussian, Inc.),
 the Gaussian(R) 03 system (copyright 2003, Gaussian, Inc.),
 the Gaussian(R) 98 system (copyright 1998, Gaussian, Inc.),
 the Gaussian(R) 94 system (copyright 1995, Gaussian, Inc.),
 the Gaussian 92(TM) system (copyright 1992, Gaussian, Inc.),
 the Gaussian 90(TM) system (copyright 1990, Gaussian, Inc.),
 the Gaussian 88(TM) system (copyright 1988, Gaussian, Inc.),
 the Gaussian 86(TM) system (copyright 1986, Carnegie Mellon
 University), and the Gaussian 82(TM) system (copyright 1983,
 Carnegie Mellon University). Gaussian is a federally registered
 trademark of Gaussian, Inc.
  
 This software contains proprietary and confidential information,
 including trade secrets, belonging to Gaussian, Inc.
  
 This software is provided under written license and may be
 used, copied, transmitted, or stored only in accord with that
 written license.
  
 The following legend is applicable only to US Government
 contracts under FAR:
  
                    RESTRICTED RIGHTS LEGEND
  
 Use, reproduction and disclosure by the US Government is
 subject to restrictions as set forth in subparagraphs (a)
 and (c) of the Commercial Computer Software - Restricted
 Rights clause in FAR 52.227-19.
  
 Gaussian, Inc.
 340 Quinnipiac St., Bldg. 40, Wallingford CT 06492
  
  
 ---------------------------------------------------------------
 Warning -- This program may not be used in any manner that
 competes with the business of Gaussian, Inc. or will provide
 assistance to any competitor of Gaussian, Inc.  The licensee
 of this program is prohibited from giving any competitor of
 Gaussian, Inc. access to this program.  By using this program,
 the user acknowledges that Gaussian, Inc. is engaged in the
 business of creating and licensing software in the field of
 computational chemistry and represents and warrants to the
 licensee that it is not a competitor of Gaussian, Inc. and that
 it will not use this program in any manner prohibited above.
 ---------------------------------------------------------------
  

 Cite this work as:
 Gaussian 16, Revision A.03,
 M. J. Frisch, G. W. Trucks, H. B. Schlegel, G. E. Scuseria, 
 M. A. Robb, J. R. Cheeseman, G. Scalmani, V. Barone, 
 G. A. Petersson, H. Nakatsuji, X. Li, M. Caricato, A. V. Marenich, 
 J. Bloino, B. G. Janesko, R. Gomperts, B. Mennucci, H. P. Hratchian, 
 J. V. Ortiz, A. F. Izmaylov, J. L. Sonnenberg, D. Williams-Young, 
 F. Ding, F. Lipparini, F. Egidi, J. Goings, B. Peng, A. Petrone, 
 T. Henderson, D. Ranasinghe, V. G. Zakrzewski, J. Gao, N. Rega, 
 G. Zheng, W. Liang, M. Hada, M. Ehara, K. Toyota, R. Fukuda, 
 J. Hasegawa, M. Ishida, T. Nakajima, Y. Honda, O. Kitao, H. Nakai, 
 T. Vreven, K. Throssell, J. A. Montgomery, Jr., J. E. Peralta, 
 F. Ogliaro, M. J. Bearpark, J. J. Heyd, E. N. Brothers, K. N. Kudin, 
 V. N. Staroverov, T. A. Keith, R. Kobayashi, J. Normand, 
 K. Raghavachari, A. P. Rendell, J. C. Burant, S. S. Iyengar, 
 J. Tomasi, M. Cossi, J. M. Millam, M. Klene, C. Adamo, R. Cammi, 
 J. W. Ochterski, R. L. Martin, K. Morokuma, O. Farkas, 
 J. B. Foresman, and D. J. Fox, Gaussian, Inc., Wallingford CT, 2016.
 
 ******************************************
 Gaussian 16:  ES64L-G16RevA.03 25-Dec-2016
                10-Feb-2024 
 ******************************************
 %chk=016.chk
 %nproc=8
 Will use up to    8 processors via shared memory.
 %mem=30GB
 ----------------------------------------------------------------------
 #P UB3LYP/genecp nosym opt freq SCRF=(PCM,Solvent=n,n-DiMethylFormamid
 e)
 ----------------------------------------------------------------------
 1/18=20,19=15,26=3,38=1/1,3;
 2/9=110,12=2,15=1,17=6,18=5,40=1/2;
 3/5=7,11=2,16=1,17=8,25=1,30=1,70=2201,71=1,72=148,74=-5,116=2/1,2,3;
 4//1;
 5/5=2,38=5,53=148/2;
 6/7=2,8=2,9=2,10=2,28=1/1;
 7/30=1/1,2,3,16;
 1/18=20,19=15,26=3/3(2);
 2/9=110,15=1/2;
 99//99;
 2/9=110,15=1/2;
 3/5=7,6=1,11=2,16=1,17=8,25=1,30=1,70=2205,71=1,72=148,74=-5,82=7,116=2/1,2,3;
 4/5=5,16=3,69=1/1;
 5/5=2,38=5,53=148/2;
 7/30=1/1,2,3,16;
 1/18=20,19=15,26=3/3(-5);
 2/9=110,15=1/2;
 6/7=2,8=2,9=2,10=2,19=2,28=1/1;
 99/9=1/99;
 Leave Link    1 at Sat Feb 10 10:14:06 2024, MaxMem=  4026531840 cpu:               0.8 elap:               0.1
 (Enter /sysapps/ubuntu-applications/gaussian/Gaussian/AVX2/g16/l101.exe)
 --------
 Oxidized
 --------
 Symbolic Z-matrix:
 Charge =  0 Multiplicity = 1
 C                    -1.74359   1.45794   1.01333 
 C                    -2.98482   0.68895   0.7915 
 C                    -3.04085  -0.5195    0.20767 
 C                    -1.74458  -1.13363  -0.25336 
 C                    -0.46077  -0.3648   -0.03612 
 C                    -0.45278   0.84696   0.55505 
 O                    -1.7121   -2.22196  -0.79002 
 O                    -1.78714   2.54782   1.55099 
 I                     1.24501   2.01362   0.91525 
 I                     1.25159  -1.35278  -0.73035 
 H                    -3.86804   1.19994   1.15074 
 C                    -4.3485   -1.29108  -0.00774 
 C                    -5.55522  -0.49854   0.52981 
 C                    -4.2915   -2.64411   0.74535 
 C                    -4.57279  -1.53469  -1.52149 
 H                    -5.67744   0.46137   0.02052 
 H                    -5.48079  -0.31402   1.60506 
 H                    -6.46534  -1.07812   0.35908 
 H                    -4.13197  -2.48792   1.81632 
 H                    -3.50032  -3.28725   0.36404 
 H                    -5.24575  -3.16415   0.62305 
 H                    -4.61392  -0.58727  -2.06694 
 H                    -5.52977  -2.04398  -1.66581 
 H                    -3.7879   -2.15318  -1.95323 
 
 ITRead=  0  0  0  0  0  0  0  0  0  0  0  0  0  0  0  0  0  0  0  0
 ITRead=  0  0  0  0
 MicOpt= -1 -1 -1 -1 -1 -1 -1 -1 -1 -1 -1 -1 -1 -1 -1 -1 -1 -1 -1 -1
 MicOpt= -1 -1 -1 -1
 NAtoms=     24 NQM=       24 NQMF=       0 NMMI=      0 NMMIF=      0
                NMic=       0 NMicF=      0.
                    Isotopes and Nuclear Properties:
 (Nuclear quadrupole moments (NQMom) in fm**2, nuclear magnetic moments (NMagM)
  in nuclear magnetons)

  Atom         1           2           3           4           5           6           7           8           9          10
 IAtWgt=          12          12          12          12          12          12          16          16         127         127
 AtmWgt=  12.0000000  12.0000000  12.0000000  12.0000000  12.0000000  12.0000000  15.9949146  15.9949146 126.9004000 126.9004000
 NucSpn=           0           0           0           0           0           0           0           0           5           5
 AtZEff=  -0.0000000  -0.0000000  -0.0000000  -0.0000000  -0.0000000  -0.0000000  -0.0000000  -0.0000000  -0.0000000  -0.0000000
 NQMom=    0.0000000   0.0000000   0.0000000   0.0000000   0.0000000   0.0000000   0.0000000   0.0000000 -71.0000000 -71.0000000
 NMagM=    0.0000000   0.0000000   0.0000000   0.0000000   0.0000000   0.0000000   0.0000000   0.0000000   2.8132800   2.8132800
 AtZNuc=   6.0000000   6.0000000   6.0000000   6.0000000   6.0000000   6.0000000   8.0000000   8.0000000  53.0000000  53.0000000

  Atom        11          12          13          14          15          16          17          18          19          20
 IAtWgt=           1          12          12          12          12           1           1           1           1           1
 AtmWgt=   1.0078250  12.0000000  12.0000000  12.0000000  12.0000000   1.0078250   1.0078250   1.0078250   1.0078250   1.0078250
 NucSpn=           1           0           0           0           0           1           1           1           1           1
 AtZEff=  -0.0000000  -0.0000000  -0.0000000  -0.0000000  -0.0000000  -0.0000000  -0.0000000  -0.0000000  -0.0000000  -0.0000000
 NQMom=    0.0000000   0.0000000   0.0000000   0.0000000   0.0000000   0.0000000   0.0000000   0.0000000   0.0000000   0.0000000
 NMagM=    2.7928460   0.0000000   0.0000000   0.0000000   0.0000000   2.7928460   2.7928460   2.7928460   2.7928460   2.7928460
 AtZNuc=   1.0000000   6.0000000   6.0000000   6.0000000   6.0000000   1.0000000   1.0000000   1.0000000   1.0000000   1.0000000

  Atom        21          22          23          24
 IAtWgt=           1           1           1           1
 AtmWgt=   1.0078250   1.0078250   1.0078250   1.0078250
 NucSpn=           1           1           1           1
 AtZEff=  -0.0000000  -0.0000000  -0.0000000  -0.0000000
 NQMom=    0.0000000   0.0000000   0.0000000   0.0000000
 NMagM=    2.7928460   2.7928460   2.7928460   2.7928460
 AtZNuc=   1.0000000   1.0000000   1.0000000   1.0000000
 Leave Link  101 at Sat Feb 10 10:14:07 2024, MaxMem=  4026531840 cpu:               6.6 elap:               0.9
 (Enter /sysapps/ubuntu-applications/gaussian/Gaussian/AVX2/g16/l103.exe)

 GradGradGradGradGradGradGradGradGradGradGradGradGradGradGradGradGradGrad
 Berny optimization.
 Initialization pass.
                           ----------------------------
                           !    Initial Parameters    !
                           ! (Angstroms and Degrees)  !
 --------------------------                            --------------------------
 ! Name  Definition              Value          Derivative Info.                !
 --------------------------------------------------------------------------------
 ! R1    R(1,2)                  1.4769         estimate D2E/DX2                !
 ! R2    R(1,6)                  1.4998         estimate D2E/DX2                !
 ! R3    R(1,8)                  1.2161         estimate D2E/DX2                !
 ! R4    R(2,3)                  1.3433         estimate D2E/DX2                !
 ! R5    R(2,11)                 1.0818         estimate D2E/DX2                !
 ! R6    R(3,4)                  1.5067         estimate D2E/DX2                !
 ! R7    R(3,12)                 1.5335         estimate D2E/DX2                !
 ! R8    R(4,5)                  1.5121         estimate D2E/DX2                !
 ! R9    R(4,7)                  1.2139         estimate D2E/DX2                !
 ! R10   R(5,6)                  1.3483         estimate D2E/DX2                !
 ! R11   R(5,10)                 2.0953         estimate D2E/DX2                !
 ! R12   R(6,9)                  2.0913         estimate D2E/DX2                !
 ! R13   R(12,13)                1.5405         estimate D2E/DX2                !
 ! R14   R(12,14)                1.5495         estimate D2E/DX2                !
 ! R15   R(12,15)                1.5495         estimate D2E/DX2                !
 ! R16   R(13,16)                1.0935         estimate D2E/DX2                !
 ! R17   R(13,17)                1.0935         estimate D2E/DX2                !
 ! R18   R(13,18)                1.0924         estimate D2E/DX2                !
 ! R19   R(14,19)                1.094          estimate D2E/DX2                !
 ! R20   R(14,20)                1.0886         estimate D2E/DX2                !
 ! R21   R(14,21)                1.0936         estimate D2E/DX2                !
 ! R22   R(15,22)                1.094          estimate D2E/DX2                !
 ! R23   R(15,23)                1.0936         estimate D2E/DX2                !
 ! R24   R(15,24)                1.0886         estimate D2E/DX2                !
 ! A1    A(2,1,6)              117.7302         estimate D2E/DX2                !
 ! A2    A(2,1,8)              120.1963         estimate D2E/DX2                !
 ! A3    A(6,1,8)              122.0735         estimate D2E/DX2                !
 ! A4    A(1,2,3)              124.6642         estimate D2E/DX2                !
 ! A5    A(1,2,11)             112.9761         estimate D2E/DX2                !
 ! A6    A(3,2,11)             122.3597         estimate D2E/DX2                !
 ! A7    A(2,3,4)              117.6334         estimate D2E/DX2                !
 ! A8    A(2,3,12)             123.3169         estimate D2E/DX2                !
 ! A9    A(4,3,12)             119.0497         estimate D2E/DX2                !
 ! A10   A(3,4,5)              118.6367         estimate D2E/DX2                !
 ! A11   A(3,4,7)              121.5843         estimate D2E/DX2                !
 ! A12   A(5,4,7)              119.779          estimate D2E/DX2                !
 ! A13   A(4,5,6)              121.6672         estimate D2E/DX2                !
 ! A14   A(4,5,10)             113.9859         estimate D2E/DX2                !
 ! A15   A(6,5,10)             124.3469         estimate D2E/DX2                !
 ! A16   A(1,6,5)              119.6684         estimate D2E/DX2                !
 ! A17   A(1,6,9)              114.7604         estimate D2E/DX2                !
 ! A18   A(5,6,9)              125.5713         estimate D2E/DX2                !
 ! A19   A(3,12,13)            111.1052         estimate D2E/DX2                !
 ! A20   A(3,12,14)            109.8587         estimate D2E/DX2                !
 ! A21   A(3,12,15)            109.8614         estimate D2E/DX2                !
 ! A22   A(13,12,14)           107.9655         estimate D2E/DX2                !
 ! A23   A(13,12,15)           107.9609         estimate D2E/DX2                !
 ! A24   A(14,12,15)           110.0494         estimate D2E/DX2                !
 ! A25   A(12,13,16)           112.1261         estimate D2E/DX2                !
 ! A26   A(12,13,17)           112.1235         estimate D2E/DX2                !
 ! A27   A(12,13,18)           108.9728         estimate D2E/DX2                !
 ! A28   A(16,13,17)           108.5085         estimate D2E/DX2                !
 ! A29   A(16,13,18)           107.4472         estimate D2E/DX2                !
 ! A30   A(17,13,18)           107.4521         estimate D2E/DX2                !
 ! A31   A(12,14,19)           110.884          estimate D2E/DX2                !
 ! A32   A(12,14,20)           111.8625         estimate D2E/DX2                !
 ! A33   A(12,14,21)           109.1942         estimate D2E/DX2                !
 ! A34   A(19,14,20)           108.7407         estimate D2E/DX2                !
 ! A35   A(19,14,21)           107.734          estimate D2E/DX2                !
 ! A36   A(20,14,21)           108.3045         estimate D2E/DX2                !
 ! A37   A(12,15,22)           110.877          estimate D2E/DX2                !
 ! A38   A(12,15,23)           109.1952         estimate D2E/DX2                !
 ! A39   A(12,15,24)           111.8641         estimate D2E/DX2                !
 ! A40   A(22,15,23)           107.7345         estimate D2E/DX2                !
 ! A41   A(22,15,24)           108.7483         estimate D2E/DX2                !
 ! A42   A(23,15,24)           108.3009         estimate D2E/DX2                !
 ! D1    D(6,1,2,3)             -0.0265         estimate D2E/DX2                !
 ! D2    D(6,1,2,11)           179.9859         estimate D2E/DX2                !
 ! D3    D(8,1,2,3)            179.9724         estimate D2E/DX2                !
 ! D4    D(8,1,2,11)            -0.0153         estimate D2E/DX2                !
 ! D5    D(2,1,6,5)              0.0145         estimate D2E/DX2                !
 ! D6    D(2,1,6,9)           -179.9809         estimate D2E/DX2                !
 ! D7    D(8,1,6,5)           -179.9844         estimate D2E/DX2                !
 ! D8    D(8,1,6,9)              0.0202         estimate D2E/DX2                !
 ! D9    D(1,2,3,4)              0.0061         estimate D2E/DX2                !
 ! D10   D(1,2,3,12)          -179.9778         estimate D2E/DX2                !
 ! D11   D(11,2,3,4)           179.9927         estimate D2E/DX2                !
 ! D12   D(11,2,3,12)            0.0088         estimate D2E/DX2                !
 ! D13   D(2,3,4,5)              0.0243         estimate D2E/DX2                !
 ! D14   D(2,3,4,7)           -179.9721         estimate D2E/DX2                !
 ! D15   D(12,3,4,5)          -179.9911         estimate D2E/DX2                !
 ! D16   D(12,3,4,7)             0.0125         estimate D2E/DX2                !
 ! D17   D(2,3,12,13)           -0.0284         estimate D2E/DX2                !
 ! D18   D(2,3,12,14)         -119.4303         estimate D2E/DX2                !
 ! D19   D(2,3,12,15)          119.3695         estimate D2E/DX2                !
 ! D20   D(4,3,12,13)          179.9879         estimate D2E/DX2                !
 ! D21   D(4,3,12,14)           60.586          estimate D2E/DX2                !
 ! D22   D(4,3,12,15)          -60.6142         estimate D2E/DX2                !
 ! D23   D(3,4,5,6)             -0.036          estimate D2E/DX2                !
 ! D24   D(3,4,5,10)           179.9664         estimate D2E/DX2                !
 ! D25   D(7,4,5,6)            179.9605         estimate D2E/DX2                !
 ! D26   D(7,4,5,10)            -0.037          estimate D2E/DX2                !
 ! D27   D(4,5,6,1)              0.0157         estimate D2E/DX2                !
 ! D28   D(4,5,6,9)           -179.9895         estimate D2E/DX2                !
 ! D29   D(10,5,6,1)          -179.987          estimate D2E/DX2                !
 ! D30   D(10,5,6,9)             0.0078         estimate D2E/DX2                !
 ! D31   D(3,12,13,16)          61.1824         estimate D2E/DX2                !
 ! D32   D(3,12,13,17)         -61.1757         estimate D2E/DX2                !
 ! D33   D(3,12,13,18)        -179.999          estimate D2E/DX2                !
 ! D34   D(14,12,13,16)       -178.2906         estimate D2E/DX2                !
 ! D35   D(14,12,13,17)         59.3513         estimate D2E/DX2                !
 ! D36   D(14,12,13,18)        -59.4719         estimate D2E/DX2                !
 ! D37   D(15,12,13,16)        -59.345          estimate D2E/DX2                !
 ! D38   D(15,12,13,17)        178.2969         estimate D2E/DX2                !
 ! D39   D(15,12,13,18)         59.4736         estimate D2E/DX2                !
 ! D40   D(3,12,14,19)          58.833          estimate D2E/DX2                !
 ! D41   D(3,12,14,20)         -62.742          estimate D2E/DX2                !
 ! D42   D(3,12,14,21)         177.3899         estimate D2E/DX2                !
 ! D43   D(13,12,14,19)        -62.4714         estimate D2E/DX2                !
 ! D44   D(13,12,14,20)        175.9536         estimate D2E/DX2                !
 ! D45   D(13,12,14,21)         56.0855         estimate D2E/DX2                !
 ! D46   D(15,12,14,19)        179.9203         estimate D2E/DX2                !
 ! D47   D(15,12,14,20)         58.3453         estimate D2E/DX2                !
 ! D48   D(15,12,14,21)        -61.5228         estimate D2E/DX2                !
 ! D49   D(3,12,15,22)         -58.8389         estimate D2E/DX2                !
 ! D50   D(3,12,15,23)        -177.3927         estimate D2E/DX2                !
 ! D51   D(3,12,15,24)          62.7421         estimate D2E/DX2                !
 ! D52   D(13,12,15,22)         62.4644         estimate D2E/DX2                !
 ! D53   D(13,12,15,23)        -56.0895         estimate D2E/DX2                !
 ! D54   D(13,12,15,24)       -175.9547         estimate D2E/DX2                !
 ! D55   D(14,12,15,22)       -179.9245         estimate D2E/DX2                !
 ! D56   D(14,12,15,23)         61.5216         estimate D2E/DX2                !
 ! D57   D(14,12,15,24)        -58.3436         estimate D2E/DX2                !
 --------------------------------------------------------------------------------
 Trust Radius=3.00D-01 FncErr=1.00D-07 GrdErr=1.00D-06 EigMax=2.50D+02 EigMin=1.00D-04
 Number of steps in this run=    133 maximum allowed number of steps=    144.
 GradGradGradGradGradGradGradGradGradGradGradGradGradGradGradGradGradGrad

 Leave Link  103 at Sat Feb 10 10:14:07 2024, MaxMem=  4026531840 cpu:               0.3 elap:               0.1
 (Enter /sysapps/ubuntu-applications/gaussian/Gaussian/AVX2/g16/l202.exe)
                          Input orientation:                          
 ---------------------------------------------------------------------
 Center     Atomic      Atomic             Coordinates (Angstroms)
 Number     Number       Type             X           Y           Z
 ---------------------------------------------------------------------
      1          6           0       -1.743586    1.457936    1.013325
      2          6           0       -2.984816    0.688946    0.791497
      3          6           0       -3.040848   -0.519497    0.207668
      4          6           0       -1.744580   -1.133629   -0.253361
      5          6           0       -0.460771   -0.364804   -0.036118
      6          6           0       -0.452779    0.846964    0.555045
      7          8           0       -1.712098   -2.221965   -0.790016
      8          8           0       -1.787135    2.547818    1.550989
      9         53           0        1.245014    2.013623    0.915249
     10         53           0        1.251593   -1.352782   -0.730351
     11          1           0       -3.868039    1.199938    1.150737
     12          6           0       -4.348497   -1.291080   -0.007738
     13          6           0       -5.555221   -0.498541    0.529806
     14          6           0       -4.291496   -2.644112    0.745349
     15          6           0       -4.572788   -1.534685   -1.521489
     16          1           0       -5.677442    0.461374    0.020517
     17          1           0       -5.480794   -0.314019    1.605058
     18          1           0       -6.465336   -1.078120    0.359076
     19          1           0       -4.131973   -2.487922    1.816318
     20          1           0       -3.500323   -3.287251    0.364038
     21          1           0       -5.245751   -3.164152    0.623054
     22          1           0       -4.613917   -0.587265   -2.066936
     23          1           0       -5.529773   -2.043980   -1.665809
     24          1           0       -3.787902   -2.153175   -1.953226
 ---------------------------------------------------------------------
                    Distance matrix (angstroms):
                    1          2          3          4          5
     1  C    0.000000
     2  C    1.476890   0.000000
     3  C    2.498442   1.343254   0.000000
     4  C    2.884563   2.439609   1.506657   0.000000
     5  C    2.463600   2.857646   2.596182   1.512102   0.000000
     6  C    1.499830   2.547958   2.947200   2.499004   1.348302
     7  O    4.098134   3.548859   2.378938   1.213890   2.362886
     8  O    1.216068   2.338092   3.575574   4.100066   3.572327
     9  I    3.041404   4.434134   5.028517   4.495388   3.077615
    10  I    4.462246   4.942857   4.472057   3.041809   2.095292
    11  H    2.144469   1.081781   2.128399   3.453419   3.932749
    12  C    3.922400   2.533556   1.533521   2.620211   3.996649
    13  C    4.311630   2.843517   2.535012   3.941785   5.127531
    14  C    4.836368   3.580338   2.523333   3.125022   4.525526
    15  C    4.835850   3.579957   2.523377   3.125341   4.525885
    16  H    4.177802   2.810059   2.819355   4.252816   5.281991
    17  H    4.178121   2.810289   2.819265   4.252620   5.281730
    18  H    5.399495   3.927280   3.473054   4.760640   6.059686
    19  H    4.681772   3.529691   2.766407   3.437634   4.627837
    20  H    5.101421   4.032197   2.809988   2.846384   4.235528
    21  H    5.812157   4.470634   3.468190   4.141174   5.582731
    22  H    4.680775   3.528927   2.766399   3.438119   4.628427
    23  H    5.811746   4.470352   3.468243   4.141429   5.583037
    24  H    5.100958   4.031886   2.810063   2.846784   4.235962
                    6          7          8          9         10
     6  C    0.000000
     7  O    3.579581   0.000000
     8  O    2.380192   5.313828   0.000000
     9  I    2.091254   5.439912   3.143797   0.000000
    10  I    3.065291   3.089094   5.445462   3.747096   0.000000
    11  H    3.484744   4.485981   2.511403   5.182745   6.022085
    12  C    4.479350   2.903292   4.871072   6.562037   5.646856
    13  C    5.276925   4.413810   4.951928   7.259665   6.974987
    14  C    5.192261   3.031311   5.820397   7.237148   5.879716
    15  C    5.192179   3.031659   5.819520   7.237058   5.880680
    16  H    5.266071   4.856050   4.672267   7.150554   7.201839
    17  H    5.266056   4.855894   4.672917   7.150542   7.201264
    18  H    6.316264   5.022157   6.037686   8.325725   7.798287
    19  H    5.123353   3.566442   5.561236   7.070207   6.062743
    20  H    5.139625   2.380005   6.196119   7.135918   5.246005
    21  H    6.250301   3.920610   6.741638   8.308114   6.879553
    22  H    5.123170   3.566977   5.559570   7.070015   6.064378
    23  H    6.250249   3.920884   6.740900   8.308053   6.880390
    24  H    5.139582   2.380494   6.195315   7.135867   5.247148
                   11         12         13         14         15
    11  H    0.000000
    12  C    2.788920   0.000000
    13  C    2.473251   1.540537   0.000000
    14  C    3.888493   1.549543   2.499387   0.000000
    15  C    3.887882   1.549546   2.499316   2.539391   0.000000
    16  H    2.257612   2.199543   1.093504   3.477107   2.753597
    17  H    2.258197   2.199513   1.093506   2.753700   3.477038
    18  H    3.544323   2.158915   1.092415   2.706865   2.706790
    19  H    3.756723   2.192372   2.763763   1.093992   3.499133
    20  H    4.570446   2.200526   3.467995   1.088568   2.788706
    21  H    4.606715   2.170567   2.685135   1.093618   2.776168
    22  H    3.755509   2.192282   2.763511   3.499074   1.093988
    23  H    4.606224   2.170592   2.685099   2.776179   1.093632
    24  H    4.569943   2.200545   3.467950   2.788715   1.088565
                   16         17         18         19         20
    16  H    0.000000
    17  H    1.775014   0.000000
    18  H    1.762226   1.762284   0.000000
    19  H    3.783084   2.567061   3.091226   0.000000
    20  H    4.348568   3.781865   3.697511   1.773986   0.000000
    21  H    3.700520   3.023712   2.430761   1.766824   1.768831
    22  H    2.566747   3.782814   3.090991   4.350222   3.799954
    23  H    3.023624   3.700505   2.430704   3.778378   3.128046
    24  H    3.781784   4.348536   3.697450   3.799987   2.595870
                   21         22         23         24
    21  H    0.000000
    22  H    3.778307   0.000000
    23  H    2.564049   1.766837   0.000000
    24  H    3.128037   1.774065   1.768798   0.000000
 Symmetry turned off by external request.
 Stoichiometry    C10H10I2O2
 Framework group  C1[X(C10H10I2O2)]
 Deg. of freedom    66
 Full point group                 C1      NOp   1
 Rotational constants (GHZ):           0.4060224           0.2171578           0.1461096
 Leave Link  202 at Sat Feb 10 10:14:07 2024, MaxMem=  4026531840 cpu:               0.3 elap:               0.1
 (Enter /sysapps/ubuntu-applications/gaussian/Gaussian/AVX2/g16/l301.exe)
 General basis read from cards:  (5D, 7F)
 Centers:      11     16     17     18     19     20     21     22     23     24
 Centers:       1      2      3      4      5      6     12     13     14     15
 Centers:       7      8
 6-311++G(d,p)
 ****
 Centers:       9     10
 def2TZVP
 ****
 ======================================================================================================
                                       Pseudopotential Parameters
 ======================================================================================================
  Center     Atomic      Valence      Angular      Power
  Number     Number     Electrons     Momentum     of R      Exponent        Coefficient   SO-Coeffient
 ======================================================================================================
    1          6
                                   No pseudopotential on this center.
    2          6
                                   No pseudopotential on this center.
    3          6
                                   No pseudopotential on this center.
    4          6
                                   No pseudopotential on this center.
    5          6
                                   No pseudopotential on this center.
    6          6
                                   No pseudopotential on this center.
    7          8
                                   No pseudopotential on this center.
    8          8
                                   No pseudopotential on this center.
    9         53           25
                                      G and up 
                                                     2        1.0000000        0.00000000    0.00000000
                                      S - G
                                                     2       40.0158350       49.99429300    0.00000000
                                                     2       17.4297470      281.02531700    0.00000000
                                                     2        9.0054840       61.57332600    0.00000000
                                      P - G
                                                     2       15.3554660       67.44284100 -134.88568300
                                                     2       14.9718330      134.88113700  134.88113700
                                                     2        8.9601640       14.67505100  -29.35010100
                                                     2        8.2590960       29.37566600   29.37566600
                                      D - G
                                                     2       15.0689080       35.43952900  -35.43952900
                                                     2       14.5553220       53.17605700   35.45070400
                                                     2        6.7186470        9.06719500   -9.06719500
                                                     2        6.4563930       13.20693700    8.80462400
                                                     2        1.1917790        0.08933500   -0.08933500
                                                     2        1.2911570        0.05238000    0.03492000
                                      F - G
                                                     2       19.4586090      -21.84204000   14.56136000
                                                     2       19.3492600      -28.46819100  -14.23409500
                                                     2        4.8237670       -0.24371300    0.16247500
                                                     2        4.8843150       -0.32080400   -0.16040200
   10         53           25
                                      G and up 
                                                     2        1.0000000        0.00000000    0.00000000
                                      S - G
                                                     2       40.0158350       49.99429300    0.00000000
                                                     2       17.4297470      281.02531700    0.00000000
                                                     2        9.0054840       61.57332600    0.00000000
                                      P - G
                                                     2       15.3554660       67.44284100 -134.88568300
                                                     2       14.9718330      134.88113700  134.88113700
                                                     2        8.9601640       14.67505100  -29.35010100
                                                     2        8.2590960       29.37566600   29.37566600
                                      D - G
                                                     2       15.0689080       35.43952900  -35.43952900
                                                     2       14.5553220       53.17605700   35.45070400
                                                     2        6.7186470        9.06719500   -9.06719500
                                                     2        6.4563930       13.20693700    8.80462400
                                                     2        1.1917790        0.08933500   -0.08933500
                                                     2        1.2911570        0.05238000    0.03492000
                                      F - G
                                                     2       19.4586090      -21.84204000   14.56136000
                                                     2       19.3492600      -28.46819100  -14.23409500
                                                     2        4.8237670       -0.24371300    0.16247500
                                                     2        4.8843150       -0.32080400   -0.16040200
   11          1
                                   No pseudopotential on this center.
   12          6
                                   No pseudopotential on this center.
   13          6
                                   No pseudopotential on this center.
   14          6
                                   No pseudopotential on this center.
   15          6
                                   No pseudopotential on this center.
   16          1
                                   No pseudopotential on this center.
   17          1
                                   No pseudopotential on this center.
   18          1
                                   No pseudopotential on this center.
   19          1
                                   No pseudopotential on this center.
   20          1
                                   No pseudopotential on this center.
   21          1
                                   No pseudopotential on this center.
   22          1
                                   No pseudopotential on this center.
   23          1
                                   No pseudopotential on this center.
   24          1
                                   No pseudopotential on this center.
 ======================================================================================================
 Ernie: Thresh=  0.10000D-02 Tol=  0.10000D-05 Strict=F.
   434 basis functions,   740 primitive gaussians,   464 cartesian basis functions
    68 alpha electrons       68 beta electrons
       nuclear repulsion energy      1275.8872646195 Hartrees.
 IExCor=  402 DFT=T Ex+Corr=B3LYP ExCW=0 ScaHFX=  0.200000
 ScaDFX=  0.800000  0.720000  1.000000  0.810000 ScalE2=  1.000000  1.000000
 IRadAn=      5 IRanWt=     -1 IRanGd=            0 ICorTp=0 IEmpDi=  4
 NAtoms=   24 NActive=   24 NUniq=   24 SFac= 1.00D+00 NAtFMM=   60 NAOKFM=F Big=F
 Integral buffers will be    131072 words long.
 Raffenetti 2 integral format.
 Two-electron integral symmetry is turned off.
 ------------------------------------------------------------------------------
 Polarizable Continuum Model (PCM)
 =================================
 Model                : PCM.
 Atomic radii         : UFF (Universal Force Field).
 Polarization charges : Total charges.
 Charge compensation  : None.
 Solution method      : On-the-fly selection.
 Cavity type          : Scaled VdW (van der Waals Surface) (Alpha=1.100).
 Cavity algorithm     : GePol (No added spheres)
                        Default sphere list used, NSphG=   24.
                        Lebedev-Laikov grids with approx.  5.0 points / Ang**2.
                        Smoothing algorithm: York/Karplus (Gamma=1.0000).
                        Polarization charges: spherical gaussians, with
                                              point-specific exponents (IZeta= 3).
                        Self-potential: point-specific (ISelfS= 7).
                        Self-field    : sphere-specific E.n sum rule (ISelfD= 2).
 1st derivatives      : Analytical E(r).r(x)/FMM algorithm (CHGder, D1EAlg=3).
                        Cavity 1st derivative terms included.
 Solvent              : n,n-DiMethylFormamide, Eps=  37.219000 Eps(inf)=   2.046330
 ------------------------------------------------------------------------------
 GePol: Number of generator spheres                  =      24
 GePol: Total number of spheres                      =      24
 GePol: Number of exposed spheres                    =      24 (100.00%)
 GePol: Number of points                             =    2053
 GePol: Average weight of points                     =       0.14
 GePol: Minimum weight of points                     =   0.28D-11
 GePol: Maximum weight of points                     =    0.20577
 GePol: Number of points with low weight             =      95
 GePol: Fraction of low-weight points (<1% of avg)   =       4.63%
 GePol: Cavity surface area                          =    294.951 Ang**2
 GePol: Cavity volume                                =    327.199 Ang**3
 Leave Link  301 at Sat Feb 10 10:14:07 2024, MaxMem=  4026531840 cpu:               1.3 elap:               0.2
 (Enter /sysapps/ubuntu-applications/gaussian/Gaussian/AVX2/g16/l302.exe)
 NPDir=0 NMtPBC=     1 NCelOv=     1 NCel=       1 NClECP=     1 NCelD=      1
         NCelK=      1 NCelE2=     1 NClLst=     1 CellRange=     0.0.
 One-electron integrals computed using PRISM.
   1 Symmetry operations used in ECPInt.
 ECPInt:  NShTT=   11935 NPrTT=   41932 LenC2=   11014 LenP2D=   27521.
 LDataN:  DoStor=T MaxTD1= 7 Len=  274
 NBasis=   434 RedAO= T EigKep=  1.39D-06  NBF=   434
 NBsUse=   432 1.00D-06 EigRej=  7.78D-07 NBFU=   432
 Precomputing XC quadrature grid using
 IXCGrd= 4 IRadAn=           5 IRanWt=          -1 IRanGd=           0 AccXCQ= 0.00D+00.
 Defaulting to unpruned grid for atomic number  53.
 Defaulting to unpruned grid for atomic number  53.
 Generated NRdTot=       0 NPtTot=           0 NUsed=           0 NTot=          32
 NSgBfM=   463   463   463   463   463 MxSgAt=    24 MxSgA2=    24.
 Leave Link  302 at Sat Feb 10 10:14:08 2024, MaxMem=  4026531840 cpu:               6.9 elap:               0.9
 (Enter /sysapps/ubuntu-applications/gaussian/Gaussian/AVX2/g16/l303.exe)
 DipDrv:  MaxL=1.
 Leave Link  303 at Sat Feb 10 10:14:09 2024, MaxMem=  4026531840 cpu:               1.4 elap:               0.3
 (Enter /sysapps/ubuntu-applications/gaussian/Gaussian/AVX2/g16/l401.exe)
 ExpMin= 3.60D-02 ExpMax= 8.59D+03 ExpMxC= 1.30D+03 IAcc=3 IRadAn=         5 AccDes= 0.00D+00
 Harris functional with IExCor=  402 and IRadAn=       5 diagonalized for initial guess.
 HarFok:  IExCor=  402 AccDes= 0.00D+00 IRadAn=         5 IDoV= 1 UseB2=F ITyADJ=14
 ICtDFT=  3500011 ScaDFX=  1.000000  1.000000  1.000000  1.000000
 Defaulting to unpruned grid for atomic number  53.
 FoFCou: FMM=F IPFlag=           0 FMFlag=      100000 FMFlg1=           0
         NFxFlg=           0 DoJE=T BraDBF=F KetDBF=T FulRan=T
         wScrn=  0.000000 ICntrl=       500 IOpCl=  0 I1Cent=   200000004 NGrid=           0
         NMat0=    1 NMatS0=      1 NMatT0=    0 NMatD0=    1 NMtDS0=    0 NMtDT0=    0
 Symmetry not used in FoFCou.
 Harris En= -1133.23922853109    
 JPrj=0 DoOrth=F DoCkMO=F.
 Initial guess <Sx>= 0.0000 <Sy>= 0.0000 <Sz>= 0.0000 <S**2>=-0.0000 S=-0.0000
 Leave Link  401 at Sat Feb 10 10:14:10 2024, MaxMem=  4026531840 cpu:              13.7 elap:               1.8
 (Enter /sysapps/ubuntu-applications/gaussian/Gaussian/AVX2/g16/l502.exe)
 Two-electron integral symmetry not used.
 UHF open shell SCF:
 Using DIIS extrapolation, IDIIS=  1040.
 NGot=  4026531840 LenX=  4026094300 LenY=  4025878540
 Requested convergence on RMS density matrix=1.00D-08 within 128 cycles.
 Requested convergence on MAX density matrix=1.00D-06.
 Requested convergence on             energy=1.00D-06.
 No special actions if energy rises.
 Fock matrices will be formed incrementally for  20 cycles.

 Cycle   1  Pass 1  IDiag  1:
 FoFJK:  IHMeth= 1 ICntrl=       0 DoSepK=F KAlg= 0 I1Cent=           0 FoldK=F
 IRaf= 870000000 NMat=       1 IRICut=       1 DoRegI=T DoRafI=F ISym2E= 0 IDoP0=0 IntGTp=1.
 FoFCou: FMM=F IPFlag=           0 FMFlag=      100000 FMFlg1=           0
         NFxFlg=           0 DoJE=F BraDBF=F KetDBF=F FulRan=T
         wScrn=  0.000000 ICntrl=         0 IOpCl=  1 I1Cent=           0 NGrid=           0
         NMat0=    1 NMatS0=      1 NMatT0=    0 NMatD0=    1 NMtDS0=    0 NMtDT0=    0
 Symmetry not used in FoFCou.
 Defaulting to unpruned grid for atomic number  53.
 Defaulting to unpruned grid for atomic number  53.
 Defaulting to unpruned grid for atomic number  53.
 Defaulting to unpruned grid for atomic number  53.
 Defaulting to unpruned grid for atomic number  53.
 Defaulting to unpruned grid for atomic number  53.
 Defaulting to unpruned grid for atomic number  53.
 Defaulting to unpruned grid for atomic number  53.
 Inv3:  Mode=1 IEnd=    12644427.
 Iteration    1 A*A^-1 deviation from unit magnitude is 2.66D-15 for    449.
 Iteration    1 A*A^-1 deviation from orthogonality  is 2.72D-15 for    997    197.
 Iteration    1 A^-1*A deviation from unit magnitude is 3.44D-15 for   1469.
 Iteration    1 A^-1*A deviation from orthogonality  is 2.44D-15 for   1811   1152.
 E= -1132.76993361955    
 DIIS: error= 2.87D-02 at cycle   1 NSaved=   1.
 NSaved= 1 IEnMin= 1 EnMin= -1132.76993361955     IErMin= 1 ErrMin= 2.87D-02
 ErrMax= 2.87D-02  0.00D+00 EMaxC= 1.00D-01 BMatC= 2.31D+00 BMatP= 2.31D+00
 IDIUse=3 WtCom= 7.13D-01 WtEn= 2.87D-01
 Coeff-Com:  0.100D+01
 Coeff-En:   0.100D+01
 Coeff:      0.100D+01
 Gap=     0.235 Goal=   None    Shift=    0.000
 Gap=     0.235 Goal=   None    Shift=    0.000
 GapD=    0.235 DampG=1.000 DampE=0.500 DampFc=0.5000 IDamp=-1.
 Damping current iteration by 5.00D-01
 RMSDP=3.36D-02 MaxDP=3.01D+00              OVMax= 4.06D-01

 Cycle   2  Pass 1  IDiag  1:
 RMSU=  1.68D-02    CP:  9.82D-01
 E= -1132.92150168945     Delta-E=       -0.151568069899 Rises=F Damp=T
 DIIS: error= 1.08D-02 at cycle   2 NSaved=   2.
 NSaved= 2 IEnMin= 2 EnMin= -1132.92150168945     IErMin= 2 ErrMin= 1.08D-02
 ErrMax= 1.08D-02  0.00D+00 EMaxC= 1.00D-01 BMatC= 2.61D-01 BMatP= 2.31D+00
 IDIUse=3 WtCom= 8.92D-01 WtEn= 1.08D-01
 Coeff-Com:  0.178D+00 0.822D+00
 Coeff-En:   0.316D+00 0.684D+00
 Coeff:      0.193D+00 0.807D+00
 Gap=     0.231 Goal=   None    Shift=    0.000
 Gap=     0.231 Goal=   None    Shift=    0.000
 RMSDP=1.57D-02 MaxDP=1.41D+00 DE=-1.52D-01 OVMax= 2.52D-01

 Cycle   3  Pass 1  IDiag  1:
 RMSU=  5.55D-03    CP:  9.51D-01  1.32D-01
 E= -1133.21263333405     Delta-E=       -0.291131644602 Rises=F Damp=F
 DIIS: error= 1.48D-02 at cycle   3 NSaved=   3.
 NSaved= 3 IEnMin= 3 EnMin= -1133.21263333405     IErMin= 2 ErrMin= 1.08D-02
 ErrMax= 1.48D-02  0.00D+00 EMaxC= 1.00D-01 BMatC= 2.14D-01 BMatP= 2.61D-01
 IDIUse=3 WtCom= 8.52D-01 WtEn= 1.48D-01
 Coeff-Com:  0.487D-01 0.475D+00 0.477D+00
 Coeff-En:   0.000D+00 0.000D+00 0.100D+01
 Coeff:      0.415D-01 0.404D+00 0.554D+00
 Gap=     0.116 Goal=   None    Shift=    0.000
 Gap=     0.116 Goal=   None    Shift=    0.000
 RMSDP=3.30D-03 MaxDP=3.19D-01 DE=-2.91D-01 OVMax= 9.97D-02

 Cycle   4  Pass 1  IDiag  1:
 RMSU=  2.72D-03    CP:  9.81D-01  1.66D-01  9.18D-01
 E= -1133.23604253350     Delta-E=       -0.023409199446 Rises=F Damp=F
 DIIS: error= 8.47D-03 at cycle   4 NSaved=   4.
 NSaved= 4 IEnMin= 4 EnMin= -1133.23604253350     IErMin= 4 ErrMin= 8.47D-03
 ErrMax= 8.47D-03  0.00D+00 EMaxC= 1.00D-01 BMatC= 8.67D-02 BMatP= 2.14D-01
 IDIUse=3 WtCom= 9.15D-01 WtEn= 8.47D-02
 Coeff-Com: -0.151D-02 0.830D-01 0.390D+00 0.528D+00
 Coeff-En:   0.000D+00 0.000D+00 0.342D+00 0.658D+00
 Coeff:     -0.138D-02 0.760D-01 0.386D+00 0.539D+00
 Gap=     0.116 Goal=   None    Shift=    0.000
 Gap=     0.116 Goal=   None    Shift=    0.000
 RMSDP=3.79D-03 MaxDP=4.07D-01 DE=-2.34D-02 OVMax= 4.54D-02

 Cycle   5  Pass 1  IDiag  1:
 RMSU=  1.20D-03    CP:  9.24D-01  1.52D-01  9.75D-01  4.66D-01
 E= -1133.25233536104     Delta-E=       -0.016292827548 Rises=F Damp=F
 DIIS: error= 1.94D-03 at cycle   5 NSaved=   5.
 NSaved= 5 IEnMin= 5 EnMin= -1133.25233536104     IErMin= 5 ErrMin= 1.94D-03
 ErrMax= 1.94D-03  0.00D+00 EMaxC= 1.00D-01 BMatC= 7.20D-03 BMatP= 8.67D-02
 IDIUse=3 WtCom= 9.81D-01 WtEn= 1.94D-02
 Coeff-Com: -0.444D-02 0.116D-01 0.215D+00 0.360D+00 0.418D+00
 Coeff-En:   0.000D+00 0.000D+00 0.000D+00 0.298D-01 0.970D+00
 Coeff:     -0.435D-02 0.114D-01 0.210D+00 0.354D+00 0.429D+00
 Gap=     0.115 Goal=   None    Shift=    0.000
 Gap=     0.115 Goal=   None    Shift=    0.000
 RMSDP=1.24D-03 MaxDP=1.41D-01 DE=-1.63D-02 OVMax= 1.00D-02

 Cycle   6  Pass 1  IDiag  1:
 RMSU=  4.33D-04    CP:  9.42D-01  1.38D-01  1.00D+00  5.20D-01  6.14D-01
 E= -1133.25396141671     Delta-E=       -0.001626055669 Rises=F Damp=F
 DIIS: error= 2.83D-04 at cycle   6 NSaved=   6.
 NSaved= 6 IEnMin= 6 EnMin= -1133.25396141671     IErMin= 6 ErrMin= 2.83D-04
 ErrMax= 2.83D-04  0.00D+00 EMaxC= 1.00D-01 BMatC= 1.39D-04 BMatP= 7.20D-03
 IDIUse=3 WtCom= 9.97D-01 WtEn= 2.83D-03
 Coeff-Com: -0.692D-03-0.382D-02 0.490D-01 0.918D-01 0.169D+00 0.695D+00
 Coeff-En:   0.000D+00 0.000D+00 0.000D+00 0.000D+00 0.000D+00 0.100D+01
 Coeff:     -0.690D-03-0.381D-02 0.489D-01 0.916D-01 0.168D+00 0.696D+00
 Gap=     0.115 Goal=   None    Shift=    0.000
 Gap=     0.115 Goal=   None    Shift=    0.000
 RMSDP=1.15D-04 MaxDP=1.14D-02 DE=-1.63D-03 OVMax= 3.12D-03

 Cycle   7  Pass 1  IDiag  1:
 RMSU=  6.85D-05    CP:  9.41D-01  1.35D-01  1.01D+00  5.25D-01  6.33D-01
                    CP:  8.76D-01
 E= -1133.25399323112     Delta-E=       -0.000031814403 Rises=F Damp=F
 DIIS: error= 1.07D-04 at cycle   7 NSaved=   7.
 NSaved= 7 IEnMin= 7 EnMin= -1133.25399323112     IErMin= 7 ErrMin= 1.07D-04
 ErrMax= 1.07D-04  0.00D+00 EMaxC= 1.00D-01 BMatC= 2.15D-05 BMatP= 1.39D-04
 IDIUse=3 WtCom= 9.99D-01 WtEn= 1.07D-03
 Coeff-Com:  0.196D-03-0.339D-02 0.100D-01 0.200D-01 0.492D-01 0.349D+00
 Coeff-Com:  0.575D+00
 Coeff-En:   0.000D+00 0.000D+00 0.000D+00 0.000D+00 0.000D+00 0.733D-02
 Coeff-En:   0.993D+00
 Coeff:      0.196D-03-0.338D-02 0.100D-01 0.200D-01 0.492D-01 0.348D+00
 Coeff:      0.576D+00
 Gap=     0.115 Goal=   None    Shift=    0.000
 Gap=     0.115 Goal=   None    Shift=    0.000
 RMSDP=4.58D-05 MaxDP=4.43D-03 DE=-3.18D-05 OVMax= 5.13D-04

 Cycle   8  Pass 1  IDiag  1:
 RMSU=  2.07D-05    CP:  9.42D-01  1.34D-01  1.01D+00  5.26D-01  6.28D-01
                    CP:  9.34D-01  9.83D-01
 E= -1133.25399824621     Delta-E=       -0.000005015097 Rises=F Damp=F
 DIIS: error= 3.60D-05 at cycle   8 NSaved=   8.
 NSaved= 8 IEnMin= 8 EnMin= -1133.25399824621     IErMin= 8 ErrMin= 3.60D-05
 ErrMax= 3.60D-05  0.00D+00 EMaxC= 1.00D-01 BMatC= 1.61D-06 BMatP= 2.15D-05
 IDIUse=1 WtCom= 1.00D+00 WtEn= 0.00D+00
 Coeff-Com:  0.227D-03-0.994D-03-0.115D-02-0.298D-02-0.689D-03 0.581D-01
 Coeff-Com:  0.237D+00 0.711D+00
 Coeff:      0.227D-03-0.994D-03-0.115D-02-0.298D-02-0.689D-03 0.581D-01
 Coeff:      0.237D+00 0.711D+00
 Gap=     0.115 Goal=   None    Shift=    0.000
 Gap=     0.115 Goal=   None    Shift=    0.000
 RMSDP=1.44D-05 MaxDP=2.14D-03 DE=-5.02D-06 OVMax= 3.88D-04

 Cycle   9  Pass 1  IDiag  1:
 RMSU=  9.45D-06    CP:  9.42D-01  1.33D-01  1.01D+00  5.24D-01  6.30D-01
                    CP:  9.45D-01  1.05D+00  9.92D-01
 E= -1133.25399855762     Delta-E=       -0.000000311411 Rises=F Damp=F
 DIIS: error= 2.77D-05 at cycle   9 NSaved=   9.
 NSaved= 9 IEnMin= 9 EnMin= -1133.25399855762     IErMin= 9 ErrMin= 2.77D-05
 ErrMax= 2.77D-05  0.00D+00 EMaxC= 1.00D-01 BMatC= 5.88D-07 BMatP= 1.61D-06
 IDIUse=1 WtCom= 1.00D+00 WtEn= 0.00D+00
 Coeff-Com:  0.128D-03-0.321D-03-0.161D-02-0.383D-02-0.498D-02 0.386D-02
 Coeff-Com:  0.979D-01 0.466D+00 0.443D+00
 Coeff:      0.128D-03-0.321D-03-0.161D-02-0.383D-02-0.498D-02 0.386D-02
 Coeff:      0.979D-01 0.466D+00 0.443D+00
 Gap=     0.115 Goal=   None    Shift=    0.000
 Gap=     0.115 Goal=   None    Shift=    0.000
 RMSDP=4.60D-06 MaxDP=6.06D-04 DE=-3.11D-07 OVMax= 1.37D-04

 Cycle  10  Pass 1  IDiag  1:
 RMSU=  2.77D-06    CP:  9.42D-01  1.33D-01  1.01D+00  5.24D-01  6.30D-01
                    CP:  9.47D-01  1.06D+00  1.05D+00  9.14D-01
 E= -1133.25399867598     Delta-E=       -0.000000118350 Rises=F Damp=F
 DIIS: error= 7.30D-06 at cycle  10 NSaved=  10.
 NSaved=10 IEnMin=10 EnMin= -1133.25399867598     IErMin=10 ErrMin= 7.30D-06
 ErrMax= 7.30D-06  0.00D+00 EMaxC= 1.00D-01 BMatC= 5.65D-08 BMatP= 5.88D-07
 IDIUse=1 WtCom= 1.00D+00 WtEn= 0.00D+00
 Coeff-Com:  0.354D-04-0.291D-04-0.728D-03-0.176D-02-0.279D-02-0.793D-02
 Coeff-Com:  0.183D-01 0.165D+00 0.270D+00 0.559D+00
 Coeff:      0.354D-04-0.291D-04-0.728D-03-0.176D-02-0.279D-02-0.793D-02
 Coeff:      0.183D-01 0.165D+00 0.270D+00 0.559D+00
 Gap=     0.115 Goal=   None    Shift=    0.000
 Gap=     0.115 Goal=   None    Shift=    0.000
 RMSDP=1.63D-06 MaxDP=2.65D-04 DE=-1.18D-07 OVMax= 4.35D-05

 Cycle  11  Pass 1  IDiag  1:
 RMSU=  7.95D-07    CP:  9.42D-01  1.33D-01  1.01D+00  5.24D-01  6.29D-01
                    CP:  9.48D-01  1.07D+00  1.08D+00  9.47D-01  8.62D-01
 E= -1133.25399868804     Delta-E=       -0.000000012064 Rises=F Damp=F
 DIIS: error= 1.98D-06 at cycle  11 NSaved=  11.
 NSaved=11 IEnMin=11 EnMin= -1133.25399868804     IErMin=11 ErrMin= 1.98D-06
 ErrMax= 1.98D-06  0.00D+00 EMaxC= 1.00D-01 BMatC= 3.64D-09 BMatP= 5.65D-08
 IDIUse=1 WtCom= 1.00D+00 WtEn= 0.00D+00
 Coeff-Com:  0.284D-06 0.175D-04-0.121D-03-0.311D-03-0.611D-03-0.354D-02
 Coeff-Com: -0.331D-02 0.199D-01 0.712D-01 0.264D+00 0.653D+00
 Coeff:      0.284D-06 0.175D-04-0.121D-03-0.311D-03-0.611D-03-0.354D-02
 Coeff:     -0.331D-02 0.199D-01 0.712D-01 0.264D+00 0.653D+00
 Gap=     0.115 Goal=   None    Shift=    0.000
 Gap=     0.115 Goal=   None    Shift=    0.000
 RMSDP=8.32D-07 MaxDP=8.62D-05 DE=-1.21D-08 OVMax= 1.70D-05

 Cycle  12  Pass 1  IDiag  1:
 RMSU=  3.61D-07    CP:  9.42D-01  1.33D-01  1.01D+00  5.24D-01  6.29D-01
                    CP:  9.47D-01  1.07D+00  1.08D+00  9.50D-01  8.59D-01
                    CP:  8.39D-01
 E= -1133.25399868871     Delta-E=       -0.000000000673 Rises=F Damp=F
 DIIS: error= 9.65D-07 at cycle  12 NSaved=  12.
 NSaved=12 IEnMin=12 EnMin= -1133.25399868871     IErMin=12 ErrMin= 9.65D-07
 ErrMax= 9.65D-07  0.00D+00 EMaxC= 1.00D-01 BMatC= 7.06D-10 BMatP= 3.64D-09
 IDIUse=1 WtCom= 1.00D+00 WtEn= 0.00D+00
 Coeff-Com: -0.271D-05 0.113D-04-0.124D-04-0.350D-04-0.139D-03-0.139D-02
 Coeff-Com: -0.361D-02-0.303D-02 0.177D-01 0.104D+00 0.381D+00 0.505D+00
 Coeff:     -0.271D-05 0.113D-04-0.124D-04-0.350D-04-0.139D-03-0.139D-02
 Coeff:     -0.361D-02-0.303D-02 0.177D-01 0.104D+00 0.381D+00 0.505D+00
 Gap=     0.115 Goal=   None    Shift=    0.000
 Gap=     0.115 Goal=   None    Shift=    0.000
 RMSDP=2.61D-07 MaxDP=3.09D-05 DE=-6.73D-10 OVMax= 6.51D-06

 Cycle  13  Pass 1  IDiag  1:
 RMSU=  8.97D-08    CP:  9.42D-01  1.33D-01  1.01D+00  5.24D-01  6.29D-01
                    CP:  9.48D-01  1.07D+00  1.08D+00  9.57D-01  8.85D-01
                    CP:  8.83D-01  8.37D-01
 E= -1133.25399868885     Delta-E=       -0.000000000139 Rises=F Damp=F
 DIIS: error= 2.51D-07 at cycle  13 NSaved=  13.
 NSaved=13 IEnMin=13 EnMin= -1133.25399868885     IErMin=13 ErrMin= 2.51D-07
 ErrMax= 2.51D-07  0.00D+00 EMaxC= 1.00D-01 BMatC= 9.03D-11 BMatP= 7.06D-10
 IDIUse=1 WtCom= 1.00D+00 WtEn= 0.00D+00
 Coeff-Com: -0.137D-05 0.386D-05 0.602D-05 0.169D-04-0.138D-04-0.338D-03
 Coeff-Com: -0.164D-02-0.445D-02 0.380D-03 0.224D-01 0.129D+00 0.304D+00
 Coeff-Com:  0.551D+00
 Coeff:     -0.137D-05 0.386D-05 0.602D-05 0.169D-04-0.138D-04-0.338D-03
 Coeff:     -0.164D-02-0.445D-02 0.380D-03 0.224D-01 0.129D+00 0.304D+00
 Coeff:      0.551D+00
 Gap=     0.115 Goal=   None    Shift=    0.000
 Gap=     0.115 Goal=   None    Shift=    0.000
 RMSDP=9.93D-08 MaxDP=1.67D-05 DE=-1.39D-10 OVMax= 1.12D-06

 Cycle  14  Pass 1  IDiag  1:
 RMSU=  3.36D-08    CP:  9.42D-01  1.33D-01  1.01D+00  5.24D-01  6.29D-01
                    CP:  9.48D-01  1.07D+00  1.08D+00  9.62D-01  8.90D-01
                    CP:  8.82D-01  8.43D-01  7.10D-01
 E= -1133.25399868892     Delta-E=       -0.000000000071 Rises=F Damp=F
 DIIS: error= 4.87D-08 at cycle  14 NSaved=  14.
 NSaved=14 IEnMin=14 EnMin= -1133.25399868892     IErMin=14 ErrMin= 4.87D-08
 ErrMax= 4.87D-08  0.00D+00 EMaxC= 1.00D-01 BMatC= 4.83D-12 BMatP= 9.03D-11
 IDIUse=1 WtCom= 1.00D+00 WtEn= 0.00D+00
 Coeff-Com: -0.352D-06 0.958D-06 0.455D-05 0.115D-04 0.137D-05-0.700D-04
 Coeff-Com: -0.517D-03-0.183D-02-0.931D-03 0.301D-02 0.337D-01 0.112D+00
 Coeff-Com:  0.268D+00 0.587D+00
 Coeff:     -0.352D-06 0.958D-06 0.455D-05 0.115D-04 0.137D-05-0.700D-04
 Coeff:     -0.517D-03-0.183D-02-0.931D-03 0.301D-02 0.337D-01 0.112D+00
 Coeff:      0.268D+00 0.587D+00
 Gap=     0.115 Goal=   None    Shift=    0.000
 Gap=     0.115 Goal=   None    Shift=    0.000
 RMSDP=2.88D-08 MaxDP=2.49D-06 DE=-7.12D-11 OVMax= 3.77D-07

 Cycle  15  Pass 1  IDiag  1:
 RMSU=  9.55D-09    CP:  9.42D-01  1.33D-01  1.01D+00  5.24D-01  6.29D-01
                    CP:  9.48D-01  1.07D+00  1.08D+00  9.63D-01  8.90D-01
                    CP:  8.87D-01  8.48D-01  7.77D-01  8.01D-01
 E= -1133.25399868890     Delta-E=        0.000000000022 Rises=F Damp=F
 DIIS: error= 2.89D-08 at cycle  15 NSaved=  15.
 NSaved=15 IEnMin=14 EnMin= -1133.25399868892     IErMin=15 ErrMin= 2.89D-08
 ErrMax= 2.89D-08  0.00D+00 EMaxC= 1.00D-01 BMatC= 1.27D-12 BMatP= 4.83D-12
 IDIUse=1 WtCom= 1.00D+00 WtEn= 0.00D+00
 Coeff-Com: -0.562D-07 0.156D-06 0.253D-05 0.595D-05 0.327D-05-0.745D-05
 Coeff-Com: -0.155D-03-0.717D-03-0.642D-03-0.664D-03 0.726D-02 0.386D-01
 Coeff-Com:  0.107D+00 0.375D+00 0.474D+00
 Coeff:     -0.562D-07 0.156D-06 0.253D-05 0.595D-05 0.327D-05-0.745D-05
 Coeff:     -0.155D-03-0.717D-03-0.642D-03-0.664D-03 0.726D-02 0.386D-01
 Coeff:      0.107D+00 0.375D+00 0.474D+00
 Gap=     0.115 Goal=   None    Shift=    0.000
 Gap=     0.115 Goal=   None    Shift=    0.000
 RMSDP=6.71D-09 MaxDP=5.55D-07 DE= 2.23D-11 OVMax= 2.12D-07

 Error on total polarization charges =  0.02238
 SCF Done:  E(UB3LYP) =  -1133.25399869     A.U. after   15 cycles
            NFock= 15  Conv=0.67D-08     -V/T= 2.4864
 <Sx>= 0.0000 <Sy>= 0.0000 <Sz>= 0.0000 <S**2>=-0.0000 S=-0.0000
 <L.S>=  0.00000000000    
 KE= 7.623938741878D+02 PE=-5.066025449450D+03 EE= 1.894490311954D+03
 Annihilation of the first spin contaminant:
 S**2 before annihilation    -0.0000,   after    -0.0000
 Leave Link  502 at Sat Feb 10 10:17:17 2024, MaxMem=  4026531840 cpu:            1467.1 elap:             186.3
 (Enter /sysapps/ubuntu-applications/gaussian/Gaussian/AVX2/g16/l601.exe)
 Copying SCF densities to generalized density rwf, IOpCl= 1 IROHF=0.

 **********************************************************************

            Population analysis using the SCF density.

 **********************************************************************

 Alpha  occ. eigenvalues --  -19.15316 -19.15109 -10.30546 -10.30101 -10.26141
 Alpha  occ. eigenvalues --  -10.25974 -10.22819 -10.21177 -10.20905 -10.16518
 Alpha  occ. eigenvalues --  -10.16301 -10.16300  -6.86397  -6.86329  -4.88891
 Alpha  occ. eigenvalues --   -4.88825  -4.87710  -4.87642  -4.87562  -4.87492
 Alpha  occ. eigenvalues --   -1.93707  -1.93639  -1.93332  -1.93266  -1.93220
 Alpha  occ. eigenvalues --   -1.93152  -1.92198  -1.92195  -1.92129  -1.92125
 Alpha  occ. eigenvalues --   -1.08980  -1.08482  -0.88313  -0.84630  -0.79267
 Alpha  occ. eigenvalues --   -0.74790  -0.70958  -0.70485  -0.69314  -0.68984
 Alpha  occ. eigenvalues --   -0.62746  -0.61029  -0.55883  -0.54267  -0.50329
 Alpha  occ. eigenvalues --   -0.48460  -0.46883  -0.46778  -0.44848  -0.44715
 Alpha  occ. eigenvalues --   -0.43694  -0.43092  -0.41651  -0.39396  -0.38871
 Alpha  occ. eigenvalues --   -0.38637  -0.37343  -0.36528  -0.35452  -0.34709
 Alpha  occ. eigenvalues --   -0.34369  -0.30553  -0.30199  -0.29654  -0.29109
 Alpha  occ. eigenvalues --   -0.29093  -0.26183  -0.25884
 Alpha virt. eigenvalues --   -0.14410  -0.07222  -0.04273  -0.02257  -0.01576
 Alpha virt. eigenvalues --   -0.00697   0.01069   0.01405   0.01883   0.03293
 Alpha virt. eigenvalues --    0.03717   0.03804   0.03828   0.05435   0.05777
 Alpha virt. eigenvalues --    0.06561   0.06855   0.07713   0.07787   0.08043
 Alpha virt. eigenvalues --    0.08907   0.09639   0.09907   0.10000   0.10461
 Alpha virt. eigenvalues --    0.10946   0.11164   0.11357   0.11984   0.12129
 Alpha virt. eigenvalues --    0.12754   0.13511   0.13582   0.13959   0.14499
 Alpha virt. eigenvalues --    0.14630   0.15037   0.15137   0.15842   0.16232
 Alpha virt. eigenvalues --    0.16414   0.16901   0.16998   0.17841   0.17949
 Alpha virt. eigenvalues --    0.18037   0.18301   0.18584   0.18849   0.18987
 Alpha virt. eigenvalues --    0.19211   0.20061   0.20310   0.20533   0.20709
 Alpha virt. eigenvalues --    0.20794   0.21638   0.21744   0.23060   0.24533
 Alpha virt. eigenvalues --    0.24659   0.25065   0.25370   0.25590   0.26584
 Alpha virt. eigenvalues --    0.26763   0.27696   0.27972   0.28738   0.28880
 Alpha virt. eigenvalues --    0.29350   0.30376   0.30574   0.31046   0.31651
 Alpha virt. eigenvalues --    0.31877   0.32159   0.32172   0.33071   0.33830
 Alpha virt. eigenvalues --    0.33943   0.34308   0.34394   0.35965   0.36631
 Alpha virt. eigenvalues --    0.36912   0.37733   0.38171   0.38936   0.39352
 Alpha virt. eigenvalues --    0.41039   0.41227   0.41427   0.42454   0.44427
 Alpha virt. eigenvalues --    0.45290   0.46586   0.47542   0.49087   0.50651
 Alpha virt. eigenvalues --    0.50868   0.51277   0.53196   0.54991   0.56016
 Alpha virt. eigenvalues --    0.56712   0.57246   0.57781   0.58929   0.59302
 Alpha virt. eigenvalues --    0.60497   0.61624   0.62123   0.62539   0.63171
 Alpha virt. eigenvalues --    0.65010   0.65325   0.65928   0.66363   0.66367
 Alpha virt. eigenvalues --    0.67743   0.68233   0.68507   0.69195   0.69994
 Alpha virt. eigenvalues --    0.70071   0.71709   0.73755   0.73952   0.75467
 Alpha virt. eigenvalues --    0.76074   0.76261   0.77453   0.78735   0.78971
 Alpha virt. eigenvalues --    0.79156   0.79707   0.82261   0.83604   0.83911
 Alpha virt. eigenvalues --    0.84156   0.84409   0.85752   0.86182   0.86308
 Alpha virt. eigenvalues --    0.86740   0.87471   0.88203   0.89262   0.90378
 Alpha virt. eigenvalues --    0.91101   0.92664   0.93524   0.93736   0.95502
 Alpha virt. eigenvalues --    0.95790   0.97059   0.98198   0.99499   1.02557
 Alpha virt. eigenvalues --    1.02973   1.06032   1.07000   1.08609   1.08647
 Alpha virt. eigenvalues --    1.09561   1.12450   1.13811   1.14481   1.15186
 Alpha virt. eigenvalues --    1.16581   1.18475   1.19660   1.21453   1.21748
 Alpha virt. eigenvalues --    1.23536   1.24814   1.24883   1.25686   1.26617
 Alpha virt. eigenvalues --    1.28112   1.29672   1.29907   1.33171   1.34495
 Alpha virt. eigenvalues --    1.35578   1.36362   1.39473   1.40247   1.41700
 Alpha virt. eigenvalues --    1.43190   1.43831   1.43959   1.44529   1.45634
 Alpha virt. eigenvalues --    1.46245   1.47173   1.48574   1.49281   1.50025
 Alpha virt. eigenvalues --    1.51118   1.51438   1.53056   1.53621   1.54473
 Alpha virt. eigenvalues --    1.55624   1.57740   1.58831   1.59043   1.59409
 Alpha virt. eigenvalues --    1.62740   1.64014   1.64194   1.64813   1.67904
 Alpha virt. eigenvalues --    1.69400   1.70716   1.71542   1.71891   1.72994
 Alpha virt. eigenvalues --    1.73527   1.76206   1.77023   1.77830   1.78216
 Alpha virt. eigenvalues --    1.78916   1.80809   1.82819   1.83159   1.83770
 Alpha virt. eigenvalues --    1.85411   1.86728   1.88987   1.92774   1.94342
 Alpha virt. eigenvalues --    1.94644   1.97938   1.98774   2.00831   2.05299
 Alpha virt. eigenvalues --    2.09515   2.11121   2.11212   2.12488   2.17551
 Alpha virt. eigenvalues --    2.18811   2.18925   2.21119   2.23803   2.24760
 Alpha virt. eigenvalues --    2.26669   2.30973   2.34909   2.37358   2.43135
 Alpha virt. eigenvalues --    2.43326   2.46034   2.50391   2.51793   2.52345
 Alpha virt. eigenvalues --    2.52472   2.54124   2.55304   2.56415   2.57165
 Alpha virt. eigenvalues --    2.57896   2.60508   2.63047   2.63447   2.67055
 Alpha virt. eigenvalues --    2.67441   2.68890   2.72299   2.74784   2.77243
 Alpha virt. eigenvalues --    2.79984   2.81589   2.81853   2.82816   2.85306
 Alpha virt. eigenvalues --    2.86502   2.88646   2.90741   2.92030   2.94699
 Alpha virt. eigenvalues --    2.96205   2.98968   3.00941   3.02096   3.02667
 Alpha virt. eigenvalues --    3.02948   3.03255   3.03406   3.03759   3.04174
 Alpha virt. eigenvalues --    3.05145   3.05494   3.05942   3.08804   3.09131
 Alpha virt. eigenvalues --    3.10234   3.11914   3.15359   3.17745   3.19880
 Alpha virt. eigenvalues --    3.20113   3.22104   3.24135   3.26110   3.29641
 Alpha virt. eigenvalues --    3.31652   3.34072   3.34806   3.44252   3.50970
 Alpha virt. eigenvalues --    3.56884   3.58165   3.63002   3.69183   3.70107
 Alpha virt. eigenvalues --    3.77233   3.78829   3.80407   3.80784   3.81796
 Alpha virt. eigenvalues --    3.84960   3.87800   3.97647   4.09097   4.16851
 Alpha virt. eigenvalues --    4.25011   4.26756   4.32854   4.38635   4.39232
 Alpha virt. eigenvalues --    4.68584   5.02677   5.05598   5.19362   5.25544
 Alpha virt. eigenvalues --    5.68637   5.78070  23.45085  23.69815  23.77931
 Alpha virt. eigenvalues --   23.83536  23.88267  23.97379  23.98620  24.00445
 Alpha virt. eigenvalues --   24.08557  24.19853  34.48750  34.51047  34.55577
 Alpha virt. eigenvalues --   34.58400  34.66589  34.79335  42.77849  42.83898
 Alpha virt. eigenvalues --   49.98239  50.02939 117.80271 117.81810
  Beta  occ. eigenvalues --  -19.15316 -19.15109 -10.30546 -10.30101 -10.26141
  Beta  occ. eigenvalues --  -10.25974 -10.22819 -10.21177 -10.20905 -10.16518
  Beta  occ. eigenvalues --  -10.16301 -10.16300  -6.86397  -6.86329  -4.88891
  Beta  occ. eigenvalues --   -4.88825  -4.87710  -4.87642  -4.87562  -4.87492
  Beta  occ. eigenvalues --   -1.93707  -1.93639  -1.93332  -1.93266  -1.93220
  Beta  occ. eigenvalues --   -1.93152  -1.92198  -1.92195  -1.92129  -1.92125
  Beta  occ. eigenvalues --   -1.08980  -1.08482  -0.88313  -0.84630  -0.79267
  Beta  occ. eigenvalues --   -0.74790  -0.70958  -0.70485  -0.69314  -0.68984
  Beta  occ. eigenvalues --   -0.62746  -0.61029  -0.55883  -0.54267  -0.50329
  Beta  occ. eigenvalues --   -0.48460  -0.46883  -0.46778  -0.44848  -0.44715
  Beta  occ. eigenvalues --   -0.43694  -0.43092  -0.41651  -0.39396  -0.38871
  Beta  occ. eigenvalues --   -0.38637  -0.37343  -0.36528  -0.35452  -0.34709
  Beta  occ. eigenvalues --   -0.34369  -0.30553  -0.30199  -0.29654  -0.29109
  Beta  occ. eigenvalues --   -0.29093  -0.26183  -0.25884
  Beta virt. eigenvalues --   -0.14410  -0.07222  -0.04273  -0.02257  -0.01576
  Beta virt. eigenvalues --   -0.00697   0.01069   0.01405   0.01883   0.03293
  Beta virt. eigenvalues --    0.03717   0.03804   0.03828   0.05435   0.05777
  Beta virt. eigenvalues --    0.06561   0.06855   0.07713   0.07787   0.08043
  Beta virt. eigenvalues --    0.08907   0.09639   0.09907   0.10000   0.10461
  Beta virt. eigenvalues --    0.10946   0.11164   0.11357   0.11984   0.12129
  Beta virt. eigenvalues --    0.12754   0.13511   0.13582   0.13959   0.14499
  Beta virt. eigenvalues --    0.14630   0.15037   0.15137   0.15842   0.16232
  Beta virt. eigenvalues --    0.16414   0.16901   0.16998   0.17841   0.17949
  Beta virt. eigenvalues --    0.18037   0.18301   0.18584   0.18849   0.18987
  Beta virt. eigenvalues --    0.19211   0.20061   0.20310   0.20533   0.20709
  Beta virt. eigenvalues --    0.20794   0.21638   0.21744   0.23060   0.24533
  Beta virt. eigenvalues --    0.24659   0.25065   0.25370   0.25590   0.26584
  Beta virt. eigenvalues --    0.26763   0.27696   0.27972   0.28738   0.28880
  Beta virt. eigenvalues --    0.29350   0.30376   0.30574   0.31046   0.31651
  Beta virt. eigenvalues --    0.31877   0.32159   0.32172   0.33071   0.33830
  Beta virt. eigenvalues --    0.33943   0.34308   0.34394   0.35965   0.36631
  Beta virt. eigenvalues --    0.36912   0.37733   0.38171   0.38936   0.39352
  Beta virt. eigenvalues --    0.41039   0.41227   0.41427   0.42454   0.44427
  Beta virt. eigenvalues --    0.45290   0.46586   0.47542   0.49087   0.50651
  Beta virt. eigenvalues --    0.50868   0.51277   0.53196   0.54991   0.56016
  Beta virt. eigenvalues --    0.56712   0.57246   0.57781   0.58929   0.59302
  Beta virt. eigenvalues --    0.60497   0.61624   0.62123   0.62539   0.63171
  Beta virt. eigenvalues --    0.65010   0.65325   0.65928   0.66363   0.66367
  Beta virt. eigenvalues --    0.67743   0.68233   0.68507   0.69195   0.69994
  Beta virt. eigenvalues --    0.70071   0.71709   0.73755   0.73952   0.75467
  Beta virt. eigenvalues --    0.76074   0.76261   0.77453   0.78735   0.78971
  Beta virt. eigenvalues --    0.79156   0.79707   0.82261   0.83604   0.83911
  Beta virt. eigenvalues --    0.84156   0.84409   0.85752   0.86182   0.86308
  Beta virt. eigenvalues --    0.86740   0.87471   0.88203   0.89262   0.90378
  Beta virt. eigenvalues --    0.91101   0.92664   0.93524   0.93736   0.95502
  Beta virt. eigenvalues --    0.95790   0.97059   0.98198   0.99499   1.02557
  Beta virt. eigenvalues --    1.02973   1.06032   1.07000   1.08609   1.08647
  Beta virt. eigenvalues --    1.09561   1.12450   1.13811   1.14481   1.15186
  Beta virt. eigenvalues --    1.16581   1.18475   1.19660   1.21453   1.21748
  Beta virt. eigenvalues --    1.23536   1.24814   1.24883   1.25686   1.26617
  Beta virt. eigenvalues --    1.28112   1.29672   1.29907   1.33171   1.34495
  Beta virt. eigenvalues --    1.35578   1.36362   1.39473   1.40247   1.41700
  Beta virt. eigenvalues --    1.43190   1.43831   1.43959   1.44529   1.45634
  Beta virt. eigenvalues --    1.46245   1.47173   1.48574   1.49281   1.50025
  Beta virt. eigenvalues --    1.51118   1.51438   1.53056   1.53621   1.54473
  Beta virt. eigenvalues --    1.55624   1.57740   1.58831   1.59043   1.59409
  Beta virt. eigenvalues --    1.62740   1.64014   1.64194   1.64813   1.67904
  Beta virt. eigenvalues --    1.69400   1.70716   1.71542   1.71891   1.72994
  Beta virt. eigenvalues --    1.73527   1.76206   1.77023   1.77830   1.78216
  Beta virt. eigenvalues --    1.78916   1.80809   1.82819   1.83159   1.83770
  Beta virt. eigenvalues --    1.85411   1.86728   1.88987   1.92774   1.94342
  Beta virt. eigenvalues --    1.94644   1.97938   1.98774   2.00831   2.05299
  Beta virt. eigenvalues --    2.09515   2.11121   2.11212   2.12488   2.17551
  Beta virt. eigenvalues --    2.18811   2.18925   2.21119   2.23803   2.24760
  Beta virt. eigenvalues --    2.26669   2.30973   2.34909   2.37358   2.43135
  Beta virt. eigenvalues --    2.43326   2.46034   2.50391   2.51793   2.52345
  Beta virt. eigenvalues --    2.52472   2.54124   2.55304   2.56415   2.57165
  Beta virt. eigenvalues --    2.57896   2.60508   2.63047   2.63447   2.67055
  Beta virt. eigenvalues --    2.67441   2.68890   2.72299   2.74784   2.77243
  Beta virt. eigenvalues --    2.79984   2.81589   2.81853   2.82816   2.85306
  Beta virt. eigenvalues --    2.86502   2.88646   2.90741   2.92030   2.94699
  Beta virt. eigenvalues --    2.96205   2.98968   3.00941   3.02096   3.02667
  Beta virt. eigenvalues --    3.02948   3.03255   3.03406   3.03759   3.04174
  Beta virt. eigenvalues --    3.05145   3.05494   3.05942   3.08804   3.09131
  Beta virt. eigenvalues --    3.10234   3.11914   3.15359   3.17745   3.19880
  Beta virt. eigenvalues --    3.20113   3.22104   3.24135   3.26110   3.29641
  Beta virt. eigenvalues --    3.31652   3.34072   3.34806   3.44252   3.50970
  Beta virt. eigenvalues --    3.56884   3.58165   3.63002   3.69183   3.70107
  Beta virt. eigenvalues --    3.77233   3.78829   3.80407   3.80784   3.81796
  Beta virt. eigenvalues --    3.84960   3.87800   3.97647   4.09097   4.16851
  Beta virt. eigenvalues --    4.25011   4.26756   4.32854   4.38635   4.39232
  Beta virt. eigenvalues --    4.68584   5.02677   5.05598   5.19362   5.25544
  Beta virt. eigenvalues --    5.68637   5.78070  23.45085  23.69815  23.77931
  Beta virt. eigenvalues --   23.83536  23.88267  23.97379  23.98620  24.00445
  Beta virt. eigenvalues --   24.08557  24.19853  34.48750  34.51047  34.55577
  Beta virt. eigenvalues --   34.58400  34.66589  34.79335  42.77849  42.83898
  Beta virt. eigenvalues --   49.98239  50.02939 117.80271 117.81810
          Condensed to atoms (all electrons):
               1          2          3          4          5          6
     1  C   10.837648   1.138717  -1.162556  -0.195321  -2.686969  -1.054460
     2  C    1.138717  10.393231   1.903307  -3.296553   0.809622  -2.692884
     3  C   -1.162556   1.903307  17.524844  -4.455706  -0.902765  -2.636752
     4  C   -0.195321  -3.296553  -4.455706  15.142952  -0.886545  -3.759213
     5  C   -2.686969   0.809622  -0.902765  -0.886545  17.111463  -5.367991
     6  C   -1.054460  -2.692884  -2.636752  -3.759213  -5.367991  19.520574
     7  O   -0.064978   0.023463  -0.168112   0.906463  -0.119094  -0.323547
     8  O    0.582637  -0.126333   0.060111  -0.071916  -0.371033   0.012472
     9  I    0.066589   0.021745  -0.016672   0.159498   0.286130  -0.258023
    10  I    0.056925  -0.068314   0.033646   0.086105  -0.239167   0.349843
    11  H   -0.045377   0.635345   0.001477  -0.025129   0.089907  -0.207947
    12  C   -0.305515  -2.919980  -6.980566   4.280633  -2.003717   1.687066
    13  C   -0.158245   0.174051   0.481141  -0.437519   0.273791  -0.164997
    14  C    0.069340   0.181770   0.688174  -0.346728  -0.065148  -0.068152
    15  C    0.069470   0.181771   0.689899  -0.347386  -0.065271  -0.068543
    16  H   -0.000592  -0.014840  -0.013398   0.000868  -0.010674   0.008113
    17  H   -0.000478  -0.014647  -0.013363   0.000731  -0.010670   0.008118
    18  H   -0.002399   0.017034   0.038988  -0.025105   0.004317  -0.003243
    19  H   -0.003198  -0.012068  -0.081574   0.027263  -0.014013   0.007151
    20  H    0.002047  -0.014992  -0.117124   0.075945   0.041415   0.002401
    21  H   -0.001333  -0.006374  -0.000308   0.025360   0.000032   0.006770
    22  H   -0.003172  -0.012239  -0.082204   0.027651  -0.014053   0.007205
    23  H   -0.001333  -0.006320  -0.000004   0.025209   0.000070   0.006758
    24  H    0.002049  -0.015034  -0.117340   0.076189   0.041177   0.002414
               7          8          9         10         11         12
     1  C   -0.064978   0.582637   0.066589   0.056925  -0.045377  -0.305515
     2  C    0.023463  -0.126333   0.021745  -0.068314   0.635345  -2.919980
     3  C   -0.168112   0.060111  -0.016672   0.033646   0.001477  -6.980566
     4  C    0.906463  -0.071916   0.159498   0.086105  -0.025129   4.280633
     5  C   -0.119094  -0.371033   0.286130  -0.239167   0.089907  -2.003717
     6  C   -0.323547   0.012472  -0.258023   0.349843  -0.207947   1.687066
     7  O    8.004836   0.000891  -0.001188  -0.035759   0.001922   0.046591
     8  O    0.000891   8.154879  -0.031542  -0.000426  -0.028673   0.022658
     9  I   -0.001188  -0.031542  24.797595  -0.025897   0.002526  -0.000314
    10  I   -0.035759  -0.000426  -0.025897  24.812802  -0.001601   0.037591
    11  H    0.001922  -0.028673   0.002526  -0.001601   0.508406  -0.193525
    12  C    0.046591   0.022658  -0.000314   0.037591  -0.193525  13.289409
    13  C    0.031367   0.007380   0.000653  -0.003790   0.027929  -0.612888
    14  C   -0.067631  -0.000102  -0.000237   0.001362   0.005754  -0.417449
    15  C   -0.067555  -0.000105  -0.000236   0.001351   0.005689  -0.418014
    16  H   -0.000482   0.000179  -0.000030   0.000082  -0.008676   0.015126
    17  H   -0.000482   0.000179  -0.000031   0.000083  -0.008705   0.014399
    18  H    0.000074   0.000439   0.000015  -0.000062   0.001037  -0.052418
    19  H    0.003058  -0.000063  -0.000018   0.000398  -0.001233   0.076876
    20  H   -0.009015  -0.000178   0.000100  -0.000238   0.000867  -0.043804
    21  H    0.000615   0.000083   0.000001   0.000078  -0.001153  -0.037495
    22  H    0.003050  -0.000064  -0.000018   0.000397  -0.001236   0.077553
    23  H    0.000614   0.000083   0.000002   0.000078  -0.001155  -0.037893
    24  H   -0.009022  -0.000178   0.000100  -0.000238   0.000861  -0.043409
              13         14         15         16         17         18
     1  C   -0.158245   0.069340   0.069470  -0.000592  -0.000478  -0.002399
     2  C    0.174051   0.181770   0.181771  -0.014840  -0.014647   0.017034
     3  C    0.481141   0.688174   0.689899  -0.013398  -0.013363   0.038988
     4  C   -0.437519  -0.346728  -0.347386   0.000868   0.000731  -0.025105
     5  C    0.273791  -0.065148  -0.065271  -0.010674  -0.010670   0.004317
     6  C   -0.164997  -0.068152  -0.068543   0.008113   0.008118  -0.003243
     7  O    0.031367  -0.067631  -0.067555  -0.000482  -0.000482   0.000074
     8  O    0.007380  -0.000102  -0.000105   0.000179   0.000179   0.000439
     9  I    0.000653  -0.000237  -0.000236  -0.000030  -0.000031   0.000015
    10  I   -0.003790   0.001362   0.001351   0.000082   0.000083  -0.000062
    11  H    0.027929   0.005754   0.005689  -0.008676  -0.008705   0.001037
    12  C   -0.612888  -0.417449  -0.418014   0.015126   0.014399  -0.052418
    13  C    6.104485  -0.211455  -0.211514   0.380275   0.380718   0.424180
    14  C   -0.211455   5.900224  -0.085291   0.015539  -0.012338  -0.026187
    15  C   -0.211514  -0.085291   5.899903  -0.012403   0.015522  -0.026127
    16  H    0.380275   0.015539  -0.012403   0.557935  -0.042142  -0.023467
    17  H    0.380718  -0.012338   0.015522  -0.042142   0.557890  -0.023404
    18  H    0.424180  -0.026187  -0.026127  -0.023467  -0.023404   0.507291
    19  H    0.006535   0.345777   0.003236   0.001208   0.002700  -0.001053
    20  H    0.013237   0.418096  -0.018283  -0.003738  -0.000339   0.001947
    21  H   -0.024003   0.386910  -0.004922  -0.001373   0.005791   0.000665
    22  H    0.006273   0.003226   0.345732   0.002694   0.001204  -0.001062
    23  H   -0.023886  -0.004839   0.386863   0.005799  -0.001368   0.000665
    24  H    0.013176  -0.018326   0.418082  -0.000344  -0.003732   0.001941
              19         20         21         22         23         24
     1  C   -0.003198   0.002047  -0.001333  -0.003172  -0.001333   0.002049
     2  C   -0.012068  -0.014992  -0.006374  -0.012239  -0.006320  -0.015034
     3  C   -0.081574  -0.117124  -0.000308  -0.082204  -0.000004  -0.117340
     4  C    0.027263   0.075945   0.025360   0.027651   0.025209   0.076189
     5  C   -0.014013   0.041415   0.000032  -0.014053   0.000070   0.041177
     6  C    0.007151   0.002401   0.006770   0.007205   0.006758   0.002414
     7  O    0.003058  -0.009015   0.000615   0.003050   0.000614  -0.009022
     8  O   -0.000063  -0.000178   0.000083  -0.000064   0.000083  -0.000178
     9  I   -0.000018   0.000100   0.000001  -0.000018   0.000002   0.000100
    10  I    0.000398  -0.000238   0.000078   0.000397   0.000078  -0.000238
    11  H   -0.001233   0.000867  -0.001153  -0.001236  -0.001155   0.000861
    12  C    0.076876  -0.043804  -0.037495   0.077553  -0.037893  -0.043409
    13  C    0.006535   0.013237  -0.024003   0.006273  -0.023886   0.013176
    14  C    0.345777   0.418096   0.386910   0.003226  -0.004839  -0.018326
    15  C    0.003236  -0.018283  -0.004922   0.345732   0.386863   0.418082
    16  H    0.001208  -0.003738  -0.001373   0.002694   0.005799  -0.000344
    17  H    0.002700  -0.000339   0.005791   0.001204  -0.001368  -0.003732
    18  H   -0.001053   0.001947   0.000665  -0.001062   0.000665   0.001941
    19  H    0.539565  -0.023003  -0.026055  -0.004172   0.001455   0.000972
    20  H   -0.023003   0.534851  -0.034014   0.000968   0.005250  -0.008665
    21  H   -0.026055  -0.034014   0.544994   0.001464  -0.010395   0.005233
    22  H   -0.004172   0.000968   0.001464   0.539579  -0.026076  -0.022943
    23  H    0.001455   0.005250  -0.010395  -0.026076   0.545087  -0.034036
    24  H    0.000972  -0.008665   0.005233  -0.022943  -0.034036   0.534755
          Atomic-Atomic Spin Densities.
               1          2          3          4          5          6
     1  C    0.000000   0.000000  -0.000000  -0.000000  -0.000000   0.000000
     2  C    0.000000  -0.000000   0.000000   0.000000  -0.000000  -0.000000
     3  C   -0.000000   0.000000   0.000000  -0.000000   0.000000  -0.000000
     4  C   -0.000000   0.000000  -0.000000   0.000000   0.000000  -0.000000
     5  C   -0.000000  -0.000000   0.000000   0.000000   0.000000  -0.000000
     6  C    0.000000  -0.000000  -0.000000  -0.000000  -0.000000   0.000000
     7  O   -0.000000   0.000000   0.000000   0.000000  -0.000000  -0.000000
     8  O    0.000000   0.000000  -0.000000  -0.000000  -0.000000   0.000000
     9  I   -0.000000  -0.000000   0.000000   0.000000   0.000000  -0.000000
    10  I    0.000000   0.000000  -0.000000  -0.000000  -0.000000   0.000000
    11  H    0.000000  -0.000000   0.000000   0.000000   0.000000  -0.000000
    12  C   -0.000000   0.000000  -0.000000   0.000000   0.000000   0.000000
    13  C    0.000000  -0.000000   0.000000  -0.000000   0.000000  -0.000000
    14  C    0.000000   0.000000   0.000000  -0.000000   0.000000  -0.000000
    15  C   -0.000000  -0.000000  -0.000000   0.000000   0.000000   0.000000
    16  H   -0.000000   0.000000  -0.000000   0.000000   0.000000   0.000000
    17  H   -0.000000   0.000000   0.000000   0.000000   0.000000   0.000000
    18  H    0.000000  -0.000000   0.000000  -0.000000   0.000000  -0.000000
    19  H    0.000000  -0.000000  -0.000000   0.000000  -0.000000   0.000000
    20  H    0.000000  -0.000000  -0.000000   0.000000   0.000000   0.000000
    21  H   -0.000000   0.000000  -0.000000   0.000000   0.000000   0.000000
    22  H    0.000000   0.000000   0.000000  -0.000000  -0.000000   0.000000
    23  H   -0.000000   0.000000  -0.000000   0.000000   0.000000   0.000000
    24  H   -0.000000  -0.000000  -0.000000   0.000000  -0.000000   0.000000
               7          8          9         10         11         12
     1  C   -0.000000   0.000000  -0.000000   0.000000   0.000000  -0.000000
     2  C    0.000000   0.000000  -0.000000   0.000000  -0.000000   0.000000
     3  C    0.000000  -0.000000   0.000000  -0.000000   0.000000  -0.000000
     4  C    0.000000  -0.000000   0.000000  -0.000000   0.000000   0.000000
     5  C   -0.000000  -0.000000   0.000000  -0.000000   0.000000   0.000000
     6  C   -0.000000   0.000000  -0.000000   0.000000  -0.000000   0.000000
     7  O    0.000000  -0.000000   0.000000   0.000000   0.000000  -0.000000
     8  O   -0.000000   0.000000   0.000000   0.000000  -0.000000   0.000000
     9  I    0.000000   0.000000  -0.000000  -0.000000  -0.000000  -0.000000
    10  I    0.000000   0.000000  -0.000000  -0.000000   0.000000  -0.000000
    11  H    0.000000  -0.000000  -0.000000   0.000000  -0.000000   0.000000
    12  C   -0.000000   0.000000  -0.000000  -0.000000   0.000000   0.000000
    13  C    0.000000  -0.000000   0.000000  -0.000000   0.000000  -0.000000
    14  C    0.000000  -0.000000   0.000000  -0.000000   0.000000  -0.000000
    15  C    0.000000  -0.000000   0.000000  -0.000000   0.000000   0.000000
    16  H    0.000000   0.000000  -0.000000  -0.000000   0.000000  -0.000000
    17  H    0.000000   0.000000  -0.000000  -0.000000   0.000000  -0.000000
    18  H    0.000000  -0.000000   0.000000   0.000000   0.000000  -0.000000
[...]
 37,-0.00010419,0.00009998,-0.00001491,-0.00003481,0.00002570,-0.000183
 43,-0.00011957,0.00001706,0.00009303,0.00003223,0.00002380,-0.00000068
 ,0.00000577,0.00002192,-0.00000880,-0.00000786,-0.00127030,-0.00040261
 ,-0.00092048,-0.00260450,0.02159560,-0.01297203,-0.04904491,0.02174647
 ,-0.01084267,-0.00405866,0.00202014,0.00221942,0.00064246,-0.00038736,
 -0.00122817,0.05271499,-0.00035399,0.00006948,0.00011045,-0.00021387,0
 .00012206,-0.00056938,-0.00122455,-0.00000249,-0.00017837,0.00038252,-
 0.00018326,-0.00018470,0.00003170,-0.00004584,0.00001960,-0.00003915,-
 0.00005510,-0.00002430,0.00007206,0.00029498,0.00000720,0.00007207,0.0
 0014344,0.00002950,-0.00000687,0.00000524,0.00001279,0.00004227,-0.000
 01451,-0.00000542,-0.00086269,0.00028563,-0.00015029,0.00006430,-0.014
 25162,0.00750689,0.02302833,-0.24488323,0.10751598,0.00375068,-0.00131
 843,-0.00248730,-0.00046254,0.00040011,0.00102083,-0.02537062,0.267795
 88,0.00012922,-0.00025115,-0.00011538,-0.00009976,0.00062331,0.0004125
 3,-0.00015061,0.00019965,0.00028115,-0.00030765,0.00004848,-0.00016100
 ,-0.00001618,0.00003573,0.00006782,0.00006237,0.00002684,-0.00000624,0
 .00005426,-0.00012749,-0.00002681,0.00002696,0.00003518,0.00001165,0.0
 0005429,0.00002134,-0.00000491,0.00001108,-0.00001243,-0.00000765,-0.0
 0039426,-0.00044431,-0.00036832,0.00005961,-0.01055078,0.00411484,-0.0
 1223986,0.10824773,-0.10645199,0.00124836,-0.00114118,-0.00024954,0.00
 004731,-0.00071387,0.00101459,0.01211218,-0.11774197,0.11180671,-0.000
 08803,-0.00017335,-0.00015697,-0.00048469,-0.00061031,0.00031557,0.001
 32691,0.00017524,0.00045470,-0.00002963,0.00053091,-0.00022568,0.00006
 935,-0.00004492,0.00011014,0.00008294,-0.00003335,-0.00001420,0.000028
 63,-0.00016036,-0.00003575,0.00001977,0.00008472,0.00005419,0.00000894
 ,0.00000431,-0.00001096,0.00002275,-0.00000733,-0.00000637,-0.00104491
 ,-0.00095632,0.00054164,0.00211071,0.00335706,0.02502855,-0.04852185,-
 0.00270539,-0.02228222,0.00079700,-0.00108205,0.00049553,-0.00394067,0
 .00244895,0.00119030,-0.00134636,-0.00097555,-0.00250695,0.05208767,-0
 .00012744,-0.00012564,-0.00009563,-0.00018340,0.00023529,0.00051533,-0
 .00074750,0.00012357,0.00029277,0.00004073,-0.00018671,0.00006382,-0.0
 0000178,0.00004463,-0.00003137,0.00003182,-0.00002387,-0.00000231,0.00
 009433,0.00003485,0.00005476,0.00006809,0.00009997,0.00006386,0.000036
 92,0.00001877,0.00000389,0.00003433,-0.00001541,-0.00001556,-0.0008881
 9,-0.00052046,0.00039828,-0.00289708,-0.00419584,-0.01555296,-0.002842
 53,-0.05406626,-0.04091588,-0.00047861,0.00078245,-0.00100114,0.002985
 95,-0.00184306,-0.00084210,0.00226034,0.00592432,0.02769684,0.00276333
 ,0.05635314,-0.00034284,0.00027706,0.00018681,0.00004241,-0.00067983,0
 .00013768,-0.00111056,-0.00043610,0.00016461,0.00050205,-0.00020607,-0
 .00017198,0.00001804,-0.00005145,-0.00006102,-0.00009403,-0.00004745,-
 0.00002070,0.00003667,0.00025435,0.00024196,0.00003642,0.00004771,0.00
 004012,-0.00004832,-0.00000187,-0.00000522,0.00001868,0.00000364,-0.00
 000633,-0.00014043,0.00066334,0.00024673,-0.00151027,-0.00094677,-0.01
 071294,-0.02030249,-0.04149979,-0.29771676,-0.00051890,0.00079130,0.00
 046687,0.00326388,-0.00190796,0.00015720,-0.00141428,-0.00284442,-0.01
 344807,0.02251958,0.04735360,0.32393118,0.00061307,0.00035058,0.000116
 41,-0.00012278,0.00028820,0.00018855,-0.00283960,0.00358841,0.00213789
 ,-0.00046134,-0.00147255,-0.00061671,-0.00040180,0.00002197,0.00005302
 ,-0.00004418,0.00021153,0.00010614,0.00002223,0.00038097,0.00017894,-0
 .00018124,-0.00037266,-0.00016166,-0.00007296,-0.00006142,-0.00002104,
 -0.00020930,0.00004111,0.00004413,0.00011319,0.00012177,-0.00000559,-0
 .02332429,-0.01308265,-0.00373984,-0.22493986,-0.11710484,-0.03497987,
 0.00057097,-0.00181426,-0.00011856,0.00060223,-0.00110876,-0.00144309,
 0.00347639,0.00191824,0.00130213,-0.00158488,-0.00061017,-0.00073232,0
 .24659414,-0.00006152,0.00034615,0.00011715,-0.00014415,-0.00063684,-0
 .00044077,0.00227785,-0.00176952,-0.00125812,0.00092992,0.00049558,-0.
 00008259,0.00011519,-0.00018068,-0.00006543,-0.00011616,-0.00003005,0.
 00000338,-0.00009229,0.00014888,0.00010451,-0.00003556,-0.00005163,-0.
 00002214,-0.00004220,-0.00000530,0.00000663,0.00008549,0.00000265,-0.0
 0000330,-0.00019492,0.00043114,0.00043846,0.01475100,0.00686290,0.0024
 0340,-0.11996476,-0.12295930,-0.02261043,0.00104517,0.00082803,0.00006
 596,0.00034294,0.00046152,0.00037069,-0.02278564,-0.01448507,-0.005524
 07,-0.00319459,-0.00307428,-0.00046644,0.12683315,0.13343243,-0.000088
 93,0.00006703,0.00017017,-0.00003054,-0.00049176,0.00004801,0.00149039
 ,-0.00141922,-0.00064920,0.00056505,0.00021423,0.00046495,0.00009543,-
 0.00005428,-0.00011528,-0.00005308,-0.00003669,-0.00001888,-0.00005550
 ,0.00004580,-0.00001482,0.00000425,0.00001840,0.00000986,-0.00001327,0
 .00000833,-0.00000176,0.00006539,0.00000264,-0.00001959,-0.00015761,0.
 00039423,-0.00020579,0.00985127,0.00582474,-0.00011035,-0.03636124,-0.
 02293647,-0.05285044,-0.00052499,0.00033737,0.00005753,0.00105960,0.00
 063486,0.00040372,0.01348421,0.00799276,0.00233968,-0.02621540,-0.0173
 6610,-0.00399202,0.03704606,0.02696448,0.05458349,-0.00016176,-0.00003
 415,-0.00003527,0.00019570,0.00016546,0.00000797,0.00006906,-0.0001547
 4,0.00076779,-0.00003682,0.00025081,0.00019129,-0.00001777,-0.00003760
 ,-0.00003740,0.00002787,-0.00003024,-0.00000349,-0.00038728,-0.0003616
 5,0.00001693,0.00004289,0.00005442,0.00003250,-0.00000137,-0.00000759,
 -0.00000242,0.00001035,-0.00000764,-0.00000293,0.00002637,0.00000682,0
 .00001549,-0.00180393,-0.00040490,0.00034654,-0.00003500,-0.00013367,-
 0.00067924,-0.05281246,-0.00541346,-0.03717933,0.00027027,0.00026274,-
 0.00010648,-0.00003511,-0.00007194,0.00015888,0.00000961,0.00029473,0.
 00001193,0.00002252,-0.00000625,-0.00008057,0.05206498,-0.00022406,-0.
 00021487,0.00009965,0.00022244,0.00008213,-0.00014386,0.00066559,0.001
 54102,0.00082578,-0.00002655,-0.00014270,-0.00010240,0.00000332,0.0000
 6788,0.00011867,0.00004524,-0.00003477,-0.00004214,0.00014312,0.000251
 27,-0.00012528,0.00005433,0.00011742,0.00000212,0.00001630,0.00001283,
 -0.00000105,-0.00000036,-0.00000790,-0.00000025,0.00000220,-0.00002147
 ,-0.00003942,0.00415304,0.00325642,0.02749486,-0.00064785,0.00143485,0
 .00070655,-0.00581982,-0.05374807,-0.04307942,0.00009942,-0.00517219,0
 .00233851,-0.00024116,0.00017051,-0.00019174,0.00019187,-0.00025122,-0
 .00037104,0.00009174,-0.00007475,-0.00006035,0.00672075,0.05815202,-0.
 00020274,-0.00004210,-0.00013675,0.00042651,0.00044614,0.00034141,-0.0
 0096012,-0.00099339,-0.00000347,0.00007789,-0.00035837,-0.00032376,0.0
 0006291,0.00010690,0.00002381,0.00000539,-0.00006433,-0.00000967,0.000
 44839,0.00043369,-0.00002857,0.00006341,0.00014545,0.00009386,0.000035
 43,0.00003103,0.00001097,0.00003227,-0.00000862,-0.00000715,-0.0000041
 7,-0.00000344,0.00002928,-0.00152841,-0.00260258,-0.01466616,0.0004643
 9,-0.00097181,0.00044508,-0.03758087,-0.04096630,-0.29350095,0.0003243
 4,0.00394901,-0.00037177,0.00010082,0.00016782,0.00026905,-0.00039975,
 0.00032689,0.00054543,0.00002075,0.00004981,0.00000210,0.04135852,0.04
 281301,0.32003063,-0.00022644,-0.00014634,0.00000942,0.00012718,0.0000
 8683,0.00006925,0.00018330,0.00013213,-0.00041680,-0.00055459,-0.00135
 202,0.00026572,0.00010124,0.00026667,-0.00007455,0.00002610,-0.0001339
 3,-0.00003833,-0.00285223,-0.00117844,0.00187188,0.00007391,0.00013126
 ,0.00004076,0.00004520,0.00002506,0.00002321,0.00003531,-0.00002089,-0
 .00000648,0.00000013,0.00000176,-0.00000841,-0.00049571,-0.00115691,-0
 .00043136,0.00061128,0.00062701,-0.00067020,-0.19064780,0.11773560,0.0
 6880387,-0.00005265,0.00001009,0.00010541,0.00017103,0.00017859,0.0002
 9960,-0.00006685,-0.00005814,0.00016717,0.00048238,-0.00008466,0.00002
 175,0.00512407,-0.00470976,-0.00204942,0.20642148,0.00023929,-0.000068
 46,-0.00005009,-0.00021731,-0.00025053,-0.00019111,0.00078913,0.001083
 50,-0.00035298,-0.00076677,-0.00323654,-0.00107029,0.00009895,0.000360
 50,0.00051397,-0.00011921,-0.00007533,-0.00003833,0.00087060,0.0025340
 9,-0.00022543,-0.00005149,0.00006143,0.00005012,0.00011374,0.00013164,
 0.00002406,-0.00001923,0.00001505,0.00001173,0.00007435,0.00010032,0.0
 0008793,0.02011623,-0.01612948,-0.01029861,-0.00101132,-0.00472445,0.0
 0359352,0.11392850,-0.13920652,-0.05595947,-0.00015462,0.00114736,-0.0
 0145502,0.00155207,-0.00099193,-0.00040784,-0.00030100,0.00016500,-0.0
 0000981,0.00009033,0.00027804,0.00010443,0.00269929,-0.00297723,-0.001
 55624,-0.12652069,0.15141454,0.00003256,0.00004285,-0.00001411,-0.0000
 0370,0.00003212,0.00004513,0.00015067,-0.00080169,0.00011912,0.0001611
 2,0.00113398,0.00040280,0.00001029,-0.00024880,0.00002992,-0.00002164,
 0.00005220,0.00000737,0.00128211,0.00020034,-0.00111077,-0.00000979,-0
 .00002615,-0.00000774,-0.00002610,-0.00002167,-0.00001675,0.00000833,-
 0.00000281,-0.00000671,-0.00002470,-0.00003449,-0.00001593,-0.01286263
 ,0.00896220,0.00459520,-0.00009259,0.00277920,-0.00134185,0.07020078,-
 0.05902423,-0.08185991,-0.00054635,-0.00003208,0.00130362,-0.00060088,
 0.00083941,0.00060123,-0.00006533,0.00019724,0.00028329,0.00023567,-0.
 00003451,-0.00015302,0.02333043,-0.01764778,-0.00965004,-0.07757239,0.
 06006534,0.08569745,0.00013235,0.00002113,0.00018201,-0.00006249,0.000
 21935,0.00040550,0.00089492,0.00008936,0.00013212,0.00045903,0.0009569
 4,0.00022728,-0.00014230,-0.00017442,-0.00029100,0.00003371,0.00010915
 ,0.00002742,-0.00074054,-0.00100071,0.00052191,-0.00007272,-0.00012024
 ,-0.00011145,-0.00008498,-0.00008256,-0.00001464,-0.00003996,0.0000108
 3,0.00001635,0.00005587,0.00003041,-0.00010394,-0.00052345,0.00111792,
 -0.00059236,0.00043171,0.00126540,-0.00028957,-0.24826168,-0.10655932,
 -0.02683998,0.00025285,0.00030450,-0.00000109,0.00034810,-0.00003199,0
 .00012018,-0.00004259,-0.00004914,0.00005647,0.00054407,0.00025256,-0.
 00014229,-0.00330978,-0.00111905,-0.00048486,-0.01865630,-0.01102282,-
 0.00380155,0.26844601,0.00145159,0.00095127,-0.00076312,-0.00199181,-0
 .00081976,-0.00054197,0.00232486,-0.00386843,0.00335994,0.00035716,-0.
 00082534,-0.00056254,-0.00006060,-0.00013490,0.00004256,-0.00022895,0.
 00023183,0.00024157,0.00029926,0.00095265,-0.00016724,-0.00041518,-0.0
 0077326,-0.00005988,-0.00005433,-0.00001600,-0.00000422,-0.00013418,0.
 00007561,0.00003329,-0.00001620,-0.00021785,0.00030043,-0.02498538,-0.
 01697218,-0.00183495,-0.00163074,0.00077754,-0.00041132,-0.10457662,-0
 .09974680,-0.01488359,-0.00026287,0.00119498,-0.00143451,0.00009877,0.
 00052522,0.00004711,0.00009219,-0.00007678,-0.00002147,0.00088269,-0.0
 0018865,0.00009503,-0.00382162,-0.00275346,-0.00068309,0.01618713,0.01
 002891,0.00375505,0.11577195,0.11116571,-0.00043212,-0.00032615,0.0003
 3821,0.00095113,0.00042117,0.00053126,-0.00116337,0.00210642,-0.001363
 30,-0.00013774,-0.00044703,-0.00019873,0.00005774,0.00014708,0.0000913
 5,0.00006264,-0.00009541,-0.00008549,0.00057328,0.00044580,-0.00033397
 ,0.00014278,0.00032017,0.00001924,0.00005184,0.00004129,0.00000516,0.0
 0004170,-0.00002646,-0.00001341,-0.00000131,0.00008836,-0.00013595,0.0
 1442026,0.00894877,0.00018696,0.00046009,-0.00064802,0.00023235,-0.027
 66471,-0.01574026,-0.04952633,0.00103831,0.00001711,0.00081796,0.00009
 852,-0.00014255,-0.00014629,-0.00013151,-0.00003179,-0.00002899,-0.000
 19543,-0.00007189,0.00022664,-0.02810672,-0.01420097,-0.00258444,0.009
 87399,0.00636874,0.00126297,0.03044107,0.01305843,0.05073583,-0.000138
 70,-0.00004010,-0.00000712,0.00014240,0.00000429,0.00007175,0.00017889
 ,0.00079647,-0.00041792,-0.00006377,0.00035907,0.00010553,-0.00002852,
 -0.00005803,-0.00001675,0.00002781,-0.00001374,-0.00001961,-0.00048798
 ,-0.00029252,-0.00024178,0.00003418,0.00003644,0.00001309,-0.00000698,
 -0.00001164,-0.00000537,0.00000361,-0.00000465,-0.00000452,0.00002493,
 0.00000996,-0.00000292,-0.00215408,0.00474598,-0.00297863,-0.00002835,
 -0.00042918,0.00059710,0.00006559,-0.00046348,-0.00095616,-0.04724234,
 0.00767587,-0.00336232,0.00015976,0.00003919,0.00021073,-0.00010056,0.
 00000610,-0.00010340,0.00004015,-0.00007618,0.00002672,0.00047561,0.00
 033190,-0.00023455,0.00005113,-0.00029178,0.00011684,0.00020961,0.0002
 8726,-0.00011022,0.04622916,-0.00031076,-0.00016923,-0.00004438,0.0004
 8788,0.00043013,0.00012587,-0.00042717,0.00046105,-0.00015401,0.000059
 98,-0.00043935,-0.00010325,0.00004119,0.00014932,0.00003168,0.00003290
 ,-0.00006884,-0.00004383,0.00045913,0.00024677,0.00034008,0.00008735,0
 .00018485,0.00008626,0.00003774,0.00002881,0.00001183,0.00002431,-0.00
 000991,-0.00001087,-0.00000043,-0.00000709,-0.00000774,0.00007695,0.00
 450259,-0.00364157,-0.00016824,0.00061452,-0.00033840,0.00008938,0.000
 86021,-0.00083811,0.00754568,-0.24579858,0.11054923,-0.00021604,0.0002
 6944,0.00004481,-0.00007205,0.00022541,0.00012251,0.00008033,-0.000026
 78,0.00000136,0.00003410,0.00032127,-0.00002706,-0.00007880,0.00005303
 ,-0.00013904,0.00007619,0.00012127,-0.00020102,-0.00788725,0.26506140,
 -0.00008065,0.00003473,-0.00020008,-0.00006339,-0.00040350,0.00003801,
 0.00109140,0.00161079,0.00084376,-0.00007898,0.00008642,0.00001221,-0.
 00004472,0.00006613,-0.00004516,0.00003517,-0.00001129,0.00002036,-0.0
 0004989,-0.00006884,0.00007362,0.00001162,-0.00004389,0.00003464,-0.00
 000556,-0.00000919,0.00000067,-0.00001997,0.00000110,0.00000120,0.0000
 0698,-0.00005171,0.00001588,-0.00113577,0.02644109,-0.01556902,-0.0006
 7883,0.00134784,0.00124172,-0.00118611,-0.00239804,-0.00620124,-0.0032
 4649,0.10837803,-0.10700550,0.00048231,-0.00071790,-0.00005951,-0.0001
 6299,-0.00026770,0.00029689,0.00004696,-0.00008184,-0.00005374,-0.0000
 8837,0.00179889,-0.00108977,-0.00008168,-0.00008770,0.00015507,0.00016
 327,-0.00024698,0.00024145,0.00541410,-0.12034435,0.11896798,0.0003595
 5,0.00017261,0.00005167,-0.00047801,0.00017339,-0.00001992,0.00108943,
 0.00025721,-0.00122245,0.00054453,0.00080430,0.00050405,-0.00011398,-0
 .00038217,0.00004443,-0.00000038,0.00014586,0.00007404,-0.00100227,-0.
 00024771,-0.00093700,-0.00013816,-0.00026513,-0.00010445,-0.00010219,-
 0.00007885,-0.00004057,-0.00006166,0.00002616,0.00001595,0.00006099,-0
 .00003559,0.00001008,-0.00565687,-0.00257700,-0.00017810,0.00038311,0.
 00062956,0.00131615,0.00011873,0.00002779,0.00049773,-0.24807570,-0.10
 602617,-0.02664618,-0.00002439,0.00000988,-0.00007265,0.00029476,0.000
 17729,-0.00011845,0.00069564,0.00010858,0.00018251,0.00023861,0.000170
 16,-0.00000729,-0.00005442,-0.00003634,-0.00001640,0.00017668,0.000372
 74,-0.00028555,0.00202725,0.00104941,0.00075467,0.26820879,0.00062300,
 0.00010433,0.00026600,-0.00051951,-0.00005244,-0.00009613,0.00032958,0
 .00039314,-0.00130981,0.00016864,-0.00083605,-0.00034886,-0.00001677,0
 .00006637,-0.00002845,-0.00009604,0.00010597,0.00002692,0.00070120,0.0
 0033208,0.00073590,-0.00016336,-0.00018265,-0.00013760,0.00000150,0.00
 000941,0.00001237,-0.00005163,0.00002021,0.00002457,-0.00002625,0.0000
 1469,-0.00009113,-0.00437025,-0.00335655,-0.00119416,-0.00058512,-0.00
 009257,0.00026005,0.00077572,0.00034838,0.00064607,-0.10566929,-0.1020
 0482,-0.01390291,-0.00004971,-0.00007849,-0.00002982,0.00021185,0.0000
 9678,0.00017935,0.00042409,0.00012513,-0.00041881,0.00009749,0.0000070
 3,-0.00010717,0.00004090,0.00000059,-0.00001149,-0.00001730,0.00033387
 ,-0.00000358,-0.02471596,-0.01224899,-0.00369747,0.11694231,0.10678713
 ,0.00157212,0.00004216,0.00096020,-0.00197568,-0.00141084,0.00016631,0
 .00117930,0.00020708,-0.00582560,0.00028255,-0.00060857,-0.00027994,-0
 .00007314,-0.00007227,-0.00013217,-0.00024144,0.00029443,0.00006812,0.
 00011598,0.00039554,0.00054270,-0.00044734,-0.00053029,-0.00050104,-0.
 00005492,-0.00002074,-0.00000097,-0.00011623,0.00005675,0.00006170,-0.
 00011134,0.00011794,-0.00037250,-0.02879391,-0.01535352,-0.00814710,-0
 .00145517,-0.00002441,0.00113913,-0.00046364,-0.00080945,0.00179566,-0
 .02468523,-0.01275257,-0.04757798,0.00015526,-0.00000972,-0.00004936,-
 0.00001182,0.00038906,0.00034374,0.00070670,-0.00013430,-0.00025041,0.
 00034021,-0.00013572,0.00032897,0.00002642,0.00013377,-0.00003905,0.00
 040896,0.00058593,-0.00019927,0.01449524,0.00628678,0.00158452,0.02897
 541,0.01624978,0.05536047,-0.00020879,-0.00010071,-0.00008482,0.000093
 76,0.00006877,-0.00000098,0.00035883,-0.00007815,0.00054460,-0.0008245
 3,-0.00110714,-0.00133503,0.00013773,0.00017952,0.00026027,0.00001305,
 -0.00011842,-0.00009156,-0.00336160,0.00063643,-0.00139504,0.00006927,
 0.00011871,0.00006360,0.00005277,0.00005003,0.00000108,0.00002833,-0.0
 0001119,-0.00001737,0.00001298,0.00001412,0.00000995,0.00392937,-0.004
 20882,-0.00289073,0.00046766,-0.00022669,-0.00038297,0.00010665,-0.000
 14179,0.00025448,-0.18854902,0.11271992,0.07890698,-0.00010789,0.00002
 392,-0.00010923,0.00039199,0.00009004,-0.00023700,0.00040525,0.0000570
 0,-0.00016920,0.00002334,-0.00012283,0.00003117,0.00015325,-0.00005987
 ,0.00011525,-0.00004813,0.00005289,0.00001532,0.00058120,-0.00102178,-
 0.00108305,-0.01849003,0.01596493,0.01017170,0.20476457,0.00015773,-0.
 00003066,-0.00002382,-0.00012141,-0.00014699,-0.00002712,0.00065063,-0
 .00001627,0.00003410,-0.00043272,-0.00106955,-0.00069649,0.00001473,0.
 00030603,-0.00017489,-0.00008476,-0.00003774,0.00001625,0.00151504,0.0
 0047087,0.00147687,-0.00003533,0.00003757,0.00001311,0.00005915,0.0000
 5048,0.00003909,-0.00000143,0.00000394,0.00000483,0.00002175,0.0000573
 6,-0.00000210,0.00257531,-0.00393104,-0.00122240,-0.00091633,0.0003686
 5,-0.00108474,-0.00047705,0.00047078,0.00057884,0.11091365,-0.13649876
 ,-0.06066180,-0.00026033,0.00030369,0.00010963,0.00045615,0.00027533,-
 0.00020236,0.00030220,0.00007042,0.00007800,-0.00010116,-0.00001602,-0
 .00008525,0.00001753,0.00028649,-0.00003520,-0.00004813,0.00003456,-0.
 00002820,0.01999198,-0.01476130,-0.01133461,-0.01141829,0.01010742,0.0
 0710317,-0.12277890,0.14366475,0.00021124,-0.00002836,-0.00005907,-0.0
 0017487,-0.00030967,-0.00002950,0.00066015,0.00066573,0.00108443,-0.00
 061958,-0.00271863,-0.00147964,0.00000452,0.00053739,0.00004255,-0.000
 08155,-0.00006562,-0.00001397,0.00064336,0.00138786,0.00145263,-0.0000
 5230,0.00004005,0.00001465,0.00009614,0.00009422,0.00005127,-0.0000273
 7,0.00001909,0.00001146,0.00006525,0.00012875,0.00001382,0.02318903,-0
 .01703189,-0.01200733,-0.00209485,-0.00056528,-0.00630337,0.00066973,-
 0.00091135,0.00181509,0.07475891,-0.05829590,-0.08681969,-0.00013445,-
 0.00016692,0.00017581,0.00151568,-0.00123379,-0.00087850,-0.00016923,0
 .00027135,0.00012913,-0.00025627,-0.00005661,0.00025191,-0.00022881,0.
 00074933,-0.00028730,-0.00002980,0.00009556,-0.00007319,-0.01258982,0.
 00829320,0.00669602,-0.00277767,0.00297639,0.00102386,-0.08257743,0.06
 612511,0.09518890\\-0.00003690,0.00003320,-0.00017328,0.00004307,0.000
 02366,0.00006924,0.00001724,-0.00001645,-0.00002391,-0.00000112,-0.000
 01574,0.00005541,-0.00000051,0.00001012,-0.00000800,0.00002339,-0.0000
 2164,0.00004415,0.00000701,-0.00000444,-0.00001890,-0.00000303,0.00000
 523,0.00005885,-0.00002287,-0.00000219,0.00000435,-0.00001225,-0.00000
 471,0.00000243,-0.00000997,-0.00000075,0.00000079,0.00001075,0.0000025
 3,-0.00001375,-0.00000755,0.00000708,0.00000327,-0.00000185,-0.0000024
 5,0.00000943,-0.00001021,-0.00000493,-0.00000804,0.00000395,-0.0000013
 1,-0.00000438,-0.00000017,0.00000073,-0.00000505,0.00000262,-0.0000002
 2,-0.00000339,0.00000074,0.00000428,0.00000254,-0.00000426,0.00000154,
 0.00000679,0.00000063,-0.00000301,0.00000183,0.00000448,-0.00000291,0.
 00000024,0.00000146,-0.00000597,-0.00000425,-0.00000464,-0.00000162,0.
 00000362\\\@


 A MAN SHOULD NEVER BE ASHAMED TO OWN HE HAS BEEN IN THE WRONG
 WHICH IS BUT SAYING IN OTHER WORDS,
 THAT HE IS WISER TODAY THAN HE WAS YESTERDAY.

                          -- JONATHAN SWIFT
 Job cpu time:       0 days  3 hours 24 minutes 41.7 seconds.
 Elapsed time:       0 days  0 hours 25 minutes 47.7 seconds.
 File lengths (MBytes):  RWF=   1000 Int=      0 D2E=      0 Chk=     29 Scr=      1
 Normal termination of Gaussian 16 at Sat Feb 10 11:01:06 2024.
