
Running Job 1 of 1 256-COSMO.in
qchem 256-COSMO.in_3156217.0 /expanse/lustre/scratch/selhajj/temp_project/qcscratch/28872105/qchem3156217/ 0
/cm/shared/apps/spack/cpu/opt/spack/linux-centos8-zen2/gcc-10.2.0/qchem-5.4-akfmr7b3t57bfs6qan3padb2wnb2i7cl/exe/qcprog.exe_s 256-COSMO.in_3156217.0 /expanse/lustre/scratch/selhajj/temp_project/qcscratch/28872105/qchem3156217/
                  Welcome to Q-Chem
     A Quantum Leap Into The Future Of Chemistry


 Q-Chem 5.4, Q-Chem, Inc., Pleasanton, CA (2021)

 License issued to: University of California, San Diego (site)

 E. Epifanovsky,  A. T. B. Gilbert,  Xintian Feng,  Joonho Lee,  Yuezhi Mao,  
 N. Mardirossian,  P. Pokhilko,  A. White,  M. Wormit,  M. P. Coons,  
 A. L. Dempwolff,  Zhengting Gan,  D. Hait,  P. R. Horn,  L. D. Jacobson,  
 I. Kaliman,  J. Kussmann,  A. W. Lange,  Ka Un Lao,  D. S. Levine,  Jie Liu,  
 S. C. McKenzie,  A. F. Morrison,  K. Nanda,  F. Plasser,  D. R. Rehn,  
 M. L. Vidal,  Zhi-Qiang You,  Ying Zhu,  B. Alam,  B. Albrecht,  
 A. Aldossary,  E. Alguire,  J. H. Andersen,  D. Barton,  K. Begam,  A. Behn,  
 Y. A. Bernard,  E. J. Berquist,  H. Burton,  A. Carreras,  K. Carter-Fenk,  
 R. Chakraborty,  A. D. Chien,  K. D. Closser,  V. Cofer-Shabica,  
 S. Dasgupta,  Jia Deng,  M. de Wergifosse,  M. Diedenhofen,  Hainam Do,  
 S. Ehlert,  Po-Tung Fang,  S. Fatehi,  Qingguo Feng,  J. Gayvert,  
 Qinghui Ge,  G. Gidofalvi,  M. Goldey,  J. Gomes,  C. Gonzalez-Espinoza,  
 S. Gulania,  A. Gunina,  M. W. D. Hanson-Heine,  P. H. P. Harbach,  
 A. W. Hauser,  M. F. Herbst,  M. Hernandez Vera,  M. Hodecker,  
 Z. C. Holden,  S. Houck,  Xunkun Huang,  Kerwin Hui,  B. C. Huynh,  
 M. Ivanov,  Hyunjun Ji,  Hanjie Jiang,  B. Kaduk,  S. Kaehler,  
 K. Khistyaev,  Jaehoon Kim,  P. Klunzinger,  Z. Koczor-Benda,  
 Joong Hoon Koh,  D. Kosenkov,  L. Koulias,  T. Kowalczyk,  C. M. Krauter,  
 K. Kue,  A. Kunitsa,  T. Kus,  A. Landau,  K. V. Lawler,  D. Lefrancois,  
 S. Lehtola,  Rain Li,  Yi-Pei Li,  Jiashu Liang,  M. Liebenthal,  
 Hung-Hsuan Lin,  You-Sheng Lin,  Fenglai Liu,  Kuan-Yu Liu,  
 M. Loipersberger,  A. Luenser,  A. Manjanath,  P. Manohar,  E. Mansoor,  
 S. F. Manzer,  Shan-Ping Mao,  A. V. Marenich,  T. Markovich,  S. Mason,  
 S. A. Maurer,  P. F. McLaughlin,  M. F. S. J. Menger,  J.-M. Mewes,  
 S. A. Mewes,  P. Morgante,  J. W. Mullinax,  T. S. Nguyen-Beck,  
 K. J. Oosterbaan,  G. Paran,  Alexander C. Paul,  Suranjan K. Paul,  
 F. Pavosevic,  Zheng Pei,  S. Prager,  E. I. Proynov,  E. Ramos,  B. Rana,  
 A. E. Rask,  A. Rettig,  R. M. Richard,  F. Rob,  E. Rossomme,  T. Scheele,  
 M. Scheurer,  M. Schneider,  N. Sergueev,  S. M. Sharada,  W. Skomorowski,  
 D. W. Small,  C. J. Stein,  Yu-Chuan Su,  E. J. Sundstrom,  Zhen Tao,  
 J. Thirman,  T. Tsuchimochi,  N. M. Tubman,  S. P. Veccham,  O. Vydrov,  
 J. Wenzel,  J. Witte,  A. Yamada,  Kun Yao,  S. Yeganeh,  S. R. Yost,  
 A. Zech,  Igor Ying Zhang,  Xing Zhang,  Yu Zhang,  D. Zuev,  
 A. Aspuru-Guzik,  A. T. Bell,  N. A. Besley,  K. B. Bravaya,  B. R. Brooks,  
 D. Casanova,  Jeng-Da Chai,  S. Coriani,  C. J. Cramer,  
 A. E. DePrince, III,  R. A. DiStasio Jr.,  A. Dreuw,  B. D. Dunietz,  
 T. R. Furlani,  W. A. Goddard III,  S. Grimme,  S. Hammes-Schiffer,  
 T. Head-Gordon,  W. J. Hehre,  Chao-Ping Hsu,  T.-C. Jagau,  Yousung Jung,  
 A. Klamt,  Jing Kong,  D. S. Lambrecht,  WanZhen Liang,  N. J. Mayhall,  
 C. W. McCurdy,  J. B. Neaton,  C. Ochsenfeld,  J. A. Parkhill,  R. Peverati,  
 V. A. Rassolov,  Yihan Shao,  L. V. Slipchenko,  T. Stauch,  R. P. Steele,  
 J. E. Subotnik,  A. J. W. Thom,  A. Tkatchenko,  D. G. Truhlar,  
 T. Van Voorhis,  T. A. Wesolowski,  K. B. Whaley,  H. L. Woodcock III,  
 P. M. Zimmerman,  S. Faraji,  P. M. W. Gill,  M. Head-Gordon,  
 J. M. Herbert,  A. I. Krylov

 Contributors to earlier versions of Q-Chem not listed above: 
 R. D. Adamson,  B. Austin,  R. Baer,  J. Baker,  G. J. O. Beran,  
 K. Brandhorst,  S. T. Brown,  E. F. C. Byrd,  A. K. Chakraborty,  
 G. K. L. Chan,  Chun-Min Chang,  Yunqing Chen,  C.-L. Cheng,  
 Siu Hung Chien,  D. M. Chipman,  D. L. Crittenden,  H. Dachsel,  
 R. J. Doerksen,  A. D. Dutoi,  R. G. Edgar,  J. Fosso-Tande,  
 L. Fusti-Molnar,  D. Ghosh,  A. Ghysels,  A. Golubeva-Zadorozhnaya,  
 J. Gonthier,  M. S. Gordon,  S. R. Gwaltney,  G. Hawkins,  J. E. Herr,  
 A. Heyden,  S. Hirata,  E. G. Hohenstein,  G. Kedziora,  F. J. Keil,  
 C. Kelley,  Jihan Kim,  R. A. King,  R. Z. Khaliullin,  P. P. Korambath,  
 W. Kurlancheek,  A. Laurent,  A. M. Lee,  M. S. Lee,  S. V. Levchenko,  
 Ching Yeh Lin,  D. Liotard,  E. Livshits,  R. C. Lochan,  I. Lotan,  
 L. A. Martinez-Martinez,  P. E. Maslen,  N. Nair,  D. P. O'Neill,  
 D. Neuhauser,  E. Neuscamman,  C. M. Oana,  R. Olivares-Amaya,  R. Olson,  
 T. M. Perrine,  B. Peters,  P. A. Pieniazek,  A. Prociuk,  Y. M. Rhee,  
 J. Ritchie,  M. A. Rohrdanz,  E. Rosta,  N. J. Russ,  H. F. Schaefer III,  
 M. W. Schmidt,  N. E. Schultz,  S. Sharma,  N. Shenvi,  C. D. Sherrill,  
 A. C. Simmonett,  A. Sodt,  T. Stein,  D. Stuck,  K. S. Thanthiriwatte,  
 V. Vanovschi,  L. Vogt,  Tao Wang,  A. Warshel,  M. A. Watson,  
 C. F. Williams,  Q. Wu,  X. Xu,  Jun Yang,  W. Zhang,  Yan Zhao

 Please cite Q-Chem as follows:
 Y. Shao et al., Mol. Phys. 113, 184-215 (2015)
 DOI: 10.1080/00268976.2014.952696

 Q-Chem 5.4.0 for Intel X86 EM64T Linux

 Parts of Q-Chem use Armadillo 9.800.1 (Horizon Scraper).
 http://arma.sourceforge.net/

 Q-Chem begins on Thu Feb 22 07:53:00 2024  

 Host: 
0

     Scratch files written to /expanse/lustre/scratch/selhajj/temp_project/qcscratch/28872105/qchem3156217//
 May1621 |scratch|qcdevops|jenkins|workspace|build_RNUM    
 Processing $rem in /cm/shared/apps/spack/cpu/opt/spack/linux-centos8-zen2/gcc-10.2.0/qchem-5.4-akfmr7b3t57bfs6qan3padb2wnb2i7cl/config/preferences:
 Processing $rem in /home/selhajj/.qchemrc:

 Checking the input file for inconsistencies... 
 Q-Chem warning in module libgen/CheckREMs.C, line 172:

 Found a $solvent section, which is only used for PCM and Kirkwood-Onsager solvation models

	...done.

--------------------------------------------------------------
User input:
--------------------------------------------------------------
$molecule
0 1
C                 -1.5521870000      2.7893590000     -0.0577920000
C                 -2.8179610000      2.2054580000     -0.0252240000
C                 -2.9237910000      0.7968180000      0.0444900000
C                 -0.3913950000      2.0154070000     -0.0236540000
C                 -0.4960600000      0.6222840000      0.0448570000
C                 -1.7594550000      0.0304060000      0.0782740000
C                  0.9428570000      2.6710660000     -0.0597520000
C                  2.1606650000      1.8024470000     -0.0219870000
C                  2.0591710000      0.4519310000      0.0429650000
C                  0.7253580000     -0.2251490000      0.0814130000
O                  1.0477210000      3.8878130000     -0.1187800000
O                  0.6475400000     -1.4439080000      0.1412200000
C                  3.4901810000      2.5033570000     -0.0596490000
C                  3.2690720000     -0.4396290000      0.0817670000
H                 -1.4471460000      3.8667950000     -0.1107330000
C                 -4.0510420000      3.0721980000     -0.0643680000
C                 -4.2725480000      0.1239680000      0.0821350000
H                  3.3509290000      3.5816910000     -0.1060150000
H                  4.0749320000      2.1864270000     -0.9292800000
H                  4.0845880000      2.2626350000      0.8276160000
H                  3.8934080000     -0.2140590000      0.9524170000
H                  3.8939840000     -0.2899790000     -0.8046560000
H                  2.9704860000     -1.4851650000      0.1270950000
H                 -1.8165670000     -1.0506210000      0.1314510000
H                 -3.7858010000      4.1290700000     -0.1118950000
H                 -4.6757580000      2.9201810000      0.8218310000
H                 -4.6746660000      2.8412400000     -0.9342590000
H                 -4.8573060000      0.4479010000      0.9492940000
H                 -4.1681660000     -0.9605260000      0.1328120000
H                 -4.8649110000      0.3650180000     -0.8066000000
$end
$rem
MAX_SCF_CYCLES=200
BASIS  =  6-311++G(d,p)
GUI  =  2
JOB_TYPE  =  SP
METHOD  =  B3LYP
SOLVENT_METHOD = COSMO
$end
$solvent
dielectric 37.219
opticaldielectric 1.43
$end





--------------------------------------------------------------
 ----------------------------------------------------------------
             Standard Nuclear Orientation (Angstroms)
    I     Atom           X                Y                Z
 ----------------------------------------------------------------
    1      C       1.4127006814    -1.3849965168    -0.0003031647
    2      C       2.6311959857    -0.7071661130    -0.0003949069
    3      C       2.6312441018     0.7071626869     0.0004557919
    4      C       0.1972111555    -0.6992923424     0.0001046719
    5      C       0.1972596420     0.6994356671     0.0005114539
    6      C       1.4127851443     1.3850746393     0.0008882256
    7      C      -1.0841964155    -1.4538880931     0.0003866063
    8      C      -2.3636306730    -0.6779826049     0.0000105040
    9      C      -2.3635532864     0.6778979630    -0.0010571929
   10      C      -1.0841879416     1.4539108208    -0.0000309615
   11      O      -1.0976513279    -2.6764970831     0.0008847936
   12      O      -1.0978539766     2.6765388032     0.0002421793
   13      C      -3.6369271437    -1.4773707039     0.0009124255
   14      C      -3.6368206269     1.4772948022    -0.0015384825
   15      H       1.3886373044    -2.4685672868    -0.0004916242
   16      C       3.9257200842    -1.4801248977    -0.0015388207
   17      C       3.9258284302     1.4800410642     0.0008351750
   18      H      -3.4173178146    -2.5432438284     0.0065129670
   19      H      -4.2435198199    -1.2477846645    -0.8811147899
   20      H      -4.2479393590    -1.2388666989     0.8774315956
   21      H      -4.2427617724     1.2483200091     0.8811361805
   22      H      -4.2485239021     1.2383412710    -0.8775385843
   23      H      -3.4173649728     2.5431984085    -0.0080555531
   24      H       1.3887851205     2.4686487155     0.0012992095
   25      H       3.7403651887    -2.5549322951     0.0032203284
   26      H       4.5370507550    -1.2388393785     0.8741232292
   27      H       4.5305476130    -1.2457999035    -0.8837147105
   28      H       4.5329531012     1.2433601310     0.8807334692
   29      H       3.7405288113     2.5548676174    -0.0008760069
   30      H       4.5348273552     1.2409859119    -0.8771294428
 ----------------------------------------------------------------
 Molecular Point Group                 C1    NOp =  1
 Largest Abelian Subgroup              C1    NOp =  1
 Nuclear Repulsion Energy =        1043.98775043 hartrees
 There are       57 alpha and       57 beta electrons
 Requested basis set is 6-311++G(d,p)
 There are 166 shells and 450 basis functions

 Total QAlloc Memory Limit   8000 MB
 Mega-Array Size       188 MB
 MEM_STATIC part       192 MB
 A cutoff of  1.0D-08 yielded   9715 shell pairs
 There are     74225 function pairs (     79180 Cartesian)
 Smallest overlap matrix eigenvalue = 4.97E-08

 Q-Chem warning in module stvman/mkSTV.C, line 323:

 Overlap eigenvalue is smaller than square root of threshold
 Use THRESH >= 12 to get rid of this warning

 Linear dependence detected in AO basis
 Tighter screening thresholds may be required for diffuse basis sets
 Use S2THRESH > 14 and THRESH = 14 in case of SCF convergence issues
 Number of orthogonalized atomic orbitals = 443
 Maximum deviation from orthogonality = 1.320E-10

 Scale SEOQF with 1.000000e-01/1.000000e-01/1.000000e-01

 Standard Electronic Orientation quadrupole field applied
 Nucleus-field energy     =     0.0000000468 hartrees
 Guess from superposition of atomic densities
 Warning:  Energy on first SCF cycle will be non-variational
 SAD guess density has 114.000000 electrons

 -----------------------------------------------------------------------
  General SCF calculation program by
  Eric Jon Sundstrom, Paul Horn, Yuezhi Mao, Dmitri Zuev, Alec White,
  David Stuck, Shaama M.S., Shane Yost, Joonho Lee, David Small,
  Daniel Levine, Susi Lehtola, Hugh Burton, Evgeny Epifanovsky,
  Bang C. Huynh
 -----------------------------------------------------------------------
 Exchange:     0.2000 Hartree-Fock + 0.0800 Slater + 0.7200 B88
 Correlation:  0.1900 VWN1RPA + 0.8100 LYP
 Using SG-1 standard quadrature grid
 using 8 threads for integral computing
 -------------------------------------------------------
 OpenMP Integral computing Module                
 Release: version 1.0, May 2013, Q-Chem Inc. Pittsburgh 
 -------------------------------------------------------
 A restricted SCF calculation will be
 performed using DIIS
 SCF converges when DIIS error is below 1.0e-05
 ---------------------------------------
  Cycle       Energy         DIIS error
 ---------------------------------------
    1    -696.1298000323      3.07e-02  
    2    -692.2554453695      3.77e-03  
    3    -691.9004590758      5.87e-03  
    4    -692.5142481644      1.67e-03  
    5    -692.5726029816      2.82e-04  
    6    -692.5741633946      9.49e-05  
    7    -692.5743568251      2.56e-05  
    8    -692.5743670304      1.32e-05  
    9    -692.5743686033      1.86e-06  Convergence criterion met
 ---------------------------------------
 SCF time:   CPU 243.59s  wall 30.00s 
 SCF   energy in the final basis set =     -692.5743686033
 Total energy in the final basis set =     -692.5743686033
 Exchange:     0.2000 Hartree-Fock + 0.0800 Slater + 0.7200 B88
 Correlation:  0.1900 VWN1RPA + 0.8100 LYP
 Using SG-1 standard quadrature grid
 in get_qchem_info
 IBasis=      401111
 IBasis=      401111
 USING 1082 GRID
 MICHARGE=           0
 Set epsilon to    37.2190017700195     
==== cosmo data ====
outfile: 256-COSMO.out.cosmo.0
phsran:    0.00000D+00
ampran:    0.10000D-04
volume:   1789.0998278
area:    877.5420030
routf:      0.8500000
rsolv [a.u]:      2.4566438
disex:     10.0000000
disex2:   4313.0659615
fepsi:      0.9602322
eps :    37.2190018
lcavity:     1
nppa:  1082
nspa:    92
nsph:    32
maxnps:  1920
natoms:    30
Atom   Radius [a.u.] nuc. charge
    1      3.7794520    6
    2      3.7794520    6
    3      3.7794520    6
    4      3.7794520    6
    5      3.7794520    6
    6      3.7794520    6
    7      3.7794520    6
    8      3.7794520    6
    9      3.7794520    6
   10      3.7794520    6
   11      3.2503287    8
   12      3.2503287    8
   13      3.7794520    6
   14      3.7794520    6
   15      2.4566438    1
   16      3.7794520    6
   17      3.7794520    6
   18      2.4566438    1
   19      2.4566438    1
   20      2.4566438    1
   21      2.4566438    1
   22      2.4566438    1
   23      2.4566438    1
   24      2.4566438    1
   25      2.4566438    1
   26      2.4566438    1
   27      2.4566438    1
   28      2.4566438    1
   29      2.4566438    1
   30      2.4566438    1
=== end cosmo data ===
 number of segments:         1074
 f_epsilon=  0.960232245562971     
Ediel:   -0.0111243
 A restricted SCF calculation will be
 performed using Roothaan-Hall, DIIS
 SCF converges when DIIS error is below 1.0e-05
 ---------------------------------------
  Cycle       Energy         DIIS error
 ---------------------------------------
 number of segments:         1074
 f_epsilon=  0.960232245562971     
Ediel:   -0.0169956
    1    -692.5854970217      1.67e-04  Roothaan Step
 ---------------------------------------
  Cycle       Energy         DIIS error
 ---------------------------------------
 number of segments:         1074
 f_epsilon=  0.960232245562971     
Ediel:   -0.0133102
    1    -692.5864687974      2.41e-04  
 number of segments:         1074
 f_epsilon=  0.960232245562971     
Ediel:   -0.0157503
    2    -692.5824471160      5.33e-04  
 number of segments:         1074
 f_epsilon=  0.960232245562971     
Ediel:   -0.0158710
    3    -692.5875793778      2.30e-05  
 number of segments:         1074
 f_epsilon=  0.960232245562971     
Ediel:   -0.0158833
    4    -692.5875893310      1.43e-05  
    5    -692.5875954983      2.50e-06  Convergence criterion met
 ---------------------------------------
 SCF time:   CPU 182.67s  wall 24.00s 
before final oc correction, ETot:      -692.5875954983
 number of outlayer segments:          444
SCF energy after oc correction:      -692.5874975000
 SCF   energy in the final basis set =     -692.5874975000
 Total energy in the final basis set =     -692.5875954983
 
 --------------------------------------------------------------
 
                    Orbital Energies (a.u.)
 --------------------------------------------------------------
 
 Alpha MOs
 -- Occupied --
-19.1312 -19.1312 -10.2793 -10.2793 -10.2092 -10.2085 -10.2010 -10.2006
-10.1992 -10.1987 -10.1888 -10.1888 -10.1692 -10.1691 -10.1688 -10.1687
 -1.0655  -1.0637  -0.8886  -0.8507  -0.8046  -0.7836  -0.7456  -0.7209
 -0.7195  -0.6733  -0.6572  -0.6181  -0.5933  -0.5794  -0.5394  -0.5023
 -0.4992  -0.4698  -0.4622  -0.4578  -0.4456  -0.4446  -0.4416  -0.4230
 -0.4179  -0.4127  -0.4095  -0.4041  -0.3960  -0.3957  -0.3934  -0.3829
 -0.3800  -0.3594  -0.3581  -0.3549  -0.2887  -0.2829  -0.2715  -0.2690
 -0.2574
 -- Virtual --
 -0.1203  -0.0484  -0.0238  -0.0078  -0.0001   0.0106   0.0209   0.0219
  0.0247   0.0352   0.0361   0.0368   0.0425   0.0460   0.0499   0.0524
  0.0631   0.0656   0.0683   0.0753   0.0772   0.0783   0.0828   0.0934
  0.0958   0.0967   0.1022   0.1100   0.1106   0.1154   0.1206   0.1215
  0.1284   0.1321   0.1322   0.1352   0.1385   0.1410   0.1436   0.1450
  0.1500   0.1525   0.1567   0.1627   0.1628   0.1703   0.1703   0.1711
  0.1778   0.1782   0.1856   0.1865   0.1895   0.1931   0.1952   0.1989
  0.2013   0.2027   0.2034   0.2140   0.2242   0.2293   0.2294   0.2328
  0.2341   0.2367   0.2370   0.2419   0.2465   0.2478   0.2619   0.2634
  0.2649   0.2665   0.2724   0.2825   0.2847   0.2939   0.2966   0.3027
  0.3073   0.3101   0.3111   0.3167   0.3171   0.3217   0.3297   0.3323
  0.3372   0.3544   0.3583   0.3665   0.3685   0.3769   0.3796   0.3840
  0.4065   0.4150   0.4178   0.4326   0.4368   0.4476   0.4493   0.4559
  0.4645   0.4735   0.4822   0.4866   0.4905   0.5004   0.5204   0.5290
  0.5391   0.5521   0.5623   0.5722   0.5728   0.5784   0.5804   0.5882
  0.5924   0.5967   0.6102   0.6206   0.6285   0.6350   0.6354   0.6386
  0.6454   0.6508   0.6522   0.6593   0.6710   0.6775   0.6830   0.6852
  0.6891   0.6960   0.6978   0.7104   0.7125   0.7153   0.7287   0.7376
  0.7384   0.7447   0.7579   0.7611   0.7658   0.7793   0.7945   0.8155
  0.8374   0.8453   0.8595   0.8769   0.8871   0.9040   0.9169   0.9195
  0.9266   0.9292   0.9367   0.9527   0.9643   0.9700   0.9709   0.9862
  0.9898   0.9995   1.0050   1.0144   1.0243   1.0418   1.0478   1.0783
  1.0849   1.0929   1.0994   1.1074   1.1428   1.1434   1.1697   1.2117
  1.2145   1.2196   1.2261   1.2324   1.2741   1.2825   1.3148   1.3336
  1.3404   1.3472   1.3483   1.3656   1.3743   1.3755   1.3958   1.4214
  1.4477   1.4549   1.4587   1.4643   1.4703   1.4726   1.4930   1.5055
  1.5250   1.5325   1.5432   1.5590   1.5711   1.5831   1.5854   1.5856
  1.5897   1.5930   1.6196   1.6251   1.6394   1.6512   1.6569   1.6617
  1.6733   1.6783   1.6929   1.6972   1.7111   1.7176   1.7585   1.7600
  1.7710   1.7717   1.7972   1.8088   1.8140   1.8238   1.8344   1.8410
  1.8508   1.8650   1.8685   1.8851   1.9085   1.9233   1.9267   1.9436
  1.9622   1.9783   1.9888   1.9978   2.0127   2.0196   2.0743   2.0775
  2.0857   2.1267   2.1492   2.1721   2.1764   2.1946   2.2100   2.2106
  2.2112   2.2394   2.2445   2.2693   2.2762   2.2909   2.3136   2.3176
  2.3540   2.3874   2.4054   2.4099   2.4319   2.4590   2.4790   2.4881
  2.5004   2.5044   2.5123   2.5161   2.5290   2.5341   2.5820   2.5853
  2.6050   2.6069   2.6148   2.6417   2.6436   2.6451   2.6537   2.6616
  2.6647   2.6718   2.6888   2.6964   2.7321   2.7489   2.7559   2.7610
  2.7740   2.7979   2.8063   2.8303   2.8396   2.8755   2.8822   2.8823
  2.8874   2.9169   2.9349   2.9428   2.9646   2.9649   2.9689   2.9713
  3.0432   3.0554   3.0839   3.1094   3.1283   3.1599   3.1852   3.2092
  3.2236   3.2395   3.2475   3.3242   3.3370   3.3497   3.3512   3.3800
  3.4379   3.4846   3.5176   3.5559   3.5775   3.6100   3.6550   3.7323
  3.7516   3.7545   3.7640   3.8053   3.8274   3.8281   3.8285   3.8584
  3.8847   3.9007   3.9201   4.1967   4.1973   4.2427   4.2454   4.3611
  4.3704   4.4294   4.7578   4.8743   5.0393   5.0567   5.2400   5.2736
  5.7210   5.7990  23.5223  23.6846  23.8480  23.9056  23.9127  23.9199
 23.9668  23.9773  23.9856  23.9893  24.0533  24.0911  24.1560  24.1591
 50.0204  50.0655
 --------------------------------------------------------------
 
          Ground-State Mulliken Net Atomic Charges

     Atom                 Charge (a.u.)
  ----------------------------------------
      1 C                    -0.234346
      2 C                     0.284685
      3 C                     0.283438
      4 C                     0.110624
      5 C                     0.111210
      6 C                    -0.235512
      7 C                    -0.632427
      8 C                     0.435345
      9 C                     0.435046
     10 C                    -0.632992
     11 O                    -0.311578
     12 O                    -0.311574
     13 C                    -0.427182
     14 C                    -0.426364
     15 H                     0.157153
     16 C                    -0.496407
     17 C                    -0.495849
     18 H                     0.201206
     19 H                     0.184339
     20 H                     0.183363
     21 H                     0.184379
     22 H                     0.183175
     23 H                     0.201190
     24 H                     0.157211
     25 H                     0.192933
     26 H                     0.176064
     27 H                     0.177027
     28 H                     0.176716
     29 H                     0.192868
     30 H                     0.176259
  ----------------------------------------
  Sum of atomic charges =     0.000000

 -----------------------------------------------------------------
                    Cartesian Multipole Moments
 -----------------------------------------------------------------
    Charge (ESU x 10^10)
                 0.0000
    Dipole Moment (Debye)
         X       2.1095      Y      -0.0003      Z      -0.0032
       Tot       2.1096
    Quadrupole Moments (Debye-Ang)
        XX     -66.7619     XY       0.0029     YY    -112.7314
        XZ      -0.0033     YZ       0.0082     ZZ     -95.0577
    Octopole Moments (Debye-Ang^2)
       XXX       3.0496    XXY      -0.0039    XYY      33.9751
       YYY       0.0019    XXZ      -0.0104    XYZ      -0.0004
       YYZ      -0.0204    XZZ      -5.7661    YZZ      -0.0006
       ZZZ      -0.0057
    Hexadecapole Moments (Debye-Ang^3)
      XXXX   -3403.2339   XXXY       0.0108   XXYY    -856.3567
      XYYY       0.0035   YYYY   -1625.0840   XXXZ      -0.0037
      XXYZ       0.1945   XYYZ       0.0276   YYYZ      -0.0983
      XXZZ    -638.0613   XYZZ      -0.0003   YYZZ    -265.6888
      XZZZ      -0.0632   YZZZ       0.0611   ZZZZ    -130.0306
 -----------------------------------------------------------------
 Total job time:  174.15s(wall), 434.97s(cpu) 
 Thu Feb 22 07:55:55 2024

        *************************************************************
        *                                                           *
        *  Thank you very much for using Q-Chem.  Have a nice day.  *
        *                                                           *
        *************************************************************


