 Entering Gaussian System, Link 0=g16
 Input=125-rad.com
 Output=125-rad.log
 Initial command:
 /sysapps/ubuntu-applications/gaussian/Gaussian/AVX2/g16/l1.exe "/scratch/selhajj1/4221701/Gau-3895352.inp" -scrdir="/scratch/selhajj1/4221701/"
 Entering Link 1 = /sysapps/ubuntu-applications/gaussian/Gaussian/AVX2/g16/l1.exe PID=   3895356.
  
 Copyright (c) 1988,1990,1992,1993,1995,1998,2003,2009,2016,
            Gaussian, Inc.  All Rights Reserved.
  
 This is part of the Gaussian(R) 16 program.  It is based on
 the Gaussian(R) 09 system (copyright 2009, Gaussian, Inc.),
 the Gaussian(R) 03 system (copyright 2003, Gaussian, Inc.),
 the Gaussian(R) 98 system (copyright 1998, Gaussian, Inc.),
 the Gaussian(R) 94 system (copyright 1995, Gaussian, Inc.),
 the Gaussian 92(TM) system (copyright 1992, Gaussian, Inc.),
 the Gaussian 90(TM) system (copyright 1990, Gaussian, Inc.),
 the Gaussian 88(TM) system (copyright 1988, Gaussian, Inc.),
 the Gaussian 86(TM) system (copyright 1986, Carnegie Mellon
 University), and the Gaussian 82(TM) system (copyright 1983,
 Carnegie Mellon University). Gaussian is a federally registered
 trademark of Gaussian, Inc.
  
 This software contains proprietary and confidential information,
 including trade secrets, belonging to Gaussian, Inc.
  
 This software is provided under written license and may be
 used, copied, transmitted, or stored only in accord with that
 written license.
  
 The following legend is applicable only to US Government
 contracts under FAR:
  
                    RESTRICTED RIGHTS LEGEND
  
 Use, reproduction and disclosure by the US Government is
 subject to restrictions as set forth in subparagraphs (a)
 and (c) of the Commercial Computer Software - Restricted
 Rights clause in FAR 52.227-19.
  
 Gaussian, Inc.
 340 Quinnipiac St., Bldg. 40, Wallingford CT 06492
  
  
 ---------------------------------------------------------------
 Warning -- This program may not be used in any manner that
 competes with the business of Gaussian, Inc. or will provide
 assistance to any competitor of Gaussian, Inc.  The licensee
 of this program is prohibited from giving any competitor of
 Gaussian, Inc. access to this program.  By using this program,
 the user acknowledges that Gaussian, Inc. is engaged in the
 business of creating and licensing software in the field of
 computational chemistry and represents and warrants to the
 licensee that it is not a competitor of Gaussian, Inc. and that
 it will not use this program in any manner prohibited above.
 ---------------------------------------------------------------
  

 Cite this work as:
 Gaussian 16, Revision A.03,
 M. J. Frisch, G. W. Trucks, H. B. Schlegel, G. E. Scuseria, 
 M. A. Robb, J. R. Cheeseman, G. Scalmani, V. Barone, 
 G. A. Petersson, H. Nakatsuji, X. Li, M. Caricato, A. V. Marenich, 
 J. Bloino, B. G. Janesko, R. Gomperts, B. Mennucci, H. P. Hratchian, 
 J. V. Ortiz, A. F. Izmaylov, J. L. Sonnenberg, D. Williams-Young, 
 F. Ding, F. Lipparini, F. Egidi, J. Goings, B. Peng, A. Petrone, 
 T. Henderson, D. Ranasinghe, V. G. Zakrzewski, J. Gao, N. Rega, 
 G. Zheng, W. Liang, M. Hada, M. Ehara, K. Toyota, R. Fukuda, 
 J. Hasegawa, M. Ishida, T. Nakajima, Y. Honda, O. Kitao, H. Nakai, 
 T. Vreven, K. Throssell, J. A. Montgomery, Jr., J. E. Peralta, 
 F. Ogliaro, M. J. Bearpark, J. J. Heyd, E. N. Brothers, K. N. Kudin, 
 V. N. Staroverov, T. A. Keith, R. Kobayashi, J. Normand, 
 K. Raghavachari, A. P. Rendell, J. C. Burant, S. S. Iyengar, 
 J. Tomasi, M. Cossi, J. M. Millam, M. Klene, C. Adamo, R. Cammi, 
 J. W. Ochterski, R. L. Martin, K. Morokuma, O. Farkas, 
 J. B. Foresman, and D. J. Fox, Gaussian, Inc., Wallingford CT, 2016.
 
 ******************************************
 Gaussian 16:  ES64L-G16RevA.03 25-Dec-2016
                21-Dec-2023 
 ******************************************
 %chk=125-rad.chk
 %nproc=8
 Will use up to    8 processors via shared memory.
 %mem=30GB
 --------------------------------------
 #P UB3LYP/6-311++G(d,p) nosym opt freq
 --------------------------------------
 1/18=20,19=15,26=3,38=1/1,3;
 2/9=110,12=2,15=1,17=6,18=5,40=1/2;
 3/5=4,6=6,7=1111,11=2,25=1,30=1,71=1,74=-5,116=2/1,2,3;
 4//1;
 5/5=2,38=5/2;
 6/7=2,8=2,9=2,10=2,28=1/1;
 7/30=1/1,2,3,16;
 1/18=20,19=15,26=3/3(2);
 2/9=110,15=1/2;
 99//99;
 2/9=110,15=1/2;
 3/5=4,6=6,7=1111,11=2,25=1,30=1,71=1,74=-5,116=2/1,2,3;
 4/5=5,16=3,69=1/1;
 5/5=2,38=5/2;
 7/30=1/1,2,3,16;
 1/18=20,19=15,26=3/3(-5);
 2/9=110,15=1/2;
 6/7=2,8=2,9=2,10=2,19=2,28=1/1;
 99/9=1/99;
 Leave Link    1 at Thu Dec 21 05:33:58 2023, MaxMem=  4026531840 cpu:               0.5 elap:               0.1
 (Enter /sysapps/ubuntu-applications/gaussian/Gaussian/AVX2/g16/l101.exe)
 -------
 Radical
 -------
 Symbolic Z-matrix:
 Charge = -1 Multiplicity = 2
 C                    -4.63415  -0.39469  -0.52692 
 C                    -3.9237   -0.40884   0.78489 
 C                    -2.54603   0.11761   0.71745 
 C                    -2.24603   1.45174   0.90983 
 C                    -0.95415   1.90922   0.84045 
 C                     0.07044   1.02735   0.57408 
 C                     1.45467   1.50115   0.49696 
 O                     1.68958   2.74315   0.68111 
 C                     2.55171   0.58797   0.21703 
 C                     3.85988   1.00396   0.13875 
 C                     4.90285   0.13313  -0.12783 
 C                     4.55305  -1.20017  -0.3144 
 C                     3.25307  -1.65223  -0.24318 
 C                     2.25236  -0.73669   0.02618 
 C                     0.88558  -1.24527   0.09541 
 O                     0.63964  -2.47202  -0.08489 
 C                    -0.20447  -0.30893   0.37848 
 C                    -1.52619  -0.76718   0.45113 
 H                    -4.00444  -0.60504  -1.3945 
 H                    -5.4412   -1.18365  -0.49112 
 H                    -5.19543   0.5645   -0.6529 
 H                    -4.49261   0.26365   1.48809 
 H                    -3.86756  -1.4327    1.2176 
 H                    -3.08235   2.10477   1.11591 
 H                    -0.73026   2.95191   0.99201 
 H                     4.11227   2.04553   0.28687 
 H                     5.93278   0.44628  -0.1919 
 H                     5.35908  -1.91906  -0.52822 
 H                     3.04187  -2.70526  -0.39793 
 H                    -1.71029  -1.8202    0.29328 
 
 ITRead=  0  0  0  0  0  0  0  0  0  0  0  0  0  0  0  0  0  0  0  0
 ITRead=  0  0  0  0  0  0  0  0  0  0
 MicOpt= -1 -1 -1 -1 -1 -1 -1 -1 -1 -1 -1 -1 -1 -1 -1 -1 -1 -1 -1 -1
 MicOpt= -1 -1 -1 -1 -1 -1 -1 -1 -1 -1
 NAtoms=     30 NQM=       30 NQMF=       0 NMMI=      0 NMMIF=      0
                NMic=       0 NMicF=      0.
                    Isotopes and Nuclear Properties:
 (Nuclear quadrupole moments (NQMom) in fm**2, nuclear magnetic moments (NMagM)
  in nuclear magnetons)

  Atom         1           2           3           4           5           6           7           8           9          10
 IAtWgt=          12          12          12          12          12          12          12          16          12          12
 AtmWgt=  12.0000000  12.0000000  12.0000000  12.0000000  12.0000000  12.0000000  12.0000000  15.9949146  12.0000000  12.0000000
 NucSpn=           0           0           0           0           0           0           0           0           0           0
 AtZEff=  -0.0000000  -0.0000000  -0.0000000  -0.0000000  -0.0000000  -0.0000000  -0.0000000  -0.0000000  -0.0000000  -0.0000000
 NQMom=    0.0000000   0.0000000   0.0000000   0.0000000   0.0000000   0.0000000   0.0000000   0.0000000   0.0000000   0.0000000
 NMagM=    0.0000000   0.0000000   0.0000000   0.0000000   0.0000000   0.0000000   0.0000000   0.0000000   0.0000000   0.0000000
 AtZNuc=   6.0000000   6.0000000   6.0000000   6.0000000   6.0000000   6.0000000   6.0000000   8.0000000   6.0000000   6.0000000

  Atom        11          12          13          14          15          16          17          18          19          20
 IAtWgt=          12          12          12          12          12          16          12          12           1           1
 AtmWgt=  12.0000000  12.0000000  12.0000000  12.0000000  12.0000000  15.9949146  12.0000000  12.0000000   1.0078250   1.0078250
 NucSpn=           0           0           0           0           0           0           0           0           1           1
 AtZEff=  -0.0000000  -0.0000000  -0.0000000  -0.0000000  -0.0000000  -0.0000000  -0.0000000  -0.0000000  -0.0000000  -0.0000000
 NQMom=    0.0000000   0.0000000   0.0000000   0.0000000   0.0000000   0.0000000   0.0000000   0.0000000   0.0000000   0.0000000
 NMagM=    0.0000000   0.0000000   0.0000000   0.0000000   0.0000000   0.0000000   0.0000000   0.0000000   2.7928460   2.7928460
 AtZNuc=   6.0000000   6.0000000   6.0000000   6.0000000   6.0000000   8.0000000   6.0000000   6.0000000   1.0000000   1.0000000

  Atom        21          22          23          24          25          26          27          28          29          30
 IAtWgt=           1           1           1           1           1           1           1           1           1           1
 AtmWgt=   1.0078250   1.0078250   1.0078250   1.0078250   1.0078250   1.0078250   1.0078250   1.0078250   1.0078250   1.0078250
 NucSpn=           1           1           1           1           1           1           1           1           1           1
 AtZEff=  -0.0000000  -0.0000000  -0.0000000  -0.0000000  -0.0000000  -0.0000000  -0.0000000  -0.0000000  -0.0000000  -0.0000000
 NQMom=    0.0000000   0.0000000   0.0000000   0.0000000   0.0000000   0.0000000   0.0000000   0.0000000   0.0000000   0.0000000
 NMagM=    2.7928460   2.7928460   2.7928460   2.7928460   2.7928460   2.7928460   2.7928460   2.7928460   2.7928460   2.7928460
 AtZNuc=   1.0000000   1.0000000   1.0000000   1.0000000   1.0000000   1.0000000   1.0000000   1.0000000   1.0000000   1.0000000
 Leave Link  101 at Thu Dec 21 05:33:59 2023, MaxMem=  4026531840 cpu:               4.3 elap:               0.9
 (Enter /sysapps/ubuntu-applications/gaussian/Gaussian/AVX2/g16/l103.exe)

 GradGradGradGradGradGradGradGradGradGradGradGradGradGradGradGradGradGrad
 Berny optimization.
 Initialization pass.
                           ----------------------------
                           !    Initial Parameters    !
                           ! (Angstroms and Degrees)  !
 --------------------------                            --------------------------
 ! Name  Definition              Value          Derivative Info.                !
 --------------------------------------------------------------------------------
 ! R1    R(1,2)                  1.4919         estimate D2E/DX2                !
 ! R2    R(1,19)                 1.0925         estimate D2E/DX2                !
 ! R3    R(1,20)                 1.1292         estimate D2E/DX2                !
 ! R4    R(1,21)                 1.1185         estimate D2E/DX2                !
 ! R5    R(2,3)                  1.4764         estimate D2E/DX2                !
 ! R6    R(2,22)                 1.1271         estimate D2E/DX2                !
 ! R7    R(2,23)                 1.113          estimate D2E/DX2                !
 ! R8    R(3,4)                  1.3809         estimate D2E/DX2                !
 ! R9    R(3,18)                 1.3762         estimate D2E/DX2                !
 ! R10   R(4,5)                  1.3722         estimate D2E/DX2                !
 ! R11   R(4,24)                 1.0809         estimate D2E/DX2                !
 ! R12   R(5,6)                  1.3778         estimate D2E/DX2                !
 ! R13   R(5,25)                 1.0772         estimate D2E/DX2                !
 ! R14   R(6,7)                  1.4651         estimate D2E/DX2                !
 ! R15   R(6,17)                 1.3782         estimate D2E/DX2                !
 ! R16   R(7,8)                  1.2774         estimate D2E/DX2                !
 ! R17   R(7,9)                  1.4546         estimate D2E/DX2                !
 ! R18   R(9,10)                 1.375          estimate D2E/DX2                !
 ! R19   R(9,14)                 1.3714         estimate D2E/DX2                !
 ! R20   R(10,11)                1.3846         estimate D2E/DX2                !
 ! R21   R(10,26)                1.0819         estimate D2E/DX2                !
 ! R22   R(11,12)                1.391          estimate D2E/DX2                !
 ! R23   R(11,27)                1.0784         estimate D2E/DX2                !
 ! R24   R(12,13)                1.3782         estimate D2E/DX2                !
 ! R25   R(12,28)                1.101          estimate D2E/DX2                !
 ! R26   R(13,14)                1.3828         estimate D2E/DX2                !
 ! R27   R(13,29)                1.0851         estimate D2E/DX2                !
 ! R28   R(14,15)                1.46           estimate D2E/DX2                !
 ! R29   R(15,16)                1.2641         estimate D2E/DX2                !
 ! R30   R(15,17)                1.4646         estimate D2E/DX2                !
 ! R31   R(17,18)                1.4008         estimate D2E/DX2                !
 ! R32   R(18,30)                1.0806         estimate D2E/DX2                !
 ! A1    A(2,1,19)             114.9586         estimate D2E/DX2                !
 ! A2    A(2,1,20)             107.8087         estimate D2E/DX2                !
 ! A3    A(2,1,21)             110.2522         estimate D2E/DX2                !
 ! A4    A(19,1,20)            107.6148         estimate D2E/DX2                !
 ! A5    A(19,1,21)            111.4042         estimate D2E/DX2                !
 ! A6    A(20,1,21)            104.129          estimate D2E/DX2                !
 ! A7    A(1,2,3)              113.6291         estimate D2E/DX2                !
 ! A8    A(1,2,22)             107.6107         estimate D2E/DX2                !
 ! A9    A(1,2,23)             112.0003         estimate D2E/DX2                !
 ! A10   A(3,2,22)             106.6632         estimate D2E/DX2                !
 ! A11   A(3,2,23)             107.3812         estimate D2E/DX2                !
 ! A12   A(22,2,23)            109.3773         estimate D2E/DX2                !
 ! A13   A(2,3,4)              122.7426         estimate D2E/DX2                !
 ! A14   A(2,3,18)             118.1058         estimate D2E/DX2                !
 ! A15   A(4,3,18)             119.1516         estimate D2E/DX2                !
 ! A16   A(3,4,5)              121.3032         estimate D2E/DX2                !
 ! A17   A(3,4,24)             116.2415         estimate D2E/DX2                !
 ! A18   A(5,4,24)             122.4553         estimate D2E/DX2                !
 ! A19   A(4,5,6)              119.7667         estimate D2E/DX2                !
 ! A20   A(4,5,25)             120.7486         estimate D2E/DX2                !
 ! A21   A(6,5,25)             119.4847         estimate D2E/DX2                !
 ! A22   A(5,6,7)              120.3822         estimate D2E/DX2                !
 ! A23   A(5,6,17)             119.9782         estimate D2E/DX2                !
 ! A24   A(7,6,17)             119.6396         estimate D2E/DX2                !
 ! A25   A(6,7,8)              118.7247         estimate D2E/DX2                !
 ! A26   A(6,7,9)              121.3105         estimate D2E/DX2                !
 ! A27   A(8,7,9)              119.9648         estimate D2E/DX2                !
 ! A28   A(7,9,10)             122.5875         estimate D2E/DX2                !
 ! A29   A(7,9,14)             117.9407         estimate D2E/DX2                !
 ! A30   A(10,9,14)            119.4718         estimate D2E/DX2                !
 ! A31   A(9,10,11)            122.5026         estimate D2E/DX2                !
 ! A32   A(9,10,26)            120.3603         estimate D2E/DX2                !
 ! A33   A(11,10,26)           117.137          estimate D2E/DX2                !
 ! A34   A(10,11,12)           116.0558         estimate D2E/DX2                !
 ! A35   A(10,11,27)           123.244          estimate D2E/DX2                !
 ! A36   A(12,11,27)           120.7002         estimate D2E/DX2                !
 ! A37   A(11,12,13)           123.0028         estimate D2E/DX2                !
 ! A38   A(11,12,28)           117.892          estimate D2E/DX2                !
 ! A39   A(13,12,28)           119.1051         estimate D2E/DX2                !
 ! A40   A(12,13,14)           118.3924         estimate D2E/DX2                !
 ! A41   A(12,13,29)           119.6394         estimate D2E/DX2                !
 ! A42   A(14,13,29)           121.9682         estimate D2E/DX2                !
 ! A43   A(9,14,13)            120.5745         estimate D2E/DX2                !
 ! A44   A(9,14,15)            122.2911         estimate D2E/DX2                !
 ! A45   A(13,14,15)           117.1344         estimate D2E/DX2                !
 ! A46   A(14,15,16)           120.8928         estimate D2E/DX2                !
 ! A47   A(14,15,17)           118.8954         estimate D2E/DX2                !
 ! A48   A(16,15,17)           120.2118         estimate D2E/DX2                !
 ! A49   A(6,17,15)            119.9227         estimate D2E/DX2                !
 ! A50   A(6,17,18)            119.8702         estimate D2E/DX2                !
 ! A51   A(15,17,18)           120.2071         estimate D2E/DX2                !
 ! A52   A(3,18,17)            119.9302         estimate D2E/DX2                !
 ! A53   A(3,18,30)            121.9073         estimate D2E/DX2                !
 ! A54   A(17,18,30)           118.1625         estimate D2E/DX2                !
 ! D1    D(19,1,2,3)            35.6873         estimate D2E/DX2                !
 ! D2    D(19,1,2,22)          153.5431         estimate D2E/DX2                !
 ! D3    D(19,1,2,23)          -86.2125         estimate D2E/DX2                !
 ! D4    D(20,1,2,3)           155.6938         estimate D2E/DX2                !
 ! D5    D(20,1,2,22)          -86.4504         estimate D2E/DX2                !
 ! D6    D(20,1,2,23)           33.7941         estimate D2E/DX2                !
 ! D7    D(21,1,2,3)           -91.239          estimate D2E/DX2                !
 ! D8    D(21,1,2,22)           26.6168         estimate D2E/DX2                !
 ! D9    D(21,1,2,23)          146.8612         estimate D2E/DX2                !
 ! D10   D(1,2,3,4)             89.9995         estimate D2E/DX2                !
 ! D11   D(1,2,3,18)           -90.001          estimate D2E/DX2                !
 ! D12   D(22,2,3,4)           -28.4028         estimate D2E/DX2                !
 ! D13   D(22,2,3,18)          151.5967         estimate D2E/DX2                !
 ! D14   D(23,2,3,4)          -145.5703         estimate D2E/DX2                !
 ! D15   D(23,2,3,18)           34.4291         estimate D2E/DX2                !
 ! D16   D(2,3,4,5)            179.9994         estimate D2E/DX2                !
 ! D17   D(2,3,4,24)            -0.0004         estimate D2E/DX2                !
 ! D18   D(18,3,4,5)             0.0            estimate D2E/DX2                !
 ! D19   D(18,3,4,24)         -179.9998         estimate D2E/DX2                !
 ! D20   D(2,3,18,17)         -179.9995         estimate D2E/DX2                !
 ! D21   D(2,3,18,30)            0.0007         estimate D2E/DX2                !
 ! D22   D(4,3,18,17)           -0.0001         estimate D2E/DX2                !
 ! D23   D(4,3,18,30)         -179.9998         estimate D2E/DX2                !
 ! D24   D(3,4,5,6)              0.0            estimate D2E/DX2                !
 ! D25   D(3,4,5,25)           180.0            estimate D2E/DX2                !
 ! D26   D(24,4,5,6)           179.9998         estimate D2E/DX2                !
 ! D27   D(24,4,5,25)           -0.0002         estimate D2E/DX2                !
 ! D28   D(4,5,6,7)            179.9999         estimate D2E/DX2                !
 ! D29   D(4,5,6,17)             0.0001         estimate D2E/DX2                !
 ! D30   D(25,5,6,7)            -0.0001         estimate D2E/DX2                !
 ! D31   D(25,5,6,17)         -179.9999         estimate D2E/DX2                !
 ! D32   D(5,6,7,8)              0.0002         estimate D2E/DX2                !
 ! D33   D(5,6,7,9)           -179.9999         estimate D2E/DX2                !
 ! D34   D(17,6,7,8)           180.0            estimate D2E/DX2                !
 ! D35   D(17,6,7,9)            -0.0001         estimate D2E/DX2                !
 ! D36   D(5,6,17,15)          179.9999         estimate D2E/DX2                !
 ! D37   D(5,6,17,18)           -0.0001         estimate D2E/DX2                !
 ! D38   D(7,6,17,15)            0.0001         estimate D2E/DX2                !
 ! D39   D(7,6,17,18)         -179.9999         estimate D2E/DX2                !
 ! D40   D(6,7,9,10)          -179.9999         estimate D2E/DX2                !
 ! D41   D(6,7,9,14)             0.0            estimate D2E/DX2                !
 ! D42   D(8,7,9,10)             0.0            estimate D2E/DX2                !
 ! D43   D(8,7,9,14)           180.0            estimate D2E/DX2                !
 ! D44   D(7,9,10,11)          179.9998         estimate D2E/DX2                !
 ! D45   D(7,9,10,26)            0.0001         estimate D2E/DX2                !
 ! D46   D(14,9,10,11)          -0.0001         estimate D2E/DX2                !
 ! D47   D(14,9,10,26)        -179.9999         estimate D2E/DX2                !
 ! D48   D(7,9,14,13)         -180.0            estimate D2E/DX2                !
 ! D49   D(7,9,14,15)            0.0001         estimate D2E/DX2                !
 ! D50   D(10,9,14,13)           0.0            estimate D2E/DX2                !
 ! D51   D(10,9,14,15)        -180.0            estimate D2E/DX2                !
 ! D52   D(9,10,11,12)           0.0002         estimate D2E/DX2                !
 ! D53   D(9,10,11,27)         179.9999         estimate D2E/DX2                !
 ! D54   D(26,10,11,12)        179.9999         estimate D2E/DX2                !
 ! D55   D(26,10,11,27)         -0.0004         estimate D2E/DX2                !
 ! D56   D(10,11,12,13)          0.0            estimate D2E/DX2                !
 ! D57   D(10,11,12,28)       -180.0            estimate D2E/DX2                !
 ! D58   D(27,11,12,13)       -179.9997         estimate D2E/DX2                !
 ! D59   D(27,11,12,28)          0.0003         estimate D2E/DX2                !
 ! D60   D(11,12,13,14)         -0.0001         estimate D2E/DX2                !
 ! D61   D(11,12,13,29)       -179.9995         estimate D2E/DX2                !
 ! D62   D(28,12,13,14)        179.9998         estimate D2E/DX2                !
 ! D63   D(28,12,13,29)          0.0005         estimate D2E/DX2                !
 ! D64   D(12,13,14,9)           0.0001         estimate D2E/DX2                !
 ! D65   D(12,13,14,15)       -179.9999         estimate D2E/DX2                !
 ! D66   D(29,13,14,9)         179.9995         estimate D2E/DX2                !
 ! D67   D(29,13,14,15)         -0.0006         estimate D2E/DX2                !
 ! D68   D(9,14,15,16)         179.9998         estimate D2E/DX2                !
 ! D69   D(9,14,15,17)          -0.0001         estimate D2E/DX2                !
 ! D70   D(13,14,15,16)         -0.0002         estimate D2E/DX2                !
 ! D71   D(13,14,15,17)        179.9999         estimate D2E/DX2                !
 ! D72   D(14,15,17,6)           0.0            estimate D2E/DX2                !
 ! D73   D(14,15,17,18)       -180.0            estimate D2E/DX2                !
 ! D74   D(16,15,17,6)        -179.9999         estimate D2E/DX2                !
 ! D75   D(16,15,17,18)          0.0001         estimate D2E/DX2                !
 ! D76   D(6,17,18,3)            0.0001         estimate D2E/DX2                !
 ! D77   D(6,17,18,30)         179.9999         estimate D2E/DX2                !
 ! D78   D(15,17,18,3)        -179.9999         estimate D2E/DX2                !
 ! D79   D(15,17,18,30)         -0.0001         estimate D2E/DX2                !
 --------------------------------------------------------------------------------
 Trust Radius=3.00D-01 FncErr=1.00D-07 GrdErr=1.00D-06 EigMax=2.50D+02 EigMin=1.00D-04
 Number of steps in this run=    175 maximum allowed number of steps=    180.
 GradGradGradGradGradGradGradGradGradGradGradGradGradGradGradGradGradGrad

 Leave Link  103 at Thu Dec 21 05:34:00 2023, MaxMem=  4026531840 cpu:               0.4 elap:               0.1
 (Enter /sysapps/ubuntu-applications/gaussian/Gaussian/AVX2/g16/l202.exe)
                          Input orientation:                          
 ---------------------------------------------------------------------
 Center     Atomic      Atomic             Coordinates (Angstroms)
 Number     Number       Type             X           Y           Z
 ---------------------------------------------------------------------
      1          6           0       -4.634151   -0.394686   -0.526918
      2          6           0       -3.923700   -0.408845    0.784892
      3          6           0       -2.546027    0.117615    0.717449
      4          6           0       -2.246030    1.451744    0.909828
      5          6           0       -0.954151    1.909222    0.840450
      6          6           0        0.070444    1.027346    0.574081
      7          6           0        1.454668    1.501148    0.496960
      8          8           0        1.689577    2.743148    0.681106
      9          6           0        2.551709    0.587967    0.217027
     10          6           0        3.859882    1.003963    0.138750
     11          6           0        4.902849    0.133130   -0.127834
     12          6           0        4.553052   -1.200168   -0.314403
     13          6           0        3.253067   -1.652228   -0.243184
     14          6           0        2.252360   -0.736690    0.026183
     15          6           0        0.885580   -1.245269    0.095411
     16          8           0        0.639641   -2.472024   -0.084894
     17          6           0       -0.204469   -0.308925    0.378481
     18          6           0       -1.526186   -0.767177    0.451126
     19          1           0       -4.004437   -0.605038   -1.394498
     20          1           0       -5.441197   -1.183648   -0.491118
     21          1           0       -5.195429    0.564497   -0.652896
     22          1           0       -4.492614    0.263653    1.488088
     23          1           0       -3.867555   -1.432698    1.217597
     24          1           0       -3.082347    2.104765    1.115909
     25          1           0       -0.730262    2.951911    0.992007
     26          1           0        4.112275    2.045530    0.286874
     27          1           0        5.932783    0.446279   -0.191904
     28          1           0        5.359085   -1.919059   -0.528217
     29          1           0        3.041871   -2.705263   -0.397934
     30          1           0       -1.710288   -1.820200    0.293281
 ---------------------------------------------------------------------
                    Distance matrix (angstroms):
                    1          2          3          4          5
     1  C    0.000000
     2  C    1.491907   0.000000
     3  C    2.484182   1.476378   0.000000
     4  C    3.343151   2.508381   1.380908   0.000000
     5  C    4.551932   3.767591   2.399803   1.372243   0.000000
     6  C    5.036625   4.249738   2.773822   2.378843   1.377844
     7  C    6.458810   5.714702   4.238908   3.723986   2.467169
     8  O    7.162043   6.438533   4.983481   4.148378   2.776710
     9  C    7.290792   6.576248   5.143789   4.923859   3.798083
    10  C    8.634114   7.937107   6.492779   6.170675   4.948413
    11  C    9.559928   8.890151   7.496699   7.343158   6.196493
    12  C    9.224894   8.584287   7.293709   7.399926   6.428941
    13  C    7.991879   7.355878   6.138783   6.419046   5.617729
    14  C    6.917147   6.231119   4.922622   5.079920   4.236224
    15  C    5.619449   4.929925   3.744370   4.212379   3.726997
    16  O    5.685385   5.083043   4.183117   4.971170   4.753079
    17  C    4.522077   3.742704   2.404107   2.747773   2.386549
    18  C    3.279446   2.447014   1.376176   2.377434   2.764401
    19  H    1.092466   2.189692   2.666366   3.554190   4.541007
    20  H    1.129188   2.128689   3.396457   4.372302   5.610035
    21  H    1.118452   2.152190   3.016103   3.453731   4.693272
    22  H    2.124545   1.127120   2.098669   2.606354   3.955762
    23  H    2.169902   1.112952   2.097631   3.323262   4.449561
    24  H    3.369604   2.671270   2.096467   1.080894   2.154839
    25  H    5.361641   4.640649   3.377221   2.134200   1.077170
    26  H    9.116846   8.417177   6.945159   6.416284   5.098401
    27  H   10.605637   9.941611   8.533766   8.313709   7.115885
    28  H   10.108831   9.496057   8.257755   8.442041   7.509057
    29  H    8.017276   7.429118   6.359034   6.852214   6.228584
    30  H    3.354667   2.670730   2.152558   3.372354   3.844442
                    6          7          8          9         10
     6  C    0.000000
     7  C    1.465098   0.000000
     8  O    2.361571   1.277363   0.000000
     9  C    2.545038   1.454566   2.367160   0.000000
    10  C    3.814432   2.482048   2.833573   1.374953   0.000000
    11  C    4.964317   3.761887   4.218020   2.419435   1.384629
    12  C    5.083797   4.189917   4.973959   2.735913   2.354576
    13  C    4.239944   3.704839   4.755853   2.392105   2.751263
    14  C    2.858806   2.421954   3.585376   1.371403   2.372060
    15  C    2.461371   2.833357   4.110586   2.480228   3.729262
    16  O    3.606082   4.097429   5.374676   3.620871   4.743675
    17  C    1.378208   2.458280   3.604739   2.902930   4.277861
    18  C    2.405132   3.746050   4.766173   4.303539   5.678401
    19  H    4.810888   6.149427   6.923891   6.855897   8.172346
    20  H    6.033351   7.465747   8.224461   8.217459   9.575617
    21  H    5.426704   6.813462   7.343662   7.795862   9.100466
    22  H    4.715945   6.154989   6.709590   7.165421   8.493112
    23  H    4.687619   6.119872   6.971888   6.803762   8.174014
    24  H    3.375574   4.618653   4.834030   5.903495   7.096558
    25  H    2.125969   2.669027   2.448645   4.118272   5.058851
    26  H    4.177987   2.720912   2.551775   2.136524   1.081899
    27  H    5.940655   4.651967   4.903320   3.408659   2.171926
    28  H    6.153542   5.290867   6.055074   3.836916   3.352091
    29  H    4.868938   4.584096   5.716485   3.385822   3.836082
    30  H    3.370219   4.592362   5.703826   4.895886   6.247125
                   11         12         13         14         15
    11  C    0.000000
    12  C    1.390989   0.000000
    13  C    2.433637   1.378184   0.000000
    14  C    2.793814   2.371496   1.382817   0.000000
    15  C    4.253031   3.690574   2.425955   1.459977   0.000000
    16  O    4.996360   4.121295   2.743559   2.371621   1.264090
    17  C    5.151356   4.889623   3.761049   2.518552   1.464607
    18  C    6.517533   6.142528   4.909852   3.802488   2.484294
    19  H    9.027130   8.645889   7.422499   6.417412   5.151891
    20  H   10.433847   9.995825   8.710411   7.723871   6.354204
    21  H   10.121116   9.912694   8.744073   7.591034   6.388574
    22  H    9.534304   9.338941   8.164770   6.973702   5.756853
    23  H    9.010105   8.561993   7.272231   6.273536   4.887404
    24  H    8.318509   8.442020   7.489967   6.141699   5.292314
    25  H    6.397774   6.845428   6.212142   4.840933   4.585973
    26  H    2.110513   3.330222   3.833095   3.356783   4.612763
    27  H    1.078392   2.151615   3.404002   3.872013   5.330867
    28  H    2.140078   1.101003   2.141904   3.370029   4.566744
    29  H    3.404800   2.134468   1.085096   2.162980   2.650389
    30  H    6.908431   6.323223   4.995088   4.116785   2.666126
                   16         17         18         19         20
    16  O    0.000000
    17  C    2.367749   0.000000
    18  C    2.807958   1.400788   0.000000
    19  H    5.173796   4.203676   3.094244   0.000000
    20  H    6.229087   5.380024   4.048281   1.793088   0.000000
    21  H    6.602358   5.170714   4.056546   1.826540   1.772734
    22  H    6.024803   4.466235   3.307203   3.049958   2.629020
    23  H    4.805362   3.922395   2.551941   2.743501   2.336253
    24  H    6.020143   3.827778   3.333410   3.807286   4.354350
    25  H    5.696967   3.359453   3.841570   5.391430   6.441693
    26  H    5.710140   4.917940   6.303217   8.702501  10.114429
    27  H    6.045270   6.209793   7.584337  10.064781  11.494068
    28  H    4.772363   5.862403   7.049319   9.494874  10.825354
    29  H    2.433742   4.109012   5.034304   7.419874   8.618958
    30  H    2.467805   2.135112   1.080586   3.096504   3.865250
                   21         22         23         24         25
    21  H    0.000000
    22  H    2.273382   0.000000
    23  H    3.041510   1.827969   0.000000
    24  H    3.156930   2.348843   3.624988   0.000000
    25  H    5.323830   4.650604   5.396137   2.503060   0.000000
    26  H    9.471535   8.869166   8.754542   7.242471   4.976836
    27  H   11.138383  10.561468  10.077890   9.259239   7.216371
    28  H   10.843494  10.290077   9.402941   9.494845   7.944657
    29  H    8.866196   8.315046   7.208989   7.933103   6.940067
    30  H    4.327613   3.675778   2.378722   4.238468   4.921556
                   26         27         28         29         30
    26  H    0.000000
    27  H    2.470037   0.000000
    28  H    4.235195   2.457042   0.000000
    29  H    4.917800   4.281592   2.450423   0.000000
    30  H    6.989002   7.986793   7.117631   4.883045   0.000000
 Symmetry turned off by external request.
 Stoichiometry    C16H12O2(1-,2)
 Framework group  C1[X(C16H12O2)]
 Deg. of freedom    84
 Full point group                 C1      NOp   1
 Rotational constants (GHZ):           0.9963026           0.2699570           0.2167767
 Leave Link  202 at Thu Dec 21 05:34:00 2023, MaxMem=  4026531840 cpu:               0.4 elap:               0.1
 (Enter /sysapps/ubuntu-applications/gaussian/Gaussian/AVX2/g16/l301.exe)
 Standard basis: 6-311++G(d,p) (5D, 7F)
 Ernie: Thresh=  0.10000D-02 Tol=  0.10000D-05 Strict=F.
   480 basis functions,   756 primitive gaussians,   498 cartesian basis functions
    63 alpha electrons       62 beta electrons
       nuclear repulsion energy      1202.5690999111 Hartrees.
 IExCor=  402 DFT=T Ex+Corr=B3LYP ExCW=0 ScaHFX=  0.200000
 ScaDFX=  0.800000  0.720000  1.000000  0.810000 ScalE2=  1.000000  1.000000
 IRadAn=      5 IRanWt=     -1 IRanGd=            0 ICorTp=0 IEmpDi=  4
 NAtoms=   30 NActive=   30 NUniq=   30 SFac= 1.00D+00 NAtFMM=   60 NAOKFM=F Big=F
 Integral buffers will be    131072 words long.
 Raffenetti 2 integral format.
 Two-electron integral symmetry is turned off.
 Leave Link  301 at Thu Dec 21 05:34:00 2023, MaxMem=  4026531840 cpu:               0.4 elap:               0.1
 (Enter /sysapps/ubuntu-applications/gaussian/Gaussian/AVX2/g16/l302.exe)
 NPDir=0 NMtPBC=     1 NCelOv=     1 NCel=       1 NClECP=     1 NCelD=      1
         NCelK=      1 NCelE2=     1 NClLst=     1 CellRange=     0.0.
 One-electron integrals computed using PRISM.
 NBasis=   480 RedAO= T EigKep=  1.19D-06  NBF=   480
 NBsUse=   473 1.00D-06 EigRej=  6.55D-07 NBFU=   473
 Precomputing XC quadrature grid using
 IXCGrd= 4 IRadAn=           5 IRanWt=          -1 IRanGd=           0 AccXCQ= 0.00D+00.
 Generated NRdTot=       0 NPtTot=           0 NUsed=           0 NTot=          32
 NSgBfM=   496   496   496   496   496 MxSgAt=    30 MxSgA2=    30.
 Leave Link  302 at Thu Dec 21 05:34:01 2023, MaxMem=  4026531840 cpu:               5.1 elap:               0.7
 (Enter /sysapps/ubuntu-applications/gaussian/Gaussian/AVX2/g16/l303.exe)
 DipDrv:  MaxL=1.
 Leave Link  303 at Thu Dec 21 05:34:01 2023, MaxMem=  4026531840 cpu:               1.3 elap:               0.4
 (Enter /sysapps/ubuntu-applications/gaussian/Gaussian/AVX2/g16/l401.exe)
 ExpMin= 3.60D-02 ExpMax= 8.59D+03 ExpMxC= 1.30D+03 IAcc=3 IRadAn=         5 AccDes= 0.00D+00
 Harris functional with IExCor=  402 and IRadAn=       5 diagonalized for initial guess.
 HarFok:  IExCor=  402 AccDes= 0.00D+00 IRadAn=         5 IDoV= 1 UseB2=F ITyADJ=14
 ICtDFT=  3500011 ScaDFX=  1.000000  1.000000  1.000000  1.000000
 FoFCou: FMM=F IPFlag=           0 FMFlag=      100000 FMFlg1=           0
         NFxFlg=           0 DoJE=T BraDBF=F KetDBF=T FulRan=T
         wScrn=  0.000000 ICntrl=       500 IOpCl=  0 I1Cent=   200000004 NGrid=           0
         NMat0=    1 NMatS0=      1 NMatT0=    0 NMatD0=    1 NMtDS0=    0 NMtDT0=    0
 Symmetry not used in FoFCou.
 Harris En= -767.868495076087    
 JPrj=0 DoOrth=F DoCkMO=F.
 Initial guess <Sx>= 0.0000 <Sy>= 0.0000 <Sz>= 0.5000 <S**2>= 0.7500 S= 0.5000
 Leave Link  401 at Thu Dec 21 05:34:05 2023, MaxMem=  4026531840 cpu:              29.4 elap:               4.0
 (Enter /sysapps/ubuntu-applications/gaussian/Gaussian/AVX2/g16/l502.exe)
 Two-electron integral symmetry not used.
 UHF open shell SCF:
 Using DIIS extrapolation, IDIIS=  1040.
 NGot=  4026531840 LenX=  4026028256 LenY=  4025779754
 Requested convergence on RMS density matrix=1.00D-08 within 128 cycles.
 Requested convergence on MAX density matrix=1.00D-06.
 Requested convergence on             energy=1.00D-06.
 No special actions if energy rises.
 Fock matrices will be formed incrementally for  20 cycles.

 Cycle   1  Pass 1  IDiag  1:
 FoFJK:  IHMeth= 1 ICntrl=       0 DoSepK=F KAlg= 0 I1Cent=           0 FoldK=F
 IRaf= 840000000 NMat=       1 IRICut=       1 DoRegI=T DoRafI=F ISym2E= 0 IDoP0=0 IntGTp=1.
 FoFCou: FMM=F IPFlag=           0 FMFlag=      100000 FMFlg1=           0
         NFxFlg=           0 DoJE=F BraDBF=F KetDBF=F FulRan=T
         wScrn=  0.000000 ICntrl=         0 IOpCl=  1 I1Cent=           0 NGrid=           0
         NMat0=    1 NMatS0=      1 NMatT0=    0 NMatD0=    1 NMtDS0=    0 NMtDT0=    0
 Symmetry not used in FoFCou.
 E= -767.097749575748    
 DIIS: error= 3.28D-02 at cycle   1 NSaved=   1.
 NSaved= 1 IEnMin= 1 EnMin= -767.097749575748     IErMin= 1 ErrMin= 3.28D-02
 ErrMax= 3.28D-02  0.00D+00 EMaxC= 1.00D-01 BMatC= 2.41D+00 BMatP= 2.41D+00
 IDIUse=3 WtCom= 6.72D-01 WtEn= 3.28D-01
 Coeff-Com:  0.100D+01
 Coeff-En:   0.100D+01
 Coeff:      0.100D+01
 Gap=     0.068 Goal=   None    Shift=    0.000
 Gap=     0.075 Goal=   None    Shift=    0.000
 GapD=    0.068 DampG=0.500 DampE=0.500 DampFc=0.2500 IDamp=-1.
 Damping current iteration by 2.50D-01
 RMSDP=1.36D+00 MaxDP=1.09D+02              OVMax= 9.79D-01

 Cycle   2  Pass 1  IDiag  1:
 RMSU=  3.29D-01    CP:  2.51D+00
 E= -767.201827428016     Delta-E=       -0.104077852268 Rises=F Damp=T
 DIIS: error= 1.40D-02 at cycle   2 NSaved=   2.
 NSaved= 2 IEnMin= 2 EnMin= -767.201827428016     IErMin= 2 ErrMin= 1.40D-02
 ErrMax= 1.40D-02  0.00D+00 EMaxC= 1.00D-01 BMatC= 5.07D-01 BMatP= 2.41D+00
 IDIUse=3 WtCom= 8.60D-01 WtEn= 1.40D-01
 Coeff-Com: -0.358D+00 0.136D+01
 Coeff-En:   0.251D+00 0.749D+00
 Coeff:     -0.272D+00 0.127D+01
 Gap=     0.112 Goal=   None    Shift=    0.000
 Gap=     0.077 Goal=   None    Shift=    0.000
 RMSDP=3.40D-01 MaxDP=2.74D+01 DE=-1.04D-01 OVMax= 7.95D-01

 Cycle   3  Pass 1  IDiag  1:
 RMSU=  1.32D-02    CP:  1.11D+00 -5.38D-03
 E= -767.298957289219     Delta-E=       -0.097129861203 Rises=F Damp=F
 DIIS: error= 4.47D-02 at cycle   3 NSaved=   3.
 NSaved= 3 IEnMin= 3 EnMin= -767.298957289219     IErMin= 2 ErrMin= 1.40D-02
 ErrMax= 4.47D-02  0.00D+00 EMaxC= 1.00D-01 BMatC= 1.37D+00 BMatP= 5.07D-01
 IDIUse=2 WtCom= 0.00D+00 WtEn= 1.00D+00
 Coeff-En:   0.000D+00 0.394D+00 0.606D+00
 Coeff:      0.000D+00 0.394D+00 0.606D+00
 Gap=     0.071 Goal=   None    Shift=    0.000
 Gap=     0.240 Goal=   None    Shift=    0.000
 RMSDP=7.12D-01 MaxDP=6.11D+01 DE=-9.71D-02 OVMax= 9.94D-01

 Cycle   4  Pass 1  IDiag  1:
 RMSU=  1.21D-01    CP:  3.00D+00  2.08D+00  1.24D+00
 E= -764.807824338076     Delta-E=        2.491132951144 Rises=F Damp=F
 DIIS: error= 1.52D-01 at cycle   4 NSaved=   4.
 NSaved= 4 IEnMin= 3 EnMin= -767.298957289219     IErMin= 2 ErrMin= 1.40D-02
 ErrMax= 1.52D-01  0.00D+00 EMaxC= 1.00D-01 BMatC= 6.77D+00 BMatP= 5.07D-01
 IDIUse=2 WtCom= 0.00D+00 WtEn= 1.00D+00
 EnCoef did     1 forward-backward iterations
 Coeff-En:   0.154D-01 0.000D+00 0.804D+00 0.180D+00
 Coeff:      0.154D-01 0.000D+00 0.804D+00 0.180D+00
 Gap=    -0.080 Goal=   None    Shift=    0.000
 Gap=    -0.009 Goal=   None    Shift=    0.000
 RMSDP=7.08D-01 MaxDP=6.01D+01 DE= 2.49D+00 OVMax= 9.80D-01

 Cycle   5  Pass 1  IDiag  1:
 RMSU=  1.27D-02    CP:  1.09D+00  9.94D-03 -1.63D-01  1.24D-02
 E= -767.422839910234     Delta-E=       -2.615015572159 Rises=F Damp=F
 DIIS: error= 3.84D-02 at cycle   5 NSaved=   5.
 NSaved= 5 IEnMin= 5 EnMin= -767.422839910234     IErMin= 2 ErrMin= 1.40D-02
 ErrMax= 3.84D-02  0.00D+00 EMaxC= 1.00D-01 BMatC= 9.43D-01 BMatP= 5.07D-01
 IDIUse=2 WtCom= 0.00D+00 WtEn= 1.00D+00
 Coeff-En:   0.000D+00 0.000D+00 0.407D+00 0.000D+00 0.593D+00
 Coeff:      0.000D+00 0.000D+00 0.407D+00 0.000D+00 0.593D+00
 Gap=     0.066 Goal=   None    Shift=    0.000
 Gap=     0.287 Goal=   None    Shift=    0.000
 RMSDP=1.38D-02 MaxDP=1.06D+00 DE=-2.62D+00 OVMax= 4.43D-01

 Cycle   6  Pass 1  IDiag  1:
 RMSU=  1.25D-02    CP:  1.11D+00  5.41D-03 -3.48D-02  1.10D-02  5.91D-01
 E= -767.443808697573     Delta-E=       -0.020968787338 Rises=F Damp=F
 DIIS: error= 4.76D-02 at cycle   6 NSaved=   6.
 NSaved= 6 IEnMin= 6 EnMin= -767.443808697573     IErMin= 2 ErrMin= 1.40D-02
 ErrMax= 4.76D-02  0.00D+00 EMaxC= 1.00D-01 BMatC= 8.57D-01 BMatP= 5.07D-01
 IDIUse=2 WtCom= 0.00D+00 WtEn= 1.00D+00
 EnCoef did     5 forward-backward iterations
 Coeff-En:   0.000D+00 0.000D+00 0.246D+00 0.000D+00 0.411D+00 0.343D+00
 Coeff:      0.000D+00 0.000D+00 0.246D+00 0.000D+00 0.411D+00 0.343D+00
 Gap=     0.071 Goal=   None    Shift=    0.000
 Gap=     0.189 Goal=   None    Shift=    0.000
 RMSDP=1.23D-02 MaxDP=1.21D+00 DE=-2.10D-02 OVMax= 4.15D-01

 Cycle   7  Pass 1  IDiag  1:
 RMSU=  5.26D-03    CP:  1.03D+00  4.18D-04  7.01D-02  8.47D-03  5.14D-01
                    CP:  2.14D-01
 E= -767.622586902813     Delta-E=       -0.178778205240 Rises=F Damp=F
 DIIS: error= 1.64D-02 at cycle   7 NSaved=   7.
 NSaved= 7 IEnMin= 7 EnMin= -767.622586902813     IErMin= 2 ErrMin= 1.40D-02
 ErrMax= 1.64D-02  0.00D+00 EMaxC= 1.00D-01 BMatC= 9.82D-02 BMatP= 5.07D-01
 IDIUse=3 WtCom= 8.36D-01 WtEn= 1.64D-01
 Coeff-Com: -0.161D-01 0.356D-01 0.470D-02-0.520D-02 0.136D+00 0.219D+00
 Coeff-Com:  0.625D+00
 Coeff-En:   0.000D+00 0.000D+00 0.000D+00 0.000D+00 0.000D+00 0.125D+00
 Coeff-En:   0.875D+00
 Coeff:     -0.135D-01 0.298D-01 0.393D-02-0.435D-02 0.114D+00 0.204D+00
 Coeff:      0.666D+00
 Gap=     0.072 Goal=   None    Shift=    0.000
 Gap=     0.159 Goal=   None    Shift=    0.000
 RMSDP=3.32D-03 MaxDP=2.42D-01 DE=-1.79D-01 OVMax= 1.55D-01

 Cycle   8  Pass 1  IDiag  1:
 RMSU=  1.68D-03    CP:  1.05D+00  9.25D-04  3.42D-02  8.03D-03  5.63D-01
                    CP:  3.38D-01  6.39D-01
 E= -767.641617253580     Delta-E=       -0.019030350767 Rises=F Damp=F
 DIIS: error= 5.62D-03 at cycle   8 NSaved=   8.
 NSaved= 8 IEnMin= 8 EnMin= -767.641617253580     IErMin= 8 ErrMin= 5.62D-03
 ErrMax= 5.62D-03  0.00D+00 EMaxC= 1.00D-01 BMatC= 1.40D-02 BMatP= 9.82D-02
 IDIUse=3 WtCom= 9.44D-01 WtEn= 5.62D-02
 Coeff-Com:  0.676D-02-0.161D-01-0.479D-01-0.145D-02 0.315D-02 0.610D-01
 Coeff-Com:  0.436D+00 0.558D+00
 Coeff-En:   0.000D+00 0.000D+00 0.000D+00 0.000D+00 0.000D+00 0.000D+00
 Coeff-En:   0.178D+00 0.822D+00
 Coeff:      0.638D-02-0.152D-01-0.452D-01-0.136D-02 0.298D-02 0.575D-01
 Coeff:      0.422D+00 0.573D+00
 Gap=     0.069 Goal=   None    Shift=    0.000
 Gap=     0.151 Goal=   None    Shift=    0.000
 RMSDP=1.25D-03 MaxDP=1.16D-01 DE=-1.90D-02 OVMax= 4.37D-02

 Cycle   9  Pass 1  IDiag  1:
 RMSU=  3.66D-04    CP:  1.04D+00  9.79D-04  3.42D-02  8.61D-03  5.52D-01
                    CP:  3.18D-01  7.61D-01  6.43D-01
 E= -767.644958057412     Delta-E=       -0.003340803833 Rises=F Damp=F
 DIIS: error= 1.03D-03 at cycle   9 NSaved=   9.
 NSaved= 9 IEnMin= 9 EnMin= -767.644958057412     IErMin= 9 ErrMin= 1.03D-03
 ErrMax= 1.03D-03  0.00D+00 EMaxC= 1.00D-01 BMatC= 9.99D-04 BMatP= 1.40D-02
 IDIUse=3 WtCom= 9.90D-01 WtEn= 1.03D-02
 Coeff-Com:  0.679D-03-0.122D-02-0.144D-01-0.265D-03-0.107D-01 0.240D-02
 Coeff-Com:  0.136D+00 0.337D+00 0.551D+00
 Coeff-En:   0.000D+00 0.000D+00 0.000D+00 0.000D+00 0.000D+00 0.000D+00
 Coeff-En:   0.000D+00 0.268D-01 0.973D+00
 Coeff:      0.672D-03-0.121D-02-0.143D-01-0.262D-03-0.106D-01 0.237D-02
 Coeff:      0.134D+00 0.333D+00 0.555D+00
 Gap=     0.070 Goal=   None    Shift=    0.000
 Gap=     0.148 Goal=   None    Shift=    0.000
 RMSDP=3.01D-04 MaxDP=1.80D-02 DE=-3.34D-03 OVMax= 1.41D-02

 Cycle  10  Pass 1  IDiag  1:
 RMSU=  2.25D-04    CP:  1.04D+00  8.50D-04  3.71D-02  8.46D-03  5.48D-01
                    CP:  3.06D-01  7.70D-01  6.40D-01  7.29D-01
 E= -767.645235418831     Delta-E=       -0.000277361419 Rises=F Damp=F
 DIIS: error= 3.11D-04 at cycle  10 NSaved=  10.
 NSaved=10 IEnMin=10 EnMin= -767.645235418831     IErMin=10 ErrMin= 3.11D-04
 ErrMax= 3.11D-04  0.00D+00 EMaxC= 1.00D-01 BMatC= 1.30D-04 BMatP= 9.99D-04
 IDIUse=3 WtCom= 9.97D-01 WtEn= 3.11D-03
 Coeff-Com: -0.131D-02 0.345D-02 0.436D-03 0.675D-04-0.562D-02-0.740D-02
 Coeff-Com:  0.120D-01 0.100D+00 0.325D+00 0.573D+00
 Coeff-En:   0.000D+00 0.000D+00 0.000D+00 0.000D+00 0.000D+00 0.000D+00
 Coeff-En:   0.000D+00 0.000D+00 0.122D-01 0.988D+00
 Coeff:     -0.131D-02 0.344D-02 0.434D-03 0.673D-04-0.561D-02-0.737D-02
 Coeff:      0.120D-01 0.998D-01 0.324D+00 0.575D+00
 Gap=     0.070 Goal=   None    Shift=    0.000
 Gap=     0.148 Goal=   None    Shift=    0.000
 RMSDP=1.21D-04 MaxDP=1.02D-02 DE=-2.77D-04 OVMax= 2.37D-03

 Cycle  11  Pass 1  IDiag  1:
 RMSU=  7.78D-05    CP:  1.04D+00  8.14D-04  3.76D-02  8.37D-03  5.45D-01
                    CP:  3.09D-01  7.66D-01  6.73D-01  8.19D-01  8.91D-01
 E= -767.645277370167     Delta-E=       -0.000041951336 Rises=F Damp=F
 DIIS: error= 1.52D-04 at cycle  11 NSaved=  11.
 NSaved=11 IEnMin=11 EnMin= -767.645277370167     IErMin=11 ErrMin= 1.52D-04
 ErrMax= 1.52D-04  0.00D+00 EMaxC= 1.00D-01 BMatC= 1.67D-05 BMatP= 1.30D-04
 IDIUse=3 WtCom= 9.98D-01 WtEn= 1.52D-03
 Coeff-Com: -0.926D-03 0.173D-02 0.326D-02 0.915D-04-0.422D-04-0.345D-02
 Coeff-Com: -0.264D-01-0.510D-01-0.612D-03 0.207D+00 0.870D+00
 Coeff-En:   0.000D+00 0.000D+00 0.000D+00 0.000D+00 0.000D+00 0.000D+00
 Coeff-En:   0.000D+00 0.000D+00 0.000D+00 0.000D+00 0.100D+01
 Coeff:     -0.925D-03 0.172D-02 0.325D-02 0.914D-04-0.421D-04-0.344D-02
 Coeff:     -0.264D-01-0.509D-01-0.611D-03 0.207D+00 0.870D+00
 Gap=     0.070 Goal=   None    Shift=    0.000
 Gap=     0.148 Goal=   None    Shift=    0.000
 RMSDP=1.04D-04 MaxDP=9.67D-03 DE=-4.20D-05 OVMax= 3.66D-03

 Cycle  12  Pass 1  IDiag  1:
 RMSU=  5.69D-05    CP:  1.04D+00  7.95D-04  3.87D-02  8.40D-03  5.44D-01
                    CP:  3.06D-01  7.68D-01  6.68D-01  8.88D-01  1.11D+00
                    CP:  1.24D+00
 E= -767.645288097119     Delta-E=       -0.000010726952 Rises=F Damp=F
 DIIS: error= 8.60D-05 at cycle  12 NSaved=  12.
 NSaved=12 IEnMin=12 EnMin= -767.645288097119     IErMin=12 ErrMin= 8.60D-05
 ErrMax= 8.60D-05  0.00D+00 EMaxC= 1.00D-01 BMatC= 7.11D-06 BMatP= 1.67D-05
 IDIUse=1 WtCom= 1.00D+00 WtEn= 0.00D+00
 Coeff-Com: -0.136D-03-0.128D-03 0.111D-02 0.374D-04 0.146D-02 0.450D-03
 Coeff-Com: -0.164D-01-0.633D-01-0.102D+00-0.626D-01 0.508D+00 0.734D+00
 Coeff:     -0.136D-03-0.128D-03 0.111D-02 0.374D-04 0.146D-02 0.450D-03
 Coeff:     -0.164D-01-0.633D-01-0.102D+00-0.626D-01 0.508D+00 0.734D+00
 Gap=     0.070 Goal=   None    Shift=    0.000
 Gap=     0.148 Goal=   None    Shift=    0.000
 RMSDP=5.83D-05 MaxDP=4.92D-03 DE=-1.07D-05 OVMax= 1.35D-03

 Cycle  13  Pass 1  IDiag  1:
 RMSU=  2.45D-05    CP:  1.04D+00  7.71D-04  3.93D-02  8.37D-03  5.43D-01
                    CP:  3.05D-01  7.71D-01  6.60D-01  9.39D-01  1.23D+00
                    CP:  1.51D+00  1.07D+00
 E= -767.645291874322     Delta-E=       -0.000003777203 Rises=F Damp=F
 DIIS: error= 2.01D-05 at cycle  13 NSaved=  13.
 NSaved=13 IEnMin=13 EnMin= -767.645291874322     IErMin=13 ErrMin= 2.01D-05
 ErrMax= 2.01D-05  0.00D+00 EMaxC= 1.00D-01 BMatC= 7.63D-07 BMatP= 7.11D-06
 IDIUse=1 WtCom= 1.00D+00 WtEn= 0.00D+00
 Coeff-Com:  0.151D-03-0.308D-03-0.285D-04 0.333D-04 0.549D-03 0.641D-03
 Coeff-Com: -0.187D-02-0.158D-01-0.392D-01-0.621D-01 0.272D-01 0.295D+00
 Coeff-Com:  0.796D+00
 Coeff:      0.151D-03-0.308D-03-0.285D-04 0.333D-04 0.549D-03 0.641D-03
 Coeff:     -0.187D-02-0.158D-01-0.392D-01-0.621D-01 0.272D-01 0.295D+00
 Coeff:      0.796D+00
 Gap=     0.070 Goal=   None    Shift=    0.000
 Gap=     0.148 Goal=   None    Shift=    0.000
 RMSDP=2.11D-05 MaxDP=1.82D-03 DE=-3.78D-06 OVMax= 9.43D-04

 Cycle  14  Pass 1  IDiag  1:
 RMSU=  7.97D-06    CP:  1.04D+00  7.72D-04  3.95D-02  8.38D-03  5.42D-01
                    CP:  3.05D-01  7.72D-01  6.58D-01  9.46D-01  1.28D+00
                    CP:  1.60D+00  1.22D+00  9.78D-01
 E= -767.645292353172     Delta-E=       -0.000000478850 Rises=F Damp=F
 DIIS: error= 1.34D-05 at cycle  14 NSaved=  14.
 NSaved=14 IEnMin=14 EnMin= -767.645292353172     IErMin=14 ErrMin= 1.34D-05
 ErrMax= 1.34D-05  0.00D+00 EMaxC= 1.00D-01 BMatC= 2.39D-07 BMatP= 7.63D-07
 IDIUse=1 WtCom= 1.00D+00 WtEn= 0.00D+00
 Coeff-Com:  0.633D-04-0.419D-04-0.121D-03-0.701D-05 0.102D-03 0.299D-03
 Coeff-Com:  0.916D-03-0.870D-03-0.793D-02-0.260D-01-0.445D-01 0.650D-01
 Coeff-Com:  0.419D+00 0.594D+00
 Coeff:      0.633D-04-0.419D-04-0.121D-03-0.701D-05 0.102D-03 0.299D-03
 Coeff:      0.916D-03-0.870D-03-0.793D-02-0.260D-01-0.445D-01 0.650D-01
 Coeff:      0.419D+00 0.594D+00
 Gap=     0.070 Goal=   None    Shift=    0.000
 Gap=     0.148 Goal=   None    Shift=    0.000
 RMSDP=4.69D-06 MaxDP=4.58D-04 DE=-4.79D-07 OVMax= 2.53D-04

 Cycle  15  Pass 1  IDiag  1:
 RMSU=  3.11D-06    CP:  1.04D+00  7.70D-04  3.95D-02  8.37D-03  5.42D-01
                    CP:  3.05D-01  7.72D-01  6.58D-01  9.47D-01  1.28D+00
                    CP:  1.63D+00  1.24D+00  1.02D+00  8.78D-01
 E= -767.645292458030     Delta-E=       -0.000000104858 Rises=F Damp=F
 DIIS: error= 8.98D-06 at cycle  15 NSaved=  15.
 NSaved=15 IEnMin=15 EnMin= -767.645292458030     IErMin=15 ErrMin= 8.98D-06
 ErrMax= 8.98D-06  0.00D+00 EMaxC= 1.00D-01 BMatC= 6.26D-08 BMatP= 2.39D-07
 IDIUse=1 WtCom= 1.00D+00 WtEn= 0.00D+00
 Coeff-Com:  0.467D-04-0.576D-04-0.257D-04-0.292D-05-0.946D-04-0.786D-04
 Coeff-Com:  0.109D-02 0.459D-02 0.102D-01 0.787D-02-0.293D-01-0.699D-01
 Coeff-Com: -0.492D-01 0.283D+00 0.842D+00
 Coeff:      0.467D-04-0.576D-04-0.257D-04-0.292D-05-0.946D-04-0.786D-04
 Coeff:      0.109D-02 0.459D-02 0.102D-01 0.787D-02-0.293D-01-0.699D-01
 Coeff:     -0.492D-01 0.283D+00 0.842D+00
 Gap=     0.070 Goal=   None    Shift=    0.000
 Gap=     0.148 Goal=   None    Shift=    0.000
 RMSDP=3.94D-06 MaxDP=2.87D-04 DE=-1.05D-07 OVMax= 2.30D-04

 Cycle  16  Pass 1  IDiag  1:
 RMSU=  2.31D-06    CP:  1.04D+00  7.70D-04  3.94D-02  8.38D-03  5.42D-01
                    CP:  3.04D-01  7.72D-01  6.58D-01  9.48D-01  1.29D+00
                    CP:  1.62D+00  1.26D+00  1.03D+00  9.45D-01  9.32D-01
 E= -767.645292505214     Delta-E=       -0.000000047184 Rises=F Damp=F
 DIIS: error= 8.04D-06 at cycle  16 NSaved=  16.
 NSaved=16 IEnMin=16 EnMin= -767.645292505214     IErMin=16 ErrMin= 8.04D-06
 ErrMax= 8.04D-06  0.00D+00 EMaxC= 1.00D-01 BMatC= 2.37D-08 BMatP= 6.26D-08
 IDIUse=1 WtCom= 1.00D+00 WtEn= 0.00D+00
 Coeff-Com: -0.330D-04 0.597D-04 0.371D-04-0.973D-05-0.540D-04-0.121D-03
 Coeff-Com:  0.381D-03 0.226D-02 0.630D-02 0.801D-02-0.372D-04-0.463D-01
 Coeff-Com: -0.121D+00-0.322D-01 0.407D+00 0.776D+00
 Coeff:     -0.330D-04 0.597D-04 0.371D-04-0.973D-05-0.540D-04-0.121D-03
 Coeff:      0.381D-03 0.226D-02 0.630D-02 0.801D-02-0.372D-04-0.463D-01
 Coeff:     -0.121D+00-0.322D-01 0.407D+00 0.776D+00
 Gap=     0.070 Goal=   None    Shift=    0.000
 Gap=     0.148 Goal=   None    Shift=    0.000
 RMSDP=2.46D-06 MaxDP=2.59D-04 DE=-4.72D-08 OVMax= 1.06D-04

 Cycle  17  Pass 1  IDiag  1:
 RMSU=  1.48D-06    CP:  1.04D+00  7.70D-04  3.95D-02  8.38D-03  5.42D-01
                    CP:  3.04D-01  7.72D-01  6.58D-01  9.48D-01  1.29D+00
                    CP:  1.62D+00  1.26D+00  1.02D+00  1.02D+00  1.10D+00
                    CP:  9.81D-01
 E= -767.645292522611     Delta-E=       -0.000000017397 Rises=F Damp=F
 DIIS: error= 4.58D-06 at cycle  17 NSaved=  17.
 NSaved=17 IEnMin=17 EnMin= -767.645292522611     IErMin=17 ErrMin= 4.58D-06
 ErrMax= 4.58D-06  0.00D+00 EMaxC= 1.00D-01 BMatC= 1.09D-08 BMatP= 2.37D-08
 IDIUse=1 WtCom= 1.00D+00 WtEn= 0.00D+00
 Coeff-Com: -0.376D-04 0.492D-04 0.352D-04-0.187D-05 0.610D-05-0.777D-04
 Coeff-Com: -0.110D-03-0.260D-03 0.275D-03 0.175D-02 0.126D-01-0.385D-02
 Coeff-Com: -0.629D-01-0.153D+00-0.660D-01 0.540D+00 0.731D+00
 Coeff:     -0.376D-04 0.492D-04 0.352D-04-0.187D-05 0.610D-05-0.777D-04
 Coeff:     -0.110D-03-0.260D-03 0.275D-03 0.175D-02 0.126D-01-0.385D-02
 Coeff:     -0.629D-01-0.153D+00-0.660D-01 0.540D+00 0.731D+00
 Gap=     0.070 Goal=   None    Shift=    0.000
 Gap=     0.148 Goal=   None    Shift=    0.000
 RMSDP=1.80D-06 MaxDP=1.15D-04 DE=-1.74D-08 OVMax= 1.04D-04

 Cycle  18  Pass 1  IDiag  1:
 RMSU=  7.30D-07    CP:  1.04D+00  7.70D-04  3.95D-02  8.38D-03  5.42D-01
                    CP:  3.04D-01  7.72D-01  6.58D-01  9.48D-01  1.29D+00
                    CP:  1.62D+00  1.26D+00  1.02D+00  1.04D+00  1.22D+00
                    CP:  1.21D+00  1.18D+00
 E= -767.645292530274     Delta-E=       -0.000000007664 Rises=F Damp=F
 DIIS: error= 1.39D-06 at cycle  18 NSaved=  18.
 NSaved=18 IEnMin=18 EnMin= -767.645292530274     IErMin=18 ErrMin= 1.39D-06
 ErrMax= 1.39D-06  0.00D+00 EMaxC= 1.00D-01 BMatC= 2.13D-09 BMatP= 1.09D-08
 IDIUse=1 WtCom= 1.00D+00 WtEn= 0.00D+00
 Coeff-Com: -0.252D-04 0.349D-04 0.369D-05 0.421D-06 0.248D-04-0.916D-05
 Coeff-Com: -0.148D-03-0.810D-03-0.165D-02-0.155D-02 0.670D-02 0.106D-01
 Coeff-Com:  0.238D-02-0.692D-01-0.151D+00 0.464D-01 0.359D+00 0.799D+00
 Coeff:     -0.252D-04 0.349D-04 0.369D-05 0.421D-06 0.248D-04-0.916D-05
 Coeff:     -0.148D-03-0.810D-03-0.165D-02-0.155D-02 0.670D-02 0.106D-01
 Coeff:      0.238D-02-0.692D-01-0.151D+00 0.464D-01 0.359D+00 0.799D+00
 Gap=     0.070 Goal=   None    Shift=    0.000
 Gap=     0.148 Goal=   None    Shift=    0.000
 RMSDP=8.26D-07 MaxDP=5.77D-05 DE=-7.66D-09 OVMax= 4.91D-05

 Cycle  19  Pass 1  IDiag  1:
 RMSU=  3.88D-07    CP:  1.04D+00  7.69D-04  3.95D-02  8.38D-03  5.42D-01
                    CP:  3.04D-01  7.72D-01  6.58D-01  9.47D-01  1.29D+00
                    CP:  1.62D+00  1.26D+00  1.01D+00  1.02D+00  1.26D+00
                    CP:  1.34D+00  1.33D+00  1.09D+00
 E= -767.645292531708     Delta-E=       -0.000000001434 Rises=F Damp=F
 DIIS: error= 6.26D-07 at cycle  19 NSaved=  19.
 NSaved=19 IEnMin=19 EnMin= -767.645292531708     IErMin=19 ErrMin= 6.26D-07
 ErrMax= 6.26D-07  0.00D+00 EMaxC= 1.00D-01 BMatC= 6.03D-10 BMatP= 2.13D-09
 IDIUse=1 WtCom= 1.00D+00 WtEn= 0.00D+00
 Coeff-Com: -0.739D-05 0.799D-05-0.109D-04 0.123D-05 0.136D-04 0.101D-04
 Coeff-Com: -0.431D-04-0.378D-03-0.854D-03-0.110D-02 0.127D-02 0.559D-02
 Coeff-Com:  0.125D-01-0.103D-01-0.683D-01-0.729D-01 0.630D-01 0.456D+00
 Coeff-Com:  0.616D+00
 Coeff:     -0.739D-05 0.799D-05-0.109D-04 0.123D-05 0.136D-04 0.101D-04
 Coeff:     -0.431D-04-0.378D-03-0.854D-03-0.110D-02 0.127D-02 0.559D-02
 Coeff:      0.125D-01-0.103D-01-0.683D-01-0.729D-01 0.630D-01 0.456D+00
 Coeff:      0.616D+00
 Gap=     0.070 Goal=   None    Shift=    0.000
 Gap=     0.148 Goal=   None    Shift=    0.000
 RMSDP=4.15D-07 MaxDP=3.22D-05 DE=-1.43D-09 OVMax= 2.22D-05

 Cycle  20  Pass 1  IDiag  1:
 RMSU=  1.70D-07    CP:  1.04D+00  7.69D-04  3.95D-02  8.38D-03  5.42D-01
                    CP:  3.04D-01  7.72D-01  6.58D-01  9.47D-01  1.29D+00
                    CP:  1.62D+00  1.26D+00  1.01D+00  1.03D+00  1.28D+00
                    CP:  1.37D+00  1.39D+00  1.21D+00  1.01D+00
 E= -767.645292531959     Delta-E=       -0.000000000251 Rises=F Damp=F
 DIIS: error= 2.38D-07 at cycle  20 NSaved=  20.
 NSaved=20 IEnMin=20 EnMin= -767.645292531959     IErMin=20 ErrMin= 2.38D-07
 ErrMax= 2.38D-07  0.00D+00 EMaxC= 1.00D-01 BMatC= 9.69D-11 BMatP= 6.03D-10
 IDIUse=1 WtCom= 1.00D+00 WtEn= 0.00D+00
 Coeff-Com: -0.206D-05 0.333D-05-0.469D-05 0.281D-06 0.287D-05 0.637D-05
 Coeff-Com: -0.471D-05-0.453D-04-0.858D-04-0.208D-03-0.613D-03 0.264D-03
 Coeff-Com:  0.585D-02 0.820D-02-0.294D-02-0.460D-01-0.432D-01 0.457D-01
 Coeff-Com:  0.299D+00 0.734D+00
 Coeff:     -0.206D-05 0.333D-05-0.469D-05 0.281D-06 0.287D-05 0.637D-05
 Coeff:     -0.471D-05-0.453D-04-0.858D-04-0.208D-03-0.613D-03 0.264D-03
 Coeff:      0.585D-02 0.820D-02-0.294D-02-0.460D-01-0.432D-01 0.457D-01
 Coeff:      0.299D+00 0.734D+00
 Gap=     0.070 Goal=   None    Shift=    0.000
 Gap=     0.148 Goal=   None    Shift=    0.000
 RMSDP=1.80D-07 MaxDP=1.39D-05 DE=-2.51D-10 OVMax= 8.35D-06

 Cycle  21  Pass 1  IDiag  1:
 Restarting incremental Fock formation.
 E= -767.645292532017     Delta-E=       -0.000000000059 Rises=F Damp=F
 DIIS: error= 7.18D-08 at cycle  21 NSaved=  20.
 NSaved=20 IEnMin=20 EnMin= -767.645292532017     IErMin=20 ErrMin= 7.18D-08
 ErrMax= 7.18D-08  0.00D+00 EMaxC= 1.00D-01 BMatC= 1.65D-11 BMatP= 9.69D-11
 IDIUse=1 WtCom= 1.00D+00 WtEn= 0.00D+00
 Coeff-Com: -0.761D-06 0.176D-05-0.655D-06-0.444D-06 0.139D-05 0.403D-05
 Coeff-Com:  0.340D-04 0.943D-04 0.753D-04-0.476D-03-0.864D-03 0.132D-02
 Coeff-Com:  0.523D-02 0.872D-02-0.132D-01-0.298D-01-0.425D-01 0.618D-01
 Coeff-Com:  0.388D+00 0.621D+00
 Coeff:     -0.761D-06 0.176D-05-0.655D-06-0.444D-06 0.139D-05 0.403D-05
 Coeff:      0.340D-04 0.943D-04 0.753D-04-0.476D-03-0.864D-03 0.132D-02
 Coeff:      0.523D-02 0.872D-02-0.132D-01-0.298D-01-0.425D-01 0.618D-01
 Coeff:      0.388D+00 0.621D+00
 Gap=     0.070 Goal=   None    Shift=    0.000
 Gap=     0.148 Goal=   None    Shift=    0.000
 RMSDP=5.99D-08 MaxDP=4.88D-06 DE=-5.87D-11 OVMax= 3.20D-06

 Cycle  22  Pass 1  IDiag  1:
 RMSU=  5.99D-08    CP:  1.00D+00
 E= -767.645292531999     Delta-E=        0.000000000018 Rises=F Damp=F
 DIIS: error= 3.53D-08 at cycle  22 NSaved=  20.
 NSaved=20 IEnMin=19 EnMin= -767.645292532017     IErMin=20 ErrMin= 3.53D-08
 ErrMax= 3.53D-08  0.00D+00 EMaxC= 1.00D-01 BMatC= 3.16D-12 BMatP= 1.65D-11
 IDIUse=1 WtCom= 1.00D+00 WtEn= 0.00D+00
 Coeff-Com:  0.557D-07 0.407D-06-0.716D-06-0.557D-06 0.454D-05 0.271D-04
 Coeff-Com:  0.660D-04 0.790D-04-0.132D-03-0.584D-03-0.370D-03 0.970D-03
 Coeff-Com:  0.538D-02 0.186D-02-0.679D-02-0.308D-01-0.270D-01 0.513D-01
 Coeff-Com:  0.331D+00 0.675D+00
 Coeff:      0.557D-07 0.407D-06-0.716D-06-0.557D-06 0.454D-05 0.271D-04
 Coeff:      0.660D-04 0.790D-04-0.132D-03-0.584D-03-0.370D-03 0.970D-03
 Coeff:      0.538D-02 0.186D-02-0.679D-02-0.308D-01-0.270D-01 0.513D-01
 Coeff:      0.331D+00 0.675D+00
 Gap=     0.070 Goal=   None    Shift=    0.000
 Gap=     0.148 Goal=   None    Shift=    0.000
 RMSDP=3.17D-08 MaxDP=2.46D-06 DE= 1.82D-11 OVMax= 1.28D-06

 Cycle  23  Pass 1  IDiag  1:
 RMSU=  3.16D-08    CP:  1.00D+00  9.76D-01
 E= -767.645292532000     Delta-E=       -0.000000000001 Rises=F Damp=F
 DIIS: error= 2.64D-08 at cycle  23 NSaved=  20.
 NSaved=20 IEnMin=18 EnMin= -767.645292532017     IErMin=20 ErrMin= 2.64D-08
 ErrMax= 2.64D-08  0.00D+00 EMaxC= 1.00D-01 BMatC= 3.36D-13 BMatP= 3.16D-12
 IDIUse=1 WtCom= 1.00D+00 WtEn= 0.00D+00
 Coeff-Com:  0.332D-06-0.168D-06-0.532D-06 0.126D-05 0.564D-05 0.138D-04
 Coeff-Com:  0.186D-04 0.134D-04-0.126D-03-0.272D-03-0.327D-03 0.816D-03
 Coeff-Com:  0.201D-02 0.125D-02-0.547D-02-0.147D-01-0.339D-01 0.482D-01
 Coeff-Com:  0.244D+00 0.759D+00
 Coeff:      0.332D-06-0.168D-06-0.532D-06 0.126D-05 0.564D-05 0.138D-04
 Coeff:      0.186D-04 0.134D-04-0.126D-03-0.272D-03-0.327D-03 0.816D-03
 Coeff:      0.201D-02 0.125D-02-0.547D-02-0.147D-01-0.339D-01 0.482D-01
 Coeff:      0.244D+00 0.759D+00
 Gap=     0.070 Goal=   None    Shift=    0.000
 Gap=     0.148 Goal=   None    Shift=    0.000
 RMSDP=1.07D-08 MaxDP=7.46D-07 DE=-6.82D-13 OVMax= 5.00D-07

 Cycle  24  Pass 1  IDiag  1:
 RMSU=  9.03D-09    CP:  1.00D+00  1.05D+00  1.11D+00
 E= -767.645292532013     Delta-E=       -0.000000000013 Rises=F Damp=F
 DIIS: error= 1.29D-08 at cycle  24 NSaved=  20.
 NSaved=20 IEnMin=17 EnMin= -767.645292532017     IErMin=20 ErrMin= 1.29D-08
 ErrMax= 1.29D-08  0.00D+00 EMaxC= 1.00D-01 BMatC= 1.10D-13 BMatP= 3.36D-13
 IDIUse=1 WtCom= 1.00D+00 WtEn= 0.00D+00
 Coeff-Com:  0.858D-08-0.161D-06 0.561D-06-0.104D-05-0.404D-05-0.939D-05
 Coeff-Com:  0.211D-04 0.417D-04-0.200D-04-0.253D-03-0.442D-03 0.396D-03
 Coeff-Com:  0.155D-02 0.283D-02-0.904D-03-0.298D-01-0.372D-01-0.249D-02
 Coeff-Com:  0.402D+00 0.664D+00
 Coeff:      0.858D-08-0.161D-06 0.561D-06-0.104D-05-0.404D-05-0.939D-05
 Coeff:      0.211D-04 0.417D-04-0.200D-04-0.253D-03-0.442D-03 0.396D-03
 Coeff:      0.155D-02 0.283D-02-0.904D-03-0.298D-01-0.372D-01-0.249D-02
 Coeff:      0.402D+00 0.664D+00
 Gap=     0.070 Goal=   None    Shift=    0.000
 Gap=     0.148 Goal=   None    Shift=    0.000
 RMSDP=6.10D-09 MaxDP=4.62D-07 DE=-1.34D-11 OVMax= 2.26D-07

 SCF Done:  E(UB3LYP) =  -767.645292532     A.U. after   24 cycles
            NFock= 24  Conv=0.61D-08     -V/T= 2.0033
 <Sx>= 0.0000 <Sy>= 0.0000 <Sz>= 0.5000 <S**2>= 0.7611 S= 0.5055
 <L.S>=  0.00000000000    
 KE= 7.651171216509D+02 PE=-4.210927082768D+03 EE= 1.475595568674D+03
 Annihilation of the first spin contaminant:
 S**2 before annihilation     0.7611,   after     0.7500
 Leave Link  502 at Thu Dec 21 05:42:03 2023, MaxMem=  4026531840 cpu:            3784.3 elap:             478.0
 (Enter /sysapps/ubuntu-applications/gaussian/Gaussian/AVX2/g16/l601.exe)
 Copying SCF densities to generalized density rwf, IOpCl= 1 IROHF=0.

 **********************************************************************

            Population analysis using the SCF density.

 **********************************************************************

 Alpha  occ. eigenvalues --  -18.93834 -18.93752 -10.09037 -10.08744 -10.07708
 Alpha  occ. eigenvalues --  -10.07512 -10.05484 -10.05357 -10.05225 -10.04996
 Alpha  occ. eigenvalues --  -10.04751 -10.04606 -10.04430 -10.04287 -10.04043
 Alpha  occ. eigenvalues --  -10.04029 -10.03935 -10.03847  -0.86348  -0.85587
 Alpha  occ. eigenvalues --   -0.75405  -0.74501  -0.69823  -0.66033  -0.63120
 Alpha  occ. eigenvalues --   -0.62924  -0.62167  -0.54504  -0.53346  -0.51198
 Alpha  occ. eigenvalues --   -0.48440  -0.47237  -0.43870  -0.41108  -0.40348
 Alpha  occ. eigenvalues --   -0.37001  -0.35401  -0.34403  -0.34255  -0.33136
 Alpha  occ. eigenvalues --   -0.31736  -0.30628  -0.30445  -0.29860  -0.29443
 Alpha  occ. eigenvalues --   -0.28258  -0.27595  -0.26312  -0.24860  -0.24643
 Alpha  occ. eigenvalues --   -0.24540  -0.24133  -0.22669  -0.21695  -0.21129
 Alpha  occ. eigenvalues --   -0.20693  -0.14046  -0.13698  -0.13204  -0.12870
 Alpha  occ. eigenvalues --   -0.10888  -0.10020  -0.00636
 Alpha virt. eigenvalues --    0.06401   0.06981   0.08316   0.08972   0.09302
 Alpha virt. eigenvalues --    0.10311   0.10513   0.10905   0.11585   0.12048
 Alpha virt. eigenvalues --    0.12305   0.13038   0.13495   0.14445   0.15044
 Alpha virt. eigenvalues --    0.15173   0.15797   0.16061   0.16900   0.17356
 Alpha virt. eigenvalues --    0.17557   0.17792   0.18554   0.19088   0.19438
 Alpha virt. eigenvalues --    0.19490   0.19877   0.20202   0.20356   0.20797
 Alpha virt. eigenvalues --    0.20952   0.21124   0.21420   0.21855   0.22213
 Alpha virt. eigenvalues --    0.22372   0.22961   0.23559   0.23727   0.23952
 Alpha virt. eigenvalues --    0.24339   0.24517   0.25080   0.25322   0.25484
 Alpha virt. eigenvalues --    0.25854   0.26310   0.26660   0.27230   0.27927
 Alpha virt. eigenvalues --    0.28211   0.28928   0.29130   0.29781   0.29936
 Alpha virt. eigenvalues --    0.30288   0.30714   0.31497   0.32040   0.32282
 Alpha virt. eigenvalues --    0.32474   0.33087   0.33402   0.34158   0.34486
 Alpha virt. eigenvalues --    0.34587   0.35071   0.35583   0.35813   0.36719
 Alpha virt. eigenvalues --    0.36978   0.37320   0.37559   0.37883   0.38145
 Alpha virt. eigenvalues --    0.38404   0.38750   0.39000   0.39746   0.40725
 Alpha virt. eigenvalues --    0.40940   0.41361   0.41593   0.41808   0.42518
 Alpha virt. eigenvalues --    0.43398   0.43660   0.44222   0.44341   0.44738
 Alpha virt. eigenvalues --    0.45149   0.45358   0.45762   0.46373   0.47260
 Alpha virt. eigenvalues --    0.47704   0.48064   0.48401   0.49338   0.50083
 Alpha virt. eigenvalues --    0.50634   0.51669   0.52441   0.53898   0.54677
 Alpha virt. eigenvalues --    0.54913   0.55669   0.56035   0.57081   0.58683
 Alpha virt. eigenvalues --    0.59575   0.60118   0.61946   0.63272   0.64105
 Alpha virt. eigenvalues --    0.65192   0.65404   0.66335   0.66988   0.68367
 Alpha virt. eigenvalues --    0.68550   0.68630   0.69205   0.69739   0.70257
 Alpha virt. eigenvalues --    0.71258   0.71623   0.72176   0.72890   0.73785
 Alpha virt. eigenvalues --    0.74849   0.74945   0.75058   0.76424   0.76739
 Alpha virt. eigenvalues --    0.77441   0.77697   0.78568   0.78812   0.79591
 Alpha virt. eigenvalues --    0.80074   0.80367   0.81001   0.81009   0.81860
 Alpha virt. eigenvalues --    0.82699   0.82845   0.83352   0.84554   0.85496
 Alpha virt. eigenvalues --    0.86268   0.87259   0.87412   0.88178   0.89055
 Alpha virt. eigenvalues --    0.90129   0.90809   0.92837   0.93027   0.93962
 Alpha virt. eigenvalues --    0.94117   0.96170   0.97023   0.98159   0.99525
 Alpha virt. eigenvalues --    1.00278   1.01638   1.03346   1.04204   1.05653
 Alpha virt. eigenvalues --    1.06409   1.06897   1.07378   1.07561   1.08402
 Alpha virt. eigenvalues --    1.08932   1.09533   1.10853   1.12171   1.12985
 Alpha virt. eigenvalues --    1.13925   1.14543   1.14820   1.16066   1.17126
 Alpha virt. eigenvalues --    1.17372   1.18668   1.20121   1.21588   1.22007
 Alpha virt. eigenvalues --    1.22609   1.22770   1.25553   1.26693   1.27402
 Alpha virt. eigenvalues --    1.29180   1.29781   1.31119   1.31246   1.34340
 Alpha virt. eigenvalues --    1.37634   1.38209   1.39745   1.40243   1.40915
 Alpha virt. eigenvalues --    1.41889   1.42839   1.47357   1.48178   1.48903
 Alpha virt. eigenvalues --    1.50212   1.52528   1.53474   1.55723   1.58320
 Alpha virt. eigenvalues --    1.58512   1.60440   1.62173   1.63443   1.63872
 Alpha virt. eigenvalues --    1.64510   1.64640   1.65433   1.66270   1.66818
 Alpha virt. eigenvalues --    1.67371   1.68232   1.69677   1.69894   1.70650
 Alpha virt. eigenvalues --    1.71154   1.74215   1.75332   1.76765   1.78175
 Alpha virt. eigenvalues --    1.79590   1.80976   1.81370   1.81669   1.82112
 Alpha virt. eigenvalues --    1.83622   1.85739   1.85972   1.86762   1.87421
 Alpha virt. eigenvalues --    1.87779   1.90374   1.91697   1.91760   1.93081
 Alpha virt. eigenvalues --    1.93996   1.95955   1.97403   2.00128   2.00925
 Alpha virt. eigenvalues --    2.02402   2.03240   2.05742   2.06449   2.07083
 Alpha virt. eigenvalues --    2.08038   2.08307   2.08982   2.09318   2.10279
 Alpha virt. eigenvalues --    2.11635   2.12380   2.13101   2.14353   2.16479
 Alpha virt. eigenvalues --    2.16774   2.19441   2.21357   2.22034   2.22804
 Alpha virt. eigenvalues --    2.24026   2.25767   2.26614   2.28700   2.28994
 Alpha virt. eigenvalues --    2.32891   2.35347   2.37164   2.38733   2.41758
 Alpha virt. eigenvalues --    2.42278   2.44583   2.46192   2.48808   2.50819
 Alpha virt. eigenvalues --    2.52098   2.54239   2.55814   2.56128   2.57603
 Alpha virt. eigenvalues --    2.59145   2.60765   2.61145   2.62073   2.65279
 Alpha virt. eigenvalues --    2.69132   2.71275   2.71951   2.74250   2.76460
 Alpha virt. eigenvalues --    2.77540   2.78018   2.79965   2.80335   2.83325
 Alpha virt. eigenvalues --    2.83781   2.84999   2.85845   2.86847   2.87023
 Alpha virt. eigenvalues --    2.88335   2.89429   2.89902   2.90594   2.91275
 Alpha virt. eigenvalues --    2.92056   2.93250   2.93323   2.94303   2.95520
 Alpha virt. eigenvalues --    2.95909   2.99002   3.00160   3.00925   3.02138
 Alpha virt. eigenvalues --    3.02255   3.03551   3.05929   3.06192   3.07097
 Alpha virt. eigenvalues --    3.08984   3.11562   3.11938   3.12890   3.13693
 Alpha virt. eigenvalues --    3.18858   3.24974   3.26587   3.29353   3.29593
 Alpha virt. eigenvalues --    3.32437   3.38145   3.39080   3.41053   3.43662
 Alpha virt. eigenvalues --    3.45529   3.45941   3.48544   3.50913   3.53127
 Alpha virt. eigenvalues --    3.55806   3.57106   3.61449   3.66361   3.67562
 Alpha virt. eigenvalues --    3.69425   3.71007   3.72644   3.75056   3.76223
 Alpha virt. eigenvalues --    3.77916   3.81462   3.86114   3.93458   3.98701
 Alpha virt. eigenvalues --    3.98814   4.02654   4.03526   4.15143   4.20801
 Alpha virt. eigenvalues --    4.24137   4.31100   4.33027   4.37179   4.41052
 Alpha virt. eigenvalues --    4.45035   4.48286   4.65680   4.96159   5.00916
 Alpha virt. eigenvalues --    5.02789   5.21599   5.22866   5.41361   5.43842
 Alpha virt. eigenvalues --    5.89304   5.97255  23.65615  23.81164  24.02435
 Alpha virt. eigenvalues --   24.04630  24.04766  24.09590  24.11076  24.12540
 Alpha virt. eigenvalues --   24.14273  24.14630  24.26142  24.27656  24.28173
 Alpha virt. eigenvalues --   24.30194  24.37689  24.38342  50.19157  50.24075
  Beta  occ. eigenvalues --  -18.93212 -18.93142 -10.08890 -10.08580 -10.07702
  Beta  occ. eigenvalues --  -10.07515 -10.05445 -10.05303 -10.05173 -10.04949
  Beta  occ. eigenvalues --  -10.04768 -10.04625 -10.04439 -10.04285 -10.03960
  Beta  occ. eigenvalues --  -10.03948 -10.03857 -10.03759  -0.85292  -0.84524
  Beta  occ. eigenvalues --   -0.75226  -0.74335  -0.69668  -0.65726  -0.62981
  Beta  occ. eigenvalues --   -0.62724  -0.62031  -0.54242  -0.52856  -0.50962
  Beta  occ. eigenvalues --   -0.48284  -0.47136  -0.43648  -0.40914  -0.40164
  Beta  occ. eigenvalues --   -0.36948  -0.35240  -0.34238  -0.34095  -0.33061
  Beta  occ. eigenvalues --   -0.31640  -0.30559  -0.30407  -0.29673  -0.28525
  Beta  occ. eigenvalues --   -0.28069  -0.27268  -0.25828  -0.24605  -0.24550
  Beta  occ. eigenvalues --   -0.24367  -0.22622  -0.21773  -0.21575  -0.20475
  Beta  occ. eigenvalues --   -0.19965  -0.13390  -0.12706  -0.12034  -0.11449
  Beta  occ. eigenvalues --   -0.10318  -0.09442
  Beta virt. eigenvalues --    0.05401   0.06697   0.07610   0.08304   0.08962
  Beta virt. eigenvalues --    0.09322   0.10301   0.10783   0.11430   0.11842
  Beta virt. eigenvalues --    0.12057   0.12297   0.13048   0.13495   0.14428
  Beta virt. eigenvalues --    0.15084   0.15206   0.15822   0.16071   0.17254
  Beta virt. eigenvalues --    0.17355   0.17656   0.17970   0.18871   0.19385
  Beta virt. eigenvalues --    0.19507   0.19540   0.20090   0.20246   0.20785
  Beta virt. eigenvalues --    0.20866   0.20978   0.21225   0.21650   0.21949
  Beta virt. eigenvalues --    0.22311   0.22410   0.22985   0.23602   0.23831
  Beta virt. eigenvalues --    0.23972   0.24478   0.24622   0.25118   0.25349
  Beta virt. eigenvalues --    0.25538   0.25869   0.26319   0.26682   0.27232
  Beta virt. eigenvalues --    0.27942   0.28227   0.28936   0.29162   0.29967
  Beta virt. eigenvalues --    0.30093   0.30308   0.30770   0.31599   0.32093
  Beta virt. eigenvalues --    0.32428   0.32488   0.33135   0.33416   0.34195
  Beta virt. eigenvalues --    0.34483   0.34610   0.35154   0.35609   0.35861
  Beta virt. eigenvalues --    0.36809   0.37022   0.37366   0.37892   0.38016
  Beta virt. eigenvalues --    0.38498   0.38553   0.38845   0.39164   0.39788
  Beta virt. eigenvalues --    0.40772   0.40991   0.41398   0.41659   0.41895
  Beta virt. eigenvalues --    0.42585   0.43471   0.43695   0.44464   0.44621
  Beta virt. eigenvalues --    0.45125   0.45251   0.45515   0.45826   0.46510
  Beta virt. eigenvalues --    0.47307   0.47818   0.48131   0.48418   0.49447
  Beta virt. eigenvalues --    0.50117   0.50654   0.51754   0.52563   0.54057
  Beta virt. eigenvalues --    0.54727   0.54981   0.55729   0.56326   0.57297
  Beta virt. eigenvalues --    0.58768   0.59649   0.60208   0.62052   0.63420
  Beta virt. eigenvalues --    0.64240   0.65252   0.65525   0.66476   0.67093
  Beta virt. eigenvalues --    0.68506   0.68652   0.68965   0.69291   0.69886
  Beta virt. eigenvalues --    0.70289   0.71444   0.71676   0.72268   0.72988
  Beta virt. eigenvalues --    0.73853   0.74926   0.75034   0.75148   0.76535
  Beta virt. eigenvalues --    0.76808   0.77589   0.77878   0.78693   0.79120
  Beta virt. eigenvalues --    0.79654   0.80186   0.80527   0.81108   0.81173
  Beta virt. eigenvalues --    0.81990   0.82836   0.82901   0.83652   0.84626
  Beta virt. eigenvalues --    0.85535   0.86439   0.87342   0.87587   0.88286
  Beta virt. eigenvalues --    0.89121   0.90171   0.90859   0.93067   0.93130
  Beta virt. eigenvalues --    0.93987   0.94242   0.96227   0.97084   0.98220
  Beta virt. eigenvalues --    0.99595   1.00360   1.01707   1.03426   1.04416
  Beta virt. eigenvalues --    1.05742   1.06596   1.07009   1.07494   1.07762
  Beta virt. eigenvalues --    1.08588   1.09043   1.09661   1.11020   1.12369
  Beta virt. eigenvalues --    1.13192   1.14064   1.14704   1.14985   1.16193
  Beta virt. eigenvalues --    1.17433   1.17578   1.18716   1.20345   1.21714
  Beta virt. eigenvalues --    1.22321   1.22817   1.22921   1.25994   1.27243
  Beta virt. eigenvalues --    1.27958   1.29380   1.29863   1.31266   1.32327
  Beta virt. eigenvalues --    1.34728   1.37791   1.39189   1.40209   1.40468
  Beta virt. eigenvalues --    1.41288   1.42137   1.42989   1.47539   1.48339
  Beta virt. eigenvalues --    1.49217   1.50271   1.52798   1.53526   1.55850
  Beta virt. eigenvalues --    1.58423   1.58604   1.60474   1.62253   1.63505
  Beta virt. eigenvalues --    1.64257   1.64635   1.64901   1.65525   1.66395
  Beta virt. eigenvalues --    1.67044   1.67515   1.68284   1.69785   1.70036
  Beta virt. eigenvalues --    1.70697   1.71223   1.74256   1.75494   1.76828
  Beta virt. eigenvalues --    1.78312   1.79688   1.81053   1.81521   1.81841
  Beta virt. eigenvalues --    1.82278   1.83718   1.85855   1.86050   1.86943
  Beta virt. eigenvalues --    1.87517   1.87939   1.90450   1.91809   1.91908
  Beta virt. eigenvalues --    1.93464   1.94111   1.96351   1.97474   2.00305
  Beta virt. eigenvalues --    2.00998   2.02608   2.03384   2.06018   2.06593
  Beta virt. eigenvalues --    2.07171   2.08272   2.08451   2.09197   2.09440
  Beta virt. eigenvalues --    2.10723   2.11764   2.12465   2.13309   2.14601
  Beta virt. eigenvalues --    2.16642   2.16979   2.19591   2.21461   2.22129
  Beta virt. eigenvalues --    2.22932   2.24189   2.25884   2.26727   2.28813
  Beta virt. eigenvalues --    2.29134   2.32977   2.35488   2.37294   2.38800
  Beta virt. eigenvalues --    2.41976   2.42483   2.44766   2.46380   2.49045
  Beta virt. eigenvalues --    2.51147   2.52182   2.54343   2.56157   2.56485
  Beta virt. eigenvalues --    2.57653   2.59180   2.60799   2.61199   2.62105
  Beta virt. eigenvalues --    2.65311   2.69171   2.71331   2.71988   2.74286
  Beta virt. eigenvalues --    2.76546   2.77976   2.78190   2.80248   2.80441
  Beta virt. eigenvalues --    2.83383   2.83875   2.85336   2.85885   2.86912
  Beta virt. eigenvalues --    2.87099   2.88380   2.89481   2.90551   2.90664
  Beta virt. eigenvalues --    2.91319   2.92078   2.93314   2.93446   2.94371
  Beta virt. eigenvalues --    2.96057   2.96126   2.99621   3.00288   3.01276
  Beta virt. eigenvalues --    3.02523   3.02708   3.04056   3.06282   3.06779
  Beta virt. eigenvalues --    3.07242   3.09808   3.12547   3.12888   3.13881
  Beta virt. eigenvalues --    3.14455   3.19321   3.25339   3.26969   3.29607
  Beta virt. eigenvalues --    3.29837   3.32766   3.38342   3.39201   3.41159
  Beta virt. eigenvalues --    3.43777   3.45860   3.47249   3.50151   3.51069
  Beta virt. eigenvalues --    3.53160   3.55883   3.57202   3.61531   3.66555
  Beta virt. eigenvalues --    3.67743   3.69614   3.71169   3.72948   3.75159
  Beta virt. eigenvalues --    3.76241   3.77997   3.81501   3.86236   3.93497
  Beta virt. eigenvalues --    3.98808   3.99247   4.02765   4.03633   4.15240
  Beta virt. eigenvalues --    4.20894   4.24297   4.31122   4.33159   4.37274
  Beta virt. eigenvalues --    4.41313   4.45361   4.48377   4.65981   4.96509
  Beta virt. eigenvalues --    5.01161   5.02906   5.24146   5.25426   5.41869
  Beta virt. eigenvalues --    5.44352   5.89821   5.97773  23.65679  23.81218
  Beta virt. eigenvalues --   24.02442  24.04640  24.04931  24.09783  24.11146
  Beta virt. eigenvalues --   24.12582  24.14312  24.14685  24.26215  24.27676
  Beta virt. eigenvalues --   24.28195  24.30264  24.37735  24.38377  50.19774
  Beta virt. eigenvalues --   50.24695
          Condensed to atoms (all electrons):
               1          2          3          4          5          6
     1  C    5.592226  -0.217437  -0.122234  -0.103403   0.092505   0.037547
     2  C   -0.217437   9.007572  -0.801125  -0.747226   0.738637  -0.954630
     3  C   -0.122234  -0.801125  14.703834  -2.020031   0.053902  -0.319388
     4  C   -0.103403  -0.747226  -2.020031  13.902738  -1.410608  -2.230421
     5  C    0.092505   0.738637   0.053902  -1.410608  10.834514   2.876803
     6  C    0.037547  -0.954630  -0.319388  -2.230421   2.876803  18.867224
     7  C   -0.009130  -0.449996  -2.134380   2.603523  -3.514763  -0.419173
     8  O   -0.000061  -0.003689  -0.046517   0.175867   0.159582  -0.350830
     9  C    0.001454  -0.229954  -1.380265   1.310747  -1.764949  -2.693460
    10  C    0.001648   0.004051  -0.045087  -0.106554   0.164856   0.739972
    11  C    0.000195  -0.000395  -0.009962  -0.023140  -0.093928   0.058849
    12  C   -0.000690  -0.009426  -0.083069   0.046378  -0.036684  -0.329351
    13  C    0.001126  -0.013276  -0.194699  -0.109933  -0.104869  -0.947992
    14  C    0.003871  -0.016040   0.389908   0.383347  -2.747714  -7.717517
    15  C    0.035347  -0.113311   0.502436  -0.192105  -0.563574   2.098010
    16  O    0.001082   0.019357   0.208263   0.003663  -0.039721  -0.347132
    17  C    0.081055  -0.649178  -3.455460  -2.128311  -0.170747  -0.725640
    18  C    0.248632  -0.170029   0.596787  -3.451002   1.301358  -2.083073
    19  H    0.405071   0.019120  -0.063033   0.022203  -0.005916  -0.011976
    20  H    0.351517   0.019369  -0.004649  -0.021756  -0.001501  -0.009426
    21  H    0.388623   0.008452  -0.044040   0.079226   0.012854   0.007131
    22  H   -0.101612   0.576145  -0.289146   0.184118   0.065688  -0.002112
    23  H   -0.062001   0.515678  -0.062894  -0.066577  -0.036971  -0.024168
    24  H    0.004142  -0.056639   0.001201   0.494502  -0.225354  -0.062321
    25  H   -0.000455   0.013866  -0.056626  -0.212905   0.377931   0.096919
    26  H   -0.000010  -0.000409  -0.002416   0.000740  -0.012598  -0.025462
    27  H    0.000002   0.000030   0.000550  -0.000944   0.000759   0.018103
    28  H   -0.000007  -0.000076  -0.001194   0.000987  -0.000273  -0.012708
    29  H    0.000051  -0.000416  -0.008394  -0.004333   0.003129   0.029015
    30  H   -0.001310  -0.134815  -0.235529   0.149482  -0.000718   0.188326
               7          8          9         10         11         12
[...]
 4,-0.00003196,0.00021052,-0.00001815,0.00011656,0.00024053,-0.00004906
 ,-0.00004764,-0.00094609,-0.00017468,0.00017955,-0.00300921,-0.0054567
 4,-0.00115294,0.00006758,0.00015490,0.00011480,-0.00008871,0.00008701,
 -0.00009383,-0.00017189,0.00009158,-0.00035026,-0.00092647,-0.00001303
 ,0.00064686,-0.00011359,0.00033360,0.00029168,-0.13643614,0.17247266,-
 0.00010018,-0.00048852,0.00009968,-0.00073962,0.00061930,-0.00171935,0
 .00373970,-0.00133722,0.00105725,0.03981323,-0.03531003,-0.04240435,0.
 00120080,-0.00162657,0.00238111,0.00108498,-0.00065200,0.00798109,-0.0
 0000138,-0.00026923,0.00043680,0.00007227,0.00003535,0.00023779,-0.000
 01993,0.00016333,-0.00078547,-0.00000973,-0.00002835,0.00001007,0.0000
 3019,-0.00000359,0.00007530,-0.00000136,0.00000148,-0.00004128,0.00001
 684,-0.00000872,0.00011044,0.00001178,-0.00003487,0.00012500,-0.000125
 77,0.00016032,-0.00090609,0.00004626,-0.00005503,0.00003069,-0.0001101
 5,0.00015540,-0.00054668,-0.00013940,-0.00116408,0.00475277,-0.0000011
 4,0.00006753,0.00002143,-0.00006926,0.00027725,-0.00012508,-0.00036151
 ,0.00011665,-0.00030011,0.00024543,-0.00037151,-0.00020311,0.00012443,
 0.00008759,-0.00006717,-0.04422501,0.03894881,0.03425015,-0.00000587,-
 0.00006107,0.00008707,0.00019798,-0.00118914,-0.00009526,-0.00453084,-
 0.00092073,0.00131951,-0.00160209,-0.02844969,-0.00353458,-0.06671101,
 -0.05324153,-0.00433085,0.01042003,0.02332085,0.00265439,-0.00073163,0
 .00290675,0.00012390,-0.00010971,-0.00246792,-0.00042002,0.00095271,-0
 .00089731,-0.00023490,-0.00027413,-0.00012432,0.00002448,0.00008897,-0
 .00018031,-0.00003227,-0.00004658,0.00010867,0.00001795,0.00007592,-0.
 00015137,-0.00002550,-0.00000526,0.00025645,0.00004630,0.00111544,0.00
 127063,0.00001577,-0.00056661,0.00007057,0.00007584,-0.00375514,0.0019
 4205,0.00138938,-0.00102766,0.00041095,0.00007475,0.00000230,0.0000034
 0,-0.00001145,-0.00003214,0.00001903,-0.00004358,-0.00001368,0.0000429
 7,-0.00004424,0.00000573,0.00002975,0.00004269,-0.00036764,-0.00020622
 ,-0.00000130,0.00111058,0.00059578,-0.00065682,0.06579458,-0.00002482,
 -0.00005664,0.00005352,0.00027351,-0.00026562,-0.00008247,-0.00178785,
 0.00185917,-0.00076078,0.00095575,-0.00487964,-0.00137293,-0.05217052,
 -0.31908361,-0.03472626,-0.00307722,-0.01752255,-0.00279550,-0.0019130
 6,-0.00335057,0.00021741,-0.00209215,0.00258408,0.00071028,-0.00008423
 ,0.00019049,0.00002352,0.00007762,-0.00003615,-0.00002191,-0.00001647,
 0.00007839,0.00000810,0.00006343,-0.00005730,-0.00001201,-0.00006925,0
 .00008340,0.00002030,0.00016035,-0.00013350,-0.00004523,-0.00102975,-0
 .00056196,0.00005471,0.00036740,-0.00036955,-0.00008847,0.00328962,-0.
 00026454,-0.00124370,0.00064849,0.00060970,0.00014694,0.00000564,-0.00
 000100,-0.00000932,-0.00003502,0.00000562,-0.00002712,0.00000292,0.000
 02290,-0.00000364,-0.00003878,0.00000713,0.00001888,-0.00010657,-0.000
 04782,0.00000773,-0.00032392,0.00075880,0.00087526,0.05694863,0.340532
 51,-0.00003440,0.00000754,-0.00006729,-0.00015749,0.00005838,0.0003563
 5,0.00145570,-0.00049829,0.00804458,0.00073739,0.00197967,0.00408518,-
 0.00398516,-0.03468943,-0.04308323,-0.00140917,-0.00585101,0.00364802,
 -0.00049486,-0.00037350,-0.00302962,-0.00037158,0.00076612,-0.00050893
 ,-0.00012248,0.00015136,0.00012312,0.00005366,0.00000061,0.00006183,-0
 .00000517,0.00004539,0.00002491,0.00000090,-0.00002983,-0.00002099,-0.
 00000294,0.00002719,0.00000920,-0.00000862,-0.00007112,0.00003335,-0.0
 0027882,-0.00018552,-0.00006090,0.00011173,-0.00009578,-0.00003915,0.0
 0157281,-0.00111010,0.00509547,0.00016893,0.00018023,-0.00094627,-0.00
 000239,-0.00001681,-0.00000569,0.00003006,-0.00002796,-0.00001352,-0.0
 0002553,-0.00002371,0.00000821,0.00004053,-0.00005054,-0.00005728,-0.0
 0006891,-0.00001110,-0.00011958,-0.00077129,0.00078249,-0.00481600,0.0
 0366593,0.03894060,0.03210519,-0.00000580,-0.00000367,-0.00000131,0.00
 001963,0.00001512,-0.00000138,-0.00009712,-0.00010258,-0.00000694,0.00
 015008,0.00016148,0.00000803,-0.00022768,0.00018456,0.00006279,0.00119
 966,0.00056533,-0.00005550,-0.00145408,-0.00360047,-0.00069311,0.00179
 634,0.00286964,0.00009800,0.00002610,-0.03028851,-0.00365822,-0.064033
 01,-0.04484017,-0.00311643,0.00738618,0.02388634,0.00284647,-0.0029582
 2,0.00247724,0.00166029,-0.00113870,0.00026502,0.00005210,-0.00518232,
 -0.00039791,0.00123470,0.00084242,-0.00175500,-0.00034995,-0.00069622,
 0.00002374,0.00008573,-0.00015925,-0.00025895,-0.00001338,0.00014486,0
 .00013109,0.00000519,-0.00000101,-0.00000046,0.00000050,-0.00000074,0.
 00000152,-0.00000102,-0.00000214,0.00000258,-0.00000153,-0.00000841,-0
 .00000032,0.00000458,0.00000134,0.00000228,-0.00000018,0.00001414,0.00
 000273,-0.00000427,-0.00009738,0.00001931,0.00001856,0.06318451,-0.000
 00922,-0.00000587,0.00000901,0.00001986,0.00001449,-0.00001396,-0.0000
 3015,-0.00000873,0.00001253,-0.00001667,0.00001586,0.00000092,-0.00000
 882,-0.00007661,-0.00002091,-0.00027055,-0.00003003,0.00001472,0.00123
 393,-0.00279526,-0.00010724,0.00255217,0.00085810,-0.00008988,-0.00391
 134,-0.00816691,-0.00125053,-0.04595953,-0.32229829,-0.03363894,-0.005
 52681,-0.01275890,-0.00160179,0.00336222,0.00022288,-0.00148854,-0.000
 03549,0.00070815,0.00023978,-0.00171037,0.00110758,-0.00042022,0.00052
 126,-0.00030890,-0.00009680,-0.00026708,-0.00024841,-0.00000035,-0.000
 14901,0.00000184,0.00001361,0.00003363,0.00002015,-0.00000149,0.000004
 90,-0.00000088,0.00000005,-0.00001892,-0.00000373,-0.00000530,0.000003
 51,0.00000292,0.00000096,-0.00001664,0.00000321,0.00000641,-0.00000356
 ,-0.00000843,-0.00000123,-0.00002566,0.00000803,0.00000709,0.00002540,
 0.00003212,-0.00000091,0.05004800,0.34370113,-0.00000377,-0.00000200,0
 .00000369,0.00000081,0.00000219,-0.00000212,0.00000896,0.00001252,-0.0
 0001528,-0.00002060,-0.00002006,0.00001812,0.00003600,-0.00004385,0.00
 007152,-0.00017052,-0.00008168,0.00009229,-0.00002549,0.00046789,-0.00
 302498,0.00005876,-0.00012315,-0.00071744,-0.00003385,0.00188595,0.004
 57377,-0.00326680,-0.03377354,-0.04257532,-0.00120266,-0.00510408,0.00
 310177,0.00178137,-0.00138220,0.00771855,0.00001143,0.00020410,-0.0009
 7395,0.00105225,-0.00057430,0.00542071,-0.00003666,0.00017576,-0.00003
 154,0.00004522,-0.00003685,-0.00001963,0.00000308,0.00002464,0.0000363
 7,-0.00001449,-0.00001299,-0.00000373,0.00000103,-0.00000219,-0.000001
 43,-0.00000259,-0.00000093,-0.00000234,0.00000050,0.00000241,0.0000013
 8,0.00000074,0.00000039,-0.00000150,-0.00000052,0.00000036,0.00000017,
 -0.00000671,0.00000357,-0.00001555,0.00001826,-0.00000114,0.00001846,0
 .00255931,0.03768576,0.03167808,-0.00001236,-0.00000602,0.00001147,0.0
 0003388,0.00001637,-0.00002085,0.00001001,-0.00001356,0.00000293,-0.00
 011889,0.00006991,0.00003137,-0.00002505,-0.00019543,-0.00002286,-0.00
 043301,0.00057312,0.00003244,-0.00054355,-0.00157097,-0.00008985,0.000
 01246,0.00040172,0.00008054,-0.00104648,0.00432899,0.00166288,-0.01938
 819,-0.01116942,0.00109018,-0.29229898,-0.08711471,0.01903344,-0.00273
 320,0.00110124,0.00060163,0.00197592,-0.00149323,0.00022375,0.00023778
 ,0.00070773,0.00001048,0.00021600,0.00025307,-0.00011383,-0.00021867,-
 0.00032848,-0.00001158,0.00007123,-0.00005293,0.00000705,-0.00003271,0
 .00002166,0.00001743,0.00000841,-0.00000143,0.00000068,-0.00003125,-0.
 00000753,-0.00000730,0.00000656,0.00000480,0.00000239,-0.00002270,0.00
 000804,0.00000990,-0.00000410,-0.00001406,-0.00000360,-0.00004457,0.00
 001022,0.00000801,0.00001984,0.00002082,-0.00000089,0.00102769,0.00043
 546,-0.00064515,0.31285631,-0.00000485,0.00000012,0.00000343,0.0000205
 6,0.00000652,-0.00000786,0.00001790,-0.00013036,-0.00001353,0.00005069
 ,0.00009791,-0.00000216,-0.00000548,0.00007713,0.00000909,0.00043260,-
 0.00013287,0.00003891,0.00032307,0.00093872,0.00001857,-0.00008813,-0.
 00007845,-0.00003049,0.00294734,-0.00221702,-0.00174182,0.01982350,0.0
 1051644,-0.00127881,-0.08732200,-0.08995178,0.00239363,-0.03000909,-0.
 00478527,0.00277857,0.00012611,-0.00587902,-0.00159634,0.00085273,-0.0
 0070055,-0.00012946,-0.00029894,-0.00007346,0.00016806,-0.00016737,0.0
 0018111,0.00003624,0.00005314,-0.00021762,-0.00006298,-0.00009372,0.00
 005086,0.00000853,0.00000303,-0.00000023,0.00000144,-0.00001076,-0.000
 00184,-0.00000228,0.00000120,0.00000186,-0.00000054,-0.00001021,0.0000
 0530,0.00000636,0.00000023,-0.00000377,-0.00000226,0.00000807,0.000008
 78,-0.00000010,-0.00000677,0.00000085,0.00000350,-0.00053812,0.0007980
 6,0.00084644,0.09448197,0.09086339,0.00000027,0.00000178,-0.00000177,-
 0.00000551,-0.00000197,-0.00000725,0.00000081,-0.00001052,-0.00001270,
 0.00002780,-0.00000312,0.00005492,0.00000585,0.00003200,0.00002603,0.0
 0001702,0.00002850,-0.00081333,0.00016843,0.00023946,0.00053967,0.0000
 1383,-0.00008723,0.00020750,0.00147109,-0.00190495,0.00746873,0.005350
 19,0.00241199,0.00234293,0.01901368,0.00237136,-0.03374476,-0.00368462
 ,-0.00093134,0.00133108,0.00044817,-0.00140231,0.00534482,0.00003184,-
 0.00011337,-0.00051429,-0.00019039,0.00010162,-0.00099574,0.00001026,0
 .00005443,0.00006992,0.00002128,-0.00004876,0.00017828,-0.00000104,-0.
 00000685,0.00008227,-0.00000045,-0.00000158,-0.00000043,0.00000186,0.0
 0000107,0.00000055,-0.00000087,0.00000117,-0.00000028,0.00000443,-0.00
 000643,-0.00000268,-0.00000078,0.00000299,0.00000167,0.00000888,-0.000
 00074,0.00000099,-0.00000550,-0.00000041,-0.00001455,-0.00077832,0.000
 73098,-0.00469454,-0.02150727,-0.00192714,0.02540972,-0.00001581,-0.00
 000957,0.00001496,0.00002194,0.00003908,-0.00001567,-0.00010316,-0.000
 00410,0.00002804,-0.00003283,-0.00003208,-0.00000173,0.00001904,-0.000
 00997,0.00000367,0.00002630,-0.00004307,0.00001382,0.00021674,-0.00033
 633,-0.00019634,0.00000005,0.00040689,0.00006482,-0.00042391,-0.000814
 83,-0.00012028,0.00137598,-0.00145747,0.00030032,0.00680247,-0.0053817
 7,-0.00141869,-0.20905506,0.12721159,0.03859267,-0.01865997,0.02174588
 ,0.00553470,-0.00378133,-0.00411398,0.00083662,0.00005572,0.00187787,0
 .00031095,-0.00010648,-0.00038893,-0.00001354,-0.00072252,-0.00033713,
 -0.00005800,0.00003569,0.00021446,0.00002697,0.00000847,-0.00000091,-0
 .00000157,-0.00003070,-0.00000615,-0.00000864,0.00000589,0.00000338,0.
 00000150,-0.00002926,0.00000411,0.00000933,-0.00000319,-0.00001497,-0.
 00000175,-0.00002217,0.00001540,0.00000447,0.00000336,0.00001415,0.000
 00229,0.00014837,-0.00028935,-0.00002121,0.00073740,0.00074762,-0.0003
 0551,0.22241571,0.00001106,0.00000330,-0.00000995,-0.00003614,-0.00001
 152,0.00002013,-0.00000927,0.00012951,-0.00000276,-0.00003261,-0.00010
 625,-0.00000490,0.00008749,0.00002687,-0.00001832,-0.00013568,-0.00018
 280,-0.00003313,0.00022375,-0.00007555,0.00010712,0.00023536,-0.000012
 90,-0.00004005,-0.00096461,-0.00010609,0.00017481,-0.00307258,-0.00532
 960,-0.00114043,0.02571650,-0.01348574,-0.00507016,0.12742696,-0.16581
 386,-0.03358514,-0.00924314,0.00983439,0.00208608,-0.00274318,0.000282
 36,-0.00073402,0.00001305,0.00037049,-0.00002257,0.00008889,0.00004119
 ,-0.00003579,-0.00022658,0.00014025,0.00015703,0.00005045,0.00000093,-
 0.00000671,-0.00000588,0.00000087,-0.00000029,0.00002279,0.00000404,0.
 00000548,-0.00000367,-0.00000321,-0.00000053,0.00001742,-0.00000509,-0
 .00000841,0.00000451,0.00001023,0.00000151,0.00001525,-0.00001047,-0.0
 0000258,-0.00001447,-0.00000365,0.00000094,0.00118001,-0.00064724,-0.0
 0027156,-0.00056841,0.00090038,0.00056215,-0.13866193,0.17330645,0.000
 00294,0.00000370,-0.00000192,-0.00001107,-0.00000778,0.00000952,0.0000
 2586,0.00000321,0.00007343,-0.00000295,-0.00000575,-0.00002066,0.00001
 687,-0.00000477,0.00005792,0.00000301,-0.00004826,0.00019892,-0.000118
 09,0.00017041,-0.00099690,0.00004122,-0.00005902,0.00005772,-0.0001428
 6,0.00015307,-0.00047591,0.00007934,-0.00132960,0.00540049,0.00286172,
 -0.00136825,0.00056232,0.03862074,-0.03355565,-0.04122714,0.00126911,-
 0.00160393,0.00231274,0.00102752,-0.00057089,0.00778372,0.00005593,-0.
 00024571,0.00047167,0.00005168,0.00002383,0.00022137,-0.00004432,0.000
 17206,-0.00078748,0.00000332,-0.00002272,0.00000344,-0.00000165,-0.000
 00165,-0.00000095,0.00000650,0.00000173,0.00000168,-0.00000132,0.00000
 060,-0.00000009,0.00000541,-0.00000403,-0.00000595,0.00000101,0.000004
 55,0.00000015,0.00000381,-0.00000195,-0.00000818,-0.00000273,-0.000002
 07,-0.00000111,0.00018060,-0.00009595,0.00026827,-0.00048640,0.0004046
 9,-0.00257114,-0.04281151,0.03716789,0.03340881,0.00000068,0.00000758,
 -0.00000240,-0.00000324,-0.00001337,-0.00000046,0.00008035,-0.00016416
 ,-0.00003782,-0.00005354,0.00009437,0.00001976,0.00009191,-0.00015032,
 -0.00003234,-0.00001866,0.00025146,0.00004278,0.00111625,0.00126281,0.
 00002960,-0.00056179,0.00006592,0.00007537,-0.00375126,0.00193913,0.00
 138742,-0.00097766,0.00038997,0.00005050,-0.00464754,-0.00102339,0.001
 38127,-0.00149926,-0.02842914,-0.00329904,-0.06742162,-0.05479811,-0.0
 0406522,0.01057818,0.02325652,0.00244803,-0.00082768,0.00289048,0.0001
 3385,-0.00015452,-0.00242706,-0.00040280,0.00095033,-0.00090169,-0.000
 23605,-0.00026816,-0.00013568,0.00003276,-0.00000336,0.00000063,-0.000
 00166,0.00001214,0.00000345,0.00000316,-0.00000148,-0.00000417,-0.0000
 0022,0.00001566,-0.00000229,-0.00000442,-0.00000306,0.00000059,0.00000
 203,0.00000343,-0.00001540,-0.00000326,0.00002354,-0.00001736,-0.00000
 639,0.00008948,0.00000813,-0.00012277,-0.00026222,-0.00134679,-0.00011
 690,0.00110124,0.00062147,-0.00063047,0.06649141,0.00000923,-0.0000009
 3,-0.00000779,-0.00001395,-0.00001019,0.00001099,-0.00002082,0.0000774
 6,0.00000987,0.00007722,-0.00005342,-0.00001666,-0.00007971,0.00008767
 ,0.00002152,0.00016705,-0.00014553,-0.00004425,-0.00103661,-0.00057271
 ,0.00005721,0.00037088,-0.00036473,-0.00009391,0.00326426,-0.00019078,
 -0.00119470,0.00070387,0.00055482,0.00013095,-0.00190914,0.00178893,-0
 .00064087,0.00098205,-0.00467552,-0.00126333,-0.05367807,-0.31927536,-
 0.03223778,-0.00313602,-0.01774647,-0.00265247,-0.00191271,-0.00337711
 ,0.00018288,-0.00215038,0.00260206,0.00071085,-0.00008351,0.00019318,0
 .00003505,0.00008115,-0.00003469,-0.00003186,-0.00000415,0.00000153,0.
 00000094,0.00001374,0.00000305,0.00000408,-0.00000320,-0.00000059,-0.0
 0000139,0.00000982,-0.00000447,-0.00000336,0.00000199,0.00000820,0.000
 00162,0.00001521,-0.00000402,-0.00000223,-0.00001692,-0.00001537,0.000
 00041,-0.00005064,-0.00011239,0.00012149,0.00012098,-0.00027149,-0.000
 09492,-0.00034959,0.00073342,0.00081606,0.05860740,0.34077098,-0.00000
 814,-0.00000012,0.00000612,0.00000098,-0.00000072,-0.00001829,-0.00001
 517,0.00003210,-0.00000047,0.00001979,-0.00001886,-0.00000063,-0.00002
 457,0.00003153,0.00000661,0.00003053,-0.00005620,0.00002648,-0.0002891
 9,-0.00021220,-0.00009343,0.00011741,-0.00005870,-0.00002511,0.0015714
 5,-0.00103890,0.00532598,0.00009480,0.00016711,-0.00098800,0.00125756,
 -0.00074691,0.00785865,0.00074564,0.00224086,0.00387569,-0.00391335,-0
 .03210127,-0.04222994,-0.00118079,-0.00580194,0.00362634,-0.00052146,-
 0.00039256,-0.00302073,-0.00036693,0.00074675,-0.00056217,-0.00012564,
 0.00013302,0.00004637,0.00006004,-0.00000420,0.00011668,0.00000027,-0.
 00000265,-0.00000290,-0.00000154,0.00000016,-0.00000281,-0.00000036,0.
 00000134,-0.00000042,0.00000599,-0.00000041,-0.00000289,0.00000257,0.0
 0000305,0.00000189,0.00000142,0.00000192,-0.00000288,-0.00000563,0.000
 00045,-0.00000202,-0.00013085,0.00011470,-0.00092159,0.00008556,0.0000
 7967,0.00031699,-0.00076417,0.00070187,-0.00472083,0.00333729,0.036182
 49,0.03137278,-0.00015953,0.00000423,0.00002716,0.00131999,0.00151747,
 -0.00087359,0.00589177,0.02222478,0.00285245,-0.00308240,0.00266076,0.
 00160824,-0.00105688,0.00014997,0.00001224,-0.00516558,-0.00028598,0.0
 0124140,0.00085789,-0.00175899,-0.00034128,-0.00069375,0.00003068,0.00
 008502,-0.00017957,-0.00025227,-0.00000580,0.00016939,0.00012769,-0.00
 000109,-0.00011503,-0.00007668,0.00000017,0.00014237,0.00014760,0.0000
 0583,-0.00022391,0.00018773,0.00006522,0.00120488,0.00057998,-0.000061
 95,-0.00155038,-0.00368660,-0.00065471,0.00181139,0.00290800,0.0000707
 4,-0.00002834,-0.03031159,-0.00371943,-0.06258411,-0.04223739,-0.00252
 474,-0.00004488,0.00003202,-0.00006666,-0.00000978,0.00000284,-0.00001
 642,0.00006478,-0.00006917,0.00005200,0.00022965,-0.00023823,-0.000056
 34,-0.00018082,-0.00042559,0.00021898,0.00024701,0.00120746,0.00017040
 ,0.00006640,-0.00006067,-0.00011238,0.00003126,0.00000072,-0.00000390,
 0.00000244,0.00001246,0.00000146,0.00001200,0.00000320,-0.00000323,-0.
 00009957,0.00002059,0.00001648,0.06312331,0.00038757,0.00013559,-0.000
 01087,-0.00146555,0.00048853,0.00105512,-0.00517964,-0.01471036,-0.001
 86296,0.00320806,0.00021246,-0.00124794,0.00006483,0.00060471,0.000192
 63,-0.00177525,0.00119761,-0.00034795,0.00053603,-0.00030103,-0.000089
 42,-0.00027694,-0.00027798,-0.00000143,-0.00016320,-0.00000650,0.00001
 458,0.00005162,0.00001955,-0.00000626,-0.00005764,-0.00000795,0.000006
 20,-0.00000950,0.00002336,0.00000711,-0.00001503,-0.00008154,-0.000023
 95,-0.00027303,-0.00001885,0.00001955,0.00127395,-0.00282585,-0.000144
 57,0.00256270,0.00087691,-0.00008653,-0.00405884,-0.00849963,-0.001271
 50,-0.04290079,-0.31882516,-0.03236997,0.00012195,-0.00006847,0.000137
 76,0.00003072,0.00001164,0.00010689,-0.00012008,0.00009464,-0.00007983
 ,-0.00025844,0.00043054,-0.00003126,0.00095081,0.00079071,-0.00024884,
 -0.00017679,-0.00070460,-0.00016072,-0.00002411,-0.00011568,0.00009121
 ,0.00000080,-0.00002394,-0.00000297,-0.00001992,-0.00000370,0.00000215
 ,-0.00002830,0.00000930,0.00000616,0.00002903,0.00003449,-0.00000135,0
 .04758499,0.34154121,-0.00067058,0.00015108,0.00027092,-0.00114116,-0.
 00021417,-0.00446100,-0.00012385,-0.00506802,0.00365119,0.00164531,-0.
 00151275,0.00684973,0.00002381,0.00022133,-0.00097372,0.00106935,-0.00
 057932,0.00540005,-0.00003848,0.00016330,-0.00000769,0.00004977,-0.000
 02306,-0.00002112,-0.00000690,0.00003603,0.00005006,-0.00000642,-0.000
 01446,-0.00000383,0.00000331,0.00001662,-0.00000087,-0.00001891,-0.000
 02371,0.00000131,0.00004342,-0.00004860,0.00009710,-0.00018596,-0.0000
 9391,0.00004571,0.00001947,0.00046240,-0.00293376,0.00003834,-0.000134
 98,-0.00073975,-0.00014679,0.00192771,0.00428627,-0.00296787,-0.032065
 43,-0.04187022,-0.00010621,-0.00002686,-0.00012412,-0.00009893,-0.0000
 2146,-0.00024558,-0.00000460,0.00000792,-0.00007474,0.00057937,-0.0000
 3334,0.00004040,0.00020199,0.00067261,0.00012082,-0.00006450,-0.000260
 73,0.00037074,-0.00011157,0.00011526,-0.00082778,-0.00000444,-0.000002
 48,-0.00000221,-0.00000256,-0.00000136,-0.00000262,-0.00000653,0.00000
 231,-0.00001392,0.00001840,-0.00000090,0.00001453,0.00201371,0.0363489
 7,0.03110410\\-0.00000737,0.00000592,0.00000985,0.00000577,0.00000321,
 -0.00000782,-0.00000997,0.00001360,-0.00000642,-0.00001663,-0.00001157
 ,0.00000134,0.00001567,-0.00001412,-0.00000242,-0.00001194,0.00001720,
 0.00000475,0.00000314,0.00001707,-0.00000419,-0.00000235,-0.00001367,-
 0.00000092,0.00001403,0.00003233,0.00000393,-0.00001922,-0.00000869,0.
 00000056,0.00000852,-0.00002373,-0.00000466,0.00001404,0.00002404,0.00
 000157,-0.00002469,0.00002098,0.00000634,0.00001352,-0.00004791,-0.000
 00610,0.00000607,0.00000106,-0.00000599,-0.00000049,0.00000314,0.00000
 337,-0.00001435,-0.00001206,0.00000280,0.00001512,0.00000823,0.0000031
 1,0.00000557,-0.00000324,-0.00000052,0.00000181,-0.00000559,0.00000375
 ,0.00000693,-0.00000248,-0.00000371,0.00000048,-0.00000063,0.00000522,
 -0.00000304,-0.00000630,-0.00000033,0.00000594,0.00000179,-0.00000162,
 -0.00000055,0.00000157,-0.00000212,-0.00000049,0.00000226,-0.00000092,
 -0.00000248,0.00000498,0.00000028,-0.00000259,-0.00000318,0.00000050,-
 0.00000018,-0.00000268,0.00000034,-0.00000025,-0.00000148,0.00000004\\
 \@


 THE DIFFERENCE BETWEEN A NOOSE AND A HALO IS ONLY 12 INCHES.
 Job cpu time:       0 days  8 hours  8 minutes 22.8 seconds.
 Elapsed time:       0 days  1 hours  2 minutes  0.7 seconds.
 File lengths (MBytes):  RWF=   1218 Int=      0 D2E=      0 Chk=     27 Scr=      1
 Normal termination of Gaussian 16 at Thu Dec 21 07:58:10 2023.
