
Running Job 1 of 1 314-an-SM12.in
qchem 314-an-SM12.in_153296.0 /expanse/lustre/scratch/selhajj/temp_project/qcscratch/28447565/qchem153296/ 0
/cm/shared/apps/spack/cpu/opt/spack/linux-centos8-zen2/gcc-10.2.0/qchem-5.4-akfmr7b3t57bfs6qan3padb2wnb2i7cl/exe/qcprog.exe_s 314-an-SM12.in_153296.0 /expanse/lustre/scratch/selhajj/temp_project/qcscratch/28447565/qchem153296/
                  Welcome to Q-Chem
     A Quantum Leap Into The Future Of Chemistry


 Q-Chem 5.4, Q-Chem, Inc., Pleasanton, CA (2021)

 License issued to: University of California, San Diego (site)

 E. Epifanovsky,  A. T. B. Gilbert,  Xintian Feng,  Joonho Lee,  Yuezhi Mao,  
 N. Mardirossian,  P. Pokhilko,  A. White,  M. Wormit,  M. P. Coons,  
 A. L. Dempwolff,  Zhengting Gan,  D. Hait,  P. R. Horn,  L. D. Jacobson,  
 I. Kaliman,  J. Kussmann,  A. W. Lange,  Ka Un Lao,  D. S. Levine,  Jie Liu,  
 S. C. McKenzie,  A. F. Morrison,  K. Nanda,  F. Plasser,  D. R. Rehn,  
 M. L. Vidal,  Zhi-Qiang You,  Ying Zhu,  B. Alam,  B. Albrecht,  
 A. Aldossary,  E. Alguire,  J. H. Andersen,  D. Barton,  K. Begam,  A. Behn,  
 Y. A. Bernard,  E. J. Berquist,  H. Burton,  A. Carreras,  K. Carter-Fenk,  
 R. Chakraborty,  A. D. Chien,  K. D. Closser,  V. Cofer-Shabica,  
 S. Dasgupta,  Jia Deng,  M. de Wergifosse,  M. Diedenhofen,  Hainam Do,  
 S. Ehlert,  Po-Tung Fang,  S. Fatehi,  Qingguo Feng,  J. Gayvert,  
 Qinghui Ge,  G. Gidofalvi,  M. Goldey,  J. Gomes,  C. Gonzalez-Espinoza,  
 S. Gulania,  A. Gunina,  M. W. D. Hanson-Heine,  P. H. P. Harbach,  
 A. W. Hauser,  M. F. Herbst,  M. Hernandez Vera,  M. Hodecker,  
 Z. C. Holden,  S. Houck,  Xunkun Huang,  Kerwin Hui,  B. C. Huynh,  
 M. Ivanov,  Hyunjun Ji,  Hanjie Jiang,  B. Kaduk,  S. Kaehler,  
 K. Khistyaev,  Jaehoon Kim,  P. Klunzinger,  Z. Koczor-Benda,  
 Joong Hoon Koh,  D. Kosenkov,  L. Koulias,  T. Kowalczyk,  C. M. Krauter,  
 K. Kue,  A. Kunitsa,  T. Kus,  A. Landau,  K. V. Lawler,  D. Lefrancois,  
 S. Lehtola,  Rain Li,  Yi-Pei Li,  Jiashu Liang,  M. Liebenthal,  
 Hung-Hsuan Lin,  You-Sheng Lin,  Fenglai Liu,  Kuan-Yu Liu,  
 M. Loipersberger,  A. Luenser,  A. Manjanath,  P. Manohar,  E. Mansoor,  
 S. F. Manzer,  Shan-Ping Mao,  A. V. Marenich,  T. Markovich,  S. Mason,  
 S. A. Maurer,  P. F. McLaughlin,  M. F. S. J. Menger,  J.-M. Mewes,  
 S. A. Mewes,  P. Morgante,  J. W. Mullinax,  T. S. Nguyen-Beck,  
 K. J. Oosterbaan,  G. Paran,  Alexander C. Paul,  Suranjan K. Paul,  
 F. Pavosevic,  Zheng Pei,  S. Prager,  E. I. Proynov,  E. Ramos,  B. Rana,  
 A. E. Rask,  A. Rettig,  R. M. Richard,  F. Rob,  E. Rossomme,  T. Scheele,  
 M. Scheurer,  M. Schneider,  N. Sergueev,  S. M. Sharada,  W. Skomorowski,  
 D. W. Small,  C. J. Stein,  Yu-Chuan Su,  E. J. Sundstrom,  Zhen Tao,  
 J. Thirman,  T. Tsuchimochi,  N. M. Tubman,  S. P. Veccham,  O. Vydrov,  
 J. Wenzel,  J. Witte,  A. Yamada,  Kun Yao,  S. Yeganeh,  S. R. Yost,  
 A. Zech,  Igor Ying Zhang,  Xing Zhang,  Yu Zhang,  D. Zuev,  
 A. Aspuru-Guzik,  A. T. Bell,  N. A. Besley,  K. B. Bravaya,  B. R. Brooks,  
 D. Casanova,  Jeng-Da Chai,  S. Coriani,  C. J. Cramer,  
 A. E. DePrince, III,  R. A. DiStasio Jr.,  A. Dreuw,  B. D. Dunietz,  
 T. R. Furlani,  W. A. Goddard III,  S. Grimme,  S. Hammes-Schiffer,  
 T. Head-Gordon,  W. J. Hehre,  Chao-Ping Hsu,  T.-C. Jagau,  Yousung Jung,  
 A. Klamt,  Jing Kong,  D. S. Lambrecht,  WanZhen Liang,  N. J. Mayhall,  
 C. W. McCurdy,  J. B. Neaton,  C. Ochsenfeld,  J. A. Parkhill,  R. Peverati,  
 V. A. Rassolov,  Yihan Shao,  L. V. Slipchenko,  T. Stauch,  R. P. Steele,  
 J. E. Subotnik,  A. J. W. Thom,  A. Tkatchenko,  D. G. Truhlar,  
 T. Van Voorhis,  T. A. Wesolowski,  K. B. Whaley,  H. L. Woodcock III,  
 P. M. Zimmerman,  S. Faraji,  P. M. W. Gill,  M. Head-Gordon,  
 J. M. Herbert,  A. I. Krylov

 Contributors to earlier versions of Q-Chem not listed above: 
 R. D. Adamson,  B. Austin,  R. Baer,  J. Baker,  G. J. O. Beran,  
 K. Brandhorst,  S. T. Brown,  E. F. C. Byrd,  A. K. Chakraborty,  
 G. K. L. Chan,  Chun-Min Chang,  Yunqing Chen,  C.-L. Cheng,  
 Siu Hung Chien,  D. M. Chipman,  D. L. Crittenden,  H. Dachsel,  
 R. J. Doerksen,  A. D. Dutoi,  R. G. Edgar,  J. Fosso-Tande,  
 L. Fusti-Molnar,  D. Ghosh,  A. Ghysels,  A. Golubeva-Zadorozhnaya,  
 J. Gonthier,  M. S. Gordon,  S. R. Gwaltney,  G. Hawkins,  J. E. Herr,  
 A. Heyden,  S. Hirata,  E. G. Hohenstein,  G. Kedziora,  F. J. Keil,  
 C. Kelley,  Jihan Kim,  R. A. King,  R. Z. Khaliullin,  P. P. Korambath,  
 W. Kurlancheek,  A. Laurent,  A. M. Lee,  M. S. Lee,  S. V. Levchenko,  
 Ching Yeh Lin,  D. Liotard,  E. Livshits,  R. C. Lochan,  I. Lotan,  
 L. A. Martinez-Martinez,  P. E. Maslen,  N. Nair,  D. P. O'Neill,  
 D. Neuhauser,  E. Neuscamman,  C. M. Oana,  R. Olivares-Amaya,  R. Olson,  
 T. M. Perrine,  B. Peters,  P. A. Pieniazek,  A. Prociuk,  Y. M. Rhee,  
 J. Ritchie,  M. A. Rohrdanz,  E. Rosta,  N. J. Russ,  H. F. Schaefer III,  
 M. W. Schmidt,  N. E. Schultz,  S. Sharma,  N. Shenvi,  C. D. Sherrill,  
 A. C. Simmonett,  A. Sodt,  T. Stein,  D. Stuck,  K. S. Thanthiriwatte,  
 V. Vanovschi,  L. Vogt,  Tao Wang,  A. Warshel,  M. A. Watson,  
 C. F. Williams,  Q. Wu,  X. Xu,  Jun Yang,  W. Zhang,  Yan Zhao

 Please cite Q-Chem as follows:
 Y. Shao et al., Mol. Phys. 113, 184-215 (2015)
 DOI: 10.1080/00268976.2014.952696

 Q-Chem 5.4.0 for Intel X86 EM64T Linux

 Parts of Q-Chem use Armadillo 9.800.1 (Horizon Scraper).
 http://arma.sourceforge.net/

 Q-Chem begins on Sat Feb  3 14:20:03 2024  

 Host: 
0

     Scratch files written to /expanse/lustre/scratch/selhajj/temp_project/qcscratch/28447565/qchem153296//
 May1621 |scratch|qcdevops|jenkins|workspace|build_RNUM    
 Processing $rem in /cm/shared/apps/spack/cpu/opt/spack/linux-centos8-zen2/gcc-10.2.0/qchem-5.4-akfmr7b3t57bfs6qan3padb2wnb2i7cl/config/preferences:
 Processing $rem in /home/selhajj/.qchemrc:
 Symmetry turned off for PCM/SM12/SMD calculation
 Method-specific promolecule density matrix will be built for SM12 calculation

 Checking the input file for inconsistencies... 	...done.

--------------------------------------------------------------
User input:
--------------------------------------------------------------
$molecule
-2 1
C                 -4.4363580000     -0.5323060000     -3.5517020000
C                 -3.5501230000     -0.9481190000     -4.5284010000
C                 -2.1581250000     -0.8071200000     -4.3208310000
C                 -3.9918150000      0.0347360000     -2.3346210000
C                 -2.5829080000      0.1743360000     -2.1260890000
C                 -1.6979100000     -0.2558860000     -3.1376170000
C                 -4.9768160000      0.4562550000     -1.3378180000
C                 -4.4384090000      1.0099600000     -0.1374460000
C                 -3.0313210000      1.1591940000      0.0496560000
C                 -2.0340870000      0.7639670000     -0.8992960000
O                 -6.2380310000      0.3183970000     -1.5565870000
O                 -0.7781960000      0.8788870000     -0.7172070000
H                 -5.5100960000     -0.6247590000     -3.6786100000
H                 -3.9212780000     -1.3820890000     -5.4550360000
H                 -1.4551240000     -1.1323420000     -5.0849490000
H                 -0.6374830000     -0.1324590000     -2.9425110000
C                 -5.4313030000      1.4259290000      0.9181940000
S                 -2.4451230000      2.0592730000      1.4896410000
C                 -1.6561890000      0.8837340000      2.5627180000
C                 -1.3267340000      1.2725940000      3.8519250000
C                 -0.6922040000      0.3893340000      4.7578000000
C                 -0.3801560000     -0.9439910000      4.3291720000
C                 -0.7216010000     -1.3138020000      3.0005460000
C                 -1.3355720000     -0.4378540000      2.1393860000
C                 -0.3542030000      0.7653200000      6.0878080000
C                  0.2642960000     -0.1153040000      6.9477060000
C                  0.5705630000     -1.4298450000      6.5223980000
C                  0.2502960000     -1.8273880000      5.2416710000
H                 -5.4989730000      2.5191790000      1.0247840000
H                 -5.1676980000      1.0358430000      1.9082800000
H                 -6.4141050000      1.0542840000      0.6207220000
H                 -1.5679610000      2.2777330000      4.1881090000
H                 -0.4768850000     -2.3167940000      2.6603960000
H                 -1.5744880000     -0.7231990000      1.1239580000
H                 -0.5900330000      1.7739580000      6.4171260000
H                  0.5220700000      0.1958420000      7.9573800000
H                  1.0586690000     -2.1181650000      7.2074300000
H                  0.4824250000     -2.8361770000      4.9095450000
$end

$rem
BASIS  =  6-311++G(d,p)
GUI  =  2
JOB_TYPE  =  SP
METHOD  =  B3LYP
SCF_CONVERGENCE  = 8
SOLVENT_METHOD = sm12
$end

$smx
solvent dimethylformamide
charges CM5
$end





--------------------------------------------------------------
 ----------------------------------------------------------------
             Standard Nuclear Orientation (Angstroms)
    I     Atom           X                Y                Z
 ----------------------------------------------------------------
    1      C      -4.4363580000    -0.5323060000    -3.5517020000
    2      C      -3.5501230000    -0.9481190000    -4.5284010000
    3      C      -2.1581250000    -0.8071200000    -4.3208310000
    4      C      -3.9918150000     0.0347360000    -2.3346210000
    5      C      -2.5829080000     0.1743360000    -2.1260890000
    6      C      -1.6979100000    -0.2558860000    -3.1376170000
    7      C      -4.9768160000     0.4562550000    -1.3378180000
    8      C      -4.4384090000     1.0099600000    -0.1374460000
    9      C      -3.0313210000     1.1591940000     0.0496560000
   10      C      -2.0340870000     0.7639670000    -0.8992960000
   11      O      -6.2380310000     0.3183970000    -1.5565870000
   12      O      -0.7781960000     0.8788870000    -0.7172070000
   13      H      -5.5100960000    -0.6247590000    -3.6786100000
   14      H      -3.9212780000    -1.3820890000    -5.4550360000
   15      H      -1.4551240000    -1.1323420000    -5.0849490000
   16      H      -0.6374830000    -0.1324590000    -2.9425110000
   17      C      -5.4313030000     1.4259290000     0.9181940000
   18      S      -2.4451230000     2.0592730000     1.4896410000
   19      C      -1.6561890000     0.8837340000     2.5627180000
   20      C      -1.3267340000     1.2725940000     3.8519250000
   21      C      -0.6922040000     0.3893340000     4.7578000000
   22      C      -0.3801560000    -0.9439910000     4.3291720000
   23      C      -0.7216010000    -1.3138020000     3.0005460000
   24      C      -1.3355720000    -0.4378540000     2.1393860000
   25      C      -0.3542030000     0.7653200000     6.0878080000
   26      C       0.2642960000    -0.1153040000     6.9477060000
   27      C       0.5705630000    -1.4298450000     6.5223980000
   28      C       0.2502960000    -1.8273880000     5.2416710000
   29      H      -5.4989730000     2.5191790000     1.0247840000
   30      H      -5.1676980000     1.0358430000     1.9082800000
   31      H      -6.4141050000     1.0542840000     0.6207220000
   32      H      -1.5679610000     2.2777330000     4.1881090000
   33      H      -0.4768850000    -2.3167940000     2.6603960000
   34      H      -1.5744880000    -0.7231990000     1.1239580000
   35      H      -0.5900330000     1.7739580000     6.4171260000
   36      H       0.5220700000     0.1958420000     7.9573800000
   37      H       1.0586690000    -2.1181650000     7.2074300000
   38      H       0.4824250000    -2.8361770000     4.9095450000
 ----------------------------------------------------------------
 Nuclear Repulsion Energy =        1961.37267568 hartrees
 There are       87 alpha and       87 beta electrons
 Requested basis set is 6-311++G(d,p)
 There are 221 shells and 634 basis functions

 Total QAlloc Memory Limit   8000 MB
 Mega-Array Size       188 MB
 MEM_STATIC part       192 MB
 A cutoff of  1.0D-11 yielded  16517 shell pairs
 There are    139617 function pairs (    149006 Cartesian)
 Smallest overlap matrix eigenvalue = 8.66E-08

 Q-Chem warning in module stvman/mkSTV.C, line 323:

 Overlap eigenvalue is smaller than square root of threshold
 Use THRESH >= 12 to get rid of this warning

 Linear dependence detected in AO basis
 Tighter screening thresholds may be required for diffuse basis sets
 Use S2THRESH > 14 and THRESH = 14 in case of SCF convergence issues
 Number of orthogonalized atomic orbitals = 625
 Maximum deviation from orthogonality = 1.983E-10

 Scale SEOQF with 1.000000e-02/1.000000e-01/1.000000e-02

 Standard Electronic Orientation quadrupole field applied
 Nucleus-field energy     =    -0.0000000020 hartrees
 ================ Generating on-the-fly Promolecule Density  ================
Attempting to make child job directory: /expanse/lustre/scratch/selhajj/temp_project/qcscratch/28447565/qchem153296//Frg1/
Attempting to make child job directory: /expanse/lustre/scratch/selhajj/temp_project/qcscratch/28447565/qchem153296//Frg2/
Attempting to make child job directory: /expanse/lustre/scratch/selhajj/temp_project/qcscratch/28447565/qchem153296//Frg3/
Attempting to make child job directory: /expanse/lustre/scratch/selhajj/temp_project/qcscratch/28447565/qchem153296//Frg4/
Creating input file /expanse/lustre/scratch/selhajj/temp_project/qcscratch/28447565/qchem153296/Frg1.input
using default PutDataFrgm: nothing
calling putenv with: QCSCRATCH=/expanse/lustre/scratch/selhajj/temp_project/qcscratch/28447565/qchem153296/ 
Spawning Job For Fragment 0
Done Job For Fragment 0
calling putenv with: QCSCRATCH=/expanse/lustre/scratch/selhajj/temp_project/qcscratch/28447565 
calling putenv with: QCTHREADS=8 
Creating input file /expanse/lustre/scratch/selhajj/temp_project/qcscratch/28447565/qchem153296/Frg2.input
using default PutDataFrgm: nothing
calling putenv with: QCSCRATCH=/expanse/lustre/scratch/selhajj/temp_project/qcscratch/28447565/qchem153296/ 
Spawning Job For Fragment 1
Done Job For Fragment 1
calling putenv with: QCSCRATCH=/expanse/lustre/scratch/selhajj/temp_project/qcscratch/28447565 
calling putenv with: QCTHREADS=8 
Creating input file /expanse/lustre/scratch/selhajj/temp_project/qcscratch/28447565/qchem153296/Frg3.input
using default PutDataFrgm: nothing
calling putenv with: QCSCRATCH=/expanse/lustre/scratch/selhajj/temp_project/qcscratch/28447565/qchem153296/ 
Spawning Job For Fragment 2
Done Job For Fragment 2
calling putenv with: QCSCRATCH=/expanse/lustre/scratch/selhajj/temp_project/qcscratch/28447565 
calling putenv with: QCTHREADS=8 
Creating input file /expanse/lustre/scratch/selhajj/temp_project/qcscratch/28447565/qchem153296/Frg4.input
using default PutDataFrgm: nothing
calling putenv with: QCSCRATCH=/expanse/lustre/scratch/selhajj/temp_project/qcscratch/28447565/qchem153296/ 
Spawning Job For Fragment 3
Done Job For Fragment 3
calling putenv with: QCSCRATCH=/expanse/lustre/scratch/selhajj/temp_project/qcscratch/28447565 
calling putenv with: QCTHREADS=8 
 Time for running child jobs:  CPU 0.01 s  wall 36.81 s
 ============= Method Specific Promolecule Density Constructed =============
 Guess from superposition of atomic densities
 Warning:  Energy on first SCF cycle will be non-variational
 SAD guess density has 172.000000 electrons

 -----------------------------------------------------------------------
  General SCF calculation program by
  Eric Jon Sundstrom, Paul Horn, Yuezhi Mao, Dmitri Zuev, Alec White,
  David Stuck, Shaama M.S., Shane Yost, Joonho Lee, David Small,
  Daniel Levine, Susi Lehtola, Hugh Burton, Evgeny Epifanovsky,
  Bang C. Huynh
 -----------------------------------------------------------------------
 Exchange:     0.2000 Hartree-Fock + 0.0800 Slater + 0.7200 B88
 Correlation:  0.1900 VWN1RPA + 0.8100 LYP
 Using SG-1 standard quadrature grid
 using 8 threads for integral computing
 -------------------------------------------------------
 OpenMP Integral computing Module                
 Release: version 1.0, May 2013, Q-Chem Inc. Pittsburgh 
 -------------------------------------------------------
 
 SM12 calculation using CM5 charges
 Citation of the SM12 model:
 Marenich, A.V.; Cramer, C.J.; Truhlar, D.G.
 J. Chem. Theory Comput. 2013, 9, 609-612.
 iSolventCode=          91
 Solvent: dimethylformamide                                               
 
Hirshfeld: reading atomic densities from disk.
warning:  vdwdata pointer should have been initialzed before dftman
 Inaccurate integrated density:
   Number of electrons =   174
   Numerical integral  =   172.005110731787
   Relative error      =    -1.1464880852 %

 Charges (in A.U.) from CM5PAC (Nov. 11, 2011)
 -----------------------------------------------
 Center     Atomic      CM5         Hirshfeld
 Number     Number      Charge      Charge
 -----------------------------------------------
    1          6       -0.051929   -0.000558
    2          6       -0.057675   -0.002950
    3          6       -0.057648   -0.002861
    4          6       -0.002307   -0.000301
    5          6       -0.002650   -0.000608
    6          6       -0.051991   -0.000627
    7          6        0.033597    0.006388
    8          6       -0.010586   -0.003231
    9          6        0.008784   -0.002563
   10          6        0.032656    0.002762
   11          8       -0.064105   -0.017588
   12          8       -0.064299   -0.019644
   13          1        0.066644    0.005472
   14          1        0.058135    0.003041
   15          1        0.058137    0.003029
   16          1        0.066453    0.005442
   17          6       -0.146366   -0.006354
   18         16       -0.000935    0.032042
   19          6        0.000563   -0.004677
   20          6       -0.053082   -0.005017
   21          6       -0.011006   -0.003766
   22          6       -0.010908   -0.003538
   23          6       -0.055128   -0.002626
   24          6       -0.054270   -0.002843
   25          6       -0.055233   -0.002481
   26          6       -0.058369   -0.003255
   27          6       -0.058483   -0.003297
   28          6       -0.055128   -0.002445
   29          1        0.052833    0.001171
   30          1        0.054263    0.001471
   31          1        0.063974    0.004956
   32          1        0.058611    0.000708
   33          1        0.059647    0.003259
   34          1        0.067117    0.003983
   35          1        0.059465    0.003167
   36          1        0.058297    0.003015
   37          1        0.058332    0.003016
   38          1        0.059479    0.003197
 -----------------------------------------------

 Dipole moment (in Debye)
 -----------------------------------------------
                 X        Y        Z     Total
 -----------------------------------------------
 CM5          0.0222  -0.4354  -0.0399   0.4378
 Hirshfeld    0.0486   0.1050  -0.0452   0.1243
 -----------------------------------------------

 A restricted SCF calculation will be
 performed using DIIS
 SCF converges when DIIS error is below 1.0e-08
 ---------------------------------------
  Cycle       Energy         DIIS error
 ---------------------------------------
Hirshfeld: reading atomic densities from disk.

 Charges (in A.U.) from CM5PAC (Nov. 11, 2011)
 -----------------------------------------------
 Center     Atomic      CM5         Hirshfeld
 Number     Number      Charge      Charge
 -----------------------------------------------
    1          6       -0.201354   -0.149982
    2          6       -0.199784   -0.145060
    3          6       -0.201897   -0.147110
    4          6       -0.104411   -0.102405
    5          6       -0.106039   -0.103996
    6          6       -0.198064   -0.146701
    7          6        0.085620    0.058412
    8          6       -0.157109   -0.149753
    9          6       -0.128726   -0.140072
   10          6        0.105512    0.075618
   11          8       -0.763689   -0.717172
   12          8       -0.746748   -0.702093
   13          1        0.162813    0.101640
   14          1        0.176474    0.121380
   15          1        0.176303    0.121194
   16          1        0.164301    0.103290
   17          6       -0.448752   -0.308740
   18         16        0.179744    0.212720
   19          6       -0.020148   -0.025389
   20          6       -0.224152   -0.176088
   21          6       -0.046908   -0.039668
   22          6       -0.062610   -0.055240
   23          6       -0.165026   -0.112523
   24          6       -0.200679   -0.149252
   25          6       -0.182777   -0.130025
   26          6       -0.180302   -0.125189
   27          6       -0.197592   -0.142406
   28          6       -0.171253   -0.118570
   29          1        0.148527    0.096864
   30          1        0.144324    0.091531
   31          1        0.141381    0.082363
   32          1        0.170206    0.112303
   33          1        0.179134    0.122747
   34          1        0.157933    0.094798
   35          1        0.177137    0.120839
   36          1        0.179727    0.124445
   37          1        0.178201    0.122885
   38          1        0.178722    0.122440
 -----------------------------------------------

 Dipole moment (in Debye)
 -----------------------------------------------
                 X        Y        Z     Total
 -----------------------------------------------
 CM5         32.3445  -4.4249   8.4177  33.7136
 Hirshfeld   32.3710  -3.8845   8.4124  33.6710
 -----------------------------------------------

    1   -1363.2638062481      2.61e-02  
Hirshfeld: reading atomic densities from disk.

 Charges (in A.U.) from CM5PAC (Nov. 11, 2011)
 -----------------------------------------------
 Center     Atomic      CM5         Hirshfeld
 Number     Number      Charge      Charge
 -----------------------------------------------
    1          6       -0.358312   -0.306940
    2          6       -0.366525   -0.311801
    3          6       -0.380394   -0.325607
    4          6        0.097116    0.099123
    5          6        0.114927    0.116969
    6          6       -0.290945   -0.239582
    7          6        0.067720    0.040511
    8          6        0.230722    0.238078
    9          6        0.094577    0.083231
   10          6        0.083461    0.053567
   11          8        1.777692    1.824208
   12          8        1.750813    1.795468
   13          1       -0.748906   -0.810078
   14          1       -0.498716   -0.553810
   15          1       -0.583711   -0.638820
   16          1       -0.593979   -0.654990
   17          6       -0.434445   -0.294432
   18         16       -0.478693   -0.445716
   19          6       -0.029812   -0.035053
   20          6       -0.025751    0.022313
   21          6        0.030754    0.037994
   22          6        0.036428    0.043798
   23          6       -0.057764   -0.005262
   24          6        0.013173    0.064601
   25          6       -0.021880    0.030872
   26          6       -0.028688    0.026425
   27          6       -0.011231    0.043956
   28          6       -0.033576    0.019108
   29          1       -0.470971   -0.522634
   30          1       -0.349458   -0.402251
   31          1       -0.477553   -0.536572
   32          1       -0.052009   -0.109912
   33          1       -0.013804   -0.070191
   34          1        0.015740   -0.047395
   35          1       -0.004812   -0.061110
   36          1       -0.002351   -0.057633
   37          1       -0.002670   -0.057986
   38          1        0.000483   -0.055799
 -----------------------------------------------

 Dipole moment (in Debye)
 -----------------------------------------------
                 X        Y        Z     Total
 -----------------------------------------------
 CM5         36.8467   8.0446  36.1876  52.2679
 Hirshfeld   36.8731   8.5850  36.1823  52.3687
 -----------------------------------------------

    2   -1356.9911324295      3.31e-03  
Hirshfeld: reading atomic densities from disk.

 Charges (in A.U.) from CM5PAC (Nov. 11, 2011)
 -----------------------------------------------
 Center     Atomic      CM5         Hirshfeld
 Number     Number      Charge      Charge
 -----------------------------------------------
    1          6       -0.070920   -0.019548
    2          6       -0.033501    0.021223
    3          6       -0.034902    0.019885
    4          6       -0.062625   -0.060618
    5          6       -0.055909   -0.053866
    6          6       -0.054530   -0.003166
    7          6       -0.087560   -0.114769
    8          6       -0.039359   -0.032004
    9          6       -0.048028   -0.059374
   10          6       -0.036049   -0.065943
   11          8       -0.872129   -0.825612
   12          8       -0.812740   -0.768085
   13          1        0.057157   -0.004016
   14          1        0.055469    0.000375
   15          1        0.053777   -0.001332
   16          1        0.060485   -0.000526
   17          6       -0.126256    0.013756
   18         16       -0.115177   -0.082201
   19          6       -0.037377   -0.042617
   20          6       -0.015251    0.032814
   21          6        0.006801    0.014042
   22          6        0.005513    0.012883
   23          6       -0.044627    0.007876
   24          6       -0.098395   -0.046968
   25          6       -0.045640    0.007112
   26          6       -0.040956    0.014157
   27          6       -0.036199    0.018987
   28          6       -0.052015    0.000669
   29          1        0.053017    0.001355
   30          1        0.058002    0.005210
   31          1        0.050467   -0.008551
   32          1        0.064889    0.006986
   33          1        0.065171    0.008784
   34          1        0.045620   -0.017515
   35          1        0.059956    0.003659
   36          1        0.061033    0.005751
   37          1        0.060145    0.004829
   38          1        0.059040    0.002758
 -----------------------------------------------

 Dipole moment (in Debye)
 -----------------------------------------------
                 X        Y        Z     Total
 -----------------------------------------------
 CM5         35.5239  -6.9946  12.5100  38.3062
 Hirshfeld   35.5503  -6.4542  12.5047  38.2341
 -----------------------------------------------

    3   -1351.4273872879      8.26e-03  
Hirshfeld: reading atomic densities from disk.

 Charges (in A.U.) from CM5PAC (Nov. 11, 2011)
 -----------------------------------------------
 Center     Atomic      CM5         Hirshfeld
 Number     Number      Charge      Charge
 -----------------------------------------------
    1          6       -0.126967   -0.075595
    2          6       -0.149632   -0.094907
    3          6       -0.150479   -0.095692
    4          6       -0.086453   -0.084446
    5          6       -0.086450   -0.084408
    6          6       -0.122937   -0.071573
    7          6        0.009583   -0.017626
    8          6       -0.132032   -0.124677
    9          6       -0.099522   -0.110868
   10          6        0.039579    0.009685
   11          8       -0.668614   -0.622097
   12          8       -0.625564   -0.580910
   13          1        0.081295    0.020122
   14          1        0.088448    0.033355
   15          1        0.087667    0.032558
   16          1        0.085372    0.024361
   17          6       -0.256085   -0.116073
   18         16       -0.025924    0.007053
   19          6       -0.003019   -0.008259
   20          6       -0.115489   -0.067424
   21          6       -0.032194   -0.024954
   22          6       -0.035160   -0.027790
   23          6       -0.092015   -0.039512
   24          6       -0.106245   -0.054817
   25          6       -0.095649   -0.042898
   26          6       -0.094005   -0.038892
   27          6       -0.101438   -0.046252
   28          6       -0.089652   -0.036969
   29          1        0.069157    0.017494
   30          1        0.070034    0.017241
   31          1        0.070110    0.011091
   32          1        0.096657    0.038754
   33          1        0.100206    0.043818
   34          1        0.081428    0.018293
   35          1        0.102372    0.046075
   36          1        0.104765    0.049483
   37          1        0.103611    0.048295
   38          1        0.102162    0.045880
 -----------------------------------------------

 Dipole moment (in Debye)
 -----------------------------------------------
                 X        Y        Z     Total
 -----------------------------------------------
 CM5         33.8903  -5.3173  11.4008  36.1498
 Hirshfeld   33.9167  -4.7769  11.3955  36.0974
 -----------------------------------------------

    4   -1357.1736067485      2.79e-03  
Hirshfeld: reading atomic densities from disk.

 Charges (in A.U.) from CM5PAC (Nov. 11, 2011)
 -----------------------------------------------
 Center     Atomic      CM5         Hirshfeld
 Number     Number      Charge      Charge
 -----------------------------------------------
    1          6       -0.147250   -0.095878
    2          6       -0.125295   -0.070571
    3          6       -0.132144   -0.077357
    4          6       -0.061744   -0.059737
    5          6       -0.055898   -0.053856
    6          6       -0.134381   -0.083018
    7          6       -0.011832   -0.039040
    8          6       -0.018403   -0.011047
    9          6       -0.064013   -0.075360
   10          6        0.010641   -0.019253
   11          8       -0.588351   -0.541834
   12          8       -0.546373   -0.501718
   13          1        0.055659   -0.005513
   14          1        0.056502    0.001408
   15          1        0.054976   -0.000133
   16          1        0.059646   -0.001365
   17          6       -0.253889   -0.113876
   18         16       -0.094189   -0.061212
   19          6       -0.055409   -0.060650
   20          6       -0.102456   -0.054391
   21          6        0.007653    0.014893
   22          6       -0.007041    0.000329
   23          6       -0.110668   -0.058166
   24          6       -0.134212   -0.082784
   25          6       -0.104200   -0.051449
   26          6       -0.110519   -0.055406
   27          6       -0.109549   -0.054363
   28          6       -0.112141   -0.059457
   29          1        0.044779   -0.006884
   30          1        0.048301   -0.004492
   31          1        0.054436   -0.004583
   32          1        0.090711    0.032808
   33          1        0.099288    0.042900
   34          1        0.093899    0.030765
   35          1        0.099074    0.042776
   36          1        0.100861    0.045579
   37          1        0.100148    0.044832
   38          1        0.100152    0.043870
 -----------------------------------------------

 Dipole moment (in Debye)
 -----------------------------------------------
                 X        Y        Z     Total
 -----------------------------------------------
 CM5         32.3785  -4.8658   9.7826  34.1723
 Hirshfeld   32.4049  -4.3254   9.7773  34.1231
 -----------------------------------------------

    5   -1357.5037854107      9.53e-04  
Hirshfeld: reading atomic densities from disk.

 Charges (in A.U.) from CM5PAC (Nov. 11, 2011)
 -----------------------------------------------
 Center     Atomic      CM5         Hirshfeld
 Number     Number      Charge      Charge
 -----------------------------------------------
    1          6       -0.123737   -0.072365
    2          6       -0.151923   -0.097199
    3          6       -0.153645   -0.098858
    4          6       -0.067361   -0.065354
    5          6       -0.068808   -0.066765
    6          6       -0.123421   -0.072057
    7          6        0.008405   -0.018803
    8          6       -0.126800   -0.119445
    9          6       -0.111967   -0.123314
   10          6        0.036002    0.006109
   11          8       -0.541123   -0.494607
   12          8       -0.498471   -0.453816
   13          1        0.059525   -0.001648
   14          1        0.063377    0.008284
   15          1        0.062404    0.007295
   16          1        0.063170    0.002159
   17          6       -0.256524   -0.116512
   18         16       -0.077867   -0.044890
   19          6        0.011102    0.005862
   20          6       -0.118668   -0.070603
   21          6       -0.035683   -0.028442
   22          6       -0.036931   -0.029561
   23          6       -0.101680   -0.049177
   24          6       -0.093112   -0.041685
   25          6       -0.104405   -0.051654
   26          6       -0.101012   -0.045898
   27          6       -0.107984   -0.052798
   28          6       -0.097478   -0.044794
   29          1        0.046134   -0.005528
   30          1        0.049782   -0.003010
   31          1        0.056444   -0.002574
   32          1        0.085414    0.027511
   33          1        0.090402    0.034014
   34          1        0.085036    0.021901
   35          1        0.094997    0.038699
   36          1        0.094889    0.039607
   37          1        0.093475    0.038159
   38          1        0.094742    0.038460
 -----------------------------------------------

 Dipole moment (in Debye)
 -----------------------------------------------
                 X        Y        Z     Total
 -----------------------------------------------
 CM5         32.4543  -4.9280   8.5984  33.9337
 Hirshfeld   32.4807  -4.3876   8.5931  33.8834
 -----------------------------------------------

    6   -1357.5547049303      5.12e-04  
Hirshfeld: reading atomic densities from disk.

 Charges (in A.U.) from CM5PAC (Nov. 11, 2011)
 -----------------------------------------------
 Center     Atomic      CM5         Hirshfeld
 Number     Number      Charge      Charge
 -----------------------------------------------
    1          6       -0.138580   -0.087208
    2          6       -0.158682   -0.103957
    3          6       -0.162510   -0.107723
    4          6       -0.075838   -0.073831
    5          6       -0.075452   -0.073409
    6          6       -0.133466   -0.082102
    7          6        0.015236   -0.011973
    8          6       -0.083776   -0.076420
    9          6       -0.077881   -0.089227
   10          6        0.035897    0.006003
   11          8       -0.539339   -0.492822
   12          8       -0.502975   -0.458320
   13          1        0.060713   -0.000459
   14          1        0.066065    0.010972
   15          1        0.064903    0.009794
   16          1        0.064776    0.003764
   17          6       -0.258330   -0.118318
   18         16       -0.072107   -0.039131
   19          6       -0.022016   -0.027256
   20          6       -0.118265   -0.070201
   21          6       -0.022259   -0.015019
   22          6       -0.029443   -0.022073
   23          6       -0.101265   -0.048762
   24          6       -0.108057   -0.056629
   25          6       -0.099949   -0.047197
   26          6       -0.107107   -0.051993
   27          6       -0.112624   -0.057438
   28          6       -0.099255   -0.046572
   29          1        0.043928   -0.007735
   30          1        0.047055   -0.005737
   31          1        0.053054   -0.005965
   32          1        0.086523    0.028620
   33          1        0.091902    0.035514
   34          1        0.087032    0.023897
   35          1        0.094703    0.038405
   36          1        0.095188    0.039906
   37          1        0.093952    0.038636
   38          1        0.094919    0.038637
 -----------------------------------------------

 Dipole moment (in Debye)
 -----------------------------------------------
                 X        Y        Z     Total
 -----------------------------------------------
 CM5         32.0419  -4.5436   8.9743  33.5838
 Hirshfeld   32.0684  -4.0032   8.9690  33.5388
 -----------------------------------------------

    7   -1357.5675425552      1.90e-04  
Hirshfeld: reading atomic densities from disk.

 Charges (in A.U.) from CM5PAC (Nov. 11, 2011)
 -----------------------------------------------
 Center     Atomic      CM5         Hirshfeld
 Number     Number      Charge      Charge
 -----------------------------------------------
    1          6       -0.136189   -0.084817
    2          6       -0.149963   -0.095238
    3          6       -0.153889   -0.099102
    4          6       -0.067127   -0.065121
    5          6       -0.066386   -0.064344
    6          6       -0.131164   -0.079800
    7          6        0.009970   -0.017238
    8          6       -0.096007   -0.088652
    9          6       -0.097835   -0.109182
   10          6        0.032837    0.002943
   11          8       -0.538097   -0.491580
   12          8       -0.495742   -0.451088
   13          1        0.059022   -0.002150
   14          1        0.063990    0.008897
   15          1        0.062794    0.007685
   16          1        0.063058    0.002047
   17          6       -0.261748   -0.121735
   18         16       -0.075590   -0.042613
   19          6       -0.013965   -0.019206
   20          6       -0.117286   -0.069222
   21          6       -0.021779   -0.014539
   22          6       -0.029185   -0.021815
   23          6       -0.105824   -0.053321
   24          6       -0.106836   -0.055408
   25          6       -0.104516   -0.051764
   26          6       -0.108061   -0.052948
   27          6       -0.113105   -0.057919
   28          6       -0.102918   -0.050235
   29          1        0.044739   -0.006924
   30          1        0.048306   -0.004486
   31          1        0.054617   -0.004402
   32          1        0.086966    0.029063
   33          1        0.092834    0.036446
   34          1        0.087700    0.024566
   35          1        0.095872    0.039574
   36          1        0.096209    0.040928
   37          1        0.094914    0.039598
   38          1        0.096069    0.039787
 -----------------------------------------------

 Dipole moment (in Debye)
 -----------------------------------------------
                 X        Y        Z     Total
 -----------------------------------------------
 CM5         32.1636  -4.7170   8.4640  33.5914
 Hirshfeld   32.1900  -4.1766   8.4587  33.5438
 -----------------------------------------------

    8   -1357.5705056618      8.85e-05  
Hirshfeld: reading atomic densities from disk.

 Charges (in A.U.) from CM5PAC (Nov. 11, 2011)
 -----------------------------------------------
 Center     Atomic      CM5         Hirshfeld
 Number     Number      Charge      Charge
 -----------------------------------------------
    1          6       -0.134760   -0.083388
    2          6       -0.152197   -0.097473
    3          6       -0.155690   -0.100903
    4          6       -0.069891   -0.067884
    5          6       -0.069515   -0.067472
    6          6       -0.130717   -0.079353
    7          6        0.010180   -0.017028
    8          6       -0.093037   -0.085681
    9          6       -0.091020   -0.102366
   10          6        0.033616    0.003722
   11          8       -0.537607   -0.491090
   12          8       -0.498618   -0.453963
   13          1        0.059302   -0.001870
   14          1        0.064492    0.009398
   15          1        0.063343    0.008234
   16          1        0.063506    0.002495
   17          6       -0.260449   -0.120437
   18         16       -0.076610   -0.043633
   19          6       -0.011260   -0.016501
   20          6       -0.119551   -0.071487
   21          6       -0.024271   -0.017031
   22          6       -0.030178   -0.022808
   23          6       -0.105204   -0.052701
   24          6       -0.104954   -0.053526
   25          6       -0.104984   -0.052233
   26          6       -0.107214   -0.052101
   27          6       -0.112761   -0.057574
   28          6       -0.102363   -0.049679
   29          1        0.044122   -0.007541
   30          1        0.047911   -0.004882
   31          1        0.054130   -0.004888
   32          1        0.086763    0.028860
   33          1        0.092530    0.036143
   34          1        0.087714    0.024579
   35          1        0.095697    0.039399
   36          1        0.095881    0.040600
   37          1        0.094522    0.039206
   38          1        0.095822    0.039540
 -----------------------------------------------

 Dipole moment (in Debye)
 -----------------------------------------------
                 X        Y        Z     Total
 -----------------------------------------------
 CM5         32.0875  -4.6965   8.4716  33.5177
 Hirshfeld   32.1139  -4.1561   8.4663  33.4702
 -----------------------------------------------

    9   -1357.5710742041      3.09e-05  
Hirshfeld: reading atomic densities from disk.

 Charges (in A.U.) from CM5PAC (Nov. 11, 2011)
 -----------------------------------------------
 Center     Atomic      CM5         Hirshfeld
 Number     Number      Charge      Charge
 -----------------------------------------------
    1          6       -0.135280   -0.083908
    2          6       -0.152103   -0.097379
    3          6       -0.155772   -0.100985
    4          6       -0.069355   -0.067348
    5          6       -0.068980   -0.066937
    6          6       -0.130748   -0.079385
    7          6        0.010908   -0.016301
    8          6       -0.094133   -0.086777
    9          6       -0.092850   -0.104197
   10          6        0.033884    0.003991
   11          8       -0.537943   -0.491426
   12          8       -0.497264   -0.452609
   13          1        0.059495   -0.001677
   14          1        0.064716    0.009623
   15          1        0.063548    0.008439
   16          1        0.063637    0.002625
   17          6       -0.260503   -0.120490
   18         16       -0.076087   -0.043110
   19          6       -0.013902   -0.019143
   20          6       -0.118235   -0.070170
   21          6       -0.023210   -0.015970
   22          6       -0.029796   -0.022426
   23          6       -0.104617   -0.052115
   24          6       -0.106371   -0.054943
   25          6       -0.103882   -0.051130
   26          6       -0.107559   -0.052445
   27          6       -0.112946   -0.057760
   28          6       -0.102039   -0.049355
   29          1        0.044166   -0.007497
   30          1        0.047884   -0.004908
   31          1        0.054208   -0.004810
   32          1        0.086712    0.028809
   33          1        0.092448    0.036060
   34          1        0.087678    0.024543
   35          1        0.095416    0.039118
   36          1        0.095645    0.040363
   37          1        0.094318    0.039002
   38          1        0.095593    0.039311
 -----------------------------------------------

 Dipole moment (in Debye)
 -----------------------------------------------
                 X        Y        Z     Total
 -----------------------------------------------
 CM5         32.1099  -4.6980   8.4576  33.5358
 Hirshfeld   32.1363  -4.1576   8.4523  33.4884
 -----------------------------------------------

   10   -1357.5714596891      1.24e-05  
Hirshfeld: reading atomic densities from disk.

 Charges (in A.U.) from CM5PAC (Nov. 11, 2011)
 -----------------------------------------------
 Center     Atomic      CM5         Hirshfeld
 Number     Number      Charge      Charge
 -----------------------------------------------
    1          6       -0.135586   -0.084214
    2          6       -0.151848   -0.097123
    3          6       -0.155526   -0.100739
    4          6       -0.069357   -0.067350
    5          6       -0.068898   -0.066855
    6          6       -0.131001   -0.079637
    7          6        0.010785   -0.016423
    8          6       -0.093741   -0.086386
    9          6       -0.092506   -0.103853
   10          6        0.033690    0.003797
   11          8       -0.537668   -0.491151
   12          8       -0.497640   -0.452986
   13          1        0.059484   -0.001689
   14          1        0.064741    0.009647
   15          1        0.063578    0.008469
   16          1        0.063656    0.002644
   17          6       -0.260653   -0.120641
   18         16       -0.075787   -0.042811
   19          6       -0.013244   -0.018485
   20          6       -0.118443   -0.070378
   21          6       -0.023351   -0.016110
   22          6       -0.029987   -0.022617
   23          6       -0.104910   -0.052407
   24          6       -0.105871   -0.054444
   25          6       -0.104196   -0.051444
   26          6       -0.107652   -0.052539
   27          6       -0.113069   -0.057883
   28          6       -0.102164   -0.049480
   29          1        0.044095   -0.007568
   30          1        0.047851   -0.004941
   31          1        0.054131   -0.004888
   32          1        0.086674    0.028771
   33          1        0.092414    0.036026
   34          1        0.087616    0.024481
   35          1        0.095455    0.039157
   36          1        0.095668    0.040387
   37          1        0.094325    0.039009
   38          1        0.095617    0.039335
 -----------------------------------------------

 Dipole moment (in Debye)
 -----------------------------------------------
                 X        Y        Z     Total
 -----------------------------------------------
 CM5         32.0958  -4.6932   8.4351  33.5159
 Hirshfeld   32.1222  -4.1528   8.4298  33.4686
 -----------------------------------------------

   11   -1357.5714208851      4.30e-06  
Hirshfeld: reading atomic densities from disk.

 Charges (in A.U.) from CM5PAC (Nov. 11, 2011)
 -----------------------------------------------
 Center     Atomic      CM5         Hirshfeld
 Number     Number      Charge      Charge
 -----------------------------------------------
    1          6       -0.135343   -0.083971
    2          6       -0.151952   -0.097227
    3          6       -0.155622   -0.100835
    4          6       -0.069393   -0.067386
    5          6       -0.068963   -0.066921
    6          6       -0.130850   -0.079486
    7          6        0.010734   -0.016475
    8          6       -0.093734   -0.086379
    9          6       -0.092418   -0.103765
   10          6        0.033790    0.003896
   11          8       -0.537811   -0.491294
   12          8       -0.497490   -0.452836
   13          1        0.059483   -0.001689
   14          1        0.064766    0.009673
   15          1        0.063605    0.008496
   16          1        0.063656    0.002645
   17          6       -0.260634   -0.120621
   18         16       -0.075951   -0.042974
   19          6       -0.013398   -0.018638
   20          6       -0.118581   -0.070516
   21          6       -0.023379   -0.016139
   22          6       -0.029894   -0.022524
   23          6       -0.104825   -0.052323
   24          6       -0.106018   -0.054591
   25          6       -0.104217   -0.051465
   26          6       -0.107579   -0.052465
   27          6       -0.113008   -0.057822
   28          6       -0.102165   -0.049481
   29          1        0.044074   -0.007589
   30          1        0.047844   -0.004948
   31          1        0.054133   -0.004886
   32          1        0.086702    0.028799
   33          1        0.092434    0.036046
   34          1        0.087645    0.024510
   35          1        0.095453    0.039155
   36          1        0.095660    0.040378
   37          1        0.094314    0.038998
   38          1        0.095613    0.039331
 -----------------------------------------------

 Dipole moment (in Debye)
 -----------------------------------------------
                 X        Y        Z     Total
 -----------------------------------------------
 CM5         32.1001  -4.6967   8.4322  33.5198
 Hirshfeld   32.1265  -4.1563   8.4269  33.4724
 -----------------------------------------------

   12   -1357.5714944634      1.69e-06  
Hirshfeld: reading atomic densities from disk.

 Charges (in A.U.) from CM5PAC (Nov. 11, 2011)
 -----------------------------------------------
 Center     Atomic      CM5         Hirshfeld
 Number     Number      Charge      Charge
 -----------------------------------------------
    1          6       -0.135377   -0.084005
    2          6       -0.151935   -0.097211
    3          6       -0.155591   -0.100804
    4          6       -0.069402   -0.067395
    5          6       -0.068989   -0.066946
    6          6       -0.130852   -0.079488
    7          6        0.010784   -0.016424
    8          6       -0.093742   -0.086386
    9          6       -0.092424   -0.103771
   10          6        0.033763    0.003870
   11          8       -0.537730   -0.491213
   12          8       -0.497579   -0.452924
   13          1        0.059491   -0.001681
   14          1        0.064783    0.009689
   15          1        0.063622    0.008513
   16          1        0.063672    0.002661
   17          6       -0.260619   -0.120607
   18         16       -0.075981   -0.043004
   19          6       -0.013396   -0.018637
   20          6       -0.118507   -0.070442
   21          6       -0.023342   -0.016101
   22          6       -0.029909   -0.022539
   23          6       -0.104848   -0.052345
   24          6       -0.106032   -0.054605
   25          6       -0.104166   -0.051414
   26          6       -0.107615   -0.052502
   27          6       -0.113036   -0.057850
   28          6       -0.102169   -0.049485
   29          1        0.044055   -0.007608
   30          1        0.047834   -0.004959
   31          1        0.054124   -0.004894
   32          1        0.086691    0.028788
   33          1        0.092432    0.036045
   34          1        0.087646    0.024511
   35          1        0.095444    0.039146
   36          1        0.095656    0.040374
   37          1        0.094313    0.038997
   38          1        0.095611    0.039329
 -----------------------------------------------

 Dipole moment (in Debye)
 -----------------------------------------------
                 X        Y        Z     Total
 -----------------------------------------------
 CM5         32.0977  -4.6968   8.4302  33.5170
 Hirshfeld   32.1241  -4.1564   8.4249  33.4695
 -----------------------------------------------

   13   -1357.5714964425      6.41e-07  
Hirshfeld: reading atomic densities from disk.

 Charges (in A.U.) from CM5PAC (Nov. 11, 2011)
 -----------------------------------------------
 Center     Atomic      CM5         Hirshfeld
 Number     Number      Charge      Charge
 -----------------------------------------------
    1          6       -0.135399   -0.084027
    2          6       -0.151925   -0.097201
    3          6       -0.155593   -0.100806
    4          6       -0.069403   -0.067396
    5          6       -0.068974   -0.066931
    6          6       -0.130868   -0.079504
    7          6        0.010768   -0.016441
    8          6       -0.093709   -0.086354
    9          6       -0.092398   -0.103744
   10          6        0.033775    0.003881
   11          8       -0.537787   -0.491270
   12          8       -0.497553   -0.452898
   13          1        0.059497   -0.001676
   14          1        0.064789    0.009696
   15          1        0.063628    0.008519
   16          1        0.063675    0.002664
   17          6       -0.260620   -0.120608
   18         16       -0.075963   -0.042986
   19          6       -0.013388   -0.018629
   20          6       -0.118531   -0.070466
   21          6       -0.023361   -0.016121
   22          6       -0.029916   -0.022546
   23          6       -0.104842   -0.052340
   24          6       -0.106012   -0.054585
   25          6       -0.104184   -0.051432
   26          6       -0.107608   -0.052495
   27          6       -0.113035   -0.057848
   28          6       -0.102161   -0.049477
   29          1        0.044049   -0.007613
   30          1        0.047830   -0.004962
   31          1        0.054122   -0.004896
   32          1        0.086689    0.028786
   33          1        0.092429    0.036041
   34          1        0.087642    0.024508
   35          1        0.095445    0.039147
   36          1        0.095655    0.040374
   37          1        0.094310    0.038994
   38          1        0.095609    0.039327
 -----------------------------------------------

 Dipole moment (in Debye)
 -----------------------------------------------
                 X        Y        Z     Total
 -----------------------------------------------
 CM5         32.0987  -4.6967   8.4295  33.5178
 Hirshfeld   32.1251  -4.1563   8.4242  33.4703
 -----------------------------------------------

   14   -1357.5714978113      3.57e-07  
Hirshfeld: reading atomic densities from disk.

 Charges (in A.U.) from CM5PAC (Nov. 11, 2011)
 -----------------------------------------------
 Center     Atomic      CM5         Hirshfeld
 Number     Number      Charge      Charge
 -----------------------------------------------
    1          6       -0.135384   -0.084012
    2          6       -0.151929   -0.097205
    3          6       -0.155594   -0.100807
    4          6       -0.069400   -0.067394
    5          6       -0.068976   -0.066934
    6          6       -0.130864   -0.079501
    7          6        0.010766   -0.016443
    8          6       -0.093713   -0.086358
    9          6       -0.092393   -0.103739
   10          6        0.033773    0.003879
   11          8       -0.537774   -0.491257
   12          8       -0.497568   -0.452913
   13          1        0.059496   -0.001677
   14          1        0.064790    0.009697
   15          1        0.063630    0.008521
   16          1        0.063676    0.002665
   17          6       -0.260627   -0.120614
   18         16       -0.075955   -0.042978
   19          6       -0.013400   -0.018640
   20          6       -0.118538   -0.070473
   21          6       -0.023361   -0.016121
   22          6       -0.029910   -0.022540
   23          6       -0.104836   -0.052334
   24          6       -0.106019   -0.054591
   25          6       -0.104188   -0.051436
   26          6       -0.107603   -0.052489
   27          6       -0.113030   -0.057844
   28          6       -0.102162   -0.049478
   29          1        0.044047   -0.007615
   30          1        0.047830   -0.004963
   31          1        0.054121   -0.004898
   32          1        0.086690    0.028787
   33          1        0.092428    0.036041
   34          1        0.087642    0.024507
   35          1        0.095444    0.039147
   36          1        0.095654    0.040373
   37          1        0.094309    0.038993
   38          1        0.095608    0.039326
 -----------------------------------------------

 Dipole moment (in Debye)
 -----------------------------------------------
                 X        Y        Z     Total
 -----------------------------------------------
 CM5         32.0984  -4.6969   8.4292  33.5175
 Hirshfeld   32.1248  -4.1565   8.4239  33.4701
 -----------------------------------------------

   15   -1357.5715001199      1.18e-07  
Hirshfeld: reading atomic densities from disk.

 Charges (in A.U.) from CM5PAC (Nov. 11, 2011)
 -----------------------------------------------
 Center     Atomic      CM5         Hirshfeld
 Number     Number      Charge      Charge
 -----------------------------------------------
    1          6       -0.135387   -0.084015
    2          6       -0.151929   -0.097204
    3          6       -0.155594   -0.100807
    4          6       -0.069405   -0.067398
    5          6       -0.068980   -0.066937
    6          6       -0.130862   -0.079498
    7          6        0.010767   -0.016441
    8          6       -0.093708   -0.086353
    9          6       -0.092390   -0.103737
   10          6        0.033773    0.003879
   11          8       -0.537777   -0.491260
   12          8       -0.497565   -0.452910
   13          1        0.059497   -0.001676
   14          1        0.064791    0.009698
   15          1        0.063630    0.008521
   16          1        0.063677    0.002665
   17          6       -0.260624   -0.120612
   18         16       -0.075961   -0.042984
   19          6       -0.013395   -0.018635
   20          6       -0.118534   -0.070469
   21          6       -0.023359   -0.016119
   22          6       -0.029913   -0.022543
   23          6       -0.104841   -0.052338
   24          6       -0.106017   -0.054589
   25          6       -0.104184   -0.051432
   26          6       -0.107606   -0.052493
   27          6       -0.113033   -0.057847
   28          6       -0.102163   -0.049480
   29          1        0.044046   -0.007617
   30          1        0.047829   -0.004964
   31          1        0.054120   -0.004899
   32          1        0.086690    0.028787
   33          1        0.092428    0.036041
   34          1        0.087642    0.024507
   35          1        0.095444    0.039147
   36          1        0.095655    0.040373
   37          1        0.094310    0.038994
   38          1        0.095608    0.039326
 -----------------------------------------------

 Dipole moment (in Debye)
 -----------------------------------------------
                 X        Y        Z     Total
 -----------------------------------------------
 CM5         32.0985  -4.6968   8.4291  33.5175
 Hirshfeld   32.1249  -4.1564   8.4238  33.4701
 -----------------------------------------------

   16   -1357.5714998949      5.19e-08  
Hirshfeld: reading atomic densities from disk.

 Charges (in A.U.) from CM5PAC (Nov. 11, 2011)
 -----------------------------------------------
 Center     Atomic      CM5         Hirshfeld
 Number     Number      Charge      Charge
 -----------------------------------------------
    1          6       -0.135388   -0.084016
    2          6       -0.151928   -0.097204
    3          6       -0.155594   -0.100807
    4          6       -0.069404   -0.067397
    5          6       -0.068978   -0.066936
    6          6       -0.130864   -0.079500
    7          6        0.010768   -0.016441
    8          6       -0.093710   -0.086354
    9          6       -0.092390   -0.103736
   10          6        0.033774    0.003880
   11          8       -0.537776   -0.491259
   12          8       -0.497565   -0.452911
   13          1        0.059497   -0.001676
   14          1        0.064792    0.009698
   15          1        0.063631    0.008522
   16          1        0.063677    0.002666
   17          6       -0.260624   -0.120612
   18         16       -0.075961   -0.042984
   19          6       -0.013396   -0.018636
   20          6       -0.118536   -0.070471
   21          6       -0.023361   -0.016120
   22          6       -0.029912   -0.022542
   23          6       -0.104839   -0.052337
   24          6       -0.106017   -0.054589
   25          6       -0.104185   -0.051433
   26          6       -0.107605   -0.052492
   27          6       -0.113032   -0.057846
   28          6       -0.102162   -0.049478
   29          1        0.044045   -0.007618
   30          1        0.047828   -0.004964
   31          1        0.054119   -0.004899
   32          1        0.086690    0.028787
   33          1        0.092428    0.036041
   34          1        0.087642    0.024507
   35          1        0.095445    0.039147
   36          1        0.095655    0.040373
   37          1        0.094310    0.038993
   38          1        0.095608    0.039326
 -----------------------------------------------

 Dipole moment (in Debye)
 -----------------------------------------------
                 X        Y        Z     Total
 -----------------------------------------------
 CM5         32.0985  -4.6969   8.4291  33.5175
 Hirshfeld   32.1249  -4.1565   8.4238  33.4701
 -----------------------------------------------

   17   -1357.5714999814      1.68e-08  
   18   -1357.5714999368      7.80e-09  Convergence criterion met
 ---------------------------------------
 SCF time:   CPU 13056.31s  wall 1659.00s 
(1)  E-EN(liq) elect-nuc energy of solute              -1357.571499937 a.u.
(2)  G-P(liq) polarization free energy of solvation          -162.8363 kcal/mol
(3)  G-ENP(liq) elect-nuc-pol free energy of system    -1357.830996066 a.u.
(4)  G-CDS(liq) cavity-dispersion-solvent structure 
     free energy                                              -11.2891 kcal/mol
(5)  G-P-CDS(liq) = G-P(liq) + G-CDS(liq) = (2) + (4)        -174.1254 kcal/mol
(6)  G-S(liq) free energy of system = (1) + (5)        -1357.848986369 a.u.
 SCF   energy in the final basis set =    -1357.8489863692
 Total energy in the final basis set =    -1357.8489863692
 
 --------------------------------------------------------------
 
                    Orbital Energies (a.u.)
 --------------------------------------------------------------
 
 Alpha MOs
 -- Occupied --
-88.8396 -19.0254 -19.0185 -10.2097 -10.1952 -10.1920 -10.1891 -10.1867
-10.1858 -10.1852 -10.1851 -10.1838 -10.1805 -10.1803 -10.1795 -10.1760
-10.1745 -10.1699 -10.1683 -10.1615 -10.1571 -10.1564 -10.1550 -10.1456
 -7.9246  -5.8886  -5.8844  -5.8791  -0.9497  -0.9374  -0.8857  -0.8469
 -0.8392  -0.8011  -0.7851  -0.7662  -0.7439  -0.7435  -0.7347  -0.7116
 -0.6711  -0.6416  -0.6320  -0.6161  -0.6065  -0.5899  -0.5767  -0.5415
 -0.5237  -0.5145  -0.5005  -0.4880  -0.4758  -0.4567  -0.4514  -0.4492
 -0.4362  -0.4306  -0.4260  -0.4222  -0.4112  -0.4054  -0.4004  -0.3917
 -0.3864  -0.3819  -0.3778  -0.3622  -0.3600  -0.3526  -0.3482  -0.3440
 -0.3410  -0.3299  -0.3223  -0.3203  -0.3073  -0.3011  -0.2735  -0.2489
 -0.2398  -0.2359  -0.2258  -0.2044  -0.2037  -0.1929  -0.1211
 -- Virtual --
 -0.0646  -0.0618  -0.0557  -0.0552  -0.0462  -0.0351  -0.0312  -0.0279
 -0.0271  -0.0212  -0.0207  -0.0158  -0.0153  -0.0117  -0.0040  -0.0016
  0.0012   0.0052   0.0161   0.0174   0.0217   0.0230   0.0298   0.0313
  0.0382   0.0402   0.0427   0.0438   0.0449   0.0473   0.0549   0.0560
  0.0583   0.0615   0.0635   0.0650   0.0694   0.0707   0.0751   0.0769
  0.0780   0.0786   0.0812   0.0836   0.0869   0.0888   0.0920   0.0946
  0.0963   0.0989   0.1014   0.1034   0.1041   0.1066   0.1092   0.1119
  0.1141   0.1185   0.1204   0.1219   0.1259   0.1282   0.1302   0.1319
  0.1357   0.1403   0.1425   0.1509   0.1546   0.1554   0.1595   0.1678
  0.1697   0.1715   0.1758   0.1771   0.1788   0.1815   0.1849   0.1863
  0.1901   0.1949   0.1976   0.1997   0.2065   0.2083   0.2095   0.2136
  0.2177   0.2192   0.2202   0.2240   0.2284   0.2336   0.2397   0.2405
  0.2416   0.2452   0.2488   0.2496   0.2535   0.2586   0.2600   0.2623
  0.2627   0.2670   0.2692   0.2787   0.2797   0.2839   0.2846   0.2878
  0.2925   0.2968   0.3004   0.3020   0.3049   0.3073   0.3112   0.3153
  0.3190   0.3223   0.3243   0.3297   0.3305   0.3380   0.3437   0.3465
  0.3491   0.3535   0.3624   0.3668   0.3670   0.3736   0.3828   0.3876
  0.3896   0.3954   0.4118   0.4161   0.4230   0.4299   0.4395   0.4470
  0.4543   0.4812   0.4836   0.4901   0.4979   0.5031   0.5078   0.5170
  0.5194   0.5282   0.5300   0.5363   0.5393   0.5457   0.5471   0.5531
  0.5576   0.5609   0.5643   0.5663   0.5731   0.5781   0.5817   0.5867
  0.5915   0.5965   0.6019   0.6050   0.6094   0.6137   0.6158   0.6222
  0.6302   0.6371   0.6416   0.6493   0.6541   0.6627   0.6674   0.6748
  0.6786   0.6796   0.6869   0.6952   0.6982   0.7024   0.7067   0.7119
  0.7156   0.7166   0.7201   0.7246   0.7296   0.7339   0.7379   0.7445
  0.7517   0.7620   0.7645   0.7700   0.7814   0.7825   0.7906   0.7934
  0.8007   0.8110   0.8150   0.8224   0.8286   0.8324   0.8380   0.8443
  0.8479   0.8560   0.8595   0.8723   0.8800   0.8937   0.8986   0.9106
  0.9164   0.9180   0.9228   0.9270   0.9297   0.9319   0.9437   0.9509
  0.9536   0.9568   0.9612   0.9764   0.9845   0.9867   0.9932   1.0014
  1.0090   1.0172   1.0192   1.0297   1.0346   1.0462   1.0486   1.0530
  1.0574   1.0627   1.0650   1.0719   1.0778   1.0797   1.0991   1.1016
  1.1053   1.1126   1.1167   1.1315   1.1362   1.1400   1.1493   1.1561
  1.1643   1.1731   1.1860   1.1992   1.2113   1.2412   1.2519   1.2678
  1.2767   1.2851   1.3021   1.3268   1.3361   1.3440   1.3493   1.3643
  1.3711   1.3811   1.3982   1.4229   1.4253   1.4755   1.4813   1.4880
  1.4942   1.5007   1.5025   1.5128   1.5152   1.5168   1.5179   1.5225
  1.5283   1.5431   1.5523   1.5595   1.5627   1.5676   1.5700   1.5930
  1.5952   1.5972   1.6036   1.6285   1.6376   1.6428   1.6478   1.6520
  1.6583   1.6759   1.6878   1.6962   1.7018   1.7158   1.7234   1.7344
  1.7399   1.7468   1.7515   1.7598   1.7627   1.7681   1.7787   1.7957
  1.8022   1.8125   1.8221   1.8329   1.8510   1.8548   1.8681   1.8779
  1.8836   1.8875   1.8928   1.9026   1.9043   1.9119   1.9202   1.9265
  1.9410   1.9430   1.9487   1.9551   1.9598   1.9632   1.9649   1.9756
  1.9876   1.9971   2.0014   2.0077   2.0264   2.0271   2.0402   2.0590
  2.0741   2.0806   2.0924   2.1066   2.1107   2.1190   2.1345   2.1446
  2.1622   2.1762   2.1845   2.1907   2.2058   2.2126   2.2306   2.2485
  2.2656   2.2814   2.3023   2.3050   2.3292   2.3484   2.3713   2.3857
  2.3925   2.4017   2.4076   2.4372   2.4442   2.4659   2.4664   2.4787
  2.4823   2.5050   2.5177   2.5187   2.5635   2.5731   2.5830   2.6017
  2.6279   2.6383   2.6437   2.6582   2.6723   2.6797   2.6897   2.7041
  2.7064   2.7079   2.7222   2.7271   2.7353   2.7437   2.7471   2.7498
  2.7597   2.7655   2.7691   2.7768   2.7797   2.7822   2.7845   2.7875
  2.7903   2.8136   2.8199   2.8285   2.8337   2.8431   2.8551   2.8587
  2.8682   2.9050   2.9059   2.9127   2.9220   2.9241   2.9392   2.9432
  2.9603   2.9755   2.9770   2.9905   3.0118   3.0181   3.0357   3.0661
  3.0903   3.1009   3.1398   3.1460   3.1785   3.1894   3.1989   3.2172
  3.2186   3.2283   3.2852   3.2982   3.3139   3.3229   3.3538   3.3633
  3.3739   3.3801   3.3979   3.4352   3.4366   3.4585   3.5125   3.5234
  3.5323   3.5415   3.5508   3.5642   3.5829   3.6162   3.6297   3.6457
  3.6491   3.7301   3.7813   3.8071   3.8225   3.8722   3.9058   4.0220
  4.0300   4.0370   4.0382   4.0820   4.1136   4.1713   4.1943   4.2048
  4.3101   4.3358   4.3822   4.4206   4.8147   4.8320   4.8394   4.8485
  5.1530   5.1914   5.3273   5.3597   5.7959   5.8747   8.1154  17.4267
 17.6099  17.6342  23.5146  23.5580  23.7888  23.7938  23.8944  23.9387
 23.9422  23.9427  23.9644  23.9745  23.9807  23.9984  24.0076  24.0326
 24.0757  24.0987  24.1093  24.1145  24.1773  24.1790  24.1841  50.0988
 50.1478 189.3068
 --------------------------------------------------------------
 
          Ground-State Mulliken Net Atomic Charges

     Atom                 Charge (a.u.)
  ----------------------------------------
      1 C                    -0.489771
      2 C                     1.478135
      3 C                     1.149409
      4 C                    -1.990170
      5 C                    -1.622254
      6 C                     0.162969
      7 C                    -2.036825
      8 C                    -0.173025
      9 C                     0.034745
     10 C                    -1.604260
     11 O                    -0.394001
     12 O                    -0.245321
     13 H                     0.105435
     14 H                     0.395885
     15 H                     0.394513
     16 H                     0.136018
     17 C                     0.498247
     18 S                    -0.396909
     19 C                    -1.027493
     20 C                    -1.388488
     21 C                     0.055734
     22 C                     0.411066
     23 C                    -0.890195
     24 C                    -1.127939
     25 C                     0.816447
     26 C                     1.558699
     27 C                     1.471636
     28 C                     0.606583
     29 H                     0.164489
     30 H                     0.137849
     31 H                     0.140434
     32 H                     0.285049
     33 H                     0.281817
     34 H                    -0.293060
     35 H                     0.313335
     36 H                     0.395991
     37 H                     0.386410
     38 H                     0.298818
  ----------------------------------------
  Sum of atomic charges =    -2.000000

 -----------------------------------------------------------------
                    Cartesian Multipole Moments
 -----------------------------------------------------------------
    Charge (ESU x 10^10)
                -9.6064
    Dipole Moment (Debye)
         X      32.3773      Y      -5.6592      Z       8.3387
       Tot      33.9095
    Quadrupole Moments (Debye-Ang)
        XX    -325.2636     XY      12.5289     YY    -165.5755
        XZ     -40.2824     YZ      -1.3600     ZZ    -203.1247
    Octopole Moments (Debye-Ang^2)
       XXX    2038.5005    XXY    -103.3153    XYY     395.2065
       YYY    -123.7432    XXZ      65.6037    XYZ      -3.4690
       YYZ    -123.3763    XZZ     524.1977    YZZ     -22.7722
       ZZZ    -346.5188
    Hexadecapole Moments (Debye-Ang^3)
      XXXX  -14426.0650   XXXY     987.9710   XXYY   -1801.3247
      XYYY     596.4746   YYYY   -1423.0592   XXXZ   -2322.1883
      XXYZ     -24.4464   XYYZ    -327.9491   YYYZ    -124.8537
      XXZZ   -4115.5350   XYZZ     132.7246   YYZZ   -2185.7278
      XZZZ   -1124.5167   YZZZ      70.6974   ZZZZ  -12170.3632
 -----------------------------------------------------------------
 Total job time:  1701.47s(wall), 13064.86s(cpu) 
 Sat Feb  3 14:48:25 2024

        *************************************************************
        *                                                           *
        *  Thank you very much for using Q-Chem.  Have a nice day.  *
        *                                                           *
        *************************************************************


