
Running Job 1 of 1 114-CPCM.in
qchem 114-CPCM.in_1765889.0 /expanse/lustre/scratch/selhajj/temp_project/qcscratch/31246339/qchem1765889/ 0
/cm/shared/apps/spack/cpu/opt/spack/linux-centos8-zen2/gcc-10.2.0/qchem-5.4-akfmr7b3t57bfs6qan3padb2wnb2i7cl/exe/qcprog.exe_s 114-CPCM.in_1765889.0 /expanse/lustre/scratch/selhajj/temp_project/qcscratch/31246339/qchem1765889/
                  Welcome to Q-Chem
     A Quantum Leap Into The Future Of Chemistry


 Q-Chem 5.4, Q-Chem, Inc., Pleasanton, CA (2021)

 License issued to: University of California, San Diego (site)

 E. Epifanovsky,  A. T. B. Gilbert,  Xintian Feng,  Joonho Lee,  Yuezhi Mao,  
 N. Mardirossian,  P. Pokhilko,  A. White,  M. Wormit,  M. P. Coons,  
 A. L. Dempwolff,  Zhengting Gan,  D. Hait,  P. R. Horn,  L. D. Jacobson,  
 I. Kaliman,  J. Kussmann,  A. W. Lange,  Ka Un Lao,  D. S. Levine,  Jie Liu,  
 S. C. McKenzie,  A. F. Morrison,  K. Nanda,  F. Plasser,  D. R. Rehn,  
 M. L. Vidal,  Zhi-Qiang You,  Ying Zhu,  B. Alam,  B. Albrecht,  
 A. Aldossary,  E. Alguire,  J. H. Andersen,  D. Barton,  K. Begam,  A. Behn,  
 Y. A. Bernard,  E. J. Berquist,  H. Burton,  A. Carreras,  K. Carter-Fenk,  
 R. Chakraborty,  A. D. Chien,  K. D. Closser,  V. Cofer-Shabica,  
 S. Dasgupta,  Jia Deng,  M. de Wergifosse,  M. Diedenhofen,  Hainam Do,  
 S. Ehlert,  Po-Tung Fang,  S. Fatehi,  Qingguo Feng,  J. Gayvert,  
 Qinghui Ge,  G. Gidofalvi,  M. Goldey,  J. Gomes,  C. Gonzalez-Espinoza,  
 S. Gulania,  A. Gunina,  M. W. D. Hanson-Heine,  P. H. P. Harbach,  
 A. W. Hauser,  M. F. Herbst,  M. Hernandez Vera,  M. Hodecker,  
 Z. C. Holden,  S. Houck,  Xunkun Huang,  Kerwin Hui,  B. C. Huynh,  
 M. Ivanov,  Hyunjun Ji,  Hanjie Jiang,  B. Kaduk,  S. Kaehler,  
 K. Khistyaev,  Jaehoon Kim,  P. Klunzinger,  Z. Koczor-Benda,  
 Joong Hoon Koh,  D. Kosenkov,  L. Koulias,  T. Kowalczyk,  C. M. Krauter,  
 K. Kue,  A. Kunitsa,  T. Kus,  A. Landau,  K. V. Lawler,  D. Lefrancois,  
 S. Lehtola,  Rain Li,  Yi-Pei Li,  Jiashu Liang,  M. Liebenthal,  
 Hung-Hsuan Lin,  You-Sheng Lin,  Fenglai Liu,  Kuan-Yu Liu,  
 M. Loipersberger,  A. Luenser,  A. Manjanath,  P. Manohar,  E. Mansoor,  
 S. F. Manzer,  Shan-Ping Mao,  A. V. Marenich,  T. Markovich,  S. Mason,  
 S. A. Maurer,  P. F. McLaughlin,  M. F. S. J. Menger,  J.-M. Mewes,  
 S. A. Mewes,  P. Morgante,  J. W. Mullinax,  T. S. Nguyen-Beck,  
 K. J. Oosterbaan,  G. Paran,  Alexander C. Paul,  Suranjan K. Paul,  
 F. Pavosevic,  Zheng Pei,  S. Prager,  E. I. Proynov,  E. Ramos,  B. Rana,  
 A. E. Rask,  A. Rettig,  R. M. Richard,  F. Rob,  E. Rossomme,  T. Scheele,  
 M. Scheurer,  M. Schneider,  N. Sergueev,  S. M. Sharada,  W. Skomorowski,  
 D. W. Small,  C. J. Stein,  Yu-Chuan Su,  E. J. Sundstrom,  Zhen Tao,  
 J. Thirman,  T. Tsuchimochi,  N. M. Tubman,  S. P. Veccham,  O. Vydrov,  
 J. Wenzel,  J. Witte,  A. Yamada,  Kun Yao,  S. Yeganeh,  S. R. Yost,  
 A. Zech,  Igor Ying Zhang,  Xing Zhang,  Yu Zhang,  D. Zuev,  
 A. Aspuru-Guzik,  A. T. Bell,  N. A. Besley,  K. B. Bravaya,  B. R. Brooks,  
 D. Casanova,  Jeng-Da Chai,  S. Coriani,  C. J. Cramer,  
 A. E. DePrince, III,  R. A. DiStasio Jr.,  A. Dreuw,  B. D. Dunietz,  
 T. R. Furlani,  W. A. Goddard III,  S. Grimme,  S. Hammes-Schiffer,  
 T. Head-Gordon,  W. J. Hehre,  Chao-Ping Hsu,  T.-C. Jagau,  Yousung Jung,  
 A. Klamt,  Jing Kong,  D. S. Lambrecht,  WanZhen Liang,  N. J. Mayhall,  
 C. W. McCurdy,  J. B. Neaton,  C. Ochsenfeld,  J. A. Parkhill,  R. Peverati,  
 V. A. Rassolov,  Yihan Shao,  L. V. Slipchenko,  T. Stauch,  R. P. Steele,  
 J. E. Subotnik,  A. J. W. Thom,  A. Tkatchenko,  D. G. Truhlar,  
 T. Van Voorhis,  T. A. Wesolowski,  K. B. Whaley,  H. L. Woodcock III,  
 P. M. Zimmerman,  S. Faraji,  P. M. W. Gill,  M. Head-Gordon,  
 J. M. Herbert,  A. I. Krylov

 Contributors to earlier versions of Q-Chem not listed above: 
 R. D. Adamson,  B. Austin,  R. Baer,  J. Baker,  G. J. O. Beran,  
 K. Brandhorst,  S. T. Brown,  E. F. C. Byrd,  A. K. Chakraborty,  
 G. K. L. Chan,  Chun-Min Chang,  Yunqing Chen,  C.-L. Cheng,  
 Siu Hung Chien,  D. M. Chipman,  D. L. Crittenden,  H. Dachsel,  
 R. J. Doerksen,  A. D. Dutoi,  R. G. Edgar,  J. Fosso-Tande,  
 L. Fusti-Molnar,  D. Ghosh,  A. Ghysels,  A. Golubeva-Zadorozhnaya,  
 J. Gonthier,  M. S. Gordon,  S. R. Gwaltney,  G. Hawkins,  J. E. Herr,  
 A. Heyden,  S. Hirata,  E. G. Hohenstein,  G. Kedziora,  F. J. Keil,  
 C. Kelley,  Jihan Kim,  R. A. King,  R. Z. Khaliullin,  P. P. Korambath,  
 W. Kurlancheek,  A. Laurent,  A. M. Lee,  M. S. Lee,  S. V. Levchenko,  
 Ching Yeh Lin,  D. Liotard,  E. Livshits,  R. C. Lochan,  I. Lotan,  
 L. A. Martinez-Martinez,  P. E. Maslen,  N. Nair,  D. P. O'Neill,  
 D. Neuhauser,  E. Neuscamman,  C. M. Oana,  R. Olivares-Amaya,  R. Olson,  
 T. M. Perrine,  B. Peters,  P. A. Pieniazek,  A. Prociuk,  Y. M. Rhee,  
 J. Ritchie,  M. A. Rohrdanz,  E. Rosta,  N. J. Russ,  H. F. Schaefer III,  
 M. W. Schmidt,  N. E. Schultz,  S. Sharma,  N. Shenvi,  C. D. Sherrill,  
 A. C. Simmonett,  A. Sodt,  T. Stein,  D. Stuck,  K. S. Thanthiriwatte,  
 V. Vanovschi,  L. Vogt,  Tao Wang,  A. Warshel,  M. A. Watson,  
 C. F. Williams,  Q. Wu,  X. Xu,  Jun Yang,  W. Zhang,  Yan Zhao

 Please cite Q-Chem as follows:
 Y. Shao et al., Mol. Phys. 113, 184-215 (2015)
 DOI: 10.1080/00268976.2014.952696

 Q-Chem 5.4.0 for Intel X86 EM64T Linux

 Parts of Q-Chem use Armadillo 9.800.1 (Horizon Scraper).
 http://arma.sourceforge.net/

 Q-Chem begins on Tue Jun 11 17:40:35 2024  

 Host: 
0

     Scratch files written to /expanse/lustre/scratch/selhajj/temp_project/qcscratch/31246339/qchem1765889//
 May1621 |scratch|qcdevops|jenkins|workspace|build_RNUM    
 Processing $rem in /cm/shared/apps/spack/cpu/opt/spack/linux-centos8-zen2/gcc-10.2.0/qchem-5.4-akfmr7b3t57bfs6qan3padb2wnb2i7cl/config/preferences:
 Processing $rem in /home/selhajj/.qchemrc:
 Symmetry turned off for PCM/SM12/SMD calculation

 Checking the input file for inconsistencies... 	...done.

--------------------------------------------------------------
User input:
--------------------------------------------------------------
$molecule
0 1
C                 -3.1102520000     -3.1753350000     -0.8321460000
C                 -2.0715450000     -2.0937120000     -0.9780740000
C                 -2.4639930000     -0.8035050000     -0.8278200000
C                 -3.8413120000     -0.4062430000     -0.5033620000
C                 -4.8552650000     -1.4842220000     -0.3871110000
C                 -4.5100470000     -2.7659620000     -0.5501720000
O                 -2.8290500000     -4.3578220000     -0.9176320000
O                 -4.1529330000      0.7678660000     -0.3489660000
C                 -0.6746550000     -2.4527160000     -1.2106840000
C                 -0.0801230000     -3.4451720000     -2.0892910000
C                  0.3774980000     -1.7949770000     -0.6031460000
C                  1.3261540000     -3.3126360000     -1.9620760000
N                  1.5679800000     -2.3040560000     -1.0449680000
C                 -0.5787450000     -4.3912660000     -2.9999230000
C                  0.3134540000     -5.1642760000     -3.7269780000
C                  1.7050580000     -5.0205780000     -3.5716550000
C                  2.2304790000     -4.0906720000     -2.6872580000
H                 -1.7655980000      0.0157500000     -0.9571360000
H                 -5.8697200000     -1.1703170000     -0.1669990000
H                 -5.2214960000     -3.5809270000     -0.4740170000
H                  0.3504150000     -1.0170810000      0.1438510000
H                  2.4752690000     -2.0290910000     -0.7063340000
H                 -1.6440300000     -4.5341590000     -3.1168810000
H                 -0.0671420000     -5.9010280000     -4.4249750000
H                  2.3751550000     -5.6444650000     -4.1517420000
H                  3.3014850000     -3.9695170000     -2.5682540000
$end
$rem
MAX_SCF_CYCLES=200
BASIS  =  6-311++G(d,p)
GUI  =  2
JOB_TYPE  =  SP
METHOD  =  B3LYP
SOLVENT_METHOD = PCM
$end
$pcm
theory = CPCM
$end
$solvent
dielectric 37.219
opticaldielectric 1.43
$end





--------------------------------------------------------------
 ----------------------------------------------------------------
             Standard Nuclear Orientation (Angstroms)
    I     Atom           X                Y                Z
 ----------------------------------------------------------------
    1      C      -3.1102520000    -3.1753350000    -0.8321460000
    2      C      -2.0715450000    -2.0937120000    -0.9780740000
    3      C      -2.4639930000    -0.8035050000    -0.8278200000
    4      C      -3.8413120000    -0.4062430000    -0.5033620000
    5      C      -4.8552650000    -1.4842220000    -0.3871110000
    6      C      -4.5100470000    -2.7659620000    -0.5501720000
    7      O      -2.8290500000    -4.3578220000    -0.9176320000
    8      O      -4.1529330000     0.7678660000    -0.3489660000
    9      C      -0.6746550000    -2.4527160000    -1.2106840000
   10      C      -0.0801230000    -3.4451720000    -2.0892910000
   11      C       0.3774980000    -1.7949770000    -0.6031460000
   12      C       1.3261540000    -3.3126360000    -1.9620760000
   13      N       1.5679800000    -2.3040560000    -1.0449680000
   14      C      -0.5787450000    -4.3912660000    -2.9999230000
   15      C       0.3134540000    -5.1642760000    -3.7269780000
   16      C       1.7050580000    -5.0205780000    -3.5716550000
   17      C       2.2304790000    -4.0906720000    -2.6872580000
   18      H      -1.7655980000     0.0157500000    -0.9571360000
   19      H      -5.8697200000    -1.1703170000    -0.1669990000
   20      H      -5.2214960000    -3.5809270000    -0.4740170000
   21      H       0.3504150000    -1.0170810000     0.1438510000
   22      H       2.4752690000    -2.0290910000    -0.7063340000
   23      H      -1.6440300000    -4.5341590000    -3.1168810000
   24      H      -0.0671420000    -5.9010280000    -4.4249750000
   25      H       2.3751550000    -5.6444650000    -4.1517420000
   26      H       3.3014850000    -3.9695170000    -2.5682540000
 ----------------------------------------------------------------
 Nuclear Repulsion Energy =        1071.79289059 hartrees
 There are       58 alpha and       58 beta electrons
 Requested basis set is 6-311++G(d,p)
 There are 147 shells and 437 basis functions

 Total QAlloc Memory Limit   8000 MB
 Mega-Array Size       188 MB
 MEM_STATIC part       192 MB
 Discretize the solute cavity surface with Lebedev spheres
	Using 110 Lebedev grid points for each H atom
	Using 194 Lebedev grid points for other atoms
	Atomic van der Waals radii will be scaled by 1.20
 Remove points where switching function is < 1.0e-08
 Keep 1780 surface tesserae and discard 2508 interior tesserae
 Molecular Surface Area = 253.576 Angst**2
 A cutoff of  1.0D-08 yielded   7703 shell pairs
 There are     70502 function pairs (     75516 Cartesian)
 Smallest overlap matrix eigenvalue = 2.00E-07

 Q-Chem warning in module stvman/mkSTV.C, line 323:

 Overlap eigenvalue is smaller than square root of threshold
 Use THRESH >= 12 to get rid of this warning

 Linear dependence detected in AO basis
 Tighter screening thresholds may be required for diffuse basis sets
 Use S2THRESH > 14 and THRESH = 14 in case of SCF convergence issues
 Number of orthogonalized atomic orbitals = 434
 Maximum deviation from orthogonality = 1.243E-10

 Scale SEOQF with 1.000000e-02/1.000000e-02/1.000000e-01

 Standard Electronic Orientation quadrupole field applied
 Nucleus-field energy     =    -0.0000000320 hartrees
 Guess from superposition of atomic densities
 Warning:  Energy on first SCF cycle will be non-variational
 SAD guess density has 116.000000 electrons

 -----------------------------------------------------------------------
  General SCF calculation program by
  Eric Jon Sundstrom, Paul Horn, Yuezhi Mao, Dmitri Zuev, Alec White,
  David Stuck, Shaama M.S., Shane Yost, Joonho Lee, David Small,
  Daniel Levine, Susi Lehtola, Hugh Burton, Evgeny Epifanovsky,
  Bang C. Huynh
 -----------------------------------------------------------------------
 Exchange:     0.2000 Hartree-Fock + 0.0800 Slater + 0.7200 B88
 Correlation:  0.1900 VWN1RPA + 0.8100 LYP
 Using SG-1 standard quadrature grid
 using 8 threads for integral computing
 -------------------------------------------------------
 OpenMP Integral computing Module                
 Release: version 1.0, May 2013, Q-Chem Inc. Pittsburgh 
 -------------------------------------------------------
 A restricted SCF calculation will be
 performed using DIIS
 SCF converges when DIIS error is below 1.0e-05
 ---------------------------------------
  Cycle       Energy         DIIS error
 ---------------------------------------
    1    -748.5444309200      3.25e-02  
    2    -744.0413370589      3.44e-03  
    3    -743.7924780892      5.17e-03  
    4    -744.2666754848      1.29e-03  
    5    -744.2990451276      2.50e-04  
    6    -744.3000518020      1.16e-04  
    7    -744.3003225636      3.92e-05  
    8    -744.3003520425      1.24e-05  
    9    -744.3003480394      4.10e-06  Convergence criterion met
 ---------------------------------------
 SCF time:   CPU 310.62s  wall 40.00s 

************** Final PCM Free Energy Summary **************
 G_electrostatic  =      -0.02671445 hartree =     -16.76357301 kcal/mol
 G_cavitation     =       0.00000000 hartree =       0.00000000 kcal/mol
 G_dispersion     =       0.00000000 hartree =       0.00000000 kcal/mol
 G_repulsion      =       0.00000000 hartree =       0.00000000 kcal/mol
 --------------------------------------------------
 Non-electrostatic Free Energy =       0.00000000 hartree =       0.00000000 kcal/mol
 Total                         =      -0.02671445 hartree =     -16.76357301 kcal/mol
 --------------------------------------------------
 SCF Energy (H0 + V/2)                       =    -744.30034804 
 Solute Internal Energy (H0)                 =    -744.27363359 
 Total Free Energy (H0 + V/2 + non-elec)     =    -744.30034804 hartree
                                             = -467055.51766333 kcal/mol
***********************************************************

 SCF   energy in the final basis set =     -744.3003480394
 Total energy in the final basis set =     -744.3003480394
 
 --------------------------------------------------------------
 
                    Orbital Energies (a.u.)
 --------------------------------------------------------------
 
 Alpha MOs
 -- Occupied --
-19.1434 -19.1360 -14.3690 -10.2893 -10.2806 -10.2239 -10.2212 -10.2158
-10.2088 -10.2079 -10.1979 -10.1897 -10.1861 -10.1808 -10.1772 -10.1761
-10.1721  -1.0756  -1.0653  -0.9960  -0.8660  -0.8532  -0.8191  -0.7767
 -0.7480  -0.7316  -0.7072  -0.6533  -0.6344  -0.6163  -0.6011  -0.5712
 -0.5497  -0.5224  -0.5080  -0.4936  -0.4879  -0.4791  -0.4587  -0.4488
 -0.4474  -0.4403  -0.4366  -0.4356  -0.4271  -0.4191  -0.4070  -0.4011
 -0.3695  -0.3514  -0.3500  -0.3216  -0.3084  -0.2911  -0.2809  -0.2777
 -0.2411  -0.2196
 -- Virtual --
 -0.1344  -0.0411  -0.0265  -0.0055  -0.0027   0.0038   0.0052   0.0075
  0.0192   0.0199   0.0313   0.0345   0.0377   0.0418   0.0456   0.0536
  0.0589   0.0613   0.0673   0.0761   0.0786   0.0850   0.0910   0.0963
  0.1024   0.1078   0.1098   0.1105   0.1145   0.1170   0.1181   0.1210
  0.1248   0.1287   0.1322   0.1342   0.1352   0.1376   0.1392   0.1419
  0.1480   0.1492   0.1568   0.1594   0.1670   0.1699   0.1726   0.1740
  0.1811   0.1843   0.1880   0.1909   0.1969   0.2007   0.2054   0.2096
  0.2150   0.2164   0.2172   0.2186   0.2236   0.2292   0.2310   0.2367
  0.2432   0.2482   0.2520   0.2540   0.2563   0.2615   0.2639   0.2697
  0.2743   0.2805   0.2836   0.2857   0.2882   0.2906   0.2957   0.3047
  0.3085   0.3110   0.3122   0.3170   0.3193   0.3257   0.3299   0.3333
  0.3353   0.3427   0.3496   0.3563   0.3594   0.3645   0.3730   0.3763
  0.3804   0.3912   0.3950   0.4042   0.4124   0.4168   0.4249   0.4357
  0.4550   0.4914   0.5186   0.5196   0.5238   0.5368   0.5391   0.5490
  0.5548   0.5575   0.5641   0.5757   0.5831   0.5849   0.5874   0.5988
  0.6094   0.6113   0.6213   0.6245   0.6382   0.6447   0.6472   0.6570
  0.6636   0.6742   0.6835   0.6890   0.6956   0.6994   0.7070   0.7206
  0.7240   0.7305   0.7359   0.7470   0.7562   0.7625   0.7734   0.7769
  0.7828   0.8004   0.8159   0.8202   0.8366   0.8468   0.8536   0.8622
  0.8691   0.8735   0.8811   0.8861   0.8933   0.9013   0.9089   0.9123
  0.9151   0.9243   0.9318   0.9397   0.9406   0.9488   0.9706   0.9825
  0.9950   1.0042   1.0129   1.0188   1.0356   1.0426   1.0515   1.0685
  1.0719   1.0835   1.0902   1.1034   1.1139   1.1274   1.1341   1.1428
  1.1632   1.1676   1.1864   1.1964   1.2123   1.2225   1.2299   1.2489
  1.2622   1.2773   1.2960   1.3225   1.3448   1.3535   1.4217   1.4568
  1.4604   1.4823   1.4954   1.5099   1.5215   1.5286   1.5327   1.5507
  1.5608   1.5689   1.5734   1.5773   1.5983   1.6116   1.6237   1.6296
  1.6538   1.6709   1.6769   1.6799   1.6929   1.7227   1.7297   1.7351
  1.7444   1.7548   1.7553   1.7688   1.7815   1.8047   1.8232   1.8381
  1.8398   1.8516   1.8674   1.8892   1.8993   1.9065   1.9107   1.9350
  1.9439   1.9463   1.9558   1.9614   1.9651   1.9810   1.9883   2.0015
  2.0184   2.0295   2.0593   2.0798   2.0989   2.1046   2.1185   2.1481
  2.1821   2.1879   2.1984   2.2219   2.2476   2.2592   2.3107   2.3207
  2.3432   2.3579   2.4077   2.4395   2.4631   2.4720   2.4978   2.5117
  2.5256   2.5337   2.5611   2.5913   2.6215   2.6313   2.6379   2.6784
  2.6949   2.7023   2.7068   2.7091   2.7212   2.7293   2.7347   2.7428
  2.7598   2.7623   2.7774   2.7889   2.8027   2.8118   2.8232   2.8298
  2.8415   2.8478   2.8553   2.8750   2.8999   2.9062   2.9287   2.9332
  2.9464   2.9571   2.9649   2.9724   2.9871   3.0275   3.0384   3.0515
  3.0624   3.0942   3.1622   3.1892   3.1965   3.2111   3.2438   3.3025
  3.3239   3.3446   3.3602   3.4129   3.4342   3.4467   3.4594   3.5106
  3.5142   3.5426   3.5691   3.5976   3.6182   3.6506   3.6873   3.6934
  3.7407   3.8204   3.8913   3.9566   4.0333   4.0447   4.0808   4.0886
  4.1294   4.1629   4.2095   4.3590   4.5158   4.6855   4.8258   4.9341
  5.0359   5.0581   5.1557   5.1941   5.2347   5.7018   5.7821  23.5935
 23.6927  23.7669  23.8314  23.8670  23.9028  23.9410  23.9811  24.0453
 24.0959  24.1160  24.1511  24.1918  24.2327  35.6463  49.9925  50.0266
 --------------------------------------------------------------
 
          Ground-State Mulliken Net Atomic Charges

     Atom                 Charge (a.u.)
  ----------------------------------------
      1 C                    -1.174649
      2 C                     1.354019
      3 C                    -0.645004
      4 C                    -0.306161
      5 C                     0.013375
      6 C                     0.132000
      7 O                    -0.260683
      8 O                    -0.333679
      9 C                     0.567863
     10 C                     1.215910
     11 C                    -0.267714
     12 C                     0.066560
     13 N                    -0.106838
     14 C                    -0.996623
     15 C                    -0.546767
     16 C                    -0.292146
     17 C                    -0.571360
     18 H                     0.242383
     19 H                     0.259213
     20 H                     0.259950
     21 H                     0.239716
     22 H                     0.369844
     23 H                     0.168830
     24 H                     0.204736
     25 H                     0.200987
     26 H                     0.206240
  ----------------------------------------
  Sum of atomic charges =     0.000000

 -----------------------------------------------------------------
                    Cartesian Multipole Moments
 -----------------------------------------------------------------
    Charge (ESU x 10^10)
                -0.0000
    Dipole Moment (Debye)
         X       4.3643      Y       0.1819      Z       0.8686
       Tot       4.4536
    Quadrupole Moments (Debye-Ang)
        XX     -83.9158     XY       1.9762     YY    -119.2780
        XZ      -2.5012     YZ      -0.0186     ZZ     -99.5197
    Octopole Moments (Debye-Ang^2)
       XXX     348.8568    XXY     166.7921    XYY     175.2958
       YYY     913.5240    XXZ     130.1192    XYZ      10.7386
       YYZ     137.5529    XZZ     123.5139    YZZ     253.5716
       ZZZ     447.8562
    Hexadecapole Moments (Debye-Ang^3)
      XXXX   -3667.6650   XXXY     -62.4443   XXYY   -1642.4692
      XYYY    -626.9736   YYYY   -6701.6436   XXXZ     -63.0137
      XXYZ    -466.5502   XYYZ     -88.9554   YYYZ   -1547.8099
      XXZZ   -1041.7125   XYZZ    -152.7999   YYZZ   -1217.1461
      XZZZ     -10.7973   YZZZ   -1577.3510   ZZZZ   -2245.0944
 -----------------------------------------------------------------
 Total job time:  48.79s(wall), 319.35s(cpu) 
 Tue Jun 11 17:41:24 2024

        *************************************************************
        *                                                           *
        *  Thank you very much for using Q-Chem.  Have a nice day.  *
        *                                                           *
        *************************************************************


