
Running Job 1 of 1 347-rad-COSMO.in
qchem 347-rad-COSMO.in_1701897.0 /expanse/lustre/scratch/selhajj/temp_project/qcscratch/28878831/qchem1701897/ 0
/cm/shared/apps/spack/cpu/opt/spack/linux-centos8-zen2/gcc-10.2.0/qchem-5.4-akfmr7b3t57bfs6qan3padb2wnb2i7cl/exe/qcprog.exe_s 347-rad-COSMO.in_1701897.0 /expanse/lustre/scratch/selhajj/temp_project/qcscratch/28878831/qchem1701897/
                  Welcome to Q-Chem
     A Quantum Leap Into The Future Of Chemistry


 Q-Chem 5.4, Q-Chem, Inc., Pleasanton, CA (2021)

 License issued to: University of California, San Diego (site)

 E. Epifanovsky,  A. T. B. Gilbert,  Xintian Feng,  Joonho Lee,  Yuezhi Mao,  
 N. Mardirossian,  P. Pokhilko,  A. White,  M. Wormit,  M. P. Coons,  
 A. L. Dempwolff,  Zhengting Gan,  D. Hait,  P. R. Horn,  L. D. Jacobson,  
 I. Kaliman,  J. Kussmann,  A. W. Lange,  Ka Un Lao,  D. S. Levine,  Jie Liu,  
 S. C. McKenzie,  A. F. Morrison,  K. Nanda,  F. Plasser,  D. R. Rehn,  
 M. L. Vidal,  Zhi-Qiang You,  Ying Zhu,  B. Alam,  B. Albrecht,  
 A. Aldossary,  E. Alguire,  J. H. Andersen,  D. Barton,  K. Begam,  A. Behn,  
 Y. A. Bernard,  E. J. Berquist,  H. Burton,  A. Carreras,  K. Carter-Fenk,  
 R. Chakraborty,  A. D. Chien,  K. D. Closser,  V. Cofer-Shabica,  
 S. Dasgupta,  Jia Deng,  M. de Wergifosse,  M. Diedenhofen,  Hainam Do,  
 S. Ehlert,  Po-Tung Fang,  S. Fatehi,  Qingguo Feng,  J. Gayvert,  
 Qinghui Ge,  G. Gidofalvi,  M. Goldey,  J. Gomes,  C. Gonzalez-Espinoza,  
 S. Gulania,  A. Gunina,  M. W. D. Hanson-Heine,  P. H. P. Harbach,  
 A. W. Hauser,  M. F. Herbst,  M. Hernandez Vera,  M. Hodecker,  
 Z. C. Holden,  S. Houck,  Xunkun Huang,  Kerwin Hui,  B. C. Huynh,  
 M. Ivanov,  Hyunjun Ji,  Hanjie Jiang,  B. Kaduk,  S. Kaehler,  
 K. Khistyaev,  Jaehoon Kim,  P. Klunzinger,  Z. Koczor-Benda,  
 Joong Hoon Koh,  D. Kosenkov,  L. Koulias,  T. Kowalczyk,  C. M. Krauter,  
 K. Kue,  A. Kunitsa,  T. Kus,  A. Landau,  K. V. Lawler,  D. Lefrancois,  
 S. Lehtola,  Rain Li,  Yi-Pei Li,  Jiashu Liang,  M. Liebenthal,  
 Hung-Hsuan Lin,  You-Sheng Lin,  Fenglai Liu,  Kuan-Yu Liu,  
 M. Loipersberger,  A. Luenser,  A. Manjanath,  P. Manohar,  E. Mansoor,  
 S. F. Manzer,  Shan-Ping Mao,  A. V. Marenich,  T. Markovich,  S. Mason,  
 S. A. Maurer,  P. F. McLaughlin,  M. F. S. J. Menger,  J.-M. Mewes,  
 S. A. Mewes,  P. Morgante,  J. W. Mullinax,  T. S. Nguyen-Beck,  
 K. J. Oosterbaan,  G. Paran,  Alexander C. Paul,  Suranjan K. Paul,  
 F. Pavosevic,  Zheng Pei,  S. Prager,  E. I. Proynov,  E. Ramos,  B. Rana,  
 A. E. Rask,  A. Rettig,  R. M. Richard,  F. Rob,  E. Rossomme,  T. Scheele,  
 M. Scheurer,  M. Schneider,  N. Sergueev,  S. M. Sharada,  W. Skomorowski,  
 D. W. Small,  C. J. Stein,  Yu-Chuan Su,  E. J. Sundstrom,  Zhen Tao,  
 J. Thirman,  T. Tsuchimochi,  N. M. Tubman,  S. P. Veccham,  O. Vydrov,  
 J. Wenzel,  J. Witte,  A. Yamada,  Kun Yao,  S. Yeganeh,  S. R. Yost,  
 A. Zech,  Igor Ying Zhang,  Xing Zhang,  Yu Zhang,  D. Zuev,  
 A. Aspuru-Guzik,  A. T. Bell,  N. A. Besley,  K. B. Bravaya,  B. R. Brooks,  
 D. Casanova,  Jeng-Da Chai,  S. Coriani,  C. J. Cramer,  
 A. E. DePrince, III,  R. A. DiStasio Jr.,  A. Dreuw,  B. D. Dunietz,  
 T. R. Furlani,  W. A. Goddard III,  S. Grimme,  S. Hammes-Schiffer,  
 T. Head-Gordon,  W. J. Hehre,  Chao-Ping Hsu,  T.-C. Jagau,  Yousung Jung,  
 A. Klamt,  Jing Kong,  D. S. Lambrecht,  WanZhen Liang,  N. J. Mayhall,  
 C. W. McCurdy,  J. B. Neaton,  C. Ochsenfeld,  J. A. Parkhill,  R. Peverati,  
 V. A. Rassolov,  Yihan Shao,  L. V. Slipchenko,  T. Stauch,  R. P. Steele,  
 J. E. Subotnik,  A. J. W. Thom,  A. Tkatchenko,  D. G. Truhlar,  
 T. Van Voorhis,  T. A. Wesolowski,  K. B. Whaley,  H. L. Woodcock III,  
 P. M. Zimmerman,  S. Faraji,  P. M. W. Gill,  M. Head-Gordon,  
 J. M. Herbert,  A. I. Krylov

 Contributors to earlier versions of Q-Chem not listed above: 
 R. D. Adamson,  B. Austin,  R. Baer,  J. Baker,  G. J. O. Beran,  
 K. Brandhorst,  S. T. Brown,  E. F. C. Byrd,  A. K. Chakraborty,  
 G. K. L. Chan,  Chun-Min Chang,  Yunqing Chen,  C.-L. Cheng,  
 Siu Hung Chien,  D. M. Chipman,  D. L. Crittenden,  H. Dachsel,  
 R. J. Doerksen,  A. D. Dutoi,  R. G. Edgar,  J. Fosso-Tande,  
 L. Fusti-Molnar,  D. Ghosh,  A. Ghysels,  A. Golubeva-Zadorozhnaya,  
 J. Gonthier,  M. S. Gordon,  S. R. Gwaltney,  G. Hawkins,  J. E. Herr,  
 A. Heyden,  S. Hirata,  E. G. Hohenstein,  G. Kedziora,  F. J. Keil,  
 C. Kelley,  Jihan Kim,  R. A. King,  R. Z. Khaliullin,  P. P. Korambath,  
 W. Kurlancheek,  A. Laurent,  A. M. Lee,  M. S. Lee,  S. V. Levchenko,  
 Ching Yeh Lin,  D. Liotard,  E. Livshits,  R. C. Lochan,  I. Lotan,  
 L. A. Martinez-Martinez,  P. E. Maslen,  N. Nair,  D. P. O'Neill,  
 D. Neuhauser,  E. Neuscamman,  C. M. Oana,  R. Olivares-Amaya,  R. Olson,  
 T. M. Perrine,  B. Peters,  P. A. Pieniazek,  A. Prociuk,  Y. M. Rhee,  
 J. Ritchie,  M. A. Rohrdanz,  E. Rosta,  N. J. Russ,  H. F. Schaefer III,  
 M. W. Schmidt,  N. E. Schultz,  S. Sharma,  N. Shenvi,  C. D. Sherrill,  
 A. C. Simmonett,  A. Sodt,  T. Stein,  D. Stuck,  K. S. Thanthiriwatte,  
 V. Vanovschi,  L. Vogt,  Tao Wang,  A. Warshel,  M. A. Watson,  
 C. F. Williams,  Q. Wu,  X. Xu,  Jun Yang,  W. Zhang,  Yan Zhao

 Please cite Q-Chem as follows:
 Y. Shao et al., Mol. Phys. 113, 184-215 (2015)
 DOI: 10.1080/00268976.2014.952696

 Q-Chem 5.4.0 for Intel X86 EM64T Linux

 Parts of Q-Chem use Armadillo 9.800.1 (Horizon Scraper).
 http://arma.sourceforge.net/

 Q-Chem begins on Thu Feb 22 10:41:53 2024  

 Host: 
0

     Scratch files written to /expanse/lustre/scratch/selhajj/temp_project/qcscratch/28878831/qchem1701897//
 May1621 |scratch|qcdevops|jenkins|workspace|build_RNUM    
 Processing $rem in /cm/shared/apps/spack/cpu/opt/spack/linux-centos8-zen2/gcc-10.2.0/qchem-5.4-akfmr7b3t57bfs6qan3padb2wnb2i7cl/config/preferences:
 Processing $rem in /home/selhajj/.qchemrc:

 Checking the input file for inconsistencies... 
 Q-Chem warning in module libgen/CheckREMs.C, line 172:

 Found a $solvent section, which is only used for PCM and Kirkwood-Onsager solvation models

	...done.

--------------------------------------------------------------
User input:
--------------------------------------------------------------
$molecule
-1 2
N                 -4.7144670000      0.3826640000      0.3399510000
C                 -3.7380330000     -0.1657990000      0.6517600000
C                 -2.5440450000     -0.8227960000      1.0218560000
C                 -2.6658100000     -1.9054550000      1.9202850000
N                 -2.7538970000     -2.7983010000      2.6595550000
C                 -1.2736570000     -0.4118420000      0.5116890000
C                 -1.1504710000      0.6799800000     -0.3939260000
C                  0.0696780000      1.0745770000     -0.8840660000
C                  1.2736630000      0.4119470000     -0.5115790000
C                  1.1504980000     -0.6798260000      0.3941220000
C                 -0.0696480000     -1.0743950000      0.8843000000
C                  2.5440060000      0.8227040000     -1.0219560000
C                  3.7379370000      0.1654310000     -0.6522270000
N                  4.7143520000     -0.3832230000     -0.3406840000
C                  2.6658550000      1.9054790000     -1.9202560000
N                  2.7539920000      2.7983460000     -2.6594920000
H                 -2.0448220000      1.2100460000     -0.7014100000
H                  0.1222940000      1.9109900000     -1.5718340000
H                  2.0448500000     -1.2098630000      0.7016750000
H                 -0.1222760000     -1.9106660000      1.5722360000
$end
$rem
MAX_SCF_CYCLES=200
BASIS  =  6-311++G(d,p)
GUI  =  2
JOB_TYPE  =  SP
METHOD  =  B3LYP
SOLVENT_METHOD = COSMO
$end
$solvent
dielectric 37.219
opticaldielectric 1.43
$end





--------------------------------------------------------------
 ----------------------------------------------------------------
             Standard Nuclear Orientation (Angstroms)
    I     Atom           X                Y                Z
 ----------------------------------------------------------------
    1      N       4.2014908710    -2.1990218661    -0.0005889353
    2      C       3.6026240859    -1.2026191563    -0.0002974913
    3      C       2.8624055912     0.0000029517     0.0000133338
    4      C       3.6025687387     1.2026294107     0.0001068275
    5      N       4.2014195699     2.1990385128     0.0002307020
    6      C       1.4330563666    -0.0000045838     0.0001645688
    7      C       0.6864310305    -1.2124150478     0.0004340758
    8      C      -0.6864154988    -1.2124242069     0.0003989643
    9      C      -1.4330463692    -0.0000104136     0.0000837569
   10      C      -0.6864230799     1.2124193110    -0.0000864382
   11      C       0.6864263008     1.2124295891    -0.0000041290
   12      C      -2.8623739430    -0.0000062286    -0.0000554007
   13      C      -3.6025934632     1.2025966159    -0.0002068978
   14      N      -4.2014834226     2.1989887677    -0.0002424851
   15      C      -3.6025990380    -1.2026111390     0.0000323546
   16      N      -4.2014882064    -2.1989952175    -0.0000467865
   17      H       1.2191762726    -2.1566409368     0.0006858184
   18      H      -1.2191330146    -2.1566656373     0.0007750342
   19      H      -1.2191529134     2.1566610497    -0.0002666661
   20      H       1.2191736415     2.1566515321    -0.0001627991
 ----------------------------------------------------------------
 Molecular Point Group                 C1    NOp =  1
 Largest Abelian Subgroup              C1    NOp =  1
 Nuclear Repulsion Energy =         831.93935370 hartrees
 There are       53 alpha and       52 beta electrons
 Requested basis set is 6-311++G(d,p)
 There are 116 shells and 380 basis functions

 Total QAlloc Memory Limit   8000 MB
 Mega-Array Size       188 MB
 MEM_STATIC part       192 MB
 A cutoff of  1.0D-08 yielded   4866 shell pairs
 There are     53315 function pairs (     57370 Cartesian)
 Smallest overlap matrix eigenvalue = 1.20E-07

 Q-Chem warning in module stvman/mkSTV.C, line 323:

 Overlap eigenvalue is smaller than square root of threshold
 Use THRESH >= 12 to get rid of this warning

 Linear dependence detected in AO basis
 Tighter screening thresholds may be required for diffuse basis sets
 Use S2THRESH > 14 and THRESH = 14 in case of SCF convergence issues
 Number of orthogonalized atomic orbitals = 376
 Maximum deviation from orthogonality = 1.093E-10

 Scale SEOQF with 1.000000e-01/1.000000e-01/1.000000e-01

 Standard Electronic Orientation quadrupole field applied
 Nucleus-field energy     =     0.0000000498 hartrees
 Guess from superposition of atomic densities
 Warning:  Energy on first SCF cycle will be non-variational
 SAD guess density has 104.000000 electrons

 -----------------------------------------------------------------------
  General SCF calculation program by
  Eric Jon Sundstrom, Paul Horn, Yuezhi Mao, Dmitri Zuev, Alec White,
  David Stuck, Shaama M.S., Shane Yost, Joonho Lee, David Small,
  Daniel Levine, Susi Lehtola, Hugh Burton, Evgeny Epifanovsky,
  Bang C. Huynh
 -----------------------------------------------------------------------
 Exchange:     0.2000 Hartree-Fock + 0.0800 Slater + 0.7200 B88
 Correlation:  0.1900 VWN1RPA + 0.8100 LYP
 Using SG-1 standard quadrature grid
 using 8 threads for integral computing
 -------------------------------------------------------
 OpenMP Integral computing Module                
 Release: version 1.0, May 2013, Q-Chem Inc. Pittsburgh 
 -------------------------------------------------------
 A unrestricted SCF calculation will be
 performed using DIIS
 SCF converges when DIIS error is below 1.0e-05
 ---------------------------------------
  Cycle       Energy         DIIS error
 ---------------------------------------
    1    -682.2468608637      1.73e-02  
    2    -678.6385579942      1.92e-03  
    3    -678.0953279451      3.58e-03  
    4    -678.8258530549      9.60e-04  
    5    -678.8887279992      1.73e-04  
    6    -678.8903831567      9.29e-05  
    7    -678.8910805775      1.53e-05  
    8    -678.8911036058      5.95e-06  Convergence criterion met
 ---------------------------------------
 SCF time:   CPU 144.50s  wall 21.00s 
<S^2> =          0.760370838
 SCF   energy in the final basis set =     -678.8911036058
 Total energy in the final basis set =     -678.8911036058
 Exchange:     0.2000 Hartree-Fock + 0.0800 Slater + 0.7200 B88
 Correlation:  0.1900 VWN1RPA + 0.8100 LYP
 Using SG-1 standard quadrature grid
 in get_qchem_info
 IBasis=      401111
 IBasis=      401111
 USING 1082 GRID
 MICHARGE=          -1
 Set epsilon to    37.2190017700195     
==== cosmo data ====
outfile: 347-rad-COSMO.out.cosmo.0
phsran:    0.00000D+00
ampran:    0.10000D-04
volume:   1697.3469416
area:    874.2659541
routf:      0.8500000
rsolv [a.u]:      2.4566438
disex:     10.0000000
disex2:   5000.2477846
fepsi:      0.9731320
eps :    37.2190018
lcavity:     1
nppa:  1082
nspa:    92
nsph:    32
maxnps:  1600
natoms:    20
Atom   Radius [a.u.] nuc. charge
    1      3.4581986    7
    2      3.7794520    6
    3      3.7794520    6
    4      3.7794520    6
    5      3.4581986    7
    6      3.7794520    6
    7      3.7794520    6
    8      3.7794520    6
    9      3.7794520    6
   10      3.7794520    6
   11      3.7794520    6
   12      3.7794520    6
   13      3.7794520    6
   14      3.4581986    7
   15      3.7794520    6
   16      3.4581986    7
   17      2.4566438    1
   18      2.4566438    1
   19      2.4566438    1
   20      2.4566438    1
=== end cosmo data ===
 number of segments:          932
 f_epsilon=  0.973132003749614     
Ediel:   -0.0641213
 A unrestricted SCF calculation will be
 performed using Roothaan-Hall, DIIS
 SCF converges when DIIS error is below 1.0e-05
 ---------------------------------------
  Cycle       Energy         DIIS error
 ---------------------------------------
 number of segments:          932
 f_epsilon=  0.973132003749614     
Ediel:   -0.0719056
    1    -678.9552322522      1.03e-04  Roothaan Step
 ---------------------------------------
  Cycle       Energy         DIIS error
 ---------------------------------------
 number of segments:          932
 f_epsilon=  0.973132003749614     
Ediel:   -0.0636388
    1    -678.9547557352      2.11e-04  
 number of segments:          932
 f_epsilon=  0.973132003749614     
Ediel:   -0.0691931
    2    -678.9399057156      5.38e-04  
 number of segments:          932
 f_epsilon=  0.973132003749614     
Ediel:   -0.0692963
    3    -678.9574999911      1.39e-05  
    4    -678.9575140547      6.73e-06  Convergence criterion met
 ---------------------------------------
 SCF time:   CPU 130.63s  wall 17.00s 
<S^2> =          0.759490546
before final oc correction, ETot:      -678.9575140547
 number of outlayer segments:          474
SCF energy after oc correction:      -678.9621435260
 SCF   energy in the final basis set =     -678.9621435260
 Total energy in the final basis set =     -678.9575140547
 
 --------------------------------------------------------------
 
                    Orbital Energies (a.u.)
 --------------------------------------------------------------
 
 Alpha MOs
 -- Occupied --
-14.3224 -14.3224 -14.3224 -14.3224 -10.2330 -10.2330 -10.2277 -10.2277
-10.2277 -10.2277 -10.2181 -10.2181 -10.1918 -10.1917 -10.1911 -10.1911
 -0.9321  -0.9309  -0.9192  -0.9192  -0.8875  -0.8425  -0.7986  -0.7691
 -0.7302  -0.6453  -0.6311  -0.5965  -0.5629  -0.5518  -0.5191  -0.4608
 -0.4570  -0.4386  -0.4328  -0.4216  -0.4064  -0.3943  -0.3920  -0.3900
 -0.3878  -0.3797  -0.3623  -0.3622  -0.3607  -0.3591  -0.3559  -0.3481
 -0.3448  -0.3141  -0.2796  -0.2462  -0.1904
 -- Virtual --
 -0.0327  -0.0307  -0.0162  -0.0113  -0.0024   0.0093   0.0138   0.0196
  0.0242   0.0295   0.0312   0.0391   0.0426   0.0469   0.0479   0.0525
  0.0582   0.0602   0.0680   0.0790   0.0801   0.0830   0.0844   0.0848
  0.0942   0.1043   0.1072   0.1129   0.1212   0.1232   0.1253   0.1263
  0.1264   0.1369   0.1429   0.1457   0.1487   0.1545   0.1556   0.1638
  0.1643   0.1667   0.1755   0.1805   0.1889   0.1914   0.1975   0.1981
  0.1987   0.2106   0.2194   0.2217   0.2238   0.2263   0.2266   0.2387
  0.2394   0.2408   0.2435   0.2504   0.2523   0.2534   0.2582   0.2588
  0.2591   0.2647   0.2672   0.2751   0.2801   0.2845   0.2903   0.2922
  0.2962   0.3019   0.3154   0.3166   0.3196   0.3198   0.3255   0.3365
  0.3367   0.3427   0.3507   0.3695   0.3847   0.4060   0.4174   0.4201
  0.4460   0.5133   0.5188   0.5355   0.5403   0.5415   0.5484   0.5494
  0.5557   0.5708   0.5965   0.6050   0.6085   0.6178   0.6205   0.6387
  0.6436   0.6493   0.6549   0.6553   0.6564   0.6622   0.6665   0.6748
  0.6787   0.6870   0.6890   0.7123   0.7186   0.7258   0.7308   0.7382
  0.7444   0.7717   0.7774   0.7865   0.8098   0.8233   0.8293   0.8401
  0.8513   0.8770   0.8785   0.8860   0.8903   0.8922   0.8953   0.9003
  0.9032   0.9055   0.9164   0.9297   0.9422   0.9450   0.9548   0.9652
  0.9883   0.9896   0.9972   1.0030   1.0281   1.0339   1.0367   1.0397
  1.0612   1.0646   1.0671   1.0707   1.0762   1.0938   1.0940   1.1156
  1.1170   1.1277   1.1473   1.1655   1.1916   1.2563   1.2620   1.2743
  1.2890   1.2909   1.2962   1.3279   1.3402   1.3801   1.4423   1.4745
  1.4761   1.4774   1.4809   1.4944   1.4963   1.5125   1.5461   1.5687
  1.5828   1.5847   1.6063   1.6234   1.6303   1.6587   1.6594   1.6767
  1.7120   1.7240   1.7408   1.7422   1.7464   1.7500   1.7790   1.7885
  1.8676   1.8693   1.8823   1.9077   1.9279   1.9441   1.9510   1.9534
  1.9857   1.9979   2.0141   2.0272   2.0453   2.0676   2.0731   2.0765
  2.0823   2.0905   2.0937   2.0946   2.1109   2.1286   2.1362   2.1689
  2.2377   2.2657   2.2974   2.2987   2.3239   2.4387   2.4498   2.4557
  2.5085   2.5370   2.5550   2.6257   2.6319   2.6454   2.6543   2.6657
  2.6661   2.6683   2.6861   2.7044   2.7163   2.7319   2.7381   2.7703
  2.7745   2.7859   2.8244   2.8438   2.8470   2.8752   2.8780   2.8795
  2.8965   2.9231   2.9241   2.9528   2.9685   2.9701   3.0019   3.0146
  3.0326   3.0500   3.0562   3.0611   3.0628   3.0851   3.0854   3.1288
  3.1524   3.1830   3.2021   3.2035   3.2054   3.2583   3.2596   3.3644
  3.4022   3.4294   3.5161   3.5183   3.5568   3.6490   3.6971   3.8651
  3.8842   3.9677   3.9718   3.9775   3.9795   4.0242   4.0311   4.0320
  4.0520   4.0668   4.1569   4.1657   4.3031   4.4907   4.5937   4.5994
  4.6043   4.6190   4.8221  23.5104  23.7002  23.8400  23.8949  23.9684
 23.9691  24.1348  24.1838  24.4218  24.4285  24.5131  24.5378  35.8519
 35.8614  35.8833  35.8916
 
 Beta MOs
 -- Occupied --
-14.3204 -14.3204 -14.3203 -14.3203 -10.2294 -10.2294 -10.2285 -10.2285
-10.2284 -10.2283 -10.2171 -10.2171 -10.1912 -10.1911 -10.1905 -10.1905
 -0.9287  -0.9275  -0.9162  -0.9161  -0.8836  -0.8363  -0.7915  -0.7675
 -0.7232  -0.6427  -0.6292  -0.5942  -0.5603  -0.5507  -0.5171  -0.4593
 -0.4553  -0.4381  -0.4217  -0.4098  -0.4044  -0.3911  -0.3894  -0.3870
 -0.3847  -0.3705  -0.3595  -0.3581  -0.3550  -0.3548  -0.3548  -0.3468
 -0.3436  -0.2995  -0.2751  -0.2204
 -- Virtual --
 -0.1377  -0.0247  -0.0205  -0.0152  -0.0105  -0.0021   0.0098   0.0138
  0.0262   0.0298   0.0310   0.0314   0.0394   0.0427   0.0475   0.0484
  0.0538   0.0585   0.0605   0.0683   0.0794   0.0833   0.0846   0.0852
  0.0854   0.0946   0.1057   0.1073   0.1135   0.1215   0.1232   0.1263
  0.1289   0.1313   0.1379   0.1431   0.1476   0.1506   0.1558   0.1584
  0.1648   0.1667   0.1700   0.1765   0.1808   0.1899   0.1928   0.1979
  0.1992   0.1996   0.2184   0.2198   0.2239   0.2269   0.2274   0.2282
  0.2396   0.2415   0.2422   0.2441   0.2507   0.2536   0.2546   0.2586
  0.2596   0.2599   0.2656   0.2678   0.2790   0.2806   0.2870   0.2912
  0.2942   0.2961   0.3020   0.3154   0.3173   0.3201   0.3211   0.3281
  0.3371   0.3381   0.3430   0.3526   0.3695   0.3853   0.4076   0.4191
  0.4211   0.4496   0.5134   0.5211   0.5357   0.5416   0.5437   0.5483
  0.5504   0.5598   0.5715   0.5965   0.6056   0.6091   0.6187   0.6250
  0.6386   0.6452   0.6517   0.6549   0.6572   0.6578   0.6625   0.6676
  0.6838   0.6844   0.6885   0.6896   0.7143   0.7193   0.7270   0.7321
  0.7450   0.7455   0.7720   0.7783   0.7882   0.8111   0.8245   0.8298
  0.8417   0.8528   0.8779   0.8804   0.8921   0.8926   0.8962   0.8982
  0.9065   0.9078   0.9091   0.9182   0.9307   0.9455   0.9459   0.9564
  0.9663   0.9932   0.9945   0.9985   1.0041   1.0313   1.0347   1.0399
  1.0466   1.0636   1.0677   1.0689   1.0725   1.0819   1.0950   1.0978
  1.1181   1.1181   1.1348   1.1485   1.1715   1.1933   1.2559   1.2616
  1.2755   1.2887   1.2905   1.2970   1.3299   1.3399   1.3812   1.4426
  1.4759   1.4783   1.4806   1.4813   1.4971   1.4983   1.5146   1.5488
  1.5707   1.5838   1.5859   1.6099   1.6250   1.6344   1.6592   1.6602
  1.6785   1.7147   1.7256   1.7440   1.7440   1.7495   1.7522   1.7831
  1.7919   1.8756   1.8765   1.8831   1.9092   1.9323   1.9459   1.9606
  1.9622   1.9927   1.9999   2.0159   2.0344   2.0479   2.0725   2.0797
  2.0833   2.0870   2.0963   2.0984   2.0993   2.1153   2.1309   2.1441
  2.1737   2.2415   2.2723   2.2989   2.3046   2.3280   2.4389   2.4515
  2.4565   2.5091   2.5449   2.5628   2.6271   2.6324   2.6468   2.6554
  2.6677   2.6699   2.6708   2.6882   2.7062   2.7180   2.7320   2.7388
  2.7712   2.7747   2.7861   2.8268   2.8449   2.8523   2.8755   2.8803
  2.8829   2.9020   2.9240   2.9271   2.9528   2.9686   2.9714   3.0019
  3.0151   3.0342   3.0502   3.0620   3.0633   3.0760   3.0864   3.0968
  3.1299   3.1538   3.1839   3.2036   3.2050   3.2070   3.2589   3.2607
  3.3655   3.4038   3.4306   3.5166   3.5187   3.5582   3.6510   3.6995
  3.8696   3.8884   3.9766   3.9807   3.9862   3.9882   4.0259   4.0335
  4.0343   4.0543   4.0690   4.1598   4.1672   4.3071   4.4941   4.5957
  4.6014   4.6063   4.6212   4.8253  23.5120  23.7027  23.8420  23.8957
 23.9696  23.9707  24.1355  24.1845  24.4224  24.4291  24.5125  24.5372
 35.8540  35.8636  35.8855  35.8938
 --------------------------------------------------------------
 
          Ground-State Mulliken Net Atomic Charges

     Atom                 Charge (a.u.)    Spin (a.u.)
  --------------------------------------------------------
      1 N                    -0.323885       0.107313
      2 C                    -1.400934      -0.069513
      3 C                     2.375031       0.293484
      4 C                    -1.400831      -0.069516
      5 N                    -0.323937       0.107344
      6 C                     1.599318       0.123929
      7 C                    -0.680870       0.008559
      8 C                    -0.680102       0.008505
      9 C                     1.599757       0.124020
     10 C                    -0.680370       0.008496
     11 C                    -0.681108       0.008537
     12 C                     2.375409       0.293340
     13 C                    -1.400946      -0.069487
     14 N                    -0.323826       0.107296
     15 C                    -1.400905      -0.069486
     16 N                    -0.323853       0.107300
     17 H                     0.168077      -0.005032
     18 H                     0.167954      -0.005029
     19 H                     0.167953      -0.005029
     20 H                     0.168067      -0.005031
  --------------------------------------------------------
  Sum of atomic charges =    -1.000000
  Sum of spin   charges =     1.000000

 -----------------------------------------------------------------
                    Cartesian Multipole Moments
 -----------------------------------------------------------------
    Charge (ESU x 10^10)
                -4.8032
    Dipole Moment (Debye)
         X       0.0018      Y      -0.0001      Z       0.0011
       Tot       0.0021
    Quadrupole Moments (Debye-Ang)
        XX    -205.9974     XY      -0.0009     YY    -129.1921
        XZ       0.0007     YZ      -0.0057     ZZ     -95.4297
    Octopole Moments (Debye-Ang^2)
       XXX       0.0110    XXY       0.0004    XYY      -0.0031
       YYY      -0.0004    XXZ       0.0198    XYZ      -0.0198
       YYZ       0.0115    XZZ       0.0013    YZZ      -0.0001
       ZZZ      -0.0013
    Hexadecapole Moments (Debye-Ang^3)
      XXXX   -7562.5781   XXXY       0.0132   XXYY   -1944.8065
      XYYY       0.0060   YYYY   -1540.0466   XXXZ       0.0131
      XXYZ      -0.0672   XYYZ       0.0048   YYYZ      -0.0392
      XXZZ    -895.1185   XYZZ      -0.0005   YYZZ    -243.7076
      XZZZ       0.0003   YZZZ      -0.0015   ZZZZ    -109.0226
 -----------------------------------------------------------------
 Total job time:  41.49s(wall), 282.59s(cpu) 
 Thu Feb 22 10:42:34 2024

        *************************************************************
        *                                                           *
        *  Thank you very much for using Q-Chem.  Have a nice day.  *
        *                                                           *
        *************************************************************


