 Entering Gaussian System, Link 0=g16
 Input=324-PCM.com
 Output=324-PCM.log
 Initial command:
 /sysapps/ubuntu-applications/gaussian/Gaussian/AVX2/g16/l1.exe "/scratch/selhajj1/4283312/Gau-3860715.inp" -scrdir="/scratch/selhajj1/4283312/"
 Entering Link 1 = /sysapps/ubuntu-applications/gaussian/Gaussian/AVX2/g16/l1.exe PID=   3860717.
  
 Copyright (c) 1988,1990,1992,1993,1995,1998,2003,2009,2016,
            Gaussian, Inc.  All Rights Reserved.
  
 This is part of the Gaussian(R) 16 program.  It is based on
 the Gaussian(R) 09 system (copyright 2009, Gaussian, Inc.),
 the Gaussian(R) 03 system (copyright 2003, Gaussian, Inc.),
 the Gaussian(R) 98 system (copyright 1998, Gaussian, Inc.),
 the Gaussian(R) 94 system (copyright 1995, Gaussian, Inc.),
 the Gaussian 92(TM) system (copyright 1992, Gaussian, Inc.),
 the Gaussian 90(TM) system (copyright 1990, Gaussian, Inc.),
 the Gaussian 88(TM) system (copyright 1988, Gaussian, Inc.),
 the Gaussian 86(TM) system (copyright 1986, Carnegie Mellon
 University), and the Gaussian 82(TM) system (copyright 1983,
 Carnegie Mellon University). Gaussian is a federally registered
 trademark of Gaussian, Inc.
  
 This software contains proprietary and confidential information,
 including trade secrets, belonging to Gaussian, Inc.
  
 This software is provided under written license and may be
 used, copied, transmitted, or stored only in accord with that
 written license.
  
 The following legend is applicable only to US Government
 contracts under FAR:
  
                    RESTRICTED RIGHTS LEGEND
  
 Use, reproduction and disclosure by the US Government is
 subject to restrictions as set forth in subparagraphs (a)
 and (c) of the Commercial Computer Software - Restricted
 Rights clause in FAR 52.227-19.
  
 Gaussian, Inc.
 340 Quinnipiac St., Bldg. 40, Wallingford CT 06492
  
  
 ---------------------------------------------------------------
 Warning -- This program may not be used in any manner that
 competes with the business of Gaussian, Inc. or will provide
 assistance to any competitor of Gaussian, Inc.  The licensee
 of this program is prohibited from giving any competitor of
 Gaussian, Inc. access to this program.  By using this program,
 the user acknowledges that Gaussian, Inc. is engaged in the
 business of creating and licensing software in the field of
 computational chemistry and represents and warrants to the
 licensee that it is not a competitor of Gaussian, Inc. and that
 it will not use this program in any manner prohibited above.
 ---------------------------------------------------------------
  

 Cite this work as:
 Gaussian 16, Revision A.03,
 M. J. Frisch, G. W. Trucks, H. B. Schlegel, G. E. Scuseria, 
 M. A. Robb, J. R. Cheeseman, G. Scalmani, V. Barone, 
 G. A. Petersson, H. Nakatsuji, X. Li, M. Caricato, A. V. Marenich, 
 J. Bloino, B. G. Janesko, R. Gomperts, B. Mennucci, H. P. Hratchian, 
 J. V. Ortiz, A. F. Izmaylov, J. L. Sonnenberg, D. Williams-Young, 
 F. Ding, F. Lipparini, F. Egidi, J. Goings, B. Peng, A. Petrone, 
 T. Henderson, D. Ranasinghe, V. G. Zakrzewski, J. Gao, N. Rega, 
 G. Zheng, W. Liang, M. Hada, M. Ehara, K. Toyota, R. Fukuda, 
 J. Hasegawa, M. Ishida, T. Nakajima, Y. Honda, O. Kitao, H. Nakai, 
 T. Vreven, K. Throssell, J. A. Montgomery, Jr., J. E. Peralta, 
 F. Ogliaro, M. J. Bearpark, J. J. Heyd, E. N. Brothers, K. N. Kudin, 
 V. N. Staroverov, T. A. Keith, R. Kobayashi, J. Normand, 
 K. Raghavachari, A. P. Rendell, J. C. Burant, S. S. Iyengar, 
 J. Tomasi, M. Cossi, J. M. Millam, M. Klene, C. Adamo, R. Cammi, 
 J. W. Ochterski, R. L. Martin, K. Morokuma, O. Farkas, 
 J. B. Foresman, and D. J. Fox, Gaussian, Inc., Wallingford CT, 2016.
 
 ******************************************
 Gaussian 16:  ES64L-G16RevA.03 25-Dec-2016
                13-Jan-2024 
 ******************************************
 %chk=324-PCM.chk
 %nproc=8
 Will use up to    8 processors via shared memory.
 %mem=30GB
 ----------------------------------------------------------------
 #P UB3LYP/6-311++G(d,p) SCRF=(PCM,Solvent=n,n-DiMethylFormamide)
 ----------------------------------------------------------------
 1/38=1,172=1/1;
 2/12=2,17=6,18=5,40=1/2;
 3/5=4,6=6,7=1111,11=2,25=1,30=1,70=2201,72=148,74=-5,116=2/1,2,3;
 4//1;
 5/5=2,38=5,53=148/2;
 6/7=2,8=2,9=2,10=2,28=1/1;
 99/5=1,9=1/99;
 Leave Link    1 at Sat Jan 13 19:14:41 2024, MaxMem=  4026531840 cpu:               0.5 elap:               0.1
 (Enter /sysapps/ubuntu-applications/gaussian/Gaussian/AVX2/g16/l101.exe)
 ------------------
 Quinone PCM in DMF
 ------------------
 Symbolic Z-matrix:
 Charge =  0 Multiplicity = 1
 C                    -1.7951    2.76838  -0.66882 
 C                    -2.89101   1.9329   -0.48571 
 C                    -2.68119   0.58377  -0.21199 
 C                    -0.49482   2.2705   -0.57245 
 C                    -0.27084   0.90908  -0.27954 
 C                    -1.38632   0.07897  -0.1128 
 C                     0.64581   3.2085   -0.80836 
 C                     2.07701   2.61835  -0.76061 
 C                     2.19856   1.22559  -0.41272 
 C                     1.1257    0.40637  -0.16467 
 O                     0.47063   4.38419  -1.03426 
 O                     3.02795   3.34711  -0.99474 
 H                    -1.92004   3.8206   -0.89408 
 H                    -3.89798   2.32591  -0.56274 
 H                    -3.52491  -0.08365  -0.07881 
 H                    -1.27647  -0.98144   0.08003 
 H                     3.211     0.85147  -0.33934 
 N                     1.29172  -0.90002   0.1767 
 C                     2.58683  -1.53678   0.38307 
 C                     2.41033  -3.00111   0.76766 
 H                     0.48914  -1.41138   0.50211 
 H                     3.14459  -1.00329   1.16327 
 H                     3.17166  -1.45818  -0.53941 
 H                     1.84763  -3.10249   1.70067 
 H                     3.38519  -3.46867   0.91792 
 H                     1.88845  -3.55661  -0.01624 
 
 ITRead=  0  0  0  0  0  0  0  0  0  0  0  0  0  0  0  0  0  0  0  0
 ITRead=  0  0  0  0  0  0
 MicOpt= -1 -1 -1 -1 -1 -1 -1 -1 -1 -1 -1 -1 -1 -1 -1 -1 -1 -1 -1 -1
 MicOpt= -1 -1 -1 -1 -1 -1
 NAtoms=     26 NQM=       26 NQMF=       0 NMMI=      0 NMMIF=      0
                NMic=       0 NMicF=      0.
                    Isotopes and Nuclear Properties:
 (Nuclear quadrupole moments (NQMom) in fm**2, nuclear magnetic moments (NMagM)
  in nuclear magnetons)

  Atom         1           2           3           4           5           6           7           8           9          10
 IAtWgt=          12          12          12          12          12          12          12          12          12          12
 AtmWgt=  12.0000000  12.0000000  12.0000000  12.0000000  12.0000000  12.0000000  12.0000000  12.0000000  12.0000000  12.0000000
 NucSpn=           0           0           0           0           0           0           0           0           0           0
 AtZEff=  -0.0000000  -0.0000000  -0.0000000  -0.0000000  -0.0000000  -0.0000000  -0.0000000  -0.0000000  -0.0000000  -0.0000000
 NQMom=    0.0000000   0.0000000   0.0000000   0.0000000   0.0000000   0.0000000   0.0000000   0.0000000   0.0000000   0.0000000
 NMagM=    0.0000000   0.0000000   0.0000000   0.0000000   0.0000000   0.0000000   0.0000000   0.0000000   0.0000000   0.0000000
 AtZNuc=   6.0000000   6.0000000   6.0000000   6.0000000   6.0000000   6.0000000   6.0000000   6.0000000   6.0000000   6.0000000

  Atom        11          12          13          14          15          16          17          18          19          20
 IAtWgt=          16          16           1           1           1           1           1          14          12          12
 AtmWgt=  15.9949146  15.9949146   1.0078250   1.0078250   1.0078250   1.0078250   1.0078250  14.0030740  12.0000000  12.0000000
 NucSpn=           0           0           1           1           1           1           1           2           0           0
 AtZEff=  -0.0000000  -0.0000000  -0.0000000  -0.0000000  -0.0000000  -0.0000000  -0.0000000  -0.0000000  -0.0000000  -0.0000000
 NQMom=    0.0000000   0.0000000   0.0000000   0.0000000   0.0000000   0.0000000   0.0000000   2.0440000   0.0000000   0.0000000
 NMagM=    0.0000000   0.0000000   2.7928460   2.7928460   2.7928460   2.7928460   2.7928460   0.4037610   0.0000000   0.0000000
 AtZNuc=   8.0000000   8.0000000   1.0000000   1.0000000   1.0000000   1.0000000   1.0000000   7.0000000   6.0000000   6.0000000

  Atom        21          22          23          24          25          26
 IAtWgt=           1           1           1           1           1           1
 AtmWgt=   1.0078250   1.0078250   1.0078250   1.0078250   1.0078250   1.0078250
 NucSpn=           1           1           1           1           1           1
 AtZEff=  -0.0000000  -0.0000000  -0.0000000  -0.0000000  -0.0000000  -0.0000000
 NQMom=    0.0000000   0.0000000   0.0000000   0.0000000   0.0000000   0.0000000
 NMagM=    2.7928460   2.7928460   2.7928460   2.7928460   2.7928460   2.7928460
 AtZNuc=   1.0000000   1.0000000   1.0000000   1.0000000   1.0000000   1.0000000
 Leave Link  101 at Sat Jan 13 19:14:42 2024, MaxMem=  4026531840 cpu:               1.1 elap:               0.2
 (Enter /sysapps/ubuntu-applications/gaussian/Gaussian/AVX2/g16/l202.exe)
                          Input orientation:                          
 ---------------------------------------------------------------------
 Center     Atomic      Atomic             Coordinates (Angstroms)
 Number     Number       Type             X           Y           Z
 ---------------------------------------------------------------------
      1          6           0       -1.795096    2.768377   -0.668817
      2          6           0       -2.891011    1.932898   -0.485712
      3          6           0       -2.681186    0.583773   -0.211987
      4          6           0       -0.494816    2.270503   -0.572452
      5          6           0       -0.270843    0.909075   -0.279543
      6          6           0       -1.386323    0.078974   -0.112796
      7          6           0        0.645808    3.208502   -0.808357
      8          6           0        2.077006    2.618350   -0.760607
      9          6           0        2.198564    1.225592   -0.412715
     10          6           0        1.125702    0.406372   -0.164673
     11          8           0        0.470626    4.384194   -1.034258
     12          8           0        3.027955    3.347106   -0.994741
     13          1           0       -1.920044    3.820596   -0.894084
     14          1           0       -3.897983    2.325909   -0.562742
     15          1           0       -3.524905   -0.083645   -0.078813
     16          1           0       -1.276470   -0.981439    0.080028
     17          1           0        3.210995    0.851472   -0.339337
     18          7           0        1.291719   -0.900022    0.176703
     19          6           0        2.586829   -1.536778    0.383069
     20          6           0        2.410328   -3.001109    0.767658
     21          1           0        0.489142   -1.411376    0.502105
     22          1           0        3.144588   -1.003288    1.163270
     23          1           0        3.171659   -1.458183   -0.539409
     24          1           0        1.847626   -3.102494    1.700673
     25          1           0        3.385193   -3.468667    0.917922
     26          1           0        1.888448   -3.556612   -0.016237
 ---------------------------------------------------------------------
                    Distance matrix (angstroms):
                    1          2          3          4          5
     1  C    0.000000
     2  C    1.390173   0.000000
     3  C    2.401321   1.392512   0.000000
     4  C    1.395669   2.421415   2.784817   0.000000
     5  C    2.435546   2.820638   2.433133   1.410477   0.000000
     6  C    2.776534   2.416648   1.393317   2.410159   1.400417
     7  C    2.484189   3.773639   4.279457   1.495499   2.531256
     8  C    3.876094   5.022609   5.203929   2.602051   2.943712
     9  C    4.288950   5.139006   4.925869   2.893381   2.493168
    10  C    3.790025   4.308983   3.811313   2.503467   1.488705
    11  O    2.806761   4.196470   5.005322   2.369184   3.632606
    12  O    4.868570   6.106820   6.390853   3.707738   4.163841
    13  H    1.083292   2.161700   3.394351   2.130143   3.402129
    14  H    2.151549   1.083690   2.153755   3.403632   3.904326
    15  H    3.387384   2.152634   1.083994   3.868738   3.408035
    16  H    3.858868   3.379373   2.123297   3.407615   2.171318
    17  H    5.370664   6.198821   5.899634   3.975051   3.482828
    18  N    4.868314   5.095043   4.258721   3.715531   2.433638
    19  C    6.232342   6.542183   5.709887   4.990485   3.819364
    20  C    7.282583   7.349800   6.303539   6.166494   4.855394
    21  H    4.905011   4.856479   3.813335   3.959682   2.563795
    22  H    6.479389   6.911497   6.192716   5.193814   4.171811
    23  H    6.522976   6.946818   6.207462   5.229458   4.185960
    24  H    7.304179   7.251905   6.144670   6.286750   4.949935
    25  H    8.261589   8.398680   7.382406   7.086167   5.827962
    26  H    7.348459   7.293720   6.169494   6.320173   4.967316
                    6          7          8          9         10
     6  C    0.000000
     7  C    3.795696   0.000000
     8  C    4.343125   1.548834   0.000000
     9  C    3.775725   2.549415   1.440687   0.000000
    10  C    2.533802   2.914886   2.480517   1.372472   0.000000
    11  O    4.778313   1.209947   2.402821   3.653608   4.124121
    12  O    5.562766   2.393444   1.220741   2.351056   3.599374
    13  H    3.859405   2.639243   4.176077   4.891696   4.633091
    14  H    3.399942   4.635227   5.985413   6.196861   5.392633
    15  H    2.145025   5.363330   6.256758   5.880790   4.677140
    16  H    1.083386   4.694676   4.991087   4.146039   2.785019
    17  H    4.667270   3.515075   2.141321   1.081835   2.139408
    18  N    2.866034   4.274051   3.724804   2.384956   1.360428
    19  C    4.317693   5.263529   4.339701   2.900812   2.492137
    20  C    4.967562   6.645045   5.833097   4.393532   3.759047
    21  H    2.473179   4.804698   4.511590   3.273014   2.038139
    22  H    4.829989   5.279241   4.237605   2.889048   2.797584
    23  H    4.829084   5.313210   4.226738   2.857554   2.793373
    24  H    4.885574   6.896975   6.232060   4.829275   4.038915
    25  H    6.034526   7.420839   6.448301   5.021429   4.614460
    26  H    4.893969   6.923754   6.222523   4.808622   4.038447
                   11         12         13         14         15
    11  O    0.000000
    12  O    2.759899   0.000000
    13  H    2.460202   4.971621   0.000000
    14  H    4.852176   7.014135   2.501224   0.000000
    15  H    6.069492   7.453117   4.299226   2.485825   0.000000
    16  H    5.751869   6.198347   4.941925   4.268962   2.426257
    17  H    4.524673   2.586744   5.954074   7.263707   6.805488
    18  N    5.483025   4.735493   5.809151   6.155194   4.891996
    19  C    6.445544   5.093651   7.116494   7.607082   6.299065
    20  C    7.845511   6.617201   8.249192   8.363126   6.667466
    21  H    5.995781   5.597256   5.926808   5.860722   4.267658
    22  H    6.403449   4.857627   7.290614   7.978752   6.846214
    23  H    6.455527   4.828952   7.342802   8.018712   6.851677
    24  H    8.088663   7.089131   8.298028   8.222082   6.414367
    25  H    8.600764   7.088065   9.195774   9.424125   7.758950
    26  H    8.130374   7.065215   8.348558   8.269553   6.431936
                   16         17         18         19         20
    16  H    0.000000
    17  H    4.865467   0.000000
    18  N    2.571297   2.649085   0.000000
    19  C    3.914756   2.572001   1.457860   0.000000
    20  C    4.259622   4.087650   2.452566   1.524246   0.000000
    21  H    1.865578   3.638267   1.005733   2.104801   2.507733
    22  H    4.551884   2.387964   2.101690   1.097461   2.164933
    23  H    4.516286   2.318638   2.087710   1.095066   2.160710
    24  H    4.109178   4.653414   2.735398   2.175768   1.094271
    25  H    5.349717   4.502738   3.395582   2.157695   1.091582
    26  H    4.081359   4.613538   2.729612   2.174146   1.093359
                   21         22         23         24         25
    21  H    0.000000
    22  H    2.766779   0.000000
    23  H    2.877992   1.762605   0.000000
    24  H    2.478291   2.525387   3.078115   0.000000
    25  H    3.576655   2.489213   2.492279   1.763773   0.000000
    26  H    2.613192   3.080355   2.514705   1.776420   1.766531
                   26
    26  H    0.000000
 Stoichiometry    C12H11NO2
 Framework group  C1[X(C12H11NO2)]
 Deg. of freedom    72
 Full point group                 C1      NOp   1
 Largest Abelian subgroup         C1      NOp   1
 Largest concise Abelian subgroup C1      NOp   1
                         Standard orientation:                         
 ---------------------------------------------------------------------
 Center     Atomic      Atomic             Coordinates (Angstroms)
 Number     Number       Type             X           Y           Z
 ---------------------------------------------------------------------
      1          6           0       -2.677248   -1.003095    0.045904
      2          6           0       -2.551603   -2.387086    0.008981
      3          6           0       -1.281612   -2.954561   -0.055704
      4          6           0       -1.547564   -0.183722    0.027545
      5          6           0       -0.255990   -0.748418   -0.021455
      6          6           0       -0.148637   -2.143760   -0.073071
      7          6           0       -1.743360    1.298860    0.038864
      8          6           0       -0.477344    2.186837   -0.048233
      9          6           0        0.795490    1.511962   -0.052481
     10          6           0        0.933490    0.146779   -0.022277
     11          8           0       -2.843382    1.798067    0.107544
     12          8           0       -0.604697    3.400259   -0.088198
     13          1           0       -3.649184   -0.526321    0.085251
     14          1           0       -3.433022   -3.017402    0.022701
     15          1           0       -1.166708   -4.031632   -0.097636
     16          1           0        0.815247   -2.632976   -0.146003
     17          1           0        1.663707    2.157257   -0.065052
     18          7           0        2.158591   -0.444635   -0.011242
     19          6           0        3.421084    0.282376    0.042829
     20          6           0        4.598410   -0.685665    0.054110
     21          1           0        2.207320   -1.432359    0.171855
     22          1           0        3.445584    0.921297    0.934792
     23          1           0        3.486777    0.944140   -0.827184
     24          1           0        4.565426   -1.342218    0.928913
     25          1           0        5.538110   -0.131572    0.092781
     26          1           0        4.610548   -1.305417   -0.846553
 ---------------------------------------------------------------------
 Rotational constants (GHZ):           0.7813105           0.5051191           0.3082192
 Leave Link  202 at Sat Jan 13 19:14:42 2024, MaxMem=  4026531840 cpu:               0.4 elap:               0.1
 (Enter /sysapps/ubuntu-applications/gaussian/Gaussian/AVX2/g16/l301.exe)
 Standard basis: 6-311++G(d,p) (5D, 7F)
 Ernie: Thresh=  0.10000D-02 Tol=  0.10000D-05 Strict=F.
 There are   422 symmetry adapted cartesian basis functions of A   symmetry.
 There are   407 symmetry adapted basis functions of A   symmetry.
   407 basis functions,   639 primitive gaussians,   422 cartesian basis functions
    53 alpha electrons       53 beta electrons
       nuclear repulsion energy       922.7836167585 Hartrees.
 IExCor=  402 DFT=T Ex+Corr=B3LYP ExCW=0 ScaHFX=  0.200000
 ScaDFX=  0.800000  0.720000  1.000000  0.810000 ScalE2=  1.000000  1.000000
 IRadAn=      5 IRanWt=     -1 IRanGd=            0 ICorTp=0 IEmpDi=  4
 NAtoms=   26 NActive=   26 NUniq=   26 SFac= 1.00D+00 NAtFMM=   60 NAOKFM=F Big=F
 Integral buffers will be    131072 words long.
 Raffenetti 2 integral format.
 Two-electron integral symmetry is turned on.
 ------------------------------------------------------------------------------
 Polarizable Continuum Model (PCM)
 =================================
 Model                : PCM.
 Atomic radii         : UFF (Universal Force Field).
 Polarization charges : Total charges.
 Charge compensation  : None.
 Solution method      : On-the-fly selection.
 Cavity type          : Scaled VdW (van der Waals Surface) (Alpha=1.100).
 Cavity algorithm     : GePol (No added spheres)
                        Default sphere list used, NSphG=   26.
                        Lebedev-Laikov grids with approx.  5.0 points / Ang**2.
                        Smoothing algorithm: York/Karplus (Gamma=1.0000).
                        Polarization charges: spherical gaussians, with
                                              point-specific exponents (IZeta= 3).
                        Self-potential: point-specific (ISelfS= 7).
                        Self-field    : sphere-specific E.n sum rule (ISelfD= 2).
 Solvent              : n,n-DiMethylFormamide, Eps=  37.219000 Eps(inf)=   2.046330
 ------------------------------------------------------------------------------
 GePol: Number of generator spheres                  =      26
 GePol: Total number of spheres                      =      26
 GePol: Number of exposed spheres                    =      26 (100.00%)
 GePol: Number of points                             =    2094
 GePol: Average weight of points                     =       0.13
 GePol: Minimum weight of points                     =   0.83D-10
 GePol: Maximum weight of points                     =    0.20577
 GePol: Number of points with low weight             =     130
 GePol: Fraction of low-weight points (<1% of avg)   =       6.21%
 GePol: Cavity surface area                          =    266.829 Ang**2
 GePol: Cavity volume                                =    281.359 Ang**3
 Leave Link  301 at Sat Jan 13 19:14:42 2024, MaxMem=  4026531840 cpu:               0.8 elap:               0.2
 (Enter /sysapps/ubuntu-applications/gaussian/Gaussian/AVX2/g16/l302.exe)
 NPDir=0 NMtPBC=     1 NCelOv=     1 NCel=       1 NClECP=     1 NCelD=      1
         NCelK=      1 NCelE2=     1 NClLst=     1 CellRange=     0.0.
 One-electron integrals computed using PRISM.
 One-electron integral symmetry used in STVInt
 NBasis=   407 RedAO= T EigKep=  2.25D-06  NBF=   407
 NBsUse=   403 1.00D-06 EigRej=  9.42D-07 NBFU=   403
 Precomputing XC quadrature grid using
 IXCGrd= 4 IRadAn=           5 IRanWt=          -1 IRanGd=           0 AccXCQ= 0.00D+00.
 Generated NRdTot=       0 NPtTot=           0 NUsed=           0 NTot=          32
 NSgBfM=   422   422   422   422   422 MxSgAt=    26 MxSgA2=    26.
 Leave Link  302 at Sat Jan 13 19:14:45 2024, MaxMem=  4026531840 cpu:              18.9 elap:               3.2
 (Enter /sysapps/ubuntu-applications/gaussian/Gaussian/AVX2/g16/l303.exe)
 DipDrv:  MaxL=1.
 Leave Link  303 at Sat Jan 13 19:14:46 2024, MaxMem=  4026531840 cpu:               1.2 elap:               0.3
 (Enter /sysapps/ubuntu-applications/gaussian/Gaussian/AVX2/g16/l401.exe)
 ExpMin= 3.60D-02 ExpMax= 8.59D+03 ExpMxC= 1.30D+03 IAcc=3 IRadAn=         5 AccDes= 0.00D+00
 Harris functional with IExCor=  402 and IRadAn=       5 diagonalized for initial guess.
 HarFok:  IExCor=  402 AccDes= 0.00D+00 IRadAn=         5 IDoV= 1 UseB2=F ITyADJ=14
 ICtDFT=  3500011 ScaDFX=  1.000000  1.000000  1.000000  1.000000
 FoFCou: FMM=F IPFlag=           0 FMFlag=      100000 FMFlg1=           0
         NFxFlg=           0 DoJE=T BraDBF=F KetDBF=T FulRan=T
         wScrn=  0.000000 ICntrl=       500 IOpCl=  0 I1Cent=   200000004 NGrid=           0
         NMat0=    1 NMatS0=      1 NMatT0=    0 NMatD0=    1 NMtDS0=    0 NMtDT0=    0
 Petite list used in FoFCou.
 Harris En= -669.320267655525    
 JPrj=0 DoOrth=F DoCkMO=F.
 Initial guess <Sx>= 0.0000 <Sy>= 0.0000 <Sz>= 0.0000 <S**2>= 0.0000 S= 0.0000
 Leave Link  401 at Sat Jan 13 19:14:49 2024, MaxMem=  4026531840 cpu:              20.8 elap:               3.4
 (Enter /sysapps/ubuntu-applications/gaussian/Gaussian/AVX2/g16/l502.exe)
 Integral symmetry usage will be decided dynamically.
 UHF open shell SCF:
 Using DIIS extrapolation, IDIIS=  1040.
 NGot=  4026531840 LenX=  4026168234 LenY=  4025989709
 Requested convergence on RMS density matrix=1.00D-08 within 128 cycles.
 Requested convergence on MAX density matrix=1.00D-06.
 Requested convergence on             energy=1.00D-06.
 No special actions if energy rises.
 Fock matrices will be formed incrementally for  20 cycles.

 Cycle   1  Pass 1  IDiag  1:
 FoFJK:  IHMeth= 1 ICntrl=       0 DoSepK=F KAlg= 0 I1Cent=           0 FoldK=F
 IRaf= 880000000 NMat=       1 IRICut=       1 DoRegI=T DoRafI=F ISym2E= 0 IDoP0=0 IntGTp=1.
 FoFCou: FMM=F IPFlag=           0 FMFlag=      100000 FMFlg1=           0
         NFxFlg=           0 DoJE=F BraDBF=F KetDBF=F FulRan=T
         wScrn=  0.000000 ICntrl=         0 IOpCl=  1 I1Cent=           0 NGrid=           0
         NMat0=    1 NMatS0=      1 NMatT0=    0 NMatD0=    1 NMtDS0=    0 NMtDT0=    0
 Symmetry not used in FoFCou.
 Inv3:  Mode=1 IEnd=    13154508.
 Iteration    1 A*A^-1 deviation from unit magnitude is 3.11D-15 for   1276.
 Iteration    1 A*A^-1 deviation from orthogonality  is 2.17D-15 for   1431    214.
 Iteration    1 A^-1*A deviation from unit magnitude is 3.33D-15 for   1276.
 Iteration    1 A^-1*A deviation from orthogonality  is 2.27D-15 for   1448    199.
 E= -668.915452895198    
 DIIS: error= 4.01D-02 at cycle   1 NSaved=   1.
 NSaved= 1 IEnMin= 1 EnMin= -668.915452895198     IErMin= 1 ErrMin= 4.01D-02
 ErrMax= 4.01D-02  0.00D+00 EMaxC= 1.00D-01 BMatC= 1.86D+00 BMatP= 1.86D+00
 IDIUse=3 WtCom= 5.99D-01 WtEn= 4.01D-01
 Coeff-Com:  0.100D+01
 Coeff-En:   0.100D+01
 Coeff:      0.100D+01
 Gap=     0.096 Goal=   None    Shift=    0.000
 Gap=     0.096 Goal=   None    Shift=    0.000
 GapD=    0.096 DampG=0.500 DampE=0.500 DampFc=0.2500 IDamp=-1.
 Damping current iteration by 2.50D-01
 RMSDP=2.23D-02 MaxDP=2.56D+00              OVMax= 3.33D-01

 Cycle   2  Pass 1  IDiag  1:
 RMSU=  5.42D-03    CP:  1.04D+00
 E= -669.047906049381     Delta-E=       -0.132453154184 Rises=F Damp=T
 DIIS: error= 2.15D-02 at cycle   2 NSaved=   2.
 NSaved= 2 IEnMin= 2 EnMin= -669.047906049381     IErMin= 2 ErrMin= 2.15D-02
 ErrMax= 2.15D-02  0.00D+00 EMaxC= 1.00D-01 BMatC= 4.17D-01 BMatP= 1.86D+00
 IDIUse=3 WtCom= 7.85D-01 WtEn= 2.15D-01
 Coeff-Com: -0.589D+00 0.159D+01
 Coeff-En:   0.000D+00 0.100D+01
 Coeff:     -0.463D+00 0.146D+01
 Gap=     0.158 Goal=   None    Shift=    0.000
 Gap=     0.158 Goal=   None    Shift=    0.000
 RMSDP=7.45D-03 MaxDP=8.29D-01 DE=-1.32D-01 OVMax= 2.55D-01

 Cycle   3  Pass 1  IDiag  1:
 RMSU=  4.93D-03    CP:  9.33D-01  2.57D-01
 E= -669.242872947691     Delta-E=       -0.194966898309 Rises=F Damp=F
 DIIS: error= 1.52D-02 at cycle   3 NSaved=   3.
 NSaved= 3 IEnMin= 3 EnMin= -669.242872947691     IErMin= 3 ErrMin= 1.52D-02
 ErrMax= 1.52D-02  0.00D+00 EMaxC= 1.00D-01 BMatC= 2.27D-01 BMatP= 4.17D-01
 IDIUse=3 WtCom= 8.48D-01 WtEn= 1.52D-01
 Coeff-Com: -0.387D+00 0.900D+00 0.486D+00
 Coeff-En:   0.000D+00 0.000D+00 0.100D+01
 Coeff:     -0.328D+00 0.764D+00 0.564D+00
 Gap=     0.125 Goal=   None    Shift=    0.000
 Gap=     0.125 Goal=   None    Shift=    0.000
 RMSDP=2.84D-03 MaxDP=1.98D-01 DE=-1.95D-01 OVMax= 1.33D-01

 Cycle   4  Pass 1  IDiag  1:
 RMSU=  2.08D-03    CP:  9.69D-01  4.62D-01  8.39D-01
 E= -669.281681280456     Delta-E=       -0.038808332765 Rises=F Damp=F
 DIIS: error= 7.97D-03 at cycle   4 NSaved=   4.
 NSaved= 4 IEnMin= 4 EnMin= -669.281681280456     IErMin= 4 ErrMin= 7.97D-03
 ErrMax= 7.97D-03  0.00D+00 EMaxC= 1.00D-01 BMatC= 6.22D-02 BMatP= 2.27D-01
 IDIUse=3 WtCom= 9.20D-01 WtEn= 7.97D-02
 Coeff-Com: -0.710D-01 0.179D+00 0.349D+00 0.543D+00
 Coeff-En:   0.000D+00 0.000D+00 0.243D+00 0.757D+00
 Coeff:     -0.654D-01 0.165D+00 0.341D+00 0.560D+00
 Gap=     0.118 Goal=   None    Shift=    0.000
 Gap=     0.118 Goal=   None    Shift=    0.000
 RMSDP=1.72D-03 MaxDP=2.12D-01 DE=-3.88D-02 OVMax= 5.84D-02

 Cycle   5  Pass 1  IDiag  1:
 RMSU=  7.57D-04    CP:  9.41D-01  3.26D-01  8.71D-01  6.10D-01
 E= -669.294586898815     Delta-E=       -0.012905618359 Rises=F Damp=F
 DIIS: error= 1.54D-03 at cycle   5 NSaved=   5.
 NSaved= 5 IEnMin= 5 EnMin= -669.294586898815     IErMin= 5 ErrMin= 1.54D-03
 ErrMax= 1.54D-03  0.00D+00 EMaxC= 1.00D-01 BMatC= 3.32D-03 BMatP= 6.22D-02
 IDIUse=3 WtCom= 9.85D-01 WtEn= 1.54D-02
 Coeff-Com: -0.914D-02 0.274D-01 0.158D+00 0.327D+00 0.496D+00
 Coeff-En:   0.000D+00 0.000D+00 0.000D+00 0.000D+00 0.100D+01
 Coeff:     -0.900D-02 0.270D-01 0.156D+00 0.322D+00 0.504D+00
 Gap=     0.119 Goal=   None    Shift=    0.000
 Gap=     0.119 Goal=   None    Shift=    0.000
 RMSDP=5.05D-04 MaxDP=5.51D-02 DE=-1.29D-02 OVMax= 1.64D-02

 Cycle   6  Pass 1  IDiag  1:
 RMSU=  3.31D-04    CP:  9.32D-01  3.45D-01  8.70D-01  6.29D-01  7.63D-01
 E= -669.295197483013     Delta-E=       -0.000610584198 Rises=F Damp=F
 DIIS: error= 6.22D-04 at cycle   6 NSaved=   6.
 NSaved= 6 IEnMin= 6 EnMin= -669.295197483013     IErMin= 6 ErrMin= 6.22D-04
 ErrMax= 6.22D-04  0.00D+00 EMaxC= 1.00D-01 BMatC= 6.11D-04 BMatP= 3.32D-03
 IDIUse=3 WtCom= 9.94D-01 WtEn= 6.22D-03
 Coeff-Com:  0.116D-02-0.151D-02 0.577D-01 0.137D+00 0.339D+00 0.467D+00
 Coeff-En:   0.000D+00 0.000D+00 0.000D+00 0.000D+00 0.134D+00 0.866D+00
 Coeff:      0.115D-02-0.150D-02 0.573D-01 0.136D+00 0.337D+00 0.470D+00
 Gap=     0.119 Goal=   None    Shift=    0.000
 Gap=     0.119 Goal=   None    Shift=    0.000
 RMSDP=1.49D-04 MaxDP=1.54D-02 DE=-6.11D-04 OVMax= 3.21D-03

 Cycle   7  Pass 1  IDiag  1:
 RMSU=  9.10D-05    CP:  9.32D-01  3.27D-01  8.73D-01  6.27D-01  7.88D-01
                    CP:  8.30D-01
 E= -669.295307285715     Delta-E=       -0.000109802702 Rises=F Damp=F
 DIIS: error= 1.19D-04 at cycle   7 NSaved=   7.
 NSaved= 7 IEnMin= 7 EnMin= -669.295307285715     IErMin= 7 ErrMin= 1.19D-04
 ErrMax= 1.19D-04  0.00D+00 EMaxC= 1.00D-01 BMatC= 3.42D-05 BMatP= 6.11D-04
 IDIUse=3 WtCom= 9.99D-01 WtEn= 1.19D-03
 Coeff-Com:  0.150D-02-0.345D-02 0.110D-01 0.311D-01 0.131D+00 0.254D+00
 Coeff-Com:  0.575D+00
 Coeff-En:   0.000D+00 0.000D+00 0.000D+00 0.000D+00 0.000D+00 0.000D+00
 Coeff-En:   0.100D+01
 Coeff:      0.150D-02-0.345D-02 0.110D-01 0.310D-01 0.130D+00 0.254D+00
 Coeff:      0.576D+00
 Gap=     0.119 Goal=   None    Shift=    0.000
 Gap=     0.119 Goal=   None    Shift=    0.000
 RMSDP=4.84D-05 MaxDP=4.27D-03 DE=-1.10D-04 OVMax= 8.13D-04

 Cycle   8  Pass 1  IDiag  1:
 RMSU=  2.88D-05    CP:  9.32D-01  3.26D-01  8.73D-01  6.31D-01  7.85D-01
                    CP:  8.01D-01  8.23D-01
 E= -669.295314345846     Delta-E=       -0.000007060131 Rises=F Damp=F
 DIIS: error= 3.63D-05 at cycle   8 NSaved=   8.
 NSaved= 8 IEnMin= 8 EnMin= -669.295314345846     IErMin= 8 ErrMin= 3.63D-05
 ErrMax= 3.63D-05  0.00D+00 EMaxC= 1.00D-01 BMatC= 1.91D-06 BMatP= 3.42D-05
 IDIUse=1 WtCom= 1.00D+00 WtEn= 0.00D+00
 Coeff-Com:  0.585D-03-0.131D-02 0.134D-02 0.454D-02 0.385D-01 0.771D-01
 Coeff-Com:  0.250D+00 0.629D+00
 Coeff:      0.585D-03-0.131D-02 0.134D-02 0.454D-02 0.385D-01 0.771D-01
 Coeff:      0.250D+00 0.629D+00
 Gap=     0.119 Goal=   None    Shift=    0.000
 Gap=     0.119 Goal=   None    Shift=    0.000
 RMSDP=1.26D-05 MaxDP=1.52D-03 DE=-7.06D-06 OVMax= 2.41D-04

 Cycle   9  Pass 1  IDiag  1:
 RMSU=  6.68D-06    CP:  9.32D-01  3.25D-01  8.73D-01  6.30D-01  7.93D-01
                    CP:  8.04D-01  8.65D-01  9.89D-01
 E= -669.295314698126     Delta-E=       -0.000000352280 Rises=F Damp=F
 DIIS: error= 1.81D-05 at cycle   9 NSaved=   9.
 NSaved= 9 IEnMin= 9 EnMin= -669.295314698126     IErMin= 9 ErrMin= 1.81D-05
 ErrMax= 1.81D-05  0.00D+00 EMaxC= 1.00D-01 BMatC= 4.72D-07 BMatP= 1.91D-06
 IDIUse=1 WtCom= 1.00D+00 WtEn= 0.00D+00
 Coeff-Com:  0.165D-03-0.327D-03-0.757D-03-0.192D-02 0.501D-02 0.860D-02
 Coeff-Com:  0.641D-01 0.370D+00 0.555D+00
 Coeff:      0.165D-03-0.327D-03-0.757D-03-0.192D-02 0.501D-02 0.860D-02
 Coeff:      0.641D-01 0.370D+00 0.555D+00
 Gap=     0.119 Goal=   None    Shift=    0.000
 Gap=     0.119 Goal=   None    Shift=    0.000
 RMSDP=4.43D-06 MaxDP=3.69D-04 DE=-3.52D-07 OVMax= 1.15D-04

 Cycle  10  Pass 1  IDiag  1:
 RMSU=  2.98D-06    CP:  9.32D-01  3.25D-01  8.73D-01  6.30D-01  7.96D-01
                    CP:  8.07D-01  8.63D-01  1.04D+00  8.22D-01
 E= -669.295314806053     Delta-E=       -0.000000107927 Rises=F Damp=F
 DIIS: error= 4.96D-06 at cycle  10 NSaved=  10.
 NSaved=10 IEnMin=10 EnMin= -669.295314806053     IErMin=10 ErrMin= 4.96D-06
 ErrMax= 4.96D-06  0.00D+00 EMaxC= 1.00D-01 BMatC= 2.79D-08 BMatP= 4.72D-07
 IDIUse=1 WtCom= 1.00D+00 WtEn= 0.00D+00
 Coeff-Com:  0.492D-04-0.835D-04-0.425D-03-0.127D-02-0.300D-03-0.221D-02
 Coeff-Com:  0.105D-01 0.124D+00 0.261D+00 0.608D+00
 Coeff:      0.492D-04-0.835D-04-0.425D-03-0.127D-02-0.300D-03-0.221D-02
 Coeff:      0.105D-01 0.124D+00 0.261D+00 0.608D+00
 Gap=     0.119 Goal=   None    Shift=    0.000
 Gap=     0.119 Goal=   None    Shift=    0.000
 RMSDP=1.40D-06 MaxDP=1.37D-04 DE=-1.08D-07 OVMax= 4.12D-05

 Cycle  11  Pass 1  IDiag  1:
 RMSU=  5.18D-07    CP:  9.32D-01  3.25D-01  8.73D-01  6.30D-01  7.96D-01
                    CP:  8.07D-01  8.69D-01  1.04D+00  8.57D-01  9.02D-01
 E= -669.295314812921     Delta-E=       -0.000000006869 Rises=F Damp=F
 DIIS: error= 1.68D-06 at cycle  11 NSaved=  11.
 NSaved=11 IEnMin=11 EnMin= -669.295314812921     IErMin=11 ErrMin= 1.68D-06
 ErrMax= 1.68D-06  0.00D+00 EMaxC= 1.00D-01 BMatC= 4.82D-09 BMatP= 2.79D-08
 IDIUse=1 WtCom= 1.00D+00 WtEn= 0.00D+00
 Coeff-Com: -0.479D-05 0.176D-04-0.894D-04-0.381D-03-0.940D-03-0.281D-02
 Coeff-Com: -0.517D-02 0.214D-02 0.392D-01 0.326D+00 0.642D+00
 Coeff:     -0.479D-05 0.176D-04-0.894D-04-0.381D-03-0.940D-03-0.281D-02
 Coeff:     -0.517D-02 0.214D-02 0.392D-01 0.326D+00 0.642D+00
 Gap=     0.119 Goal=   None    Shift=    0.000
 Gap=     0.119 Goal=   None    Shift=    0.000
 RMSDP=6.06D-07 MaxDP=4.80D-05 DE=-6.87D-09 OVMax= 1.80D-05

 Cycle  12  Pass 1  IDiag  1:
 RMSU=  2.15D-07    CP:  9.32D-01  3.25D-01  8.73D-01  6.30D-01  7.96D-01
                    CP:  8.07D-01  8.70D-01  1.05D+00  8.67D-01  9.53D-01
                    CP:  9.82D-01
 E= -669.295314814212     Delta-E=       -0.000000001291 Rises=F Damp=F
 DIIS: error= 3.69D-07 at cycle  12 NSaved=  12.
 NSaved=12 IEnMin=12 EnMin= -669.295314814212     IErMin=12 ErrMin= 3.69D-07
 ErrMax= 3.69D-07  0.00D+00 EMaxC= 1.00D-01 BMatC= 1.86D-10 BMatP= 4.82D-09
 IDIUse=1 WtCom= 1.00D+00 WtEn= 0.00D+00
 Coeff-Com: -0.194D-05 0.596D-05 0.749D-05-0.295D-04-0.207D-03-0.727D-03
 Coeff-Com: -0.206D-02-0.770D-02-0.767D-02 0.520D-01 0.177D+00 0.790D+00
 Coeff:     -0.194D-05 0.596D-05 0.749D-05-0.295D-04-0.207D-03-0.727D-03
 Coeff:     -0.206D-02-0.770D-02-0.767D-02 0.520D-01 0.177D+00 0.790D+00
 Gap=     0.119 Goal=   None    Shift=    0.000
 Gap=     0.119 Goal=   None    Shift=    0.000
 RMSDP=1.31D-07 MaxDP=1.07D-05 DE=-1.29D-09 OVMax= 6.96D-06

 Cycle  13  Pass 1  IDiag  1:
 RMSU=  6.72D-08    CP:  9.32D-01  3.25D-01  8.73D-01  6.30D-01  7.96D-01
                    CP:  8.07D-01  8.71D-01  1.05D+00  8.65D-01  9.66D-01
                    CP:  1.03D+00  9.42D-01
 E= -669.295314814266     Delta-E=       -0.000000000054 Rises=F Damp=F
 DIIS: error= 1.69D-07 at cycle  13 NSaved=  13.
 NSaved=13 IEnMin=13 EnMin= -669.295314814266     IErMin=13 ErrMin= 1.69D-07
 ErrMax= 1.69D-07  0.00D+00 EMaxC= 1.00D-01 BMatC= 5.58D-11 BMatP= 1.86D-10
 IDIUse=1 WtCom= 1.00D+00 WtEn= 0.00D+00
 Coeff-Com:  0.343D-07 0.625D-06 0.138D-04 0.222D-04-0.321D-04-0.169D-03
 Coeff-Com: -0.740D-03-0.554D-02-0.100D-01-0.606D-02 0.278D-01 0.446D+00
 Coeff-Com:  0.548D+00
 Coeff:      0.343D-07 0.625D-06 0.138D-04 0.222D-04-0.321D-04-0.169D-03
 Coeff:     -0.740D-03-0.554D-02-0.100D-01-0.606D-02 0.278D-01 0.446D+00
 Coeff:      0.548D+00
 Gap=     0.119 Goal=   None    Shift=    0.000
 Gap=     0.119 Goal=   None    Shift=    0.000
 RMSDP=6.27D-08 MaxDP=4.53D-06 DE=-5.37D-11 OVMax= 1.37D-06

 Cycle  14  Pass 1  IDiag  1:
 RMSU=  1.87D-08    CP:  9.32D-01  3.25D-01  8.73D-01  6.30D-01  7.96D-01
                    CP:  8.07D-01  8.71D-01  1.05D+00  8.68D-01  9.71D-01
                    CP:  1.05D+00  1.01D+00  7.95D-01
 E= -669.295314814280     Delta-E=       -0.000000000014 Rises=F Damp=F
 DIIS: error= 7.43D-08 at cycle  14 NSaved=  14.
 NSaved=14 IEnMin=14 EnMin= -669.295314814280     IErMin=14 ErrMin= 7.43D-08
 ErrMax= 7.43D-08  0.00D+00 EMaxC= 1.00D-01 BMatC= 3.84D-12 BMatP= 5.58D-11
 IDIUse=1 WtCom= 1.00D+00 WtEn= 0.00D+00
 Coeff-Com:  0.651D-06-0.722D-06 0.601D-05 0.108D-04 0.633D-05-0.359D-04
 Coeff-Com: -0.139D-03-0.182D-02-0.351D-02-0.439D-02 0.206D-03 0.155D+00
 Coeff-Com:  0.255D+00 0.599D+00
 Coeff:      0.651D-06-0.722D-06 0.601D-05 0.108D-04 0.633D-05-0.359D-04
 Coeff:     -0.139D-03-0.182D-02-0.351D-02-0.439D-02 0.206D-03 0.155D+00
 Coeff:      0.255D+00 0.599D+00
 Gap=     0.119 Goal=   None    Shift=    0.000
 Gap=     0.119 Goal=   None    Shift=    0.000
 RMSDP=1.44D-08 MaxDP=1.06D-06 DE=-1.40D-11 OVMax= 5.45D-07

 Cycle  15  Pass 1  IDiag  1:
 RMSU=  7.82D-09    CP:  9.32D-01  3.25D-01  8.73D-01  6.30D-01  7.96D-01
                    CP:  8.07D-01  8.71D-01  1.05D+00  8.68D-01  9.72D-01
                    CP:  1.05D+00  1.02D+00  8.15D-01  7.64D-01
 E= -669.295314814273     Delta-E=        0.000000000006 Rises=F Damp=F
 DIIS: error= 3.52D-08 at cycle  15 NSaved=  15.
 NSaved=15 IEnMin=14 EnMin= -669.295314814280     IErMin=15 ErrMin= 3.52D-08
 ErrMax= 3.52D-08  0.00D+00 EMaxC= 1.00D-01 BMatC= 1.25D-12 BMatP= 3.84D-12
 IDIUse=1 WtCom= 1.00D+00 WtEn= 0.00D+00
 Coeff-Com:  0.557D-06-0.802D-06 0.144D-05 0.351D-05 0.111D-04 0.962D-05
 Coeff-Com:  0.647D-04-0.196D-03-0.492D-03-0.256D-02-0.813D-02 0.869D-02
 Coeff-Com:  0.533D-01 0.397D+00 0.552D+00
 Coeff:      0.557D-06-0.802D-06 0.144D-05 0.351D-05 0.111D-04 0.962D-05
 Coeff:      0.647D-04-0.196D-03-0.492D-03-0.256D-02-0.813D-02 0.869D-02
 Coeff:      0.533D-01 0.397D+00 0.552D+00
 Gap=     0.119 Goal=   None    Shift=    0.000
 Gap=     0.119 Goal=   None    Shift=    0.000
 RMSDP=6.38D-09 MaxDP=4.45D-07 DE= 6.48D-12 OVMax= 2.23D-07

 Error on total polarization charges =  0.01694
 SCF Done:  E(UB3LYP) =  -669.295314814     A.U. after   15 cycles
            NFock= 15  Conv=0.64D-08     -V/T= 2.0042
 <Sx>= 0.0000 <Sy>= 0.0000 <Sz>= 0.0000 <S**2>=-0.0000 S=-0.0000
 <L.S>=  0.00000000000    
 KE= 6.664890022242D+02 PE=-3.404640973804D+03 EE= 1.146073040007D+03
 Annihilation of the first spin contaminant:
 S**2 before annihilation    -0.0000,   after     0.0000
 Leave Link  502 at Sat Jan 13 19:19:28 2024, MaxMem=  4026531840 cpu:            1883.4 elap:             279.5
 (Enter /sysapps/ubuntu-applications/gaussian/Gaussian/AVX2/g16/l601.exe)
 Copying SCF densities to generalized density rwf, IOpCl= 1 IROHF=0.

 **********************************************************************

            Population analysis using the SCF density.

 **********************************************************************

 Orbital symmetries:
 Alpha Orbitals:
       Occupied  (A) (A) (A) (A) (A) (A) (A) (A) (A) (A) (A) (A)
                 (A) (A) (A) (A) (A) (A) (A) (A) (A) (A) (A) (A)
                 (A) (A) (A) (A) (A) (A) (A) (A) (A) (A) (A) (A)
                 (A) (A) (A) (A) (A) (A) (A) (A) (A) (A) (A) (A)
                 (A) (A) (A) (A) (A)
       Virtual   (A) (A) (A) (A) (A) (A) (A) (A) (A) (A) (A) (A)
                 (A) (A) (A) (A) (A) (A) (A) (A) (A) (A) (A) (A)
                 (A) (A) (A) (A) (A) (A) (A) (A) (A) (A) (A) (A)
                 (A) (A) (A) (A) (A) (A) (A) (A) (A) (A) (A) (A)
                 (A) (A) (A) (A) (A) (A) (A) (A) (A) (A) (A) (A)
                 (A) (A) (A) (A) (A) (A) (A) (A) (A) (A) (A) (A)
                 (A) (A) (A) (A) (A) (A) (A) (A) (A) (A) (A) (A)
                 (A) (A) (A) (A) (A) (A) (A) (A) (A) (A) (A) (A)
                 (A) (A) (A) (A) (A) (A) (A) (A) (A) (A) (A) (A)
                 (A) (A) (A) (A) (A) (A) (A) (A) (A) (A) (A) (A)
                 (A) (A) (A) (A) (A) (A) (A) (A) (A) (A) (A) (A)
                 (A) (A) (A) (A) (A) (A) (A) (A) (A) (A) (A) (A)
                 (A) (A) (A) (A) (A) (A) (A) (A) (A) (A) (A) (A)
                 (A) (A) (A) (A) (A) (A) (A) (A) (A) (A) (A) (A)
                 (A) (A) (A) (A) (A) (A) (A) (A) (A) (A) (A) (A)
                 (A) (A) (A) (A) (A) (A) (A) (A) (A) (A) (A) (A)
                 (A) (A) (A) (A) (A) (A) (A) (A) (A) (A) (A) (A)
                 (A) (A) (A) (A) (A) (A) (A) (A) (A) (A) (A) (A)
                 (A) (A) (A) (A) (A) (A) (A) (A) (A) (A) (A) (A)
                 (A) (A) (A) (A) (A) (A) (A) (A) (A) (A) (A) (A)
                 (A) (A) (A) (A) (A) (A) (A) (A) (A) (A) (A) (A)
                 (A) (A) (A) (A) (A) (A) (A) (A) (A) (A) (A) (A)
                 (A) (A) (A) (A) (A) (A) (A) (A) (A) (A) (A) (A)
                 (A) (A) (A) (A) (A) (A) (A) (A) (A) (A) (A) (A)
                 (A) (A) (A) (A) (A) (A) (A) (A) (A) (A) (A) (A)
                 (A) (A) (A) (A) (A) (A) (A) (A) (A) (A) (A) (A)
                 (A) (A) (A) (A) (A) (A) (A) (A) (A) (A) (A) (A)
                 (A) (A) (A) (A) (A) (A) (A) (A) (A) (A) (A) (A)
                 (A) (A) (A) (A) (A) (A) (A) (A) (A) (A) (A) (A)
                 (A) (A)
 Beta  Orbitals:
       Occupied  (A) (A) (A) (A) (A) (A) (A) (A) (A) (A) (A) (A)
                 (A) (A) (A) (A) (A) (A) (A) (A) (A) (A) (A) (A)
                 (A) (A) (A) (A) (A) (A) (A) (A) (A) (A) (A) (A)
                 (A) (A) (A) (A) (A) (A) (A) (A) (A) (A) (A) (A)
                 (A) (A) (A) (A) (A)
       Virtual   (A) (A) (A) (A) (A) (A) (A) (A) (A) (A) (A) (A)
                 (A) (A) (A) (A) (A) (A) (A) (A) (A) (A) (A) (A)
                 (A) (A) (A) (A) (A) (A) (A) (A) (A) (A) (A) (A)
                 (A) (A) (A) (A) (A) (A) (A) (A) (A) (A) (A) (A)
                 (A) (A) (A) (A) (A) (A) (A) (A) (A) (A) (A) (A)
                 (A) (A) (A) (A) (A) (A) (A) (A) (A) (A) (A) (A)
                 (A) (A) (A) (A) (A) (A) (A) (A) (A) (A) (A) (A)
                 (A) (A) (A) (A) (A) (A) (A) (A) (A) (A) (A) (A)
                 (A) (A) (A) (A) (A) (A) (A) (A) (A) (A) (A) (A)
                 (A) (A) (A) (A) (A) (A) (A) (A) (A) (A) (A) (A)
                 (A) (A) (A) (A) (A) (A) (A) (A) (A) (A) (A) (A)
                 (A) (A) (A) (A) (A) (A) (A) (A) (A) (A) (A) (A)
                 (A) (A) (A) (A) (A) (A) (A) (A) (A) (A) (A) (A)
                 (A) (A) (A) (A) (A) (A) (A) (A) (A) (A) (A) (A)
                 (A) (A) (A) (A) (A) (A) (A) (A) (A) (A) (A) (A)
                 (A) (A) (A) (A) (A) (A) (A) (A) (A) (A) (A) (A)
                 (A) (A) (A) (A) (A) (A) (A) (A) (A) (A) (A) (A)
                 (A) (A) (A) (A) (A) (A) (A) (A) (A) (A) (A) (A)
                 (A) (A) (A) (A) (A) (A) (A) (A) (A) (A) (A) (A)
                 (A) (A) (A) (A) (A) (A) (A) (A) (A) (A) (A) (A)
                 (A) (A) (A) (A) (A) (A) (A) (A) (A) (A) (A) (A)
                 (A) (A) (A) (A) (A) (A) (A) (A) (A) (A) (A) (A)
                 (A) (A) (A) (A) (A) (A) (A) (A) (A) (A) (A) (A)
                 (A) (A) (A) (A) (A) (A) (A) (A) (A) (A) (A) (A)
                 (A) (A) (A) (A) (A) (A) (A) (A) (A) (A) (A) (A)
                 (A) (A) (A) (A) (A) (A) (A) (A) (A) (A) (A) (A)
                 (A) (A) (A) (A) (A) (A) (A) (A) (A) (A) (A) (A)
                 (A) (A) (A) (A) (A) (A) (A) (A) (A) (A) (A) (A)
                 (A) (A) (A) (A) (A) (A) (A) (A) (A) (A) (A) (A)
                 (A) (A)
 The electronic state is 1-A.
 Alpha  occ. eigenvalues --  -19.14072 -19.11389 -14.36458 -10.28066 -10.26305
 Alpha  occ. eigenvalues --  -10.26086 -10.22286 -10.22002 -10.20842 -10.20424
 Alpha  occ. eigenvalues --  -10.20136 -10.19967 -10.19715 -10.17548 -10.17335
 Alpha  occ. eigenvalues --   -1.07916  -1.04181  -0.97662  -0.89181  -0.82739
 Alpha  occ. eigenvalues --   -0.78966  -0.76636  -0.75980  -0.69613  -0.65951
 Alpha  occ. eigenvalues --   -0.64048  -0.62834  -0.59914  -0.56207  -0.53156
 Alpha  occ. eigenvalues --   -0.52331  -0.49487  -0.48477  -0.47853  -0.47307
 Alpha  occ. eigenvalues --   -0.46108  -0.45319  -0.45062  -0.43640  -0.42195
 Alpha  occ. eigenvalues --   -0.40726  -0.39962  -0.39519  -0.38542  -0.37934
 Alpha  occ. eigenvalues --   -0.37640  -0.36999  -0.34645  -0.30645  -0.28461
 Alpha  occ. eigenvalues --   -0.27764  -0.25627  -0.23700
 Alpha virt. eigenvalues --   -0.11786  -0.05569  -0.02145  -0.00972   0.00117
 Alpha virt. eigenvalues --    0.00711   0.01906   0.02053   0.02143   0.02493
 Alpha virt. eigenvalues --    0.03462   0.04377   0.04471   0.04956   0.05438
 Alpha virt. eigenvalues --    0.05632   0.05942   0.07020   0.07641   0.07933
 Alpha virt. eigenvalues --    0.08339   0.08491   0.09415   0.09686   0.10681
 Alpha virt. eigenvalues --    0.10929   0.11250   0.11585   0.11970   0.12041
 Alpha virt. eigenvalues --    0.12299   0.12756   0.13090   0.13395   0.13731
 Alpha virt. eigenvalues --    0.14278   0.14370   0.14958   0.15074   0.15551
 Alpha virt. eigenvalues --    0.15858   0.16046   0.16668   0.16864   0.17358
 Alpha virt. eigenvalues --    0.17542   0.17938   0.18381   0.19330   0.19676
 Alpha virt. eigenvalues --    0.19811   0.20200   0.20442   0.20524   0.21616
 Alpha virt. eigenvalues --    0.21739   0.22437   0.22930   0.23042   0.23370
 Alpha virt. eigenvalues --    0.23673   0.24117   0.24645   0.25691   0.26356
 Alpha virt. eigenvalues --    0.26663   0.27155   0.27377   0.27698   0.28210
 Alpha virt. eigenvalues --    0.28540   0.28931   0.29038   0.29665   0.30222
 Alpha virt. eigenvalues --    0.30672   0.30943   0.31267   0.31734   0.32259
 Alpha virt. eigenvalues --    0.32756   0.32955   0.33433   0.34180   0.35163
 Alpha virt. eigenvalues --    0.35507   0.35595   0.36769   0.37393   0.39342
 Alpha virt. eigenvalues --    0.39625   0.41196   0.42605   0.44056   0.45256
 Alpha virt. eigenvalues --    0.45521   0.45717   0.49756   0.50445   0.51007
 Alpha virt. eigenvalues --    0.52387   0.52513   0.53218   0.54557   0.55004
 Alpha virt. eigenvalues --    0.55851   0.56573   0.58347   0.59097   0.59220
 Alpha virt. eigenvalues --    0.60175   0.60697   0.61155   0.61953   0.62712
 Alpha virt. eigenvalues --    0.63144   0.63894   0.63974   0.64577   0.65049
 Alpha virt. eigenvalues --    0.66385   0.66942   0.67693   0.68463   0.69264
 Alpha virt. eigenvalues --    0.70321   0.72071   0.72158   0.73642   0.74627
 Alpha virt. eigenvalues --    0.74878   0.75485   0.76167   0.77464   0.79843
 Alpha virt. eigenvalues --    0.80765   0.81728   0.82906   0.84311   0.85442
 Alpha virt. eigenvalues --    0.85715   0.87431   0.87932   0.88401   0.88651
 Alpha virt. eigenvalues --    0.89923   0.91909   0.92482   0.93025   0.94165
 Alpha virt. eigenvalues --    0.95031   0.96662   0.97044   0.99443   1.00034
 Alpha virt. eigenvalues --    1.01188   1.01761   1.04508   1.04654   1.05706
 Alpha virt. eigenvalues --    1.06826   1.07808   1.08646   1.09783   1.09874
 Alpha virt. eigenvalues --    1.10871   1.12472   1.14902   1.16674   1.18481
 Alpha virt. eigenvalues --    1.20440   1.21883   1.22106   1.23148   1.24687
 Alpha virt. eigenvalues --    1.26553   1.29630   1.31755   1.33180   1.35530
 Alpha virt. eigenvalues --    1.37553   1.42899   1.44256   1.46093   1.47847
 Alpha virt. eigenvalues --    1.48541   1.49510   1.50315   1.51294   1.51475
 Alpha virt. eigenvalues --    1.53727   1.55067   1.55626   1.56966   1.57692
 Alpha virt. eigenvalues --    1.58175   1.58475   1.59636   1.63351   1.65066
 Alpha virt. eigenvalues --    1.65349   1.65795   1.67881   1.69183   1.69635
 Alpha virt. eigenvalues --    1.70371   1.71646   1.72713   1.73623   1.74269
 Alpha virt. eigenvalues --    1.74719   1.76257   1.77129   1.81074   1.81937
 Alpha virt. eigenvalues --    1.83662   1.85557   1.86401   1.88081   1.89082
 Alpha virt. eigenvalues --    1.90240   1.91357   1.92061   1.93304   1.94042
 Alpha virt. eigenvalues --    1.95423   1.98091   1.98915   1.99736   2.02015
 Alpha virt. eigenvalues --    2.02946   2.04963   2.09073   2.10022   2.11366
 Alpha virt. eigenvalues --    2.12159   2.13782   2.15591   2.18462   2.21763
 Alpha virt. eigenvalues --    2.23244   2.25390   2.26340   2.27604   2.32011
 Alpha virt. eigenvalues --    2.33481   2.37673   2.40801   2.42813   2.44435
 Alpha virt. eigenvalues --    2.46406   2.46791   2.48107   2.51334   2.52598
 Alpha virt. eigenvalues --    2.53943   2.55970   2.58202   2.58794   2.62286
 Alpha virt. eigenvalues --    2.64393   2.64905   2.66084   2.67035   2.67785
 Alpha virt. eigenvalues --    2.69820   2.70464   2.72412   2.73408   2.74680
 Alpha virt. eigenvalues --    2.75398   2.75845   2.76972   2.78193   2.78957
 Alpha virt. eigenvalues --    2.80001   2.81971   2.84223   2.84642   2.86856
 Alpha virt. eigenvalues --    2.87229   2.88843   2.90440   2.91904   2.92116
 Alpha virt. eigenvalues --    2.93606   2.94341   3.00828   3.01463   3.03449
 Alpha virt. eigenvalues --    3.07773   3.12641   3.15435   3.20276   3.22560
 Alpha virt. eigenvalues --    3.22754   3.26992   3.30062   3.30514   3.33447
 Alpha virt. eigenvalues --    3.36950   3.38460   3.39797   3.44450   3.47458
 Alpha virt. eigenvalues --    3.52534   3.56053   3.57421   3.61147   3.65446
 Alpha virt. eigenvalues --    3.70505   3.72999   3.75334   3.79624   3.80183
 Alpha virt. eigenvalues --    3.81347   3.93887   3.97443   4.02939   4.05290
 Alpha virt. eigenvalues --    4.13559   4.15579   4.19745   4.20784   4.34112
 Alpha virt. eigenvalues --    4.70056   4.83200   4.84641   5.00875   5.06550
 Alpha virt. eigenvalues --    5.08766   5.15321   5.30873   5.67202   5.82042
 Alpha virt. eigenvalues --   23.56827  23.76514  23.85882  23.86374  23.91407
 Alpha virt. eigenvalues --   23.93120  23.94332  23.98299  24.04516  24.07451
 Alpha virt. eigenvalues --   24.13566  24.17044  35.64052  49.97485  50.08074
  Beta  occ. eigenvalues --  -19.14072 -19.11389 -14.36458 -10.28066 -10.26305
  Beta  occ. eigenvalues --  -10.26086 -10.22286 -10.22002 -10.20842 -10.20424
  Beta  occ. eigenvalues --  -10.20136 -10.19967 -10.19715 -10.17548 -10.17335
  Beta  occ. eigenvalues --   -1.07916  -1.04181  -0.97662  -0.89181  -0.82739
  Beta  occ. eigenvalues --   -0.78966  -0.76636  -0.75980  -0.69613  -0.65951
  Beta  occ. eigenvalues --   -0.64048  -0.62834  -0.59914  -0.56207  -0.53156
  Beta  occ. eigenvalues --   -0.52331  -0.49487  -0.48477  -0.47853  -0.47307
  Beta  occ. eigenvalues --   -0.46108  -0.45319  -0.45062  -0.43640  -0.42195
  Beta  occ. eigenvalues --   -0.40726  -0.39962  -0.39519  -0.38542  -0.37934
  Beta  occ. eigenvalues --   -0.37640  -0.36999  -0.34645  -0.30645  -0.28461
  Beta  occ. eigenvalues --   -0.27764  -0.25627  -0.23700
  Beta virt. eigenvalues --   -0.11786  -0.05569  -0.02145  -0.00972   0.00117
  Beta virt. eigenvalues --    0.00711   0.01906   0.02053   0.02143   0.02493
  Beta virt. eigenvalues --    0.03462   0.04377   0.04471   0.04956   0.05438
  Beta virt. eigenvalues --    0.05632   0.05942   0.07020   0.07641   0.07933
  Beta virt. eigenvalues --    0.08339   0.08491   0.09415   0.09686   0.10681
  Beta virt. eigenvalues --    0.10929   0.11250   0.11585   0.11970   0.12041
  Beta virt. eigenvalues --    0.12299   0.12756   0.13090   0.13395   0.13731
  Beta virt. eigenvalues --    0.14278   0.14370   0.14958   0.15074   0.15551
  Beta virt. eigenvalues --    0.15858   0.16046   0.16668   0.16864   0.17358
  Beta virt. eigenvalues --    0.17542   0.17938   0.18381   0.19330   0.19676
  Beta virt. eigenvalues --    0.19811   0.20200   0.20442   0.20524   0.21616
  Beta virt. eigenvalues --    0.21739   0.22437   0.22930   0.23042   0.23370
  Beta virt. eigenvalues --    0.23673   0.24117   0.24645   0.25691   0.26356
  Beta virt. eigenvalues --    0.26663   0.27155   0.27377   0.27698   0.28210
  Beta virt. eigenvalues --    0.28540   0.28931   0.29038   0.29665   0.30222
  Beta virt. eigenvalues --    0.30672   0.30943   0.31267   0.31734   0.32259
  Beta virt. eigenvalues --    0.32756   0.32955   0.33433   0.34180   0.35163
  Beta virt. eigenvalues --    0.35507   0.35595   0.36769   0.37393   0.39342
  Beta virt. eigenvalues --    0.39625   0.41196   0.42605   0.44056   0.45256
  Beta virt. eigenvalues --    0.45521   0.45717   0.49756   0.50445   0.51007
  Beta virt. eigenvalues --    0.52387   0.52513   0.53218   0.54557   0.55004
  Beta virt. eigenvalues --    0.55851   0.56573   0.58347   0.59097   0.59220
  Beta virt. eigenvalues --    0.60175   0.60697   0.61155   0.61953   0.62712
  Beta virt. eigenvalues --    0.63144   0.63894   0.63974   0.64577   0.65049
  Beta virt. eigenvalues --    0.66385   0.66942   0.67693   0.68463   0.69264
  Beta virt. eigenvalues --    0.70321   0.72071   0.72158   0.73642   0.74627
  Beta virt. eigenvalues --    0.74878   0.75485   0.76167   0.77464   0.79843
  Beta virt. eigenvalues --    0.80765   0.81728   0.82906   0.84311   0.85442
  Beta virt. eigenvalues --    0.85715   0.87431   0.87932   0.88401   0.88651
  Beta virt. eigenvalues --    0.89923   0.91909   0.92482   0.93025   0.94165
  Beta virt. eigenvalues --    0.95031   0.96662   0.97044   0.99443   1.00034
  Beta virt. eigenvalues --    1.01188   1.01761   1.04508   1.04654   1.05706
  Beta virt. eigenvalues --    1.06826   1.07808   1.08646   1.09783   1.09874
  Beta virt. eigenvalues --    1.10871   1.12472   1.14902   1.16674   1.18481
  Beta virt. eigenvalues --    1.20440   1.21883   1.22106   1.23148   1.24687
  Beta virt. eigenvalues --    1.26553   1.29630   1.31755   1.33180   1.35530
  Beta virt. eigenvalues --    1.37553   1.42899   1.44256   1.46093   1.47847
  Beta virt. eigenvalues --    1.48541   1.49510   1.50315   1.51294   1.51475
  Beta virt. eigenvalues --    1.53727   1.55067   1.55626   1.56966   1.57692
  Beta virt. eigenvalues --    1.58175   1.58475   1.59636   1.63351   1.65066
  Beta virt. eigenvalues --    1.65349   1.65795   1.67881   1.69183   1.69635
  Beta virt. eigenvalues --    1.70371   1.71646   1.72713   1.73623   1.74269
  Beta virt. eigenvalues --    1.74719   1.76257   1.77129   1.81074   1.81937
  Beta virt. eigenvalues --    1.83662   1.85557   1.86401   1.88081   1.89082
  Beta virt. eigenvalues --    1.90240   1.91357   1.92061   1.93304   1.94042
  Beta virt. eigenvalues --    1.95423   1.98091   1.98915   1.99736   2.02015
  Beta virt. eigenvalues --    2.02946   2.04963   2.09073   2.10022   2.11366
  Beta virt. eigenvalues --    2.12159   2.13782   2.15591   2.18462   2.21763
  Beta virt. eigenvalues --    2.23244   2.25390   2.26340   2.27604   2.32011
  Beta virt. eigenvalues --    2.33481   2.37673   2.40801   2.42813   2.44435
  Beta virt. eigenvalues --    2.46406   2.46791   2.48107   2.51334   2.52598
  Beta virt. eigenvalues --    2.53943   2.55970   2.58202   2.58794   2.62286
  Beta virt. eigenvalues --    2.64393   2.64905   2.66084   2.67035   2.67785
  Beta virt. eigenvalues --    2.69820   2.70464   2.72412   2.73408   2.74680
  Beta virt. eigenvalues --    2.75398   2.75845   2.76972   2.78193   2.78957
  Beta virt. eigenvalues --    2.80001   2.81971   2.84223   2.84642   2.86856
  Beta virt. eigenvalues --    2.87229   2.88843   2.90440   2.91904   2.92116
  Beta virt. eigenvalues --    2.93606   2.94341   3.00828   3.01463   3.03449
  Beta virt. eigenvalues --    3.07773   3.12641   3.15435   3.20276   3.22560
  Beta virt. eigenvalues --    3.22754   3.26992   3.30062   3.30514   3.33447
  Beta virt. eigenvalues --    3.36950   3.38460   3.39797   3.44450   3.47458
  Beta virt. eigenvalues --    3.52534   3.56053   3.57421   3.61147   3.65446
  Beta virt. eigenvalues --    3.70505   3.72999   3.75334   3.79624   3.80183
  Beta virt. eigenvalues --    3.81347   3.93887   3.97443   4.02939   4.05290
  Beta virt. eigenvalues --    4.13559   4.15579   4.19745   4.20784   4.34112
  Beta virt. eigenvalues --    4.70056   4.83200   4.84641   5.00875   5.06550
  Beta virt. eigenvalues --    5.08766   5.15321   5.30873   5.67202   5.82042
  Beta virt. eigenvalues --   23.56827  23.76514  23.85882  23.86374  23.91407
  Beta virt. eigenvalues --   23.93120  23.94332  23.98299  24.04516  24.07451
  Beta virt. eigenvalues --   24.13566  24.17044  35.64052  49.97485  50.08074
          Condensed to atoms (all electrons):
               1          2          3          4          5          6
     1  C    9.828748  -0.033937  -0.638749  -1.560668  -2.379459   2.313111
     2  C   -0.033937   6.445835   0.272958  -0.262158   0.581672  -0.690510
     3  C   -0.638749   0.272958   8.272862   0.264784  -2.037513  -0.187949
     4  C   -1.560668  -0.262158   0.264784  11.817701   2.141608  -0.980364
     5  C   -2.379459   0.581672  -2.037513   2.141608   9.908209  -2.225064
     6  C    2.313111  -0.690510  -0.187949  -0.980364  -2.225064   9.297389
     7  C   -0.680281  -0.453559   0.299244  -4.161680  -1.437654   0.439624
     8  C    0.150230   0.101136  -0.025399  -0.236702   0.008532  -0.456117
     9  C   -0.508522   0.167205  -0.186782   0.346929   1.117778  -1.422977
    10  C   -1.199805  -0.096892   0.250338  -1.517156   0.198597  -0.312830
    11  O    0.152789   0.037822  -0.004886  -0.174862  -0.028937   0.012097
    12  O    0.009167   0.001570  -0.001612  -0.025984  -0.021663   0.005890
    13  H    0.360053  -0.069261  -0.015788   0.021724   0.045191   0.010741
    14  H   -0.015767   0.456232  -0.062733  -0.032749  -0.029700   0.007023
    15  H   -0.036462  -0.039030   0.501348   0.031612  -0.003194  -0.128278
    16  H    0.084513  -0.017819  -0.177633   0.020665  -0.015429   0.502174
    17  H   -0.030405   0.006582  -0.003984   0.018729   0.038197  -0.045462
    18  N    0.010817   0.002669  -0.019898  -0.023145  -0.149962  -0.013820
    19  C   -0.019075  -0.000446  -0.005828  -0.115340  -0.038574  -0.050460
    20  C    0.006504   0.005297   0.023283   0.009023  -0.151524   0.129001
    21  H   -0.017563  -0.000517  -0.051539  -0.016828   0.047684  -0.047642
    22  H    0.000951  -0.001369   0.000926  -0.008586   0.007357  -0.002286
    23  H    0.001878  -0.000480  -0.002310   0.002206   0.010896  -0.006070
    24  H   -0.000445   0.000017   0.002059  -0.000138  -0.001894   0.003545
    25  H    0.000078   0.000050  -0.000143   0.000447   0.001502  -0.001683
    26  H   -0.000588  -0.000343   0.000409  -0.002254   0.001917  -0.004021
               7          8          9         10         11         12
     1  C   -0.680281   0.150230  -0.508522  -1.199805   0.152789   0.009167
     2  C   -0.453559   0.101136   0.167205  -0.096892   0.037822   0.001570
     3  C    0.299244  -0.025399  -0.186782   0.250338  -0.004886  -0.001612
     4  C   -4.161680  -0.236702   0.346929  -1.517156  -0.174862  -0.025984
     5  C   -1.437654   0.008532   1.117778   0.198597  -0.028937  -0.021663
     6  C    0.439624  -0.456117  -1.422977  -0.312830   0.012097   0.005890
     7  C   15.811140  -3.847303  -2.555410   2.996200   0.385799  -0.166374
     8  C   -3.847303  12.738920   1.059359  -3.393098  -0.095136   0.281727
     9  C   -2.555410   1.059359   9.291866  -1.448261  -0.025546  -0.071133
    10  C    2.996200  -3.393098  -1.448261  10.739902  -0.125477   0.146098
    11  O    0.385799  -0.095136  -0.025546  -0.125477   8.123720   0.025642
    12  O   -0.166374   0.281727  -0.071133   0.146098   0.025642   8.217837
    13  H   -0.026694   0.009788  -0.001962   0.000096  -0.001797  -0.000059
    14  H    0.012674   0.006204   0.000736  -0.014647   0.002121   0.000003
    15  H   -0.006433   0.000396   0.002538   0.010190  -0.000075  -0.000037
    16  H   -0.015071   0.003365  -0.014924  -0.043324   0.000453   0.000426
    17  H   -0.165351  -0.105707   0.618438  -0.003600   0.000789  -0.026580
    18  N   -0.036908   0.160383  -0.024707  -0.238946   0.001546  -0.002605
    19  C    0.131508  -0.274741  -0.082314  -0.088665  -0.001428   0.018441
    20  C    0.030865  -0.126068  -0.381281   0.617047  -0.000072   0.002130
    21  H    0.005598   0.006268   0.033602  -0.066479  -0.000275  -0.000168
    22  H    0.011166   0.032310   0.025186  -0.064960  -0.000035   0.000786
    23  H    0.003683   0.019082   0.024807  -0.058453  -0.000021   0.001089
    24  H   -0.000425  -0.001160   0.001952   0.004933   0.000002   0.000010
    25  H   -0.000344  -0.000568   0.000507  -0.005070   0.000000  -0.000006
    26  H    0.001569   0.001003   0.009772  -0.011684  -0.000006   0.000024
              13         14         15         16         17         18
     1  C    0.360053  -0.015767  -0.036462   0.084513  -0.030405   0.010817
     2  C   -0.069261   0.456232  -0.039030  -0.017819   0.006582   0.002669
     3  C   -0.015788  -0.062733   0.501348  -0.177633  -0.003984  -0.019898
     4  C    0.021724  -0.032749   0.031612   0.020665   0.018729  -0.023145
     5  C    0.045191  -0.029700  -0.003194  -0.015429   0.038197  -0.149962
     6  C    0.010741   0.007023  -0.128278   0.502174  -0.045462  -0.013820
     7  C   -0.026694   0.012674  -0.006433  -0.015071  -0.165351  -0.036908
     8  C    0.009788   0.006204   0.000396   0.003365  -0.105707   0.160383
     9  C   -0.001962   0.000736   0.002538  -0.014924   0.618438  -0.024707
    10  C    0.000096  -0.014647   0.010190  -0.043324  -0.003600  -0.238946
    11  O   -0.001797   0.002121  -0.000075   0.000453   0.000789   0.001546
    12  O   -0.000059   0.000003  -0.000037   0.000426  -0.026580  -0.002605
    13  H    0.490660  -0.013464   0.000103   0.001369  -0.000121   0.000059
    14  H   -0.013464   0.492810  -0.015261   0.002211   0.000052   0.000154
    15  H    0.000103  -0.015261   0.492774  -0.022332  -0.000117  -0.001499
    16  H    0.001369   0.002211  -0.022332   0.561681  -0.000833   0.011812
    17  H   -0.000121   0.000052  -0.000117  -0.000833   0.522478  -0.045432
    18  N    0.000059   0.000154  -0.001499   0.011812  -0.045432   6.976720
    19  C   -0.000498   0.000104  -0.000107  -0.004992   0.019473   0.303987
    20  C   -0.000201   0.000077  -0.000384   0.005762   0.001352  -0.287054
    21  H    0.000290  -0.000746   0.002657  -0.016525  -0.003352   0.372257
    22  H    0.000092  -0.000019   0.000030   0.002751  -0.015604  -0.044282
    23  H    0.000064   0.000006   0.000020  -0.000075  -0.009952  -0.028964
    24  H   -0.000011   0.000013  -0.000009  -0.000452   0.001552  -0.011245
    25  H   -0.000002   0.000003  -0.000016   0.000174  -0.000757   0.019070
    26  H    0.000001  -0.000017   0.000032   0.001204   0.000840   0.004931
              19         20         21         22         23         24
     1  C   -0.019075   0.006504  -0.017563   0.000951   0.001878  -0.000445
     2  C   -0.000446   0.005297  -0.000517  -0.001369  -0.000480   0.000017
     3  C   -0.005828   0.023283  -0.051539   0.000926  -0.002310   0.002059
     4  C   -0.115340   0.009023  -0.016828  -0.008586   0.002206  -0.000138
     5  C   -0.038574  -0.151524   0.047684   0.007357   0.010896  -0.001894
     6  C   -0.050460   0.129001  -0.047642  -0.002286  -0.006070   0.003545
     7  C    0.131508   0.030865   0.005598   0.011166   0.003683  -0.000425
     8  C   -0.274741  -0.126068   0.006268   0.032310   0.019082  -0.001160
     9  C   -0.082314  -0.381281   0.033602   0.025186   0.024807   0.001952
    10  C   -0.088665   0.617047  -0.066479  -0.064960  -0.058453   0.004933
    11  O   -0.001428  -0.000072  -0.000275  -0.000035  -0.000021   0.000002
    12  O    0.018441   0.002130  -0.000168   0.000786   0.001089   0.000010
    13  H   -0.000498  -0.000201   0.000290   0.000092   0.000064  -0.000011
    14  H    0.000104   0.000077  -0.000746  -0.000019   0.000006   0.000013
    15  H   -0.000107  -0.000384   0.002657   0.000030   0.000020  -0.000009
    16  H   -0.004992   0.005762  -0.016525   0.002751  -0.000075  -0.000452
    17  H    0.019473   0.001352  -0.003352  -0.015604  -0.009952   0.001552
    18  N    0.303987  -0.287054   0.372257  -0.044282  -0.028964  -0.011245
    19  C    5.594202  -0.196025   0.004694   0.439490   0.438141  -0.006943
    20  C   -0.196025   6.092407  -0.042211  -0.073924  -0.080552   0.368448
    21  H    0.004694  -0.042211   0.454530  -0.001112   0.005508  -0.004104
    22  H    0.439490  -0.073924  -0.001112   0.561847  -0.049018  -0.012101
    23  H    0.438141  -0.080552   0.005508  -0.049018   0.554280   0.007428
    24  H   -0.006943   0.368448  -0.004104  -0.012101   0.007428   0.559944
    25  H   -0.063155   0.424567   0.002116  -0.003046  -0.003097  -0.024064
    26  H    0.008688   0.352089  -0.004184   0.008069  -0.010022  -0.045471
              25         26
     1  C    0.000078  -0.000588
     2  C    0.000050  -0.000343
     3  C   -0.000143   0.000409
     4  C    0.000447  -0.002254
     5  C    0.001502   0.001917
     6  C   -0.001683  -0.004021
     7  C   -0.000344   0.001569
     8  C   -0.000568   0.001003
     9  C    0.000507   0.009772
    10  C   -0.005070  -0.011684
    11  O    0.000000  -0.000006
    12  O   -0.000006   0.000024
    13  H   -0.000002   0.000001
    14  H    0.000003  -0.000017
    15  H   -0.000016   0.000032
    16  H    0.000174   0.001204
    17  H   -0.000757   0.000840
    18  N    0.019070   0.004931
    19  C   -0.063155   0.008688
    20  C    0.424567   0.352089
    21  H    0.002116  -0.004184
    22  H   -0.003046   0.008069
    23  H   -0.003097  -0.010022
    24  H   -0.024064  -0.045471
    25  H    0.509719  -0.025055
    26  H   -0.025055   0.546806
          Atomic-Atomic Spin Densities.
               1          2          3          4          5          6
     1  C   -0.000000   0.000000  -0.000000   0.000000   0.000000  -0.000000
     2  C    0.000000   0.000000  -0.000000  -0.000000  -0.000000   0.000000
     3  C   -0.000000  -0.000000   0.000000   0.000000   0.000000  -0.000000
     4  C    0.000000  -0.000000   0.000000   0.000000  -0.000000  -0.000000
     5  C    0.000000  -0.000000   0.000000  -0.000000  -0.000000   0.000000
     6  C   -0.000000   0.000000  -0.000000  -0.000000   0.000000  -0.000000
     7  C   -0.000000  -0.000000   0.000000  -0.000000   0.000000  -0.000000
     8  C    0.000000   0.000000  -0.000000   0.000000   0.000000  -0.000000
     9  C    0.000000  -0.000000  -0.000000   0.000000  -0.000000   0.000000
    10  C   -0.000000  -0.000000   0.000000  -0.000000  -0.000000   0.000000
    11  O    0.000000   0.000000  -0.000000   0.000000  -0.000000  -0.000000
    12  O    0.000000  -0.000000   0.000000  -0.000000  -0.000000   0.000000
    13  H    0.000000   0.000000   0.000000  -0.000000  -0.000000   0.000000
    14  H    0.000000   0.000000  -0.000000  -0.000000   0.000000   0.000000
    15  H   -0.000000  -0.000000   0.000000   0.000000  -0.000000  -0.000000
    16  H    0.000000   0.000000  -0.000000   0.000000   0.000000   0.000000
    17  H    0.000000  -0.000000  -0.000000   0.000000   0.000000   0.000000
    18  N   -0.000000   0.000000  -0.000000  -0.000000  -0.000000   0.000000
    19  C   -0.000000  -0.000000   0.000000  -0.000000  -0.000000   0.000000
    20  C    0.000000  -0.000000  -0.000000  -0.000000  -0.000000   0.000000
    21  H    0.000000   0.000000   0.000000  -0.000000  -0.000000   0.000000
    22  H   -0.000000   0.000000   0.000000  -0.000000  -0.000000   0.000000
    23  H   -0.000000   0.000000   0.000000  -0.000000  -0.000000   0.000000
    24  H   -0.000000  -0.000000   0.000000  -0.000000  -0.000000   0.000000
    25  H    0.000000  -0.000000  -0.000000   0.000000   0.000000   0.000000
    26  H   -0.000000  -0.000000   0.000000  -0.000000  -0.000000   0.000000
               7          8          9         10         11         12
     1  C   -0.000000   0.000000   0.000000  -0.000000   0.000000   0.000000
     2  C   -0.000000   0.000000  -0.000000  -0.000000   0.000000  -0.000000
     3  C    0.000000  -0.000000  -0.000000   0.000000  -0.000000   0.000000
     4  C   -0.000000   0.000000   0.000000  -0.000000   0.000000  -0.000000
     5  C    0.000000   0.000000  -0.000000  -0.000000  -0.000000  -0.000000
     6  C   -0.000000  -0.000000   0.000000   0.000000  -0.000000   0.000000
     7  C    0.000000  -0.000000  -0.000000   0.000000  -0.000000   0.000000
     8  C   -0.000000   0.000000   0.000000  -0.000000   0.000000  -0.000000
     9  C   -0.000000   0.000000  -0.000000  -0.000000   0.000000  -0.000000
    10  C    0.000000  -0.000000  -0.000000   0.000000  -0.000000   0.000000
    11  O   -0.000000   0.000000   0.000000  -0.000000   0.000000   0.000000
    12  O    0.000000  -0.000000  -0.000000   0.000000   0.000000  -0.000000
    13  H    0.000000  -0.000000  -0.000000   0.000000  -0.000000  -0.000000
    14  H   -0.000000   0.000000   0.000000  -0.000000   0.000000  -0.000000
    15  H    0.000000  -0.000000  -0.000000   0.000000  -0.000000   0.000000
    16  H   -0.000000   0.000000   0.000000  -0.000000   0.000000  -0.000000
    17  H   -0.000000   0.000000   0.000000  -0.000000   0.000000  -0.000000
    18  N   -0.000000   0.000000  -0.000000   0.000000   0.000000  -0.000000
    19  C    0.000000  -0.000000  -0.000000   0.000000  -0.000000   0.000000
    20  C    0.000000  -0.000000  -0.000000   0.000000  -0.000000   0.000000
    21  H    0.000000  -0.000000  -0.000000   0.000000  -0.000000   0.000000
    22  H    0.000000  -0.000000  -0.000000   0.000000  -0.000000   0.000000
    23  H    0.000000  -0.000000  -0.000000   0.000000  -0.000000   0.000000
    24  H    0.000000   0.000000   0.000000  -0.000000  -0.000000   0.000000
    25  H   -0.000000   0.000000  -0.000000   0.000000   0.000000  -0.000000
    26  H    0.000000  -0.000000  -0.000000   0.000000  -0.000000   0.000000
              13         14         15         16         17         18
     1  C    0.000000   0.000000  -0.000000   0.000000   0.000000  -0.000000
     2  C    0.000000   0.000000  -0.000000   0.000000  -0.000000   0.000000
     3  C    0.000000  -0.000000   0.000000  -0.000000  -0.000000  -0.000000
     4  C   -0.000000  -0.000000   0.000000   0.000000   0.000000  -0.000000
     5  C   -0.000000   0.000000  -0.000000   0.000000   0.000000  -0.000000
     6  C    0.000000   0.000000  -0.000000   0.000000   0.000000   0.000000
     7  C    0.000000  -0.000000   0.000000  -0.000000  -0.000000  -0.000000
     8  C   -0.000000   0.000000  -0.000000   0.000000   0.000000   0.000000
     9  C   -0.000000   0.000000  -0.000000   0.000000   0.000000  -0.000000
    10  C    0.000000  -0.000000   0.000000  -0.000000  -0.000000   0.000000
    11  O   -0.000000   0.000000  -0.000000   0.000000   0.000000   0.000000
    12  O   -0.000000  -0.000000   0.000000  -0.000000  -0.000000  -0.000000
    13  H   -0.000000   0.000000  -0.000000   0.000000  -0.000000  -0.000000
    14  H    0.000000   0.000000  -0.000000   0.000000   0.000000   0.000000
    15  H   -0.000000  -0.000000   0.000000  -0.000000  -0.000000  -0.000000
    16  H    0.000000   0.000000  -0.000000   0.000000   0.000000  -0.000000
    17  H   -0.000000   0.000000  -0.000000   0.000000   0.000000   0.000000
    18  N   -0.000000   0.000000  -0.000000  -0.000000   0.000000   0.000000
    19  C    0.000000  -0.000000   0.000000  -0.000000  -0.000000   0.000000
    20  C    0.000000  -0.000000   0.000000   0.000000  -0.000000  -0.000000
    21  H   -0.000000   0.000000  -0.000000  -0.000000  -0.000000   0.000000
    22  H   -0.000000  -0.000000   0.000000  -0.000000  -0.000000   0.000000
    23  H    0.000000  -0.000000   0.000000  -0.000000   0.000000  -0.000000
    24  H    0.000000  -0.000000   0.000000   0.000000   0.000000   0.000000
    25  H    0.000000   0.000000  -0.000000   0.000000  -0.000000  -0.000000
    26  H   -0.000000  -0.000000   0.000000  -0.000000  -0.000000   0.000000
              19         20         21         22         23         24
     1  C   -0.000000   0.000000   0.000000  -0.000000  -0.000000  -0.000000
     2  C   -0.000000  -0.000000   0.000000   0.000000   0.000000  -0.000000
     3  C    0.000000  -0.000000   0.000000   0.000000   0.000000   0.000000
     4  C   -0.000000  -0.000000  -0.000000  -0.000000  -0.000000  -0.000000
     5  C   -0.000000  -0.000000  -0.000000  -0.000000  -0.000000  -0.000000
     6  C    0.000000   0.000000   0.000000   0.000000   0.000000   0.000000
     7  C    0.000000   0.000000   0.000000   0.000000   0.000000   0.000000
     8  C   -0.000000  -0.000000  -0.000000  -0.000000  -0.000000   0.000000
     9  C   -0.000000  -0.000000  -0.000000  -0.000000  -0.000000   0.000000
    10  C    0.000000   0.000000   0.000000   0.000000   0.000000  -0.000000
    11  O   -0.000000  -0.000000  -0.000000  -0.000000  -0.000000  -0.000000
    12  O    0.000000   0.000000   0.000000   0.000000   0.000000   0.000000
    13  H    0.000000   0.000000  -0.000000  -0.000000   0.000000   0.000000
    14  H   -0.000000  -0.000000   0.000000  -0.000000  -0.000000  -0.000000
    15  H    0.000000   0.000000  -0.000000   0.000000   0.000000   0.000000
    16  H   -0.000000   0.000000  -0.000000  -0.000000  -0.000000   0.000000
    17  H   -0.000000  -0.000000  -0.000000  -0.000000   0.000000   0.000000
    18  N    0.000000  -0.000000   0.000000   0.000000  -0.000000   0.000000
    19  C    0.000000  -0.000000   0.000000   0.000000   0.000000   0.000000
    20  C   -0.000000   0.000000  -0.000000   0.000000   0.000000  -0.000000
    21  H    0.000000  -0.000000   0.000000  -0.000000   0.000000  -0.000000
    22  H    0.000000   0.000000  -0.000000  -0.000000  -0.000000   0.000000
    23  H    0.000000   0.000000   0.000000  -0.000000  -0.000000  -0.000000
    24  H    0.000000  -0.000000  -0.000000   0.000000  -0.000000   0.000000
    25  H   -0.000000   0.000000   0.000000   0.000000   0.000000   0.000000
    26  H    0.000000  -0.000000  -0.000000   0.000000  -0.000000   0.000000
              25         26
     1  C    0.000000  -0.000000
     2  C   -0.000000  -0.000000
     3  C   -0.000000   0.000000
     4  C    0.000000  -0.000000
     5  C    0.000000  -0.000000
     6  C    0.000000   0.000000
     7  C   -0.000000   0.000000
     8  C    0.000000  -0.000000
     9  C   -0.000000  -0.000000
    10  C    0.000000   0.000000
    11  O    0.000000  -0.000000
    12  O   -0.000000   0.000000
    13  H    0.000000  -0.000000
    14  H    0.000000  -0.000000
    15  H   -0.000000   0.000000
    16  H    0.000000  -0.000000
    17  H   -0.000000  -0.000000
    18  N   -0.000000   0.000000
    19  C   -0.000000   0.000000
    20  C    0.000000  -0.000000
    21  H    0.000000  -0.000000
    22  H    0.000000   0.000000
    23  H    0.000000  -0.000000
    24  H    0.000000   0.000000
    25  H   -0.000000   0.000000
    26  H    0.000000   0.000000
 Mulliken charges and spin densities:
               1          2
     1  C    0.202887  -0.000000
     2  C   -0.412725   0.000000
     3  C   -0.465465   0.000000
     4  C    0.443184  -0.000000
     5  C    0.411430  -0.000000
     6  C   -0.145064   0.000000
     7  C   -0.575586   0.000000
     8  C   -0.016707  -0.000000
     9  C    0.023143  -0.000000
    10  C   -0.274054   0.000000
    11  O   -0.284227  -0.000000
    12  O   -0.394618  -0.000000
    13  H    0.189627  -0.000000
    14  H    0.204680  -0.000000
    15  H    0.211534   0.000000
    16  H    0.130850  -0.000000
    17  H    0.228774  -0.000000
    18  N    0.064062  -0.000000
    19  C   -0.010137   0.000000
    20  C   -0.728557   0.000000
    21  H    0.338044  -0.000000
    22  H    0.185378  -0.000000
    23  H    0.179926   0.000000
    24  H    0.158560   0.000000
    25  H    0.168774  -0.000000
    26  H    0.166289  -0.000000
 Sum of Mulliken charges =  -0.00000  -0.00000
 Mulliken charges and spin densities with hydrogens summed into heavy atoms:
               1          2
     1  C    0.392514  -0.000000
     2  C   -0.208045   0.000000
     3  C   -0.253931   0.000000
     4  C    0.443184  -0.000000
     5  C    0.411430  -0.000000
     6  C   -0.014214  -0.000000
     7  C   -0.575586   0.000000
     8  C   -0.016707  -0.000000
     9  C    0.251917  -0.000000
    10  C   -0.274054   0.000000
    11  O   -0.284227  -0.000000
    12  O   -0.394618  -0.000000
    18  N    0.402105  -0.000000
    19  C    0.355167   0.000000
    20  C   -0.234935   0.000000
 Electronic spatial extent (au):  <R**2>=           3456.0634
 Charge=              0.0000 electrons
 Dipole moment (field-independent basis, Debye):
    X=              7.2966    Y=            -11.1266    Z=              0.2933  Tot=             13.3089
 Quadrupole moment (field-independent basis, Debye-Ang):
   XX=            -75.4622   YY=           -103.3272   ZZ=            -90.0293
   XY=             13.9416   XZ=              1.1198   YZ=              0.1413
 Traceless Quadrupole moment (field-independent basis, Debye-Ang):
   XX=             14.1441   YY=            -13.7210   ZZ=             -0.4231
   XY=             13.9416   XZ=              1.1198   YZ=              0.1413
 Octapole moment (field-independent basis, Debye-Ang**2):
  XXX=             78.9475  YYY=           -134.7980  ZZZ=              0.7886  XYY=             28.9289
  XXY=            -42.9441  XXZ=              1.0221  XZZ=              3.6662  YZZ=              9.4459
  YYZ=              1.2036  XYZ=             -0.2430
 Hexadecapole moment (field-independent basis, Debye-Ang**3):
 XXXX=          -2560.2218 YYYY=          -1954.3639 ZZZZ=           -114.6383 XXXY=            122.8804
 XXXZ=              8.6539 YYYX=            121.9204 YYYZ=             12.0307 ZZZX=              0.0992
 ZZZY=             -0.4939 XXYY=           -757.7686 XXZZ=           -494.0663 YYZZ=           -322.3880
 XXYZ=             -6.8406 YYXZ=              1.9815 ZZXY=            -20.2783
 N-N= 9.227836167585D+02 E-N=-3.404640973683D+03  KE= 6.664890022242D+02
                          Isotropic Fermi Contact Couplings
        Atom                 a.u.       MegaHertz       Gauss      10(-4) cm-1
     1  C(13)              0.00000       0.00000       0.00000       0.00000
     2  C(13)             -0.00000      -0.00000      -0.00000      -0.00000
     3  C(13)             -0.00000      -0.00000      -0.00000      -0.00000
     4  C(13)             -0.00000      -0.00000      -0.00000      -0.00000
     5  C(13)             -0.00000      -0.00000      -0.00000      -0.00000
     6  C(13)             -0.00000      -0.00000      -0.00000      -0.00000
     7  C(13)             -0.00000      -0.00000      -0.00000      -0.00000
     8  C(13)             -0.00000      -0.00000      -0.00000      -0.00000
     9  C(13)             -0.00000      -0.00000      -0.00000      -0.00000
    10  C(13)             -0.00000      -0.00000      -0.00000      -0.00000
    11  O(17)             -0.00000       0.00000       0.00000       0.00000
    12  O(17)             -0.00000       0.00000       0.00000       0.00000
    13  H(1)               0.00000       0.00000       0.00000       0.00000
    14  H(1)               0.00000       0.00000       0.00000       0.00000
    15  H(1)               0.00000       0.00000       0.00000       0.00000
    16  H(1)              -0.00000      -0.00000      -0.00000      -0.00000
    17  H(1)              -0.00000      -0.00000      -0.00000      -0.00000
    18  N(14)             -0.00000      -0.00000      -0.00000      -0.00000
    19  C(13)              0.00000       0.00000       0.00000       0.00000
    20  C(13)             -0.00000      -0.00000      -0.00000      -0.00000
    21  H(1)              -0.00000      -0.00000      -0.00000      -0.00000
    22  H(1)              -0.00000      -0.00000      -0.00000      -0.00000
    23  H(1)              -0.00000      -0.00000      -0.00000      -0.00000
    24  H(1)               0.00000       0.00000       0.00000       0.00000
    25  H(1)              -0.00000      -0.00000      -0.00000      -0.00000
    26  H(1)               0.00000       0.00000       0.00000       0.00000
 --------------------------------------------------------
       Center         ----  Spin Dipole Couplings  ----
                      3XX-RR        3YY-RR        3ZZ-RR
 --------------------------------------------------------
     1   Atom        0.000000     -0.000000      0.000000
     2   Atom        0.000000     -0.000000      0.000000
     3   Atom        0.000000     -0.000000     -0.000000
     4   Atom        0.000000      0.000000     -0.000000
     5   Atom        0.000000     -0.000000     -0.000000
     6   Atom        0.000000     -0.000000     -0.000000
     7   Atom        0.000000     -0.000000     -0.000000
     8   Atom       -0.000000      0.000000      0.000000
     9   Atom        0.000000     -0.000000      0.000000
    10   Atom        0.000000      0.000000     -0.000000
    11   Atom        0.000000      0.000000     -0.000000
    12   Atom       -0.000000     -0.000000      0.000000
    13   Atom        0.000000     -0.000000     -0.000000
    14   Atom       -0.000000     -0.000000      0.000000
    15   Atom       -0.000000     -0.000000      0.000000
    16   Atom       -0.000000      0.000000      0.000000
    17   Atom       -0.000000      0.000000      0.000000
    18   Atom        0.000000     -0.000000      0.000000
    19   Atom        0.000000     -0.000000     -0.000000
    20   Atom       -0.000000      0.000000     -0.000000
    21   Atom        0.000000     -0.000000     -0.000000
    22   Atom        0.000000     -0.000000      0.000000
    23   Atom        0.000000     -0.000000      0.000000
    24   Atom       -0.000000      0.000000      0.000000
    25   Atom        0.000000     -0.000000      0.000000
    26   Atom       -0.000000      0.000000      0.000000
 --------------------------------------------------------
                        XY            XZ            YZ
 --------------------------------------------------------
     1   Atom       -0.000000     -0.000000      0.000000
     2   Atom        0.000000     -0.000000     -0.000000
     3   Atom        0.000000      0.000000     -0.000000
     4   Atom        0.000000      0.000000      0.000000
     5   Atom       -0.000000     -0.000000      0.000000
     6   Atom        0.000000      0.000000     -0.000000
     7   Atom       -0.000000      0.000000     -0.000000
     8   Atom       -0.000000      0.000000      0.000000
     9   Atom       -0.000000      0.000000      0.000000
    10   Atom       -0.000000     -0.000000      0.000000
    11   Atom        0.000000      0.000000      0.000000
    12   Atom        0.000000      0.000000     -0.000000
    13   Atom       -0.000000      0.000000     -0.000000
    14   Atom       -0.000000      0.000000      0.000000
    15   Atom        0.000000      0.000000     -0.000000
    16   Atom       -0.000000     -0.000000      0.000000
    17   Atom        0.000000     -0.000000     -0.000000
    18   Atom       -0.000000      0.000000     -0.000000
    19   Atom       -0.000000     -0.000000     -0.000000
    20   Atom        0.000000      0.000000     -0.000000
    21   Atom       -0.000000      0.000000      0.000000
    22   Atom        0.000000      0.000000     -0.000000
    23   Atom        0.000000     -0.000000      0.000000
    24   Atom       -0.000000     -0.000000      0.000000
    25   Atom       -0.000000     -0.000000     -0.000000
    26   Atom       -0.000000     -0.000000     -0.000000
 --------------------------------------------------------


 ---------------------------------------------------------------------------------
              Anisotropic Spin Dipole Couplings in Principal Axis System
 ---------------------------------------------------------------------------------

       Atom             a.u.   MegaHertz   Gauss  10(-4) cm-1        Axes

              Baa    -0.0000    -0.000    -0.000    -0.000  0.0637  0.9950 -0.0766
     1 C(13)  Bbb     0.0000     0.000     0.000     0.000  0.4303  0.0419  0.9017
              Bcc     0.0000     0.000     0.000     0.000  0.9004 -0.0904 -0.4255
 
              Baa    -0.0000    -0.000    -0.000    -0.000 -0.3944  0.9160  0.0729
     2 C(13)  Bbb     0.0000     0.000     0.000     0.000  0.0985 -0.0367  0.9945
              Bcc     0.0000     0.000     0.000     0.000  0.9136  0.3994 -0.0758
 
              Baa    -0.0000    -0.000    -0.000    -0.000 -0.0292  0.9874  0.1556
     3 C(13)  Bbb    -0.0000    -0.000    -0.000    -0.000 -0.0487 -0.1569  0.9864
              Bcc     0.0000     0.000     0.000     0.000  0.9984  0.0213  0.0527
 
              Baa    -0.0000    -0.000    -0.000    -0.000 -0.0062 -0.2290  0.9734
     4 C(13)  Bbb    -0.0000    -0.000    -0.000    -0.000  0.9233 -0.3751 -0.0824
              Bcc     0.0000     0.000     0.000     0.000  0.3840  0.8983  0.2138
 
              Baa    -0.0000    -0.000    -0.000    -0.000 -0.2869 -0.6460  0.7074
     5 C(13)  Bbb    -0.0000    -0.000    -0.000    -0.000  0.4790  0.5427  0.6899
              Bcc     0.0000     0.000     0.000     0.000  0.8296 -0.5368 -0.1538
 
              Baa    -0.0000    -0.000    -0.000    -0.000 -0.2563  0.8943  0.3668
     6 C(13)  Bbb    -0.0000    -0.000    -0.000    -0.000  0.0790 -0.3588  0.9301
              Bcc     0.0000     0.000     0.000     0.000  0.9634  0.2674  0.0214
 
              Baa    -0.0000    -0.000    -0.000    -0.000  0.5598  0.8277 -0.0383
     7 C(13)  Bbb    -0.0000    -0.000    -0.000    -0.000 -0.0347  0.0695  0.9970
              Bcc     0.0000     0.000     0.000     0.000  0.8279 -0.5568  0.0676
 
              Baa    -0.0000    -0.000    -0.000    -0.000  0.9691  0.2368 -0.0694
     8 C(13)  Bbb     0.0000     0.000     0.000     0.000  0.1153 -0.1858  0.9758
              Bcc     0.0000     0.000     0.000     0.000 -0.2182  0.9536  0.2074
 
              Baa    -0.0000    -0.000    -0.000    -0.000  0.0917  0.9794 -0.1801
     9 C(13)  Bbb     0.0000     0.000     0.000     0.000 -0.3855  0.2017  0.9004
              Bcc     0.0000     0.000     0.000     0.000  0.9181 -0.0132  0.3961
 
              Baa    -0.0000    -0.000    -0.000    -0.000  0.7256  0.6802  0.1042
    10 C(13)  Bbb    -0.0000    -0.000    -0.000    -0.000  0.0504 -0.2035  0.9778
              Bcc     0.0000     0.000     0.000     0.000 -0.6863  0.7042  0.1819
 
              Baa    -0.0000     0.000     0.000     0.000 -0.1405 -0.1417  0.9799
    11 O(17)  Bbb    -0.0000     0.000     0.000     0.000  0.8835 -0.4647  0.0595
              Bcc     0.0000    -0.000    -0.000    -0.000  0.4469  0.8740  0.1905
 
              Baa    -0.0000     0.000     0.000     0.000  0.7173 -0.5890 -0.3723
    12 O(17)  Bbb     0.0000    -0.000    -0.000    -0.000 -0.0204 -0.5518  0.8337
              Bcc     0.0000    -0.000    -0.000    -0.000  0.6965  0.5904  0.4078
 
              Baa    -0.0000    -0.000    -0.000    -0.000  0.3961  0.8944  0.2076
    13 H(1)   Bbb    -0.0000    -0.000    -0.000    -0.000 -0.1851 -0.1437  0.9722
              Bcc     0.0000     0.000     0.000     0.000  0.8994 -0.4235  0.1087
 
              Baa    -0.0000    -0.000    -0.000    -0.000  0.7565  0.6508 -0.0651
    14 H(1)   Bbb     0.0000     0.000     0.000     0.000 -0.6540  0.7520 -0.0819
              Bcc     0.0000     0.000     0.000     0.000 -0.0043  0.1045  0.9945
 
              Baa    -0.0000    -0.000    -0.000    -0.000  0.9782 -0.1630 -0.1284
    15 H(1)   Bbb    -0.0000    -0.000    -0.000    -0.000  0.1967  0.9255  0.3238
              Bcc     0.0000     0.000     0.000     0.000  0.0661 -0.3420  0.9374
 
              Baa    -0.0000    -0.000    -0.000    -0.000  0.9641  0.2509  0.0873
    16 H(1)   Bbb     0.0000     0.000     0.000     0.000  0.0929 -0.6262  0.7741
              Bcc     0.0000     0.000     0.000     0.000 -0.2488  0.7382  0.6270
 
              Baa    -0.0000    -0.000    -0.000    -0.000  0.9642 -0.1991  0.1754
    17 H(1)   Bbb    -0.0000    -0.000    -0.000    -0.000  0.0226  0.7202  0.6934
              Bcc     0.0000     0.000     0.000     0.000 -0.2644 -0.6646  0.6989
 
              Baa    -0.0000    -0.000    -0.000    -0.000 -0.1543  0.8540  0.4969
    18 N(14)  Bbb    -0.0000    -0.000    -0.000    -0.000  0.9238  0.3031 -0.2340
              Bcc     0.0000     0.000     0.000     0.000  0.3505 -0.4229  0.8357
 
              Baa    -0.0000    -0.000    -0.000    -0.000  0.5307  0.7976  0.2867
    19 C(13)  Bbb    -0.0000    -0.000    -0.000    -0.000 -0.1661 -0.2338  0.9580
              Bcc     0.0000     0.000     0.000     0.000  0.8311 -0.5560  0.0084
 
              Baa    -0.0000    -0.000    -0.000    -0.000  0.7022 -0.1811 -0.6886
    20 C(13)  Bbb    -0.0000    -0.000    -0.000    -0.000  0.7109  0.1246  0.6922
              Bcc     0.0000     0.000     0.000     0.000  0.0395  0.9755 -0.2162
 
              Baa    -0.0000    -0.000    -0.000    -0.000  0.1923  0.7485 -0.6347
    21 H(1)   Bbb    -0.0000    -0.000    -0.000    -0.000  0.2598  0.5848  0.7684
              Bcc     0.0000     0.000     0.000     0.000  0.9463 -0.3126 -0.0820
 
              Baa    -0.0000    -0.000    -0.000    -0.000 -0.2143  0.7690  0.6023
    22 H(1)   Bbb     0.0000     0.000     0.000     0.000  0.7170  0.5426 -0.4376
              Bcc     0.0000     0.000     0.000     0.000  0.6633 -0.3381  0.6676
 
              Baa    -0.0000    -0.000    -0.000    -0.000 -0.3598  0.7398 -0.5686
    23 H(1)   Bbb    -0.0000    -0.000    -0.000    -0.000  0.6161  0.6460  0.4507
              Bcc     0.0000     0.000     0.000     0.000  0.7007 -0.1881 -0.6882
 
              Baa    -0.0000    -0.000    -0.000    -0.000  0.9841  0.1509  0.0936
    24 H(1)   Bbb     0.0000     0.000     0.000     0.000 -0.0493 -0.2744  0.9604
              Bcc     0.0000     0.000     0.000     0.000 -0.1706  0.9497  0.2626
 
              Baa    -0.0000    -0.000    -0.000    -0.000  0.0550  0.9953  0.0799
    25 H(1)   Bbb     0.0000     0.000     0.000     0.000 -0.0035 -0.0799  0.9968
              Bcc     0.0000     0.000     0.000     0.000  0.9985 -0.0551 -0.0009
 
              Baa    -0.0000    -0.000    -0.000    -0.000  0.9810  0.1566  0.1142
    26 H(1)   Bbb     0.0000     0.000     0.000     0.000 -0.1182  0.0162  0.9929
              Bcc     0.0000     0.000     0.000     0.000 -0.1536  0.9875 -0.0344
 

 ---------------------------------------------------------------------------------

 No NMR shielding tensors so no spin-rotation constants.
 Leave Link  601 at Sat Jan 13 19:19:33 2024, MaxMem=  4026531840 cpu:              19.8 elap:               5.0
 (Enter /sysapps/ubuntu-applications/gaussian/Gaussian/AVX2/g16/l9999.exe)
 1\1\GINC-ACIDSCN004\SP\UB3LYP\6-311++G(d,p)\C12H11N1O2\SELHAJJ1\13-Jan
 -2024\0\\#P UB3LYP/6-311++G(d,p) SCRF=(PCM,Solvent=n,n-DiMethylFormami
 de)\\Quinone PCM in DMF\\0,1\C,0,-1.795096,2.768377,-0.668817\C,0,-2.8
 91011,1.932898,-0.485712\C,0,-2.681186,0.583773,-0.211987\C,0,-0.49481
 6,2.270503,-0.572452\C,0,-0.270843,0.909075,-0.279543\C,0,-1.386323,0.
 078974,-0.112796\C,0,0.645808,3.208502,-0.808357\C,0,2.077006,2.61835,
 -0.760607\C,0,2.198564,1.225592,-0.412715\C,0,1.125702,0.406372,-0.164
 673\O,0,0.470626,4.384194,-1.034258\O,0,3.027955,3.347106,-0.994741\H,
 0,-1.920044,3.820596,-0.894084\H,0,-3.897983,2.325909,-0.562742\H,0,-3
 .524905,-0.083645,-0.078813\H,0,-1.27647,-0.981439,0.080028\H,0,3.2109
 95,0.851472,-0.339337\N,0,1.291719,-0.900022,0.176703\C,0,2.586829,-1.
 536778,0.383069\C,0,2.410328,-3.001109,0.767658\H,0,0.489142,-1.411376
 ,0.502105\H,0,3.144588,-1.003288,1.16327\H,0,3.171659,-1.458183,-0.539
 409\H,0,1.847626,-3.102494,1.700673\H,0,3.385193,-3.468667,0.917922\H,
 0,1.888448,-3.556612,-0.016237\\Version=ES64L-G16RevA.03\State=1-A\HF=
 -669.2953148\S2=0.\S2-1=0.\S2A=0.\RMSD=6.379e-09\Dipole=-2.1256169,-4.
 6039229,1.3049135\Quadrupole=5.3140193,-4.9617622,-0.3522571,-13.18200
 35,3.8524206,0.6460183\PG=C01 [X(C12H11N1O2)]\\@


 WE STILL HAVE JUDGEMENT HERE,
 THAT WE TEACH BUT BLOODY INSTRUCTIONS,
 WHICH, BEING TAUGHT,
 RETURN TO PLAGUE THE INVENTOR.
           MACBETH ACT I, SCENE VII
 Job cpu time:       0 days  0 hours 32 minutes 28.3 seconds.
 Elapsed time:       0 days  0 hours  4 minutes 52.3 seconds.
 File lengths (MBytes):  RWF=    240 Int=      0 D2E=      0 Chk=     13 Scr=      1
 Normal termination of Gaussian 16 at Sat Jan 13 19:19:34 2024.
