 Entering Gaussian System, Link 0=g16
 Input=192.com
 Output=192.log
 Initial command:
 /sysapps/ubuntu-applications/gaussian/Gaussian/AVX2/g16/l1.exe "/scratch/selhajj1/4222339/Gau-1388080.inp" -scrdir="/scratch/selhajj1/4222339/"
 Entering Link 1 = /sysapps/ubuntu-applications/gaussian/Gaussian/AVX2/g16/l1.exe PID=   1388116.
  
 Copyright (c) 1988,1990,1992,1993,1995,1998,2003,2009,2016,
            Gaussian, Inc.  All Rights Reserved.
  
 This is part of the Gaussian(R) 16 program.  It is based on
 the Gaussian(R) 09 system (copyright 2009, Gaussian, Inc.),
 the Gaussian(R) 03 system (copyright 2003, Gaussian, Inc.),
 the Gaussian(R) 98 system (copyright 1998, Gaussian, Inc.),
 the Gaussian(R) 94 system (copyright 1995, Gaussian, Inc.),
 the Gaussian 92(TM) system (copyright 1992, Gaussian, Inc.),
 the Gaussian 90(TM) system (copyright 1990, Gaussian, Inc.),
 the Gaussian 88(TM) system (copyright 1988, Gaussian, Inc.),
 the Gaussian 86(TM) system (copyright 1986, Carnegie Mellon
 University), and the Gaussian 82(TM) system (copyright 1983,
 Carnegie Mellon University). Gaussian is a federally registered
 trademark of Gaussian, Inc.
  
 This software contains proprietary and confidential information,
 including trade secrets, belonging to Gaussian, Inc.
  
 This software is provided under written license and may be
 used, copied, transmitted, or stored only in accord with that
 written license.
  
 The following legend is applicable only to US Government
 contracts under FAR:
  
                    RESTRICTED RIGHTS LEGEND
  
 Use, reproduction and disclosure by the US Government is
 subject to restrictions as set forth in subparagraphs (a)
 and (c) of the Commercial Computer Software - Restricted
 Rights clause in FAR 52.227-19.
  
 Gaussian, Inc.
 340 Quinnipiac St., Bldg. 40, Wallingford CT 06492
  
  
 ---------------------------------------------------------------
 Warning -- This program may not be used in any manner that
 competes with the business of Gaussian, Inc. or will provide
 assistance to any competitor of Gaussian, Inc.  The licensee
 of this program is prohibited from giving any competitor of
 Gaussian, Inc. access to this program.  By using this program,
 the user acknowledges that Gaussian, Inc. is engaged in the
 business of creating and licensing software in the field of
 computational chemistry and represents and warrants to the
 licensee that it is not a competitor of Gaussian, Inc. and that
 it will not use this program in any manner prohibited above.
 ---------------------------------------------------------------
  

 Cite this work as:
 Gaussian 16, Revision A.03,
 M. J. Frisch, G. W. Trucks, H. B. Schlegel, G. E. Scuseria, 
 M. A. Robb, J. R. Cheeseman, G. Scalmani, V. Barone, 
 G. A. Petersson, H. Nakatsuji, X. Li, M. Caricato, A. V. Marenich, 
 J. Bloino, B. G. Janesko, R. Gomperts, B. Mennucci, H. P. Hratchian, 
 J. V. Ortiz, A. F. Izmaylov, J. L. Sonnenberg, D. Williams-Young, 
 F. Ding, F. Lipparini, F. Egidi, J. Goings, B. Peng, A. Petrone, 
 T. Henderson, D. Ranasinghe, V. G. Zakrzewski, J. Gao, N. Rega, 
 G. Zheng, W. Liang, M. Hada, M. Ehara, K. Toyota, R. Fukuda, 
 J. Hasegawa, M. Ishida, T. Nakajima, Y. Honda, O. Kitao, H. Nakai, 
 T. Vreven, K. Throssell, J. A. Montgomery, Jr., J. E. Peralta, 
 F. Ogliaro, M. J. Bearpark, J. J. Heyd, E. N. Brothers, K. N. Kudin, 
 V. N. Staroverov, T. A. Keith, R. Kobayashi, J. Normand, 
 K. Raghavachari, A. P. Rendell, J. C. Burant, S. S. Iyengar, 
 J. Tomasi, M. Cossi, J. M. Millam, M. Klene, C. Adamo, R. Cammi, 
 J. W. Ochterski, R. L. Martin, K. Morokuma, O. Farkas, 
 J. B. Foresman, and D. J. Fox, Gaussian, Inc., Wallingford CT, 2016.
 
 ******************************************
 Gaussian 16:  ES64L-G16RevA.03 25-Dec-2016
                21-Dec-2023 
 ******************************************
 %chk=192.chk
 %nproc=8
 Will use up to    8 processors via shared memory.
 %mem=30GB
 --------------------------------------
 #P UB3LYP/6-311++G(d,p) nosym opt freq
 --------------------------------------
 1/18=20,19=15,26=3,38=1/1,3;
 2/9=110,12=2,15=1,17=6,18=5,40=1/2;
 3/5=4,6=6,7=1111,11=2,25=1,30=1,71=1,74=-5,116=2/1,2,3;
 4//1;
 5/5=2,38=5/2;
 6/7=2,8=2,9=2,10=2,28=1/1;
 7/30=1/1,2,3,16;
 1/18=20,19=15,26=3/3(2);
 2/9=110,15=1/2;
 99//99;
 2/9=110,15=1/2;
 3/5=4,6=6,7=1111,11=2,25=1,30=1,71=1,74=-5,116=2/1,2,3;
 4/5=5,16=3,69=1/1;
 5/5=2,38=5/2;
 7/30=1/1,2,3,16;
 1/18=20,19=15,26=3/3(-5);
 2/9=110,15=1/2;
 6/7=2,8=2,9=2,10=2,19=2,28=1/1;
 99/9=1/99;
 Leave Link    1 at Thu Dec 21 18:53:12 2023, MaxMem=  4026531840 cpu:               2.0 elap:               0.3
 (Enter /sysapps/ubuntu-applications/gaussian/Gaussian/AVX2/g16/l101.exe)
 --------
 Oxidized
 --------
 Symbolic Z-matrix:
 Charge =  0 Multiplicity = 1
 C                     5.52404  -3.60342  -2.63898 
 O                     4.65215  -2.73532  -1.93508 
 C                     5.15347  -2.08292  -0.82077 
 C                     6.44921  -2.25071  -0.38639 
 C                     6.95417  -1.59792   0.73027 
 C                     6.13738  -0.74557   1.4413 
 C                     4.83355  -0.56065   1.02543 
 C                     3.97842   0.33614   1.77574 
 O                     4.39051   0.95845   2.80519 
 C                     2.59073   0.52192   1.31861 
 C                     1.76376   1.39033   2.04553 
 O                     2.30404   2.01929   3.14942 
 C                     0.46853   1.58433   1.64575 
 C                    -0.4725    2.50875   2.37631 
 C                    -1.14995   3.32415   1.28954 
 O                    -1.99053   4.22473   1.96193 
 C                    -2.00602   2.50124   0.39118 
 C                    -1.44635   1.13079   0.08956 
 O                    -2.28033   0.17618   0.69861 
 C                    -2.86779  -0.67107  -0.23894 
 C                    -2.57216  -2.09958   0.09654 
 C                    -3.55673  -3.0843   -0.42367 
 N                    -3.14291  -3.71315  -1.66168 
 C                    -4.94212  -2.56766  -0.60364 
 O                    -5.64686  -2.56625   0.60609 
 C                    -4.84968  -1.16318  -1.1688 
 C                    -6.17941  -0.63824  -1.60522 
 O                    -4.23144  -0.38129  -0.20688 
 C                    -0.06817   0.96328   0.55573 
 C                     0.7545    0.08904  -0.18136 
 O                     0.23468  -0.53561  -1.26885 
 C                     2.06601  -0.11147   0.21755 
 C                     2.97341  -1.01761  -0.51863 
 O                     2.59967  -1.63996  -1.52875 
 C                     4.34566  -1.2186   -0.0894 
 C                    -0.17385   4.07022   0.4724 
 O                     0.6688    3.51329  -0.20866 
 C                    -0.20382   5.55499   0.46694 
 O                     0.77674   6.08931  -0.34936 
 H                     5.08378  -3.87155  -3.63266 
 H                     5.69254  -4.56044  -2.08585 
 H                     6.48303  -3.07752  -2.86441 
 H                     7.12813  -2.91411  -0.91794 
 H                     7.98757  -1.76144   1.03753 
 H                     6.50696  -0.23378   2.30345 
 H                     1.79652   2.63856   3.7154 
 H                     0.02249   3.19028   3.06053 
 H                    -1.24133   1.91845   2.87342 
 H                    -2.91114   4.21132   1.61046 
 H                    -2.12999   3.05589  -0.56621 
 H                    -3.02023   2.41926   0.83385 
 H                    -1.48674   0.9382   -0.9984 
 H                    -2.50878  -0.36743  -1.2319 
 H                    -1.56073  -2.35247  -0.27501 
 H                    -2.49065  -2.15446   1.2211 
 H                    -3.61601  -3.92297   0.33175 
 H                    -3.12822  -3.07752  -2.46457 
 H                    -2.33593  -4.34145  -1.5645 
 H                    -5.48042  -3.18333  -1.35518 
 H                    -6.61572  -2.51149   0.47044 
 H                    -4.16355  -1.21864  -2.04033 
 H                    -6.82587  -1.52554  -1.83883 
 H                    -6.08441  -0.09196  -2.58047 
 H                    -6.66813  -0.0318   -0.83078 
 H                     0.59626  -1.15515  -1.90329 
 H                    -1.19421   5.93345   0.11512 
 H                    -0.09651   5.90916   1.52043 
 H                     0.42247   6.16654  -1.26771 
 
 ITRead=  0  0  0  0  0  0  0  0  0  0  0  0  0  0  0  0  0  0  0  0
 ITRead=  0  0  0  0  0  0  0  0  0  0  0  0  0  0  0  0  0  0  0  0
 ITRead=  0  0  0  0  0  0  0  0  0  0  0  0  0  0  0  0  0  0  0  0
 ITRead=  0  0  0  0  0  0  0  0
 MicOpt= -1 -1 -1 -1 -1 -1 -1 -1 -1 -1 -1 -1 -1 -1 -1 -1 -1 -1 -1 -1
 MicOpt= -1 -1 -1 -1 -1 -1 -1 -1 -1 -1 -1 -1 -1 -1 -1 -1 -1 -1 -1 -1
 MicOpt= -1 -1 -1 -1 -1 -1 -1 -1 -1 -1 -1 -1 -1 -1 -1 -1 -1 -1 -1 -1
 MicOpt= -1 -1 -1 -1 -1 -1 -1 -1
 NAtoms=     68 NQM=       68 NQMF=       0 NMMI=      0 NMMIF=      0
                NMic=       0 NMicF=      0.
                    Isotopes and Nuclear Properties:
 (Nuclear quadrupole moments (NQMom) in fm**2, nuclear magnetic moments (NMagM)
  in nuclear magnetons)

  Atom         1           2           3           4           5           6           7           8           9          10
 IAtWgt=          12          16          12          12          12          12          12          12          16          12
 AtmWgt=  12.0000000  15.9949146  12.0000000  12.0000000  12.0000000  12.0000000  12.0000000  12.0000000  15.9949146  12.0000000
 NucSpn=           0           0           0           0           0           0           0           0           0           0
 AtZEff=  -0.0000000  -0.0000000  -0.0000000  -0.0000000  -0.0000000  -0.0000000  -0.0000000  -0.0000000  -0.0000000  -0.0000000
 NQMom=    0.0000000   0.0000000   0.0000000   0.0000000   0.0000000   0.0000000   0.0000000   0.0000000   0.0000000   0.0000000
 NMagM=    0.0000000   0.0000000   0.0000000   0.0000000   0.0000000   0.0000000   0.0000000   0.0000000   0.0000000   0.0000000
 AtZNuc=   6.0000000   8.0000000   6.0000000   6.0000000   6.0000000   6.0000000   6.0000000   6.0000000   8.0000000   6.0000000

  Atom        11          12          13          14          15          16          17          18          19          20
 IAtWgt=          12          16          12          12          12          16          12          12          16          12
 AtmWgt=  12.0000000  15.9949146  12.0000000  12.0000000  12.0000000  15.9949146  12.0000000  12.0000000  15.9949146  12.0000000
 NucSpn=           0           0           0           0           0           0           0           0           0           0
 AtZEff=  -0.0000000  -0.0000000  -0.0000000  -0.0000000  -0.0000000  -0.0000000  -0.0000000  -0.0000000  -0.0000000  -0.0000000
 NQMom=    0.0000000   0.0000000   0.0000000   0.0000000   0.0000000   0.0000000   0.0000000   0.0000000   0.0000000   0.0000000
 NMagM=    0.0000000   0.0000000   0.0000000   0.0000000   0.0000000   0.0000000   0.0000000   0.0000000   0.0000000   0.0000000
 AtZNuc=   6.0000000   8.0000000   6.0000000   6.0000000   6.0000000   8.0000000   6.0000000   6.0000000   8.0000000   6.0000000

  Atom        21          22          23          24          25          26          27          28          29          30
 IAtWgt=          12          12          14          12          16          12          12          16          12          12
 AtmWgt=  12.0000000  12.0000000  14.0030740  12.0000000  15.9949146  12.0000000  12.0000000  15.9949146  12.0000000  12.0000000
 NucSpn=           0           0           2           0           0           0           0           0           0           0
 AtZEff=  -0.0000000  -0.0000000  -0.0000000  -0.0000000  -0.0000000  -0.0000000  -0.0000000  -0.0000000  -0.0000000  -0.0000000
 NQMom=    0.0000000   0.0000000   2.0440000   0.0000000   0.0000000   0.0000000   0.0000000   0.0000000   0.0000000   0.0000000
 NMagM=    0.0000000   0.0000000   0.4037610   0.0000000   0.0000000   0.0000000   0.0000000   0.0000000   0.0000000   0.0000000
 AtZNuc=   6.0000000   6.0000000   7.0000000   6.0000000   8.0000000   6.0000000   6.0000000   8.0000000   6.0000000   6.0000000

  Atom        31          32          33          34          35          36          37          38          39          40
 IAtWgt=          16          12          12          16          12          12          16          12          16           1
 AtmWgt=  15.9949146  12.0000000  12.0000000  15.9949146  12.0000000  12.0000000  15.9949146  12.0000000  15.9949146   1.0078250
 NucSpn=           0           0           0           0           0           0           0           0           0           1
 AtZEff=  -0.0000000  -0.0000000  -0.0000000  -0.0000000  -0.0000000  -0.0000000  -0.0000000  -0.0000000  -0.0000000  -0.0000000
 NQMom=    0.0000000   0.0000000   0.0000000   0.0000000   0.0000000   0.0000000   0.0000000   0.0000000   0.0000000   0.0000000
 NMagM=    0.0000000   0.0000000   0.0000000   0.0000000   0.0000000   0.0000000   0.0000000   0.0000000   0.0000000   2.7928460
 AtZNuc=   8.0000000   6.0000000   6.0000000   8.0000000   6.0000000   6.0000000   8.0000000   6.0000000   8.0000000   1.0000000

  Atom        41          42          43          44          45          46          47          48          49          50
 IAtWgt=           1           1           1           1           1           1           1           1           1           1
 AtmWgt=   1.0078250   1.0078250   1.0078250   1.0078250   1.0078250   1.0078250   1.0078250   1.0078250   1.0078250   1.0078250
 NucSpn=           1           1           1           1           1           1           1           1           1           1
 AtZEff=  -0.0000000  -0.0000000  -0.0000000  -0.0000000  -0.0000000  -0.0000000  -0.0000000  -0.0000000  -0.0000000  -0.0000000
 NQMom=    0.0000000   0.0000000   0.0000000   0.0000000   0.0000000   0.0000000   0.0000000   0.0000000   0.0000000   0.0000000
 NMagM=    2.7928460   2.7928460   2.7928460   2.7928460   2.7928460   2.7928460   2.7928460   2.7928460   2.7928460   2.7928460
 AtZNuc=   1.0000000   1.0000000   1.0000000   1.0000000   1.0000000   1.0000000   1.0000000   1.0000000   1.0000000   1.0000000

  Atom        51          52          53          54          55          56          57          58          59          60
 IAtWgt=           1           1           1           1           1           1           1           1           1           1
 AtmWgt=   1.0078250   1.0078250   1.0078250   1.0078250   1.0078250   1.0078250   1.0078250   1.0078250   1.0078250   1.0078250
 NucSpn=           1           1           1           1           1           1           1           1           1           1
 AtZEff=  -0.0000000  -0.0000000  -0.0000000  -0.0000000  -0.0000000  -0.0000000  -0.0000000  -0.0000000  -0.0000000  -0.0000000
 NQMom=    0.0000000   0.0000000   0.0000000   0.0000000   0.0000000   0.0000000   0.0000000   0.0000000   0.0000000   0.0000000
 NMagM=    2.7928460   2.7928460   2.7928460   2.7928460   2.7928460   2.7928460   2.7928460   2.7928460   2.7928460   2.7928460
 AtZNuc=   1.0000000   1.0000000   1.0000000   1.0000000   1.0000000   1.0000000   1.0000000   1.0000000   1.0000000   1.0000000

  Atom        61          62          63          64          65          66          67          68
 IAtWgt=           1           1           1           1           1           1           1           1
 AtmWgt=   1.0078250   1.0078250   1.0078250   1.0078250   1.0078250   1.0078250   1.0078250   1.0078250
 NucSpn=           1           1           1           1           1           1           1           1
 AtZEff=  -0.0000000  -0.0000000  -0.0000000  -0.0000000  -0.0000000  -0.0000000  -0.0000000  -0.0000000
 NQMom=    0.0000000   0.0000000   0.0000000   0.0000000   0.0000000   0.0000000   0.0000000   0.0000000
 NMagM=    2.7928460   2.7928460   2.7928460   2.7928460   2.7928460   2.7928460   2.7928460   2.7928460
 AtZNuc=   1.0000000   1.0000000   1.0000000   1.0000000   1.0000000   1.0000000   1.0000000   1.0000000
 Leave Link  101 at Thu Dec 21 18:53:13 2023, MaxMem=  4026531840 cpu:               4.1 elap:               0.8
 (Enter /sysapps/ubuntu-applications/gaussian/Gaussian/AVX2/g16/l103.exe)

 GradGradGradGradGradGradGradGradGradGradGradGradGradGradGradGradGradGrad
 Berny optimization.
 Initialization pass.
                           ----------------------------
                           !    Initial Parameters    !
                           ! (Angstroms and Degrees)  !
 --------------------------                            --------------------------
 ! Name  Definition              Value          Derivative Info.                !
 --------------------------------------------------------------------------------
 ! R1    R(1,2)                  1.4175         estimate D2E/DX2                !
 ! R2    R(1,40)                 1.1194         estimate D2E/DX2                !
 ! R3    R(1,41)                 1.1181         estimate D2E/DX2                !
 ! R4    R(1,42)                 1.1167         estimate D2E/DX2                !
 ! R5    R(2,3)                  1.3851         estimate D2E/DX2                !
 ! R6    R(3,4)                  1.3769         estimate D2E/DX2                !
 ! R7    R(3,35)                 1.3909         estimate D2E/DX2                !
 ! R8    R(4,5)                  1.3885         estimate D2E/DX2                !
 ! R9    R(4,43)                 1.0879         estimate D2E/DX2                !
 ! R10   R(5,6)                  1.3781         estimate D2E/DX2                !
 ! R11   R(5,44)                 1.0904         estimate D2E/DX2                !
 ! R12   R(6,7)                  1.381          estimate D2E/DX2                !
 ! R13   R(6,45)                 1.0686         estimate D2E/DX2                !
 ! R14   R(7,8)                  1.4486         estimate D2E/DX2                !
 ! R15   R(7,35)                 1.3834         estimate D2E/DX2                !
 ! R16   R(8,9)                  1.2716         estimate D2E/DX2                !
 ! R17   R(8,10)                 1.4728         estimate D2E/DX2                !
 ! R18   R(10,11)                1.4023         estimate D2E/DX2                !
 ! R19   R(10,32)                1.3744         estimate D2E/DX2                !
 ! R20   R(11,12)                1.3806         estimate D2E/DX2                !
 ! R21   R(11,13)                1.3693         estimate D2E/DX2                !
 ! R22   R(12,46)                0.9805         estimate D2E/DX2                !
 ! R23   R(13,14)                1.5079         estimate D2E/DX2                !
 ! R24   R(13,29)                1.3645         estimate D2E/DX2                !
 ! R25   R(14,15)                1.5182         estimate D2E/DX2                !
 ! R26   R(14,47)                1.0852         estimate D2E/DX2                !
 ! R27   R(14,48)                1.0893         estimate D2E/DX2                !
 ! R28   R(15,16)                1.4035         estimate D2E/DX2                !
 ! R29   R(15,17)                1.489          estimate D2E/DX2                !
 ! R30   R(15,36)                1.4755         estimate D2E/DX2                !
 ! R31   R(16,49)                0.9855         estimate D2E/DX2                !
 ! R32   R(17,18)                1.5107         estimate D2E/DX2                !
 ! R33   R(17,50)                1.1134         estimate D2E/DX2                !
 ! R34   R(17,51)                1.1096         estimate D2E/DX2                !
 ! R35   R(18,19)                1.4063         estimate D2E/DX2                !
 ! R36   R(18,29)                1.4645         estimate D2E/DX2                !
 ! R37   R(18,52)                1.1056         estimate D2E/DX2                !
 ! R38   R(19,20)                1.3935         estimate D2E/DX2                !
 ! R39   R(20,21)                1.4969         estimate D2E/DX2                !
 ! R40   R(20,28)                1.3945         estimate D2E/DX2                !
 ! R41   R(20,53)                1.0987         estimate D2E/DX2                !
 ! R42   R(21,22)                1.4865         estimate D2E/DX2                !
 ! R43   R(21,54)                1.1068         estimate D2E/DX2                !
 ! R44   R(21,55)                1.1288         estimate D2E/DX2                !
 ! R45   R(22,23)                1.4489         estimate D2E/DX2                !
 ! R46   R(22,24)                1.4895         estimate D2E/DX2                !
 ! R47   R(22,56)                1.1303         estimate D2E/DX2                !
 ! R48   R(23,57)                1.0241         estimate D2E/DX2                !
 ! R49   R(23,58)                1.0273         estimate D2E/DX2                !
 ! R50   R(24,25)                1.4            estimate D2E/DX2                !
 ! R51   R(24,26)                1.5167         estimate D2E/DX2                !
 ! R52   R(24,59)                1.1107         estimate D2E/DX2                !
 ! R53   R(25,60)                0.9798         estimate D2E/DX2                !
 ! R54   R(26,27)                1.4947         estimate D2E/DX2                !
 ! R55   R(26,28)                1.3852         estimate D2E/DX2                !
 ! R56   R(26,61)                1.1106         estimate D2E/DX2                !
 ! R57   R(27,62)                1.1224         estimate D2E/DX2                !
 ! R58   R(27,63)                1.1219         estimate D2E/DX2                !
 ! R59   R(27,64)                1.0984         estimate D2E/DX2                !
 ! R60   R(29,30)                1.4087         estimate D2E/DX2                !
 ! R61   R(30,31)                1.3576         estimate D2E/DX2                !
 ! R62   R(30,32)                1.3854         estimate D2E/DX2                !
 ! R63   R(31,65)                0.9576         estimate D2E/DX2                !
 ! R64   R(32,33)                1.4787         estimate D2E/DX2                !
 ! R65   R(33,34)                1.2439         estimate D2E/DX2                !
 ! R66   R(33,35)                1.4518         estimate D2E/DX2                !
 ! R67   R(36,37)                1.2182         estimate D2E/DX2                !
 ! R68   R(36,38)                1.4851         estimate D2E/DX2                !
 ! R69   R(38,39)                1.3832         estimate D2E/DX2                !
 ! R70   R(38,66)                1.1171         estimate D2E/DX2                !
 ! R71   R(38,67)                1.1166         estimate D2E/DX2                !
 ! R72   R(39,68)                0.9873         estimate D2E/DX2                !
 ! A1    A(2,1,40)             110.2173         estimate D2E/DX2                !
 ! A2    A(2,1,41)             111.7907         estimate D2E/DX2                !
 ! A3    A(2,1,42)             109.8802         estimate D2E/DX2                !
 ! A4    A(40,1,41)            107.0604         estimate D2E/DX2                !
 ! A5    A(40,1,42)            105.7443         estimate D2E/DX2                !
 ! A6    A(41,1,42)            111.9329         estimate D2E/DX2                !
 ! A7    A(1,2,3)              117.7311         estimate D2E/DX2                !
 ! A8    A(2,3,4)              122.4797         estimate D2E/DX2                !
 ! A9    A(2,3,35)             120.3655         estimate D2E/DX2                !
 ! A10   A(4,3,35)             117.1548         estimate D2E/DX2                !
 ! A11   A(3,4,5)              122.5926         estimate D2E/DX2                !
 ! A12   A(3,4,43)             120.4934         estimate D2E/DX2                !
 ! A13   A(5,4,43)             116.914          estimate D2E/DX2                !
 ! A14   A(4,5,6)              119.3503         estimate D2E/DX2                !
 ! A15   A(4,5,44)             120.0498         estimate D2E/DX2                !
 ! A16   A(6,5,44)             120.5999         estimate D2E/DX2                !
 ! A17   A(5,6,7)              119.1448         estimate D2E/DX2                !
 ! A18   A(5,6,45)             120.4987         estimate D2E/DX2                !
 ! A19   A(7,6,45)             120.3565         estimate D2E/DX2                !
 ! A20   A(6,7,8)              118.9635         estimate D2E/DX2                !
 ! A21   A(6,7,35)             120.7946         estimate D2E/DX2                !
 ! A22   A(8,7,35)             120.2419         estimate D2E/DX2                !
 ! A23   A(7,8,9)              122.0735         estimate D2E/DX2                !
 ! A24   A(7,8,10)             118.263          estimate D2E/DX2                !
 ! A25   A(9,8,10)             119.6635         estimate D2E/DX2                !
 ! A26   A(8,10,11)            118.2202         estimate D2E/DX2                !
 ! A27   A(8,10,32)            123.3848         estimate D2E/DX2                !
 ! A28   A(11,10,32)           118.395          estimate D2E/DX2                !
 ! A29   A(10,11,12)           117.7639         estimate D2E/DX2                !
 ! A30   A(10,11,13)           119.6173         estimate D2E/DX2                !
 ! A31   A(12,11,13)           122.6188         estimate D2E/DX2                !
 ! A32   A(11,12,46)           123.1417         estimate D2E/DX2                !
 ! A33   A(11,13,14)           122.3911         estimate D2E/DX2                !
 ! A34   A(11,13,29)           122.7368         estimate D2E/DX2                !
 ! A35   A(14,13,29)           114.8714         estimate D2E/DX2                !
 ! A36   A(13,14,15)           105.1243         estimate D2E/DX2                !
 ! A37   A(13,14,47)           113.9423         estimate D2E/DX2                !
 ! A38   A(13,14,48)           109.2278         estimate D2E/DX2                !
 ! A39   A(15,14,47)           108.5162         estimate D2E/DX2                !
 ! A40   A(15,14,48)           107.6242         estimate D2E/DX2                !
 ! A41   A(47,14,48)           111.9953         estimate D2E/DX2                !
 ! A42   A(14,15,16)           105.6009         estimate D2E/DX2                !
 ! A43   A(14,15,17)           113.0552         estimate D2E/DX2                !
 ! A44   A(14,15,36)           111.8888         estimate D2E/DX2                !
 ! A45   A(16,15,17)           107.4187         estimate D2E/DX2                !
 ! A46   A(16,15,36)           109.6988         estimate D2E/DX2                !
 ! A47   A(17,15,36)           109.0055         estimate D2E/DX2                !
 ! A48   A(15,16,49)           112.3266         estimate D2E/DX2                !
 ! A49   A(15,17,18)           114.1302         estimate D2E/DX2                !
 ! A50   A(15,17,50)           107.9096         estimate D2E/DX2                !
 ! A51   A(15,17,51)           109.0038         estimate D2E/DX2                !
 ! A52   A(18,17,50)           108.7523         estimate D2E/DX2                !
 ! A53   A(18,17,51)           110.562          estimate D2E/DX2                !
 ! A54   A(50,17,51)           106.145          estimate D2E/DX2                !
 ! A55   A(17,18,19)           108.036          estimate D2E/DX2                !
 ! A56   A(17,18,29)           112.8813         estimate D2E/DX2                !
 ! A57   A(17,18,52)           109.9343         estimate D2E/DX2                !
 ! A58   A(19,18,29)           110.034          estimate D2E/DX2                !
 ! A59   A(19,18,52)           106.6342         estimate D2E/DX2                !
 ! A60   A(29,18,52)           109.1285         estimate D2E/DX2                !
 ! A61   A(18,19,20)           111.7974         estimate D2E/DX2                !
 ! A62   A(19,20,21)           110.2542         estimate D2E/DX2                !
 ! A63   A(19,20,28)           105.6898         estimate D2E/DX2                !
 ! A64   A(19,20,53)           107.594          estimate D2E/DX2                !
 ! A65   A(21,20,28)           112.7245         estimate D2E/DX2                !
 ! A66   A(21,20,53)           113.6896         estimate D2E/DX2                !
 ! A67   A(28,20,53)           106.4328         estimate D2E/DX2                !
 ! A68   A(20,21,22)           115.0208         estimate D2E/DX2                !
 ! A69   A(20,21,54)           108.8625         estimate D2E/DX2                !
 ! A70   A(20,21,55)           106.4943         estimate D2E/DX2                !
 ! A71   A(22,21,54)           109.6603         estimate D2E/DX2                !
 ! A72   A(22,21,55)           111.3613         estimate D2E/DX2                !
 ! A73   A(54,21,55)           104.9122         estimate D2E/DX2                !
 ! A74   A(21,22,23)           113.4127         estimate D2E/DX2                !
 ! A75   A(21,22,24)           115.3767         estimate D2E/DX2                !
 ! A76   A(21,22,56)           107.0006         estimate D2E/DX2                !
 ! A77   A(23,22,24)           108.2365         estimate D2E/DX2                !
 ! A78   A(23,22,56)           105.3072         estimate D2E/DX2                !
 ! A79   A(24,22,56)           106.8185         estimate D2E/DX2                !
 ! A80   A(22,23,57)           113.8646         estimate D2E/DX2                !
 ! A81   A(22,23,58)           114.1393         estimate D2E/DX2                !
 ! A82   A(57,23,58)           116.2608         estimate D2E/DX2                !
 ! A83   A(22,24,25)           111.3542         estimate D2E/DX2                !
 ! A84   A(22,24,26)           108.0303         estimate D2E/DX2                !
 ! A85   A(22,24,59)           109.8935         estimate D2E/DX2                !
 ! A86   A(25,24,26)           110.5919         estimate D2E/DX2                !
 ! A87   A(25,24,59)           109.9537         estimate D2E/DX2                !
 ! A88   A(26,24,59)           106.8997         estimate D2E/DX2                !
 ! A89   A(24,25,60)           112.2203         estimate D2E/DX2                !
 ! A90   A(24,26,27)           112.3199         estimate D2E/DX2                !
 ! A91   A(24,26,28)           106.9249         estimate D2E/DX2                !
 ! A92   A(24,26,61)           106.4885         estimate D2E/DX2                !
 ! A93   A(27,26,28)           113.6756         estimate D2E/DX2                !
 ! A94   A(27,26,61)           109.7566         estimate D2E/DX2                !
 ! A95   A(28,26,61)           107.3008         estimate D2E/DX2                !
 ! A96   A(26,27,62)           107.1888         estimate D2E/DX2                !
 ! A97   A(26,27,63)           110.4566         estimate D2E/DX2                !
 ! A98   A(26,27,64)           112.5747         estimate D2E/DX2                !
 ! A99   A(62,27,63)           104.6421         estimate D2E/DX2                !
 ! A100  A(62,27,64)           109.0844         estimate D2E/DX2                !
 ! A101  A(63,27,64)           112.4431         estimate D2E/DX2                !
 ! A102  A(20,28,26)           107.6487         estimate D2E/DX2                !
 ! A103  A(13,29,18)           124.9156         estimate D2E/DX2                !
 ! A104  A(13,29,30)           118.083          estimate D2E/DX2                !
 ! A105  A(18,29,30)           117.0009         estimate D2E/DX2                !
 ! A106  A(29,30,31)           118.7564         estimate D2E/DX2                !
 ! A107  A(29,30,32)           119.4722         estimate D2E/DX2                !
 ! A108  A(31,30,32)           121.7715         estimate D2E/DX2                !
 ! A109  A(30,31,65)           133.1408         estimate D2E/DX2                !
 ! A110  A(10,32,30)           121.6957         estimate D2E/DX2                !
 ! A111  A(10,32,33)           116.5511         estimate D2E/DX2                !
 ! A112  A(30,32,33)           121.7532         estimate D2E/DX2                !
 ! A113  A(32,33,34)           121.7703         estimate D2E/DX2                !
 ! A114  A(32,33,35)           121.1768         estimate D2E/DX2                !
 ! A115  A(34,33,35)           117.0529         estimate D2E/DX2                !
 ! A116  A(3,35,7)             120.9629         estimate D2E/DX2                !
 ! A117  A(3,35,33)            118.6548         estimate D2E/DX2                !
 ! A118  A(7,35,33)            120.3823         estimate D2E/DX2                !
 ! A119  A(15,36,37)           122.4144         estimate D2E/DX2                !
 ! A120  A(15,36,38)           119.6182         estimate D2E/DX2                !
 ! A121  A(37,36,38)           117.9674         estimate D2E/DX2                !
 ! A122  A(36,38,39)           111.967          estimate D2E/DX2                !
 ! A123  A(36,38,66)           110.9633         estimate D2E/DX2                !
 ! A124  A(36,38,67)           108.1628         estimate D2E/DX2                !
 ! A125  A(39,38,66)           108.1653         estimate D2E/DX2                !
 ! A126  A(39,38,67)           111.4768         estimate D2E/DX2                !
 ! A127  A(66,38,67)           105.9551         estimate D2E/DX2                !
 ! A128  A(38,39,68)           108.9513         estimate D2E/DX2                !
 ! D1    D(40,1,2,3)          -166.7364         estimate D2E/DX2                !
 ! D2    D(41,1,2,3)            74.3212         estimate D2E/DX2                !
 ! D3    D(42,1,2,3)           -50.5908         estimate D2E/DX2                !
 ! D4    D(1,2,3,4)              0.0009         estimate D2E/DX2                !
 ! D5    D(1,2,3,35)          -179.9991         estimate D2E/DX2                !
 ! D6    D(2,3,4,5)            179.9998         estimate D2E/DX2                !
 ! D7    D(2,3,4,43)            -0.0002         estimate D2E/DX2                !
 ! D8    D(35,3,4,5)            -0.0002         estimate D2E/DX2                !
 ! D9    D(35,3,4,43)          179.9998         estimate D2E/DX2                !
 ! D10   D(2,3,35,7)          -179.9998         estimate D2E/DX2                !
 ! D11   D(2,3,35,33)            0.0015         estimate D2E/DX2                !
 ! D12   D(4,3,35,7)             0.0002         estimate D2E/DX2                !
 ! D13   D(4,3,35,33)         -179.9985         estimate D2E/DX2                !
 ! D14   D(3,4,5,6)              0.0            estimate D2E/DX2                !
 ! D15   D(3,4,5,44)          -179.9999         estimate D2E/DX2                !
 ! D16   D(43,4,5,6)          -180.0            estimate D2E/DX2                !
 ! D17   D(43,4,5,44)            0.0001         estimate D2E/DX2                !
 ! D18   D(4,5,6,7)              0.0002         estimate D2E/DX2                !
 ! D19   D(4,5,6,45)          -179.9996         estimate D2E/DX2                !
 ! D20   D(44,5,6,7)          -179.9999         estimate D2E/DX2                !
 ! D21   D(44,5,6,45)            0.0003         estimate D2E/DX2                !
 ! D22   D(5,6,7,8)            179.9987         estimate D2E/DX2                !
 ! D23   D(5,6,7,35)            -0.0002         estimate D2E/DX2                !
 ! D24   D(45,6,7,8)            -0.0016         estimate D2E/DX2                !
 ! D25   D(45,6,7,35)          179.9995         estimate D2E/DX2                !
 ! D26   D(6,7,8,9)              0.0012         estimate D2E/DX2                !
 ! D27   D(6,7,8,10)          -179.9987         estimate D2E/DX2                !
 ! D28   D(35,7,8,9)          -179.9999         estimate D2E/DX2                !
 ! D29   D(35,7,8,10)            0.0002         estimate D2E/DX2                !
 ! D30   D(6,7,35,3)             0.0            estimate D2E/DX2                !
 ! D31   D(6,7,35,33)          179.9986         estimate D2E/DX2                !
 ! D32   D(8,7,35,3)          -179.9989         estimate D2E/DX2                !
 ! D33   D(8,7,35,33)           -0.0002         estimate D2E/DX2                !
 ! D34   D(7,8,10,11)         -179.9948         estimate D2E/DX2                !
 ! D35   D(7,8,10,32)            0.0            estimate D2E/DX2                !
 ! D36   D(9,8,10,11)            0.0053         estimate D2E/DX2                !
 ! D37   D(9,8,10,32)         -180.0            estimate D2E/DX2                !
 ! D38   D(8,10,11,12)          -0.0264         estimate D2E/DX2                !
 ! D39   D(8,10,11,13)         179.9919         estimate D2E/DX2                !
 ! D40   D(32,10,11,12)        179.9786         estimate D2E/DX2                !
 ! D41   D(32,10,11,13)         -0.0031         estimate D2E/DX2                !
 ! D42   D(8,10,32,30)         179.9939         estimate D2E/DX2                !
 ! D43   D(8,10,32,33)          -0.0001         estimate D2E/DX2                !
 ! D44   D(11,10,32,30)         -0.0114         estimate D2E/DX2                !
 ! D45   D(11,10,32,33)        179.9946         estimate D2E/DX2                !
 ! D46   D(10,11,12,46)       -179.7601         estimate D2E/DX2                !
 ! D47   D(13,11,12,46)          0.2211         estimate D2E/DX2                !
 ! D48   D(10,11,13,14)       -179.675          estimate D2E/DX2                !
 ! D49   D(10,11,13,29)          0.0269         estimate D2E/DX2                !
 ! D50   D(12,11,13,14)          0.3442         estimate D2E/DX2                !
 ! D51   D(12,11,13,29)       -179.9539         estimate D2E/DX2                !
 ! D52   D(11,13,14,15)        134.1104         estimate D2E/DX2                !
 ! D53   D(11,13,14,47)         15.4284         estimate D2E/DX2                !
 ! D54   D(11,13,14,48)       -110.6483         estimate D2E/DX2                !
 ! D55   D(29,13,14,15)        -45.6133         estimate D2E/DX2                !
 ! D56   D(29,13,14,47)       -164.2953         estimate D2E/DX2                !
 ! D57   D(29,13,14,48)         69.6281         estimate D2E/DX2                !
 ! D58   D(11,13,29,18)        179.71           estimate D2E/DX2                !
 ! D59   D(11,13,29,30)         -0.0347         estimate D2E/DX2                !
 ! D60   D(14,13,29,18)         -0.5674         estimate D2E/DX2                !
 ! D61   D(14,13,29,30)        179.6879         estimate D2E/DX2                !
 ! D62   D(13,14,15,16)       -177.7671         estimate D2E/DX2                !
 ! D63   D(13,14,15,17)         65.0636         estimate D2E/DX2                !
 ! D64   D(13,14,15,36)        -58.4698         estimate D2E/DX2                !
 ! D65   D(47,14,15,16)        -55.5015         estimate D2E/DX2                !
 ! D66   D(47,14,15,17)       -172.6708         estimate D2E/DX2                !
 ! D67   D(47,14,15,36)         63.7959         estimate D2E/DX2                !
 ! D68   D(48,14,15,16)         65.886          estimate D2E/DX2                !
 ! D69   D(48,14,15,17)        -51.2833         estimate D2E/DX2                !
 ! D70   D(48,14,15,36)       -174.8166         estimate D2E/DX2                !
 ! D71   D(14,15,16,49)       -129.1629         estimate D2E/DX2                !
 ! D72   D(17,15,16,49)         -8.2495         estimate D2E/DX2                !
 ! D73   D(36,15,16,49)        110.1003         estimate D2E/DX2                !
 ! D74   D(14,15,17,18)        -37.1063         estimate D2E/DX2                !
 ! D75   D(14,15,17,50)       -158.1015         estimate D2E/DX2                !
 ! D76   D(14,15,17,51)         87.0401         estimate D2E/DX2                !
 ! D77   D(16,15,17,18)       -153.2012         estimate D2E/DX2                !
 ! D78   D(16,15,17,50)         85.8037         estimate D2E/DX2                !
 ! D79   D(16,15,17,51)        -29.0548         estimate D2E/DX2                !
 ! D80   D(36,15,17,18)         88.0019         estimate D2E/DX2                !
 ! D81   D(36,15,17,50)        -32.9932         estimate D2E/DX2                !
 ! D82   D(36,15,17,51)       -147.8517         estimate D2E/DX2                !
 ! D83   D(14,15,36,37)         63.1475         estimate D2E/DX2                !
 ! D84   D(14,15,36,38)       -116.8518         estimate D2E/DX2                !
 ! D85   D(16,15,36,37)        179.9996         estimate D2E/DX2                !
 ! D86   D(16,15,36,38)          0.0004         estimate D2E/DX2                !
 ! D87   D(17,15,36,37)        -62.6385         estimate D2E/DX2                !
 ! D88   D(17,15,36,38)        117.3622         estimate D2E/DX2                !
 ! D89   D(15,17,18,19)        112.2246         estimate D2E/DX2                !
 ! D90   D(15,17,18,29)         -9.6776         estimate D2E/DX2                !
 ! D91   D(15,17,18,52)       -131.778          estimate D2E/DX2                !
 ! D92   D(50,17,18,19)       -127.2494         estimate D2E/DX2                !
 ! D93   D(50,17,18,29)        110.8484         estimate D2E/DX2                !
 ! D94   D(50,17,18,52)        -11.252          estimate D2E/DX2                !
 ! D95   D(51,17,18,19)        -11.0823         estimate D2E/DX2                !
 ! D96   D(51,17,18,29)       -132.9845         estimate D2E/DX2                !
 ! D97   D(51,17,18,52)        104.9151         estimate D2E/DX2                !
 ! D98   D(17,18,19,20)        118.0169         estimate D2E/DX2                !
 ! D99   D(29,18,19,20)       -118.3422         estimate D2E/DX2                !
 ! D100  D(52,18,19,20)         -0.115          estimate D2E/DX2                !
 ! D101  D(17,18,29,13)         30.7581         estimate D2E/DX2                !
 ! D102  D(17,18,29,30)       -149.4947         estimate D2E/DX2                !
 ! D103  D(19,18,29,13)        -90.0119         estimate D2E/DX2                !
 ! D104  D(19,18,29,30)         89.7353         estimate D2E/DX2                !
 ! D105  D(52,18,29,13)        153.3101         estimate D2E/DX2                !
 ! D106  D(52,18,29,30)        -26.9426         estimate D2E/DX2                !
 ! D107  D(18,19,20,21)        124.9647         estimate D2E/DX2                !
 ! D108  D(18,19,20,28)       -112.9387         estimate D2E/DX2                !
 ! D109  D(18,19,20,53)          0.4727         estimate D2E/DX2                !
 ! D110  D(19,20,21,22)        155.0841         estimate D2E/DX2                !
 ! D111  D(19,20,21,54)        -81.4239         estimate D2E/DX2                !
 ! D112  D(19,20,21,55)         31.2059         estimate D2E/DX2                !
 ! D113  D(28,20,21,22)         37.2409         estimate D2E/DX2                !
 ! D114  D(28,20,21,54)        160.7328         estimate D2E/DX2                !
 ! D115  D(28,20,21,55)        -86.6373         estimate D2E/DX2                !
 ! D116  D(53,20,21,22)        -84.0025         estimate D2E/DX2                !
 ! D117  D(53,20,21,54)         39.4895         estimate D2E/DX2                !
 ! D118  D(53,20,21,55)        152.1193         estimate D2E/DX2                !
 ! D119  D(19,20,28,26)        177.4567         estimate D2E/DX2                !
 ! D120  D(21,20,28,26)        -62.0466         estimate D2E/DX2                !
 ! D121  D(53,20,28,26)         63.2402         estimate D2E/DX2                !
 ! D122  D(20,21,22,23)         97.6744         estimate D2E/DX2                !
 ! D123  D(20,21,22,24)        -27.9751         estimate D2E/DX2                !
 ! D124  D(20,21,22,56)       -146.654          estimate D2E/DX2                !
 ! D125  D(54,21,22,23)        -25.3928         estimate D2E/DX2                !
 ! D126  D(54,21,22,24)       -151.0423         estimate D2E/DX2                !
 ! D127  D(54,21,22,56)         90.2788         estimate D2E/DX2                !
 ! D128  D(55,21,22,23)       -141.0611         estimate D2E/DX2                !
 ! D129  D(55,21,22,24)         93.2894         estimate D2E/DX2                !
 ! D130  D(55,21,22,56)        -25.3895         estimate D2E/DX2                !
 ! D131  D(21,22,23,57)        -68.5383         estimate D2E/DX2                !
 ! D132  D(21,22,23,58)         68.2178         estimate D2E/DX2                !
 ! D133  D(24,22,23,57)         60.8362         estimate D2E/DX2                !
 ! D134  D(24,22,23,58)       -162.4077         estimate D2E/DX2                !
 ! D135  D(56,22,23,57)        174.7919         estimate D2E/DX2                !
 ! D136  D(56,22,23,58)        -48.452          estimate D2E/DX2                !
 ! D137  D(21,22,24,25)        -81.409          estimate D2E/DX2                !
 ! D138  D(21,22,24,26)         40.2189         estimate D2E/DX2                !
 ! D139  D(21,22,24,59)        156.5079         estimate D2E/DX2                !
 ! D140  D(23,22,24,25)        150.3235         estimate D2E/DX2                !
 ! D141  D(23,22,24,26)        -88.0486         estimate D2E/DX2                !
 ! D142  D(23,22,24,59)         28.2403         estimate D2E/DX2                !
 ! D143  D(56,22,24,25)         37.3708         estimate D2E/DX2                !
 ! D144  D(56,22,24,26)        158.9987         estimate D2E/DX2                !
 ! D145  D(56,22,24,59)        -84.7123         estimate D2E/DX2                !
 ! D146  D(22,24,25,60)       -161.5967         estimate D2E/DX2                !
 ! D147  D(26,24,25,60)         78.2767         estimate D2E/DX2                !
 ! D148  D(59,24,25,60)        -39.5484         estimate D2E/DX2                !
 ! D149  D(22,24,26,27)        170.2628         estimate D2E/DX2                !
 ! D150  D(22,24,26,28)        -64.3811         estimate D2E/DX2                !
 ! D151  D(22,24,26,61)         50.0913         estimate D2E/DX2                !
 ! D152  D(25,24,26,27)        -67.6392         estimate D2E/DX2                !
 ! D153  D(25,24,26,28)         57.717          estimate D2E/DX2                !
 ! D154  D(25,24,26,61)        172.1894         estimate D2E/DX2                !
 ! D155  D(59,24,26,27)         52.0407         estimate D2E/DX2                !
 ! D156  D(59,24,26,28)        177.3969         estimate D2E/DX2                !
 ! D157  D(59,24,26,61)        -68.1307         estimate D2E/DX2                !
 ! D158  D(24,26,27,62)        -24.8704         estimate D2E/DX2                !
 ! D159  D(24,26,27,63)       -138.311          estimate D2E/DX2                !
 ! D160  D(24,26,27,64)         95.0799         estimate D2E/DX2                !
 ! D161  D(28,26,27,62)       -146.4459         estimate D2E/DX2                !
 ! D162  D(28,26,27,63)        100.1135         estimate D2E/DX2                !
 ! D163  D(28,26,27,64)        -26.4956         estimate D2E/DX2                !
 ! D164  D(61,26,27,62)         93.388          estimate D2E/DX2                !
 ! D165  D(61,26,27,63)        -20.0525         estimate D2E/DX2                !
 ! D166  D(61,26,27,64)       -146.6616         estimate D2E/DX2                !
 ! D167  D(24,26,28,20)         76.5193         estimate D2E/DX2                !
 ! D168  D(27,26,28,20)       -158.9479         estimate D2E/DX2                !
 ! D169  D(61,26,28,20)        -37.404          estimate D2E/DX2                !
 ! D170  D(13,29,30,31)       -179.9656         estimate D2E/DX2                !
 ! D171  D(13,29,30,32)          0.0193         estimate D2E/DX2                !
 ! D172  D(18,29,30,31)          0.2693         estimate D2E/DX2                !
 ! D173  D(18,29,30,32)       -179.7458         estimate D2E/DX2                !
 ! D174  D(29,30,31,65)       -179.9997         estimate D2E/DX2                !
 ! D175  D(32,30,31,65)          0.0158         estimate D2E/DX2                !
 ! D176  D(29,30,32,10)          0.0033         estimate D2E/DX2                !
 ! D177  D(29,30,32,33)        179.997          estimate D2E/DX2                !
 ! D178  D(31,30,32,10)        179.9877         estimate D2E/DX2                !
 ! D179  D(31,30,32,33)         -0.0186         estimate D2E/DX2                !
 ! D180  D(10,32,33,34)       -179.9998         estimate D2E/DX2                !
 ! D181  D(10,32,33,35)          0.0001         estimate D2E/DX2                !
 ! D182  D(30,32,33,34)          0.0062         estimate D2E/DX2                !
 ! D183  D(30,32,33,35)       -179.9939         estimate D2E/DX2                !
 ! D184  D(32,33,35,3)         179.9987         estimate D2E/DX2                !
 ! D185  D(32,33,35,7)           0.0001         estimate D2E/DX2                !
 ! D186  D(34,33,35,3)          -0.0014         estimate D2E/DX2                !
 ! D187  D(34,33,35,7)         179.9999         estimate D2E/DX2                !
 ! D188  D(15,36,38,39)        179.9929         estimate D2E/DX2                !
 ! D189  D(15,36,38,66)        -59.041          estimate D2E/DX2                !
 ! D190  D(15,36,38,67)         56.7758         estimate D2E/DX2                !
 ! D191  D(37,36,38,39)         -0.0064         estimate D2E/DX2                !
 ! D192  D(37,36,38,66)        120.9597         estimate D2E/DX2                !
 ! D193  D(37,36,38,67)       -123.2235         estimate D2E/DX2                !
 ! D194  D(36,38,39,68)         87.8687         estimate D2E/DX2                !
 ! D195  D(66,38,39,68)        -34.7033         estimate D2E/DX2                !
 ! D196  D(67,38,39,68)       -150.806          estimate D2E/DX2                !
 --------------------------------------------------------------------------------
 Trust Radius=3.00D-01 FncErr=1.00D-07 GrdErr=1.00D-06 EigMax=2.50D+02 EigMin=1.00D-04
 Number of steps in this run=    406 maximum allowed number of steps=    408.
 GradGradGradGradGradGradGradGradGradGradGradGradGradGradGradGradGradGrad

 Leave Link  103 at Thu Dec 21 18:53:13 2023, MaxMem=  4026531840 cpu:               1.1 elap:               0.3
 (Enter /sysapps/ubuntu-applications/gaussian/Gaussian/AVX2/g16/l202.exe)
 Symmetry turned off by external request.
 Stoichiometry    C27H29NO11
 Framework group  C1[X(C27H29NO11)]
 Deg. of freedom   198
 Full point group                 C1      NOp   1
                          Input orientation:                          
 ---------------------------------------------------------------------
 Center     Atomic      Atomic             Coordinates (Angstroms)
 Number     Number       Type             X           Y           Z
 ---------------------------------------------------------------------
      1          6           0        5.524037   -3.603420   -2.638977
      2          8           0        4.652154   -2.735321   -1.935078
      3          6           0        5.153467   -2.082923   -0.820772
      4          6           0        6.449207   -2.250706   -0.386385
      5          6           0        6.954168   -1.597925    0.730266
      6          6           0        6.137378   -0.745572    1.441300
      7          6           0        4.833550   -0.560653    1.025432
      8          6           0        3.978423    0.336144    1.775744
      9          8           0        4.390512    0.958449    2.805192
     10          6           0        2.590731    0.521917    1.318615
     11          6           0        1.763765    1.390327    2.045535
     12          8           0        2.304036    2.019288    3.149415
     13          6           0        0.468534    1.584330    1.645753
     14          6           0       -0.472502    2.508754    2.376315
     15          6           0       -1.149954    3.324146    1.289535
     16          8           0       -1.990527    4.224732    1.961933
     17          6           0       -2.006015    2.501244    0.391178
     18          6           0       -1.446352    1.130785    0.089560
     19          8           0       -2.280328    0.176180    0.698609
     20          6           0       -2.867785   -0.671075   -0.238939
     21          6           0       -2.572157   -2.099584    0.096538
     22          6           0       -3.556734   -3.084295   -0.423666
     23          7           0       -3.142915   -3.713148   -1.661676
     24          6           0       -4.942118   -2.567659   -0.603642
     25          8           0       -5.646858   -2.566247    0.606089
     26          6           0       -4.849682   -1.163184   -1.168802
     27          6           0       -6.179411   -0.638242   -1.605219
     28          8           0       -4.231445   -0.381292   -0.206877
     29          6           0       -0.068168    0.963283    0.555730
     30          6           0        0.754504    0.089040   -0.181362
     31          8           0        0.234681   -0.535614   -1.268851
     32          6           0        2.066008   -0.111472    0.217553
     33          6           0        2.973413   -1.017610   -0.518635
     34          8           0        2.599673   -1.639964   -1.528748
     35          6           0        4.345664   -1.218603   -0.089397
     36          6           0       -0.173849    4.070216    0.472401
     37          8           0        0.668803    3.513288   -0.208662
     38          6           0       -0.203818    5.554986    0.466941
     39          8           0        0.776740    6.089314   -0.349356
     40          1           0        5.083778   -3.871548   -3.632657
     41          1           0        5.692543   -4.560437   -2.085849
     42          1           0        6.483034   -3.077518   -2.864412
     43          1           0        7.128127   -2.914109   -0.917937
     44          1           0        7.987570   -1.761436    1.037527
     45          1           0        6.506960   -0.233777    2.303448
     46          1           0        1.796519    2.638556    3.715399
     47          1           0        0.022490    3.190280    3.060525
     48          1           0       -1.241329    1.918445    2.873421
     49          1           0       -2.911136    4.211324    1.610461
     50          1           0       -2.129991    3.055886   -0.566213
     51          1           0       -3.020229    2.419262    0.833845
     52          1           0       -1.486744    0.938196   -0.998403
     53          1           0       -2.508782   -0.367429   -1.231898
     54          1           0       -1.560731   -2.352469   -0.275009
     55          1           0       -2.490653   -2.154456    1.221100
     56          1           0       -3.616013   -3.922966    0.331746
     57          1           0       -3.128221   -3.077520   -2.464568
     58          1           0       -2.335930   -4.341447   -1.564497
     59          1           0       -5.480424   -3.183335   -1.355184
     60          1           0       -6.615720   -2.511487    0.470444
     61          1           0       -4.163546   -1.218638   -2.040335
     62          1           0       -6.825870   -1.525537   -1.838831
     63          1           0       -6.084415   -0.091961   -2.580474
     64          1           0       -6.668135   -0.031798   -0.830783
     65          1           0        0.596258   -1.155148   -1.903294
     66          1           0       -1.194210    5.933446    0.115124
     67          1           0       -0.096506    5.909163    1.520427
     68          1           0        0.422475    6.166545   -1.267713
 ---------------------------------------------------------------------
 Rotational constants (GHZ):           0.1132296           0.0650750           0.0465036
 Leave Link  202 at Thu Dec 21 18:53:14 2023, MaxMem=  4026531840 cpu:               0.5 elap:               0.2
 (Enter /sysapps/ubuntu-applications/gaussian/Gaussian/AVX2/g16/l301.exe)
 Standard basis: 6-311++G(d,p) (5D, 7F)
 Ernie: Thresh=  0.10000D-02 Tol=  0.10000D-05 Strict=F.
  1061 basis functions,  1665 primitive gaussians,  1100 cartesian basis functions
   143 alpha electrons      143 beta electrons
       nuclear repulsion energy      4697.0641868715 Hartrees.
 IExCor=  402 DFT=T Ex+Corr=B3LYP ExCW=0 ScaHFX=  0.200000
 ScaDFX=  0.800000  0.720000  1.000000  0.810000 ScalE2=  1.000000  1.000000
 IRadAn=      5 IRanWt=     -1 IRanGd=            0 ICorTp=0 IEmpDi=  4
 NAtoms=   68 NActive=   68 NUniq=   68 SFac= 1.00D+00 NAtFMM=   60 NAOKFM=T Big=T
 Integral buffers will be    131072 words long.
 Raffenetti 2 integral format.
 Two-electron integral symmetry is turned off.
 Leave Link  301 at Thu Dec 21 18:53:14 2023, MaxMem=  4026531840 cpu:               1.0 elap:               0.3
 (Enter /sysapps/ubuntu-applications/gaussian/Gaussian/AVX2/g16/l302.exe)
 NPDir=0 NMtPBC=     1 NCelOv=     1 NCel=       1 NClECP=     1 NCelD=      1
         NCelK=      1 NCelE2=     1 NClLst=     1 CellRange=     0.0.
 One-electron integrals computed using PRISM.
 NBasis=  1061 RedAO= T EigKep=  1.33D-06  NBF=  1061
 NBsUse=  1046 1.00D-06 EigRej=  9.91D-07 NBFU=  1046
 Precomputing XC quadrature grid using
 IXCGrd= 4 IRadAn=           5 IRanWt=          -1 IRanGd=           0 AccXCQ= 0.00D+00.
 Generated NRdTot=       0 NPtTot=           0 NUsed=           0 NTot=          32
 NSgBfM=  1079  1078  1078  1079  1079 MxSgAt=    68 MxSgA2=    68.
 Leave Link  302 at Thu Dec 21 18:53:18 2023, MaxMem=  4026531840 cpu:              26.9 elap:               3.7
 (Enter /sysapps/ubuntu-applications/gaussian/Gaussian/AVX2/g16/l303.exe)
 DipDrv:  MaxL=1.
 Leave Link  303 at Thu Dec 21 18:53:18 2023, MaxMem=  4026531840 cpu:               2.7 elap:               0.6
 (Enter /sysapps/ubuntu-applications/gaussian/Gaussian/AVX2/g16/l401.exe)
 ExpMin= 3.60D-02 ExpMax= 8.59D+03 ExpMxC= 1.30D+03 IAcc=3 IRadAn=         5 AccDes= 0.00D+00
 Harris functional with IExCor=  402 and IRadAn=       5 diagonalized for initial guess.
 HarFok:  IExCor=  402 AccDes= 0.00D+00 IRadAn=         5 IDoV= 1 UseB2=F ITyADJ=14
 ICtDFT=  3500011 ScaDFX=  1.000000  1.000000  1.000000  1.000000
 FoFCou: FMM=F IPFlag=           0 FMFlag=      100000 FMFlg1=        2001
         NFxFlg=           0 DoJE=T BraDBF=F KetDBF=T FulRan=T
         wScrn=  0.000000 ICntrl=       500 IOpCl=  0 I1Cent=   200000004 NGrid=           0
         NMat0=    1 NMatS0=      1 NMatT0=    0 NMatD0=    1 NMtDS0=    0 NMtDT0=    0
 Symmetry not used in FoFCou.
 Harris En= -1929.00955980859    
 JPrj=0 DoOrth=F DoCkMO=F.
 Initial guess <Sx>= 0.0000 <Sy>= 0.0000 <Sz>= 0.0000 <S**2>=-0.0000 S=-0.0000
 Leave Link  401 at Thu Dec 21 18:53:36 2023, MaxMem=  4026531840 cpu:             139.8 elap:              17.7
 (Enter /sysapps/ubuntu-applications/gaussian/Gaussian/AVX2/g16/l502.exe)
 Two-electron integral symmetry not used.
 UHF open shell SCF:
 Using DIIS extrapolation, IDIIS=  1040.
 NGot=  4026531840 LenX=  4024095260 LenY=  4022884160
 Requested convergence on RMS density matrix=1.00D-08 within 128 cycles.
 Requested convergence on MAX density matrix=1.00D-06.
 Requested convergence on             energy=1.00D-06.
 No special actions if energy rises.
 Fock matrices will be formed incrementally for  20 cycles.

 Cycle   1  Pass 1  IDiag  1:
 FoFJK:  IHMeth= 1 ICntrl=       0 DoSepK=F KAlg= 0 I1Cent=           0 FoldK=F
 IRaf= 810000000 NMat=       1 IRICut=       1 DoRegI=T DoRafI=F ISym2E= 0 IDoP0=0 IntGTp=1.
 FoFCou: FMM=T IPFlag=           0 FMFlag=      100000 FMFlg1=        2001
         NFxFlg=           0 DoJE=F BraDBF=F KetDBF=F FulRan=T
         wScrn=  0.000000 ICntrl=         0 IOpCl=  1 I1Cent=           0 NGrid=           0
         NMat0=    1 NMatS0=      1 NMatT0=    0 NMatD0=    1 NMtDS0=    0 NMtDT0=    0
 Symmetry not used in FoFCou.
 FMM levels:  10  Number of levels for PrismC:   9
 E= -1927.96475246219    
 DIIS: error= 1.77D-02 at cycle   1 NSaved=   1.
 NSaved= 1 IEnMin= 1 EnMin= -1927.96475246219     IErMin= 1 ErrMin= 1.77D-02
 ErrMax= 1.77D-02  0.00D+00 EMaxC= 1.00D-01 BMatC= 5.16D+00 BMatP= 5.16D+00
 IDIUse=3 WtCom= 8.23D-01 WtEn= 1.77D-01
 Coeff-Com:  0.100D+01
 Coeff-En:   0.100D+01
 Coeff:      0.100D+01
 Gap=     0.121 Goal=   None    Shift=    0.000
 Gap=     0.121 Goal=   None    Shift=    0.000
 GapD=    0.121 DampG=1.000 DampE=0.500 DampFc=0.5000 IDamp=-1.
 Damping current iteration by 5.00D-01
 RMSDP=3.48D-02 MaxDP=7.12D+00              OVMax= 2.53D-01

 Cycle   2  Pass 1  IDiag  1:
 RMSU=  1.32D-02    CP:  1.32D+00
 E= -1928.23685231962     Delta-E=       -0.272099857433 Rises=F Damp=T
 DIIS: error= 8.50D-03 at cycle   2 NSaved=   2.
 NSaved= 2 IEnMin= 2 EnMin= -1928.23685231962     IErMin= 2 ErrMin= 8.50D-03
 ErrMax= 8.50D-03  0.00D+00 EMaxC= 1.00D-01 BMatC= 7.16D-01 BMatP= 5.16D+00
 IDIUse=3 WtCom= 9.15D-01 WtEn= 8.50D-02
 Coeff-Com:  0.190D+00 0.810D+00
 Coeff-En:   0.336D+00 0.664D+00
 Coeff:      0.203D+00 0.797D+00
 Gap=     0.246 Goal=   None    Shift=    0.000
 Gap=     0.246 Goal=   None    Shift=    0.000
 RMSDP=1.13D-02 MaxDP=2.86D+00 DE=-2.72D-01 OVMax= 2.09D-01

 Cycle   3  Pass 1  IDiag  1:
 RMSU=  4.84D-03    CP:  1.11D+00  4.77D-01
 E= -1928.77647996110     Delta-E=       -0.539627641476 Rises=F Damp=F
 DIIS: error= 1.15D-02 at cycle   3 NSaved=   3.
 NSaved= 3 IEnMin= 3 EnMin= -1928.77647996110     IErMin= 2 ErrMin= 8.50D-03
 ErrMax= 1.15D-02  0.00D+00 EMaxC= 1.00D-01 BMatC= 7.92D-01 BMatP= 7.16D-01
 IDIUse=2 WtCom= 0.00D+00 WtEn= 1.00D+00
 Coeff-En:   0.000D+00 0.000D+00 0.100D+01
 Coeff:      0.000D+00 0.000D+00 0.100D+01
 Gap=     0.130 Goal=   None    Shift=    0.000
 Gap=     0.130 Goal=   None    Shift=    0.000
 RMSDP=1.30D-02 MaxDP=3.99D+00 DE=-5.40D-01 OVMax= 3.64D-01

 Cycle   4  Pass 1  IDiag  1:
 RMSU=  8.84D-03    CP:  1.33D+00  7.84D-01  3.79D-01
 E= -1927.77039537989     Delta-E=        1.006084581207 Rises=F Damp=F
 DIIS: error= 3.26D-02 at cycle   4 NSaved=   4.
 NSaved= 4 IEnMin= 3 EnMin= -1928.77647996110     IErMin= 2 ErrMin= 8.50D-03
 ErrMax= 3.26D-02  0.00D+00 EMaxC= 1.00D-01 BMatC= 5.66D+00 BMatP= 7.16D-01
 IDIUse=2 WtCom= 0.00D+00 WtEn= 1.00D+00
 Coeff-En:   0.000D+00 0.000D+00 0.819D+00 0.181D+00
 Coeff:      0.000D+00 0.000D+00 0.819D+00 0.181D+00
 Gap=     0.102 Goal=   None    Shift=    0.000
 Gap=     0.102 Goal=   None    Shift=    0.000
 RMSDP=7.20D-03 MaxDP=1.97D+00 DE= 1.01D+00 OVMax= 1.39D-01

 Cycle   5  Pass 1  IDiag  1:
 RMSU=  1.45D-03    CP:  1.20D+00  6.18D-01  6.80D-01  4.94D-01
 E= -1928.83796492745     Delta-E=       -1.067569547562 Rises=F Damp=F
 DIIS: error= 9.01D-03 at cycle   5 NSaved=   5.
 NSaved= 5 IEnMin= 5 EnMin= -1928.83796492745     IErMin= 2 ErrMin= 8.50D-03
 ErrMax= 9.01D-03  0.00D+00 EMaxC= 1.00D-01 BMatC= 5.13D-01 BMatP= 7.16D-01
 IDIUse=3 WtCom= 9.10D-01 WtEn= 9.01D-02
 Coeff-Com:  0.118D-01 0.133D-01 0.379D+00-0.571D-01 0.653D+00
 Coeff-En:   0.000D+00 0.000D+00 0.415D+00 0.000D+00 0.585D+00
 Coeff:      0.107D-01 0.121D-01 0.382D+00-0.519D-01 0.647D+00
 Gap=     0.130 Goal=   None    Shift=    0.000
 Gap=     0.130 Goal=   None    Shift=    0.000
 RMSDP=3.29D-03 MaxDP=1.11D+00 DE=-1.07D+00 OVMax= 5.39D-02

 Cycle   6  Pass 1  IDiag  1:
 RMSU=  4.43D-04    CP:  1.13D+00  5.35D-01  8.13D-01  2.75D-01  6.41D-01
 E= -1928.93828570718     Delta-E=       -0.100320779724 Rises=F Damp=F
 DIIS: error= 9.54D-04 at cycle   6 NSaved=   6.
 NSaved= 6 IEnMin= 6 EnMin= -1928.93828570718     IErMin= 6 ErrMin= 9.54D-04
 ErrMax= 9.54D-04  0.00D+00 EMaxC= 1.00D-01 BMatC= 7.33D-03 BMatP= 5.13D-01
 IDIUse=3 WtCom= 9.90D-01 WtEn= 9.54D-03
 Coeff-Com:  0.522D-02 0.601D-02 0.214D+00-0.577D-01 0.446D+00 0.386D+00
 Coeff-En:   0.000D+00 0.000D+00 0.000D+00 0.000D+00 0.000D+00 0.100D+01
 Coeff:      0.517D-02 0.595D-02 0.212D+00-0.571D-01 0.442D+00 0.392D+00
 Gap=     0.118 Goal=   None    Shift=    0.000
 Gap=     0.118 Goal=   None    Shift=    0.000
 RMSDP=2.91D-04 MaxDP=8.16D-02 DE=-1.00D-01 OVMax= 6.43D-03

 Cycle   7  Pass 1  IDiag  1:
 RMSU=  1.71D-04    CP:  1.14D+00  5.41D-01  8.15D-01  2.80D-01  7.25D-01
                    CP:  7.42D-01
 E= -1928.93956241245     Delta-E=       -0.001276705279 Rises=F Damp=F
 DIIS: error= 2.32D-04 at cycle   7 NSaved=   7.
 NSaved= 7 IEnMin= 7 EnMin= -1928.93956241245     IErMin= 7 ErrMin= 2.32D-04
 ErrMax= 2.32D-04  0.00D+00 EMaxC= 1.00D-01 BMatC= 5.43D-04 BMatP= 7.33D-03
 IDIUse=3 WtCom= 9.98D-01 WtEn= 2.32D-03
 Coeff-Com:  0.186D-02 0.110D-02 0.706D-01-0.245D-01 0.152D+00 0.186D+00
 Coeff-Com:  0.613D+00
 Coeff-En:   0.000D+00 0.000D+00 0.000D+00 0.000D+00 0.000D+00 0.000D+00
 Coeff-En:   0.100D+01
 Coeff:      0.185D-02 0.109D-02 0.705D-01-0.244D-01 0.151D+00 0.185D+00
 Coeff:      0.614D+00
 Gap=     0.119 Goal=   None    Shift=    0.000
 Gap=     0.119 Goal=   None    Shift=    0.000
 RMSDP=1.06D-04 MaxDP=1.87D-02 DE=-1.28D-03 OVMax= 2.03D-03

 Cycle   8  Pass 1  IDiag  1:
 RMSU=  5.95D-05    CP:  1.14D+00  5.42D-01  8.18D-01  2.76D-01  7.16D-01
                    CP:  6.92D-01  5.77D-01
 E= -1928.93963649294     Delta-E=       -0.000074080481 Rises=F Damp=F
 DIIS: error= 1.61D-04 at cycle   8 NSaved=   8.
 NSaved= 8 IEnMin= 8 EnMin= -1928.93963649294     IErMin= 8 ErrMin= 1.61D-04
 ErrMax= 1.61D-04  0.00D+00 EMaxC= 1.00D-01 BMatC= 1.43D-04 BMatP= 5.43D-04
 IDIUse=3 WtCom= 9.98D-01 WtEn= 1.61D-03
 Coeff-Com:  0.616D-03-0.158D-02 0.892D-02-0.262D-02 0.868D-02 0.214D-01
 Coeff-Com:  0.390D+00 0.575D+00
 Coeff-En:   0.000D+00 0.000D+00 0.000D+00 0.000D+00 0.000D+00 0.000D+00
 Coeff-En:   0.169D+00 0.831D+00
 Coeff:      0.615D-03-0.158D-02 0.891D-02-0.261D-02 0.866D-02 0.214D-01
 Coeff:      0.390D+00 0.575D+00
 Gap=     0.118 Goal=   None    Shift=    0.000
 Gap=     0.118 Goal=   None    Shift=    0.000
 RMSDP=5.41D-05 MaxDP=8.77D-03 DE=-7.41D-05 OVMax= 1.94D-03

 Cycle   9  Pass 1  IDiag  1:
 RMSU=  1.92D-05    CP:  1.14D+00  5.40D-01  8.18D-01  2.75D-01  7.14D-01
                    CP:  7.02D-01  6.60D-01  5.45D-01
 E= -1928.93966426496     Delta-E=       -0.000027772022 Rises=F Damp=F
 DIIS: error= 5.97D-05 at cycle   9 NSaved=   9.
 NSaved= 9 IEnMin= 9 EnMin= -1928.93966426496     IErMin= 9 ErrMin= 5.97D-05
 ErrMax= 5.97D-05  0.00D+00 EMaxC= 1.00D-01 BMatC= 1.02D-05 BMatP= 1.43D-04
 IDIUse=1 WtCom= 1.00D+00 WtEn= 0.00D+00
 Coeff-Com:  0.348D-03-0.117D-02 0.318D-02-0.615D-03-0.916D-04 0.664D-02
 Coeff-Com:  0.217D+00 0.365D+00 0.410D+00
 Coeff:      0.348D-03-0.117D-02 0.318D-02-0.615D-03-0.916D-04 0.664D-02
 Coeff:      0.217D+00 0.365D+00 0.410D+00
 Gap=     0.118 Goal=   None    Shift=    0.000
 Gap=     0.118 Goal=   None    Shift=    0.000
 RMSDP=1.17D-05 MaxDP=1.90D-03 DE=-2.78D-05 OVMax= 5.73D-04

 Cycle  10  Pass 1  IDiag  1:
 RMSU=  5.99D-06    CP:  1.14D+00  5.40D-01  8.19D-01  2.75D-01  7.15D-01
                    CP:  7.03D-01  6.84D-01  5.89D-01  5.94D-01
 E= -1928.93966653805     Delta-E=       -0.000002273097 Rises=F Damp=F
 DIIS: error= 1.15D-05 at cycle  10 NSaved=  10.
 NSaved=10 IEnMin=10 EnMin= -1928.93966653805     IErMin=10 ErrMin= 1.15D-05
 ErrMax= 1.15D-05  0.00D+00 EMaxC= 1.00D-01 BMatC= 9.39D-07 BMatP= 1.02D-05
 IDIUse=1 WtCom= 1.00D+00 WtEn= 0.00D+00
 Coeff-Com:  0.133D-03-0.531D-03 0.454D-03 0.151D-03-0.215D-02 0.147D-02
 Coeff-Com:  0.828D-01 0.154D+00 0.250D+00 0.513D+00
 Coeff:      0.133D-03-0.531D-03 0.454D-03 0.151D-03-0.215D-02 0.147D-02
 Coeff:      0.828D-01 0.154D+00 0.250D+00 0.513D+00
 Gap=     0.119 Goal=   None    Shift=    0.000
 Gap=     0.119 Goal=   None    Shift=    0.000
 RMSDP=3.42D-06 MaxDP=4.39D-04 DE=-2.27D-06 OVMax= 1.24D-04

 Cycle  11  Pass 1  IDiag  1:
 RMSU=  2.43D-06    CP:  1.14D+00  5.40D-01  8.19D-01  2.75D-01  7.15D-01
                    CP:  7.05D-01  6.87D-01  5.91D-01  6.07D-01  7.54D-01
 E= -1928.93966670103     Delta-E=       -0.000000162971 Rises=F Damp=F
 DIIS: error= 4.16D-06 at cycle  11 NSaved=  11.
 NSaved=11 IEnMin=11 EnMin= -1928.93966670103     IErMin=11 ErrMin= 4.16D-06
 ErrMax= 4.16D-06  0.00D+00 EMaxC= 1.00D-01 BMatC= 1.62D-07 BMatP= 9.39D-07
 IDIUse=1 WtCom= 1.00D+00 WtEn= 0.00D+00
 Coeff-Com:  0.395D-04-0.169D-03-0.859D-04 0.128D-03-0.108D-02 0.977D-03
 Coeff-Com:  0.242D-01 0.501D-01 0.101D+00 0.328D+00 0.498D+00
 Coeff:      0.395D-04-0.169D-03-0.859D-04 0.128D-03-0.108D-02 0.977D-03
 Coeff:      0.242D-01 0.501D-01 0.101D+00 0.328D+00 0.498D+00
 Gap=     0.119 Goal=   None    Shift=    0.000
 Gap=     0.119 Goal=   None    Shift=    0.000
 RMSDP=1.22D-06 MaxDP=1.07D-04 DE=-1.63D-07 OVMax= 3.27D-05

 Cycle  12  Pass 1  IDiag  1:
 RMSU=  7.93D-07    CP:  1.14D+00  5.40D-01  8.19D-01  2.75D-01  7.15D-01
                    CP:  7.06D-01  6.87D-01  5.89D-01  5.96D-01  7.71D-01
                    CP:  7.87D-01
 E= -1928.93966673179     Delta-E=       -0.000000030766 Rises=F Damp=F
 DIIS: error= 1.36D-06 at cycle  12 NSaved=  12.
 NSaved=12 IEnMin=12 EnMin= -1928.93966673179     IErMin=12 ErrMin= 1.36D-06
 ErrMax= 1.36D-06  0.00D+00 EMaxC= 1.00D-01 BMatC= 1.34D-08 BMatP= 1.62D-07
 IDIUse=1 WtCom= 1.00D+00 WtEn= 0.00D+00
 Coeff-Com:  0.496D-05-0.339D-04-0.168D-03 0.784D-04-0.515D-03 0.506D-03
 Coeff-Com:  0.488D-02 0.123D-01 0.288D-01 0.127D+00 0.265D+00 0.562D+00
 Coeff:      0.496D-05-0.339D-04-0.168D-03 0.784D-04-0.515D-03 0.506D-03
 Coeff:      0.488D-02 0.123D-01 0.288D-01 0.127D+00 0.265D+00 0.562D+00
 Gap=     0.119 Goal=   None    Shift=    0.000
 Gap=     0.119 Goal=   None    Shift=    0.000
 RMSDP=5.67D-07 MaxDP=1.22D-04 DE=-3.08D-08 OVMax= 1.67D-05

 Cycle  13  Pass 1  IDiag  1:
 RMSU=  3.13D-07    CP:  1.14D+00  5.40D-01  8.19D-01  2.75D-01  7.15D-01
                    CP:  7.06D-01  6.86D-01  5.90D-01  5.98D-01  7.96D-01
                    CP:  8.20D-01  8.38D-01
 E= -1928.93966673416     Delta-E=       -0.000000002370 Rises=F Damp=F
 DIIS: error= 7.07D-07 at cycle  13 NSaved=  13.
 NSaved=13 IEnMin=13 EnMin= -1928.93966673416     IErMin=13 ErrMin= 7.07D-07
 ErrMax= 7.07D-07  0.00D+00 EMaxC= 1.00D-01 BMatC= 2.92D-09 BMatP= 1.34D-08
 IDIUse=1 WtCom= 1.00D+00 WtEn= 0.00D+00
 Coeff-Com: -0.477D-05 0.766D-05-0.766D-04 0.199D-04-0.782D-04 0.279D-03
 Coeff-Com: -0.112D-02-0.123D-02-0.105D-03 0.195D-01 0.702D-01 0.349D+00
 Coeff-Com:  0.563D+00
 Coeff:     -0.477D-05 0.766D-05-0.766D-04 0.199D-04-0.782D-04 0.279D-03
 Coeff:     -0.112D-02-0.123D-02-0.105D-03 0.195D-01 0.702D-01 0.349D+00
 Coeff:      0.563D+00
 Gap=     0.119 Goal=   None    Shift=    0.000
 Gap=     0.119 Goal=   None    Shift=    0.000
 RMSDP=2.09D-07 MaxDP=2.07D-05 DE=-2.37D-09 OVMax= 6.51D-06

 Cycle  14  Pass 1  IDiag  1:
 RMSU=  1.11D-07    CP:  1.14D+00  5.40D-01  8.19D-01  2.75D-01  7.15D-01
                    CP:  7.06D-01  6.86D-01  5.89D-01  6.00D-01  7.96D-01
                    CP:  8.15D-01  8.79D-01  6.18D-01
 E= -1928.93966673469     Delta-E=       -0.000000000526 Rises=F Damp=F
 DIIS: error= 1.47D-07 at cycle  14 NSaved=  14.
 NSaved=14 IEnMin=14 EnMin= -1928.93966673469     IErMin=14 ErrMin= 1.47D-07
 ErrMax= 1.47D-07  0.00D+00 EMaxC= 1.00D-01 BMatC= 2.49D-10 BMatP= 2.92D-09
 IDIUse=1 WtCom= 1.00D+00 WtEn= 0.00D+00
 Coeff-Com: -0.323D-05 0.629D-05-0.269D-04 0.442D-05 0.296D-05 0.123D-03
 Coeff-Com: -0.956D-03-0.161D-02-0.270D-02-0.133D-02 0.946D-02 0.133D+00
 Coeff-Com:  0.308D+00 0.556D+00
 Coeff:     -0.323D-05 0.629D-05-0.269D-04 0.442D-05 0.296D-05 0.123D-03
 Coeff:     -0.956D-03-0.161D-02-0.270D-02-0.133D-02 0.946D-02 0.133D+00
 Coeff:      0.308D+00 0.556D+00
 Gap=     0.119 Goal=   None    Shift=    0.000
 Gap=     0.119 Goal=   None    Shift=    0.000
 RMSDP=5.61D-08 MaxDP=1.04D-05 DE=-5.26D-10 OVMax= 2.28D-06

 Cycle  15  Pass 1  IDiag  1:
 RMSU=  3.42D-08    CP:  1.14D+00  5.40D-01  8.19D-01  2.75D-01  7.15D-01
                    CP:  7.06D-01  6.86D-01  5.89D-01  5.99D-01  7.97D-01
                    CP:  8.20D-01  8.83D-01  6.63D-01  7.19D-01
 E= -1928.93966673472     Delta-E=       -0.000000000029 Rises=F Damp=F
 DIIS: error= 6.64D-08 at cycle  15 NSaved=  15.
 NSaved=15 IEnMin=15 EnMin= -1928.93966673472     IErMin=15 ErrMin= 6.64D-08
 ErrMax= 6.64D-08  0.00D+00 EMaxC= 1.00D-01 BMatC= 2.73D-11 BMatP= 2.49D-10
 IDIUse=1 WtCom= 1.00D+00 WtEn= 0.00D+00
 Coeff-Com: -0.134D-05 0.279D-05-0.588D-05 0.745D-07 0.119D-04 0.375D-04
 Coeff-Com: -0.420D-03-0.774D-03-0.163D-02-0.340D-02-0.471D-02 0.276D-01
 Coeff-Com:  0.958D-01 0.302D+00 0.586D+00
 Coeff:     -0.134D-05 0.279D-05-0.588D-05 0.745D-07 0.119D-04 0.375D-04
 Coeff:     -0.420D-03-0.774D-03-0.163D-02-0.340D-02-0.471D-02 0.276D-01
 Coeff:      0.958D-01 0.302D+00 0.586D+00
 Gap=     0.119 Goal=   None    Shift=    0.000
 Gap=     0.119 Goal=   None    Shift=    0.000
 RMSDP=2.60D-08 MaxDP=3.40D-06 DE=-2.91D-11 OVMax= 8.00D-07

 Cycle  16  Pass 1  IDiag  1:
 RMSU=  1.25D-08    CP:  1.14D+00  5.40D-01  8.19D-01  2.75D-01  7.15D-01
                    CP:  7.06D-01  6.86D-01  5.89D-01  5.99D-01  7.97D-01
                    CP:  8.22D-01  8.96D-01  6.72D-01  7.64D-01  7.28D-01
 E= -1928.93966673483     Delta-E=       -0.000000000116 Rises=F Damp=F
 DIIS: error= 1.80D-08 at cycle  16 NSaved=  16.
 NSaved=16 IEnMin=16 EnMin= -1928.93966673483     IErMin=16 ErrMin= 1.80D-08
 ErrMax= 1.80D-08  0.00D+00 EMaxC= 1.00D-01 BMatC= 2.20D-12 BMatP= 2.73D-11
 IDIUse=1 WtCom= 1.00D+00 WtEn= 0.00D+00
 Coeff-Com: -0.468D-06 0.102D-05-0.144D-05-0.124D-06 0.509D-05 0.105D-04
 Coeff-Com: -0.150D-03-0.280D-03-0.684D-03-0.174D-02-0.357D-02 0.332D-02
 Coeff-Com:  0.257D-01 0.120D+00 0.318D+00 0.540D+00
 Coeff:     -0.468D-06 0.102D-05-0.144D-05-0.124D-06 0.509D-05 0.105D-04
 Coeff:     -0.150D-03-0.280D-03-0.684D-03-0.174D-02-0.357D-02 0.332D-02
 Coeff:      0.257D-01 0.120D+00 0.318D+00 0.540D+00
 Gap=     0.119 Goal=   None    Shift=    0.000
 Gap=     0.119 Goal=   None    Shift=    0.000
 RMSDP=1.30D-08 MaxDP=3.67D-06 DE=-1.16D-10 OVMax= 2.84D-07

 Cycle  17  Pass 1  IDiag  1:
 RMSU=  6.53D-09    CP:  1.14D+00  5.40D-01  8.19D-01  2.75D-01  7.15D-01
                    CP:  7.06D-01  6.86D-01  5.89D-01  5.99D-01  7.98D-01
                    CP:  8.23D-01  8.94D-01  6.79D-01  7.45D-01  7.90D-01
                    CP:  7.71D-01
 E= -1928.93966673471     Delta-E=        0.000000000120 Rises=F Damp=F
 DIIS: error= 7.41D-09 at cycle  17 NSaved=  17.
 NSaved=17 IEnMin=16 EnMin= -1928.93966673483     IErMin=17 ErrMin= 7.41D-09
 ErrMax= 7.41D-09  0.00D+00 EMaxC= 1.00D-01 BMatC= 2.63D-13 BMatP= 2.20D-12
 IDIUse=1 WtCom= 1.00D+00 WtEn= 0.00D+00
 Coeff-Com: -0.961D-07 0.243D-06-0.896D-07-0.119D-06 0.169D-05 0.241D-05
 Coeff-Com: -0.360D-04-0.661D-04-0.194D-03-0.505D-03-0.132D-02-0.108D-02
 Coeff-Com:  0.292D-02 0.295D-01 0.102D+00 0.300D+00 0.569D+00
 Coeff:     -0.961D-07 0.243D-06-0.896D-07-0.119D-06 0.169D-05 0.241D-05
 Coeff:     -0.360D-04-0.661D-04-0.194D-03-0.505D-03-0.132D-02-0.108D-02
 Coeff:      0.292D-02 0.295D-01 0.102D+00 0.300D+00 0.569D+00
 Gap=     0.119 Goal=   None    Shift=    0.000
 Gap=     0.119 Goal=   None    Shift=    0.000
 RMSDP=4.02D-09 MaxDP=6.11D-07 DE= 1.20D-10 OVMax= 2.25D-07

 SCF Done:  E(UB3LYP) =  -1928.93966673     A.U. after   17 cycles
            NFock= 17  Conv=0.40D-08     -V/T= 2.0031
 <Sx>= 0.0000 <Sy>= 0.0000 <Sz>= 0.0000 <S**2>=-0.0000 S=-0.0000
 <L.S>=  0.00000000000    
 KE= 1.922933256926D+03 PE=-1.390886101973D+04 EE= 5.359923909201D+03
 Annihilation of the first spin contaminant:
 S**2 before annihilation    -0.0000,   after     0.0000
 Leave Link  502 at Thu Dec 21 19:51:41 2023, MaxMem=  4026531840 cpu:           24660.3 elap:            3484.9
 (Enter /sysapps/ubuntu-applications/gaussian/Gaussian/AVX2/g16/l601.exe)
 Copying SCF densities to generalized density rwf, IOpCl= 1 IROHF=0.

 **********************************************************************

            Population analysis using the SCF density.

 **********************************************************************

 Alpha  occ. eigenvalues --  -19.16248 -19.14899 -19.14865 -19.14564 -19.13502
 Alpha  occ. eigenvalues --  -19.13439 -19.12947 -19.12703 -19.12175 -19.10259
 Alpha  occ. eigenvalues --  -19.09735 -14.29693 -10.26895 -10.26273 -10.26270
 Alpha  occ. eigenvalues --  -10.25802 -10.25548 -10.25513 -10.25108 -10.24770
 Alpha  occ. eigenvalues --  -10.23696 -10.23694 -10.23641 -10.22474 -10.21775
 Alpha  occ. eigenvalues --  -10.20086 -10.19709 -10.19498 -10.19472 -10.19454
 Alpha  occ. eigenvalues --  -10.19427 -10.19327 -10.19155 -10.19025 -10.18998
 Alpha  occ. eigenvalues --  -10.18989 -10.17938 -10.17853 -10.16269  -1.10047
 Alpha  occ. eigenvalues --   -1.07649  -1.07580  -1.06533  -1.05727  -1.05461
 Alpha  occ. eigenvalues --   -1.04805  -1.03380  -1.03022  -1.02733  -1.00780
 Alpha  occ. eigenvalues --   -0.89957  -0.89825  -0.88831  -0.85258  -0.80732
 Alpha  occ. eigenvalues --   -0.80356  -0.78428  -0.78147  -0.77644  -0.77064
 Alpha  occ. eigenvalues --   -0.75351  -0.73992  -0.71332  -0.70897  -0.69098
 Alpha  occ. eigenvalues --   -0.68347  -0.66328  -0.65377  -0.64601  -0.63416
 Alpha  occ. eigenvalues --   -0.62703  -0.61844  -0.59357  -0.58900  -0.57497
 Alpha  occ. eigenvalues --   -0.57208  -0.55749  -0.54952  -0.54577  -0.53816
 Alpha  occ. eigenvalues --   -0.53500  -0.52400  -0.51811  -0.51521  -0.51063
 Alpha  occ. eigenvalues --   -0.50789  -0.50717  -0.49388  -0.49083  -0.48908
 Alpha  occ. eigenvalues --   -0.48053  -0.47910  -0.47758  -0.46423  -0.46185
 Alpha  occ. eigenvalues --   -0.45694  -0.45240  -0.44939  -0.44371  -0.44002
 Alpha  occ. eigenvalues --   -0.43043  -0.42719  -0.42199  -0.41792  -0.41577
 Alpha  occ. eigenvalues --   -0.41174  -0.40953  -0.40691  -0.40242  -0.40014
 Alpha  occ. eigenvalues --   -0.39631  -0.39303  -0.39191  -0.38408  -0.38188
 Alpha  occ. eigenvalues --   -0.37779  -0.37522  -0.37170  -0.36961  -0.36329
 Alpha  occ. eigenvalues --   -0.35902  -0.35499  -0.34803  -0.34512  -0.34320
 Alpha  occ. eigenvalues --   -0.33643  -0.33097  -0.33020  -0.32683  -0.32471
 Alpha  occ. eigenvalues --   -0.31853  -0.30229  -0.29279  -0.28716  -0.27871
 Alpha  occ. eigenvalues --   -0.27509  -0.25294  -0.24941  -0.24723  -0.24114
 Alpha  occ. eigenvalues --   -0.23741  -0.23601  -0.22208
 Alpha virt. eigenvalues --   -0.10358  -0.05199  -0.04299  -0.02785  -0.02641
 Alpha virt. eigenvalues --   -0.01908  -0.01380  -0.01152  -0.00929  -0.00643
 Alpha virt. eigenvalues --   -0.00208   0.00061   0.00689   0.01179   0.01646
 Alpha virt. eigenvalues --    0.01817   0.02398   0.02582   0.02657   0.02775
 Alpha virt. eigenvalues --    0.03054   0.03306   0.03810   0.03993   0.04206
 Alpha virt. eigenvalues --    0.04575   0.04765   0.04854   0.05087   0.05477
 Alpha virt. eigenvalues --    0.05682   0.05780   0.06282   0.06392   0.06702
 Alpha virt. eigenvalues --    0.06754   0.07084   0.07324   0.07716   0.07866
 Alpha virt. eigenvalues --    0.08392   0.08423   0.08624   0.08696   0.09043
 Alpha virt. eigenvalues --    0.09254   0.09313   0.09684   0.09859   0.10100
 Alpha virt. eigenvalues --    0.10119   0.10542   0.10579   0.10659   0.10964
 Alpha virt. eigenvalues --    0.11191   0.11432   0.11546   0.11577   0.11880
 Alpha virt. eigenvalues --    0.11979   0.12221   0.12377   0.12435   0.12793
 Alpha virt. eigenvalues --    0.13003   0.13110   0.13219   0.13410   0.13447
 Alpha virt. eigenvalues --    0.13678   0.13772   0.14015   0.14032   0.14259
 Alpha virt. eigenvalues --    0.14454   0.14688   0.14786   0.14832   0.15029
 Alpha virt. eigenvalues --    0.15205   0.15369   0.15481   0.15729   0.15845
 Alpha virt. eigenvalues --    0.15899   0.16130   0.16416   0.16600   0.16721
 Alpha virt. eigenvalues --    0.16877   0.17008   0.17215   0.17328   0.17717
 Alpha virt. eigenvalues --    0.17725   0.17812   0.18142   0.18299   0.18468
 Alpha virt. eigenvalues --    0.18836   0.18980   0.19344   0.19433   0.19611
 Alpha virt. eigenvalues --    0.19762   0.20041   0.20434   0.20460   0.20722
 Alpha virt. eigenvalues --    0.20796   0.20942   0.21264   0.21493   0.21584
 Alpha virt. eigenvalues --    0.21749   0.22039   0.22137   0.22242   0.22391
 Alpha virt. eigenvalues --    0.22644   0.22950   0.23064   0.23313   0.23620
 Alpha virt. eigenvalues --    0.23744   0.24022   0.24185   0.24376   0.24482
 Alpha virt. eigenvalues --    0.24665   0.24922   0.25161   0.25460   0.25776
 Alpha virt. eigenvalues --    0.25903   0.26090   0.26252   0.26321   0.26622
 Alpha virt. eigenvalues --    0.26760   0.26807   0.27074   0.27151   0.27368
 Alpha virt. eigenvalues --    0.27540   0.27840   0.27873   0.28326   0.28488
[...]
 03,-0.00000128,0.00000338,-0.00000133,0.00000167,-0.00000201,0.0000018
 2,-0.00000278,0.00000073,-0.00000162,0.00000228,-0.00000072,0.00000036
 ,-0.00000116,-0.00000002,-0.00000090,-0.00000049,-0.00000014,0.0000005
 3,-0.00000464,-0.00000822,-0.00000017,-0.00000320,0.00000197,0.0000033
 0,-0.00000015,0.00000991,0.00000260,0.00000401,0.,-0.00001661,-0.00000
 708,-0.00000659,0.00000282,-0.00000625,0.00000887,0.00000151,-0.051855
 20,0.05855955,0.00000890,-0.00001077,-0.00000801,-0.00000033,0.0000192
 5,0.00001879,-0.00000909,-0.00001254,-0.00001861,0.00000546,0.00000460
 ,0.00000763,0.00000166,-0.00000784,-0.00001015,-0.00001436,0.00000562,
 0.00000865,0.00000330,0.00000769,0.00001064,0.00007211,0.00000011,0.00
 000377,-0.00003236,-0.00000726,-0.00001901,-0.00002970,-0.00001151,-0.
 00001296,-0.00000634,-0.00003497,-0.00001681,-0.00000002,0.00002593,-0
 .00000616,0.00013445,0.00003740,0.00005420,0.00013480,-0.00024565,-0.0
 0039943,-0.00065147,0.00007614,0.00070943,0.00033879,0.00082913,-0.001
 86326,0.00012793,-0.00017955,0.00002747,-0.00002628,-0.00000430,0.0000
 2616,0.00001320,0.00002238,-0.00003802,0.00000518,-0.00002914,0.000010
 12,-0.00000100,0.00000095,0.00000459,0.00000343,-0.00000149,-0.0000066
 3,0.00000019,0.00000602,0.00000444,-0.00001612,-0.00000654,0.00001047,
 0.00001282,0.00000953,-0.00001543,0.00000054,-0.00001043,-0.00000072,-
 0.00001092,-0.00001379,0.00001295,0.00000267,0.00003260,-0.00001480,-0
 .00002709,-0.00001692,-0.00002431,0.00000245,-0.00001170,0.00000378,-0
 .00000809,0.00001322,0.00000540,-0.00002009,0.00004512,0.00003158,0.00
 005674,-0.00005026,-0.00003220,-0.00000843,0.00002548,0.00002174,-0.00
 002502,-0.00000154,-0.00000091,0.00226084,-0.00702078,-0.00071944,-0.0
 0074914,0.00070241,0.00133126,0.02114944,-0.00200013,-0.04218841,0.032
 46052,-0.00160511,-0.01648806,0.00000095,0.00000062,0.00000063,-0.0000
 0207,0.00000137,-0.00000047,-0.00000268,0.00000025,0.00000089,-0.00000
 093,0.00000102,0.00000040,-0.00000183,0.00000074,-0.00000036,0.0000019
 7,-0.00000136,-0.00000084,0.00001346,-0.00002093,0.00003818,0.00014188
 ,0.00004610,0.00015522,-0.00006857,0.00017028,-0.00000985,-0.00002981,
 -0.00011712,-0.00016982,-0.00002426,-0.00000389,0.00004081,-0.00001282
 ,0.00002991,-0.00006364,0.00001307,-0.00005861,-0.00003253,0.00000052,
 -0.00000041,-0.00000212,-0.00000147,0.00000154,-0.00000038,0.00000046,
 0.00000161,-0.00000084,-0.00000026,0.00000408,0.00000002,0.00000171,-0
 .00000261,-0.00000127,-0.00000188,-0.00000213,-0.00000238,0.00000190,0
 .00000085,-0.00000105,-0.00000595,-0.00000587,0.00000762,0.00000105,-0
 .00000317,-0.00000154,0.00000270,0.00000479,0.00000019,0.00000075,0.00
 000325,-0.00000808,0.00000158,-0.00000018,-0.00000351,0.00000913,-0.00
 000874,-0.00000524,-0.03600630,0.00186976,0.06001962,-0.00000398,0.000
 00646,0.00000265,-0.00000007,-0.00000923,-0.00000632,0.00000514,0.0000
 0567,0.00000298,-0.00000175,-0.00000281,-0.00000175,-0.00000287,0.0000
 0244,0.00000406,0.00000491,-0.00000298,-0.00000019,-0.00000137,-0.0000
 0090,-0.00000705,-0.00001594,0.00001722,0.00000320,0.00000295,-0.00001
 013,0.00000682,0.00000267,-0.00000900,0.00000548,0.00001171,0.00007809
 ,0.00003272,-0.00001557,-0.00004709,0.00000990,-0.00004917,-0.00002096
 ,-0.00003930,-0.00009406,0.00035037,-0.00013111,-0.00046417,-0.0012715
 4,-0.00125723,0.00034345,0.00055666,0.00039963,-0.00017960,0.00011896,
 0.00030933,0.00002304,0.00002859,-0.00000760,0.00000071,-0.00001358,0.
 00002514,-0.00000913,0.00002179,-0.00001205,0.00000327,-0.00000218,-0.
 00000252,-0.00000340,0.00000079,0.00000346,0.00000061,-0.00000415,-0.0
 0000131,0.00001165,0.00000590,-0.00000847,-0.00001027,-0.00000878,0.00
 001134,0.00000156,0.00000883,0.00000286,0.00000615,0.00000867,-0.00000
 849,0.00000241,-0.00002739,0.00000957,-0.00002842,0.00003419,-0.000005
 42,0.00001830,-0.00001446,-0.00001097,0.00000328,-0.00000403,0.0000069
 9,-0.00001204,0.00000621,0.00000447,-0.00000599,0.00000173,-0.00000523
 ,0.00000544,-0.00000263,0.00000380,0.00000349,-0.00000111,0.00000406,0
 .00237872,0.00507138,0.00501474,-0.00130829,0.00088247,-0.00005646,-0.
 10376612,-0.05457181,-0.09690503,0.01022266,0.00683720,0.01301661,-0.0
 0000039,0.00000013,-0.00000053,0.00000101,-0.00000047,0.00000076,0.000
 00054,-0.00000042,-0.00000024,0.00000041,-0.00000002,-0.00000081,0.000
 00084,0.00000038,-0.00000050,-0.00000100,0.00000178,-0.00000129,0.0000
 2597,0.00002764,-0.00004593,0.00014903,0.00015012,-0.00006475,0.000002
 68,0.00000925,0.00000251,-0.00003204,0.00032770,0.00003420,0.00004557,
 0.00005113,-0.00001366,-0.00002673,-0.00011962,0.00001796,-0.00000936,
 0.00002783,0.00002917,-0.00000120,-0.00000113,0.00000085,0.00000133,-0
 .00000205,0.00000032,-0.00000154,-0.00000085,0.00000019,0.00000014,-0.
 00000315,0.00000031,-0.00000187,0.00000216,0.00000022,0.00000105,0.000
 00119,0.00000125,-0.00000112,-0.00000100,0.00000102,0.00000533,0.00000
 570,-0.00000521,-0.00000027,0.00000156,0.00000061,-0.00000191,-0.00000
 489,-0.00000130,0.00000003,-0.00000261,0.00000898,0.00000019,0.0000014
 8,0.00000085,-0.00000486,0.00000928,-0.00000097,-0.01828223,-0.0153858
 5,-0.02293374,0.11165511,0.00000730,-0.00000953,-0.00000860,0.00000228
 ,0.00002016,0.00002131,-0.00001513,-0.00001170,-0.00002074,0.00000944,
 0.00000336,0.00001166,0.00000121,-0.00000842,-0.00000972,-0.00000986,0
 .00000975,0.00000810,-0.00000054,0.00000965,0.00000310,0.00003845,-0.0
 0002558,-0.00000432,-0.00002026,0.00001349,0.00000391,-0.00001839,-0.0
 0001494,-0.00004399,-0.00015724,-0.00013356,-0.00006144,0.00002307,0.0
 0017518,0.00005521,0.00028266,-0.00002265,-0.00012427,-0.00071628,-0.0
 0076701,0.00058548,0.00330770,-0.00028173,0.00100934,-0.00017113,0.000
 07206,0.00029659,0.00002235,0.00035012,-0.00047700,0.00011806,0.000022
 06,-0.00012433,-0.00000030,0.00009768,0.00009150,-0.00004621,-0.000018
 28,-0.00006441,0.00000840,0.00000542,0.00000789,-0.00000214,-0.0000038
 6,-0.00001081,0.00000371,0.00000474,0.00001092,0.00000162,0.00000158,0
 .00000105,0.00000346,0.00000327,0.00000538,-0.00001717,-0.00000524,-0.
 00002451,0.00000545,0.00000463,-0.00000112,0.00003224,0.00000242,0.000
 03556,-0.00007478,0.00001387,0.00008153,-0.00005811,0.00000765,0.00002
 143,0.00001067,0.00002676,0.00004924,-0.00000633,0.00004885,0.00005450
 ,0.00003224,-0.00004647,-0.00004233,0.00001088,0.00002694,0.00003696,-
 0.00001219,0.00000123,-0.00000222,-0.01969364,-0.00945148,-0.02669254,
 0.00528890,-0.00488842,0.00073753,-0.05585796,-0.09142879,-0.08369549,
 0.00420967,0.00795309,0.01788189,0.00000083,0.00000110,0.00000081,-0.0
 0000153,0.00000128,-0.00000009,-0.00000262,-0.00000002,0.00000070,-0.0
 0000078,0.00000119,0.00000018,-0.00000161,0.00000071,-0.00000028,0.000
 00282,-0.00000195,-0.00000105,0.00006647,-0.00008868,0.00008381,0.0004
 0367,-0.00012078,0.00024552,0.00029300,0.00000593,0.00018556,-0.000018
 34,0.00012504,0.00018956,0.00001400,0.00001067,-0.00002677,0.00002941,
 0.00011627,0.00010980,0.00003872,0.00008671,0.00002191,0.00000088,0.00
 000516,0.00001143,0.00000009,-0.00000107,-0.00000013,-0.00000188,-0.00
 000307,0.00000138,0.00000161,0.00000175,0.00000199,-0.00000157,-0.0000
 0011,-0.00000471,-0.00000167,-0.00000189,-0.00000211,0.00000218,0.0000
 0189,0.00000173,-0.00000286,-0.00000184,-0.00000255,-0.00000045,0.0000
 0403,0.00000617,0.00000148,0.00000018,0.00000199,0.00000074,-0.0000020
 5,-0.00000168,-0.00000310,-0.00000198,0.00000100,-0.00000726,0.0000054
 5,-0.00000783,0.00482460,0.00553382,0.00505893,0.05695228,0.09436503,0
 .00001357,-0.00001834,-0.00001578,0.00000395,0.00003741,0.00003886,-0.
 00002267,-0.00002798,-0.00003700,0.00001379,0.00000740,0.00001438,0.00
 000181,-0.00001245,-0.00001488,-0.00001687,0.00001419,0.00000985,-0.00
 000179,0.00000896,0.00001642,0.00008873,-0.00001906,0.00000326,-0.0000
 3925,0.00000479,-0.00001413,-0.00005274,-0.00001713,-0.00001669,-0.000
 01963,-0.00001496,-0.00002661,0.00000901,0.00006668,0.00001209,0.00006
 283,0.00005193,-0.00006624,-0.00008025,0.00011061,-0.00016431,-0.00045
 068,-0.00116543,-0.00033040,0.00089081,0.00118374,-0.00081372,0.000104
 92,-0.00017364,0.00002893,-0.00006479,-0.00003444,0.00004491,0.0000604
 7,0.00003514,0.00001948,-0.00006455,-0.00002167,-0.00005305,0.00000701
 ,0.00000306,0.00000628,-0.00000709,-0.00000432,-0.00001059,0.00000798,
 0.00000341,0.00001282,-0.00000043,0.00000327,0.00000526,0.00000672,-0.
 00000085,0.00000196,-0.00002761,-0.00000791,-0.00003067,0.00000666,0.0
 0000314,0.00000103,0.00005426,0.00000023,0.00003193,-0.00005740,0.0000
 1486,-0.00003796,-0.00000329,-0.00007177,-0.00003818,0.00001903,0.0000
 4359,0.00005281,-0.00004045,0.00007480,0.00004947,0.00007101,-0.000092
 48,-0.00006794,0.00000705,0.00004884,0.00005264,-0.00003074,0.00000493
 ,-0.00000287,0.00164511,-0.00558893,-0.00053016,-0.00210963,0.00098592
 ,0.00196612,-0.09563761,-0.07641622,-0.18472708,-0.00009193,-0.0042810
 7,-0.03458420,0.00000172,0.00000187,0.00000154,-0.00000383,0.00000243,
 0.00000012,-0.00000485,0.00000016,0.00000084,-0.00000178,0.00000185,0.
 00000026,-0.00000257,0.00000045,-0.00000019,0.00000315,-0.00000279,-0.
 00000120,0.00002709,-0.00002827,0.00004855,0.00022947,0.00016709,0.000
 20844,0.00003220,0.00019374,-0.00003577,0.00008665,0.00014876,0.000141
 23,-0.00000416,0.00001036,0.00000726,-0.00004191,-0.00002563,0.0000400
 1,-0.00000672,-0.00000065,-0.00001097,-0.00000060,-0.00000139,0.000003
 62,0.00000064,-0.00000319,0.00000023,-0.00000150,0.00000010,0.00000050
 ,0.00000225,0.00000146,0.00000248,-0.00000410,0.00000012,-0.00000718,-
 0.00000216,-0.00000295,-0.00000230,0.00000379,0.00000261,0.00000154,-0
 .00000234,0.00000054,-0.00000162,-0.00000040,0.00000334,0.00000448,0.0
 0000340,0.00000144,0.00000112,-0.00000346,-0.00000182,-0.00000203,-0.0
 0000192,-0.00000167,-0.00000009,-0.00000133,-0.00000525,-0.00001285,-0
 .00135446,-0.00105284,0.00128333,0.09995171,0.08274561,0.22135046,-0.0
 0000806,0.00002312,0.00000890,-0.00000643,-0.00003615,-0.00002619,0.00
 001974,0.00002583,0.00002173,-0.00001283,-0.00000793,-0.00000328,-0.00
 000714,0.00000395,0.00000993,-0.00000016,-0.00000549,-0.00000326,-0.00
 000008,-0.00000753,-0.00000623,0.00003272,0.00005595,0.00001827,-0.000
 02926,-0.00005442,-0.00001391,-0.00007704,-0.00004713,0.00000543,0.000
 04147,0.00010131,0.00002829,-0.00006084,-0.00011503,0.00002149,0.00002
 076,-0.00002451,-0.00002466,0.00001688,0.00000698,-0.00000932,0.000278
 35,0.00010016,0.00053917,-0.00008756,0.00003332,0.00015186,0.00002460,
 0.00003970,-0.00007967,0.00013802,-0.00003286,-0.00001575,-0.00010232,
 -0.00000113,-0.00003598,0.00013240,-0.00004184,0.00006321,-0.00000696,
 0.00000218,-0.00000070,0.00002384,-0.00000290,-0.00000906,-0.00001978,
 0.00001419,0.00000282,-0.00001808,-0.00002332,0.00000009,0.00000238,0.
 00003003,-0.00001187,0.00003026,-0.00001387,0.00002608,-0.00002069,-0.
 00003078,0.00001336,-0.00010070,0.00007990,-0.00004651,0.00003172,-0.0
 0000596,0.00001880,0.00002541,0.00005976,0.00005482,-0.00008183,-0.000
 06917,-0.00004557,-0.00000499,0.00005651,0.00001184,0.00001973,0.00001
 633,-0.00000436,-0.00003288,-0.00001969,0.00000179,-0.00000162,0.00000
 079,0.00000462,0.00371340,0.00052568,0.00113444,-0.00469781,0.00033458
 ,-0.00184054,-0.00915794,0.00773065,0.01162088,-0.04363634,0.09099590,
 0.09133896,-0.00000127,-0.00000023,-0.00000291,0.00000369,-0.00000251,
 0.00000270,0.00000013,-0.00000104,-0.00000008,0.00000147,0.00000164,-0
 .00000304,0.00000139,0.00000285,-0.00000206,-0.00000146,0.00000597,-0.
 00000544,0.00005463,0.00004279,-0.00005104,0.00002048,-0.00000821,-0.0
 0007853,-0.00003205,-0.00000724,0.00001316,0.00006054,-0.00001498,0.00
 008952,-0.00003954,-0.00001633,-0.00001281,0.00001534,0.00004670,-0.00
 000406,0.00001039,-0.00003129,0.00000251,0.00000444,0.00000458,0.00000
 528,-0.00000639,0.00001150,-0.00000228,0.00000285,-0.00000104,0.000001
 73,-0.00000387,0.00000619,-0.00000194,0.00001249,-0.00000873,0.0000043
 0,-0.00000020,0.00000176,-0.00000389,-0.00000038,-0.00000110,-0.000001
 63,-0.00000942,-0.00001720,0.00000831,-0.00000130,-0.00001081,-0.00000
 239,0.00000022,0.00000893,0.00000114,0.00000252,0.00001177,-0.00001058
 ,0.00000026,0.00000128,-0.00000335,0.00004466,0.00001763,-0.00001019,-
 0.00168096,-0.00139143,0.00374187,-0.00060460,0.00086876,-0.00315928,0
 .05576562,0.00005353,-0.00006650,-0.00005242,-0.00000202,0.00011664,0.
 00011365,-0.00005564,-0.00009224,-0.00009718,0.00003076,0.00002950,0.0
 0003408,0.00000407,-0.00005605,-0.00004355,-0.00007717,0.00005597,0.00
 002973,0.00001516,0.00005066,0.00005322,0.00043780,-0.00000378,0.00011
 957,-0.00021664,-0.00008832,-0.00012565,-0.00028946,-0.00006089,-0.000
 11967,0.00006107,0.00018084,0.00016146,-0.00012055,-0.00011368,-0.0001
 0344,0.00010889,-0.00000810,0.00001473,0.00053786,0.00013625,-0.000165
 52,-0.00037196,0.00026382,-0.00080579,0.00065499,-0.00044099,-0.000741
 18,-0.00027235,-0.00032693,-0.00003932,0.00004582,-0.00039568,0.000202
 36,0.00019302,0.00047185,-0.00001118,-0.00030388,-0.00017212,-0.000204
 68,0.00004888,0.00001172,0.00003872,-0.00001942,-0.00001717,-0.0000599
 6,0.00002410,0.00003385,0.00005994,-0.00002783,-0.00001298,0.00003766,
 0.00006152,0.00003141,-0.00002310,-0.00014353,-0.00005811,-0.00012216,
 0.00001639,-0.00000339,0.00001678,0.00024112,0.00008663,0.00011156,0.0
 0005742,-0.00004502,-0.00011210,0.00001405,-0.00004846,-0.00004357,-0.
 00008540,0.00010263,0.00002021,-0.00010787,0.00024135,0.00017717,0.000
 32717,-0.00028039,-0.00016374,-0.00007331,0.00013965,0.00010393,-0.000
 14128,0.00001921,-0.00002232,-0.00479482,0.00035682,0.01327625,0.00200
 918,0.00321635,-0.00645152,-0.00446205,0.01564686,0.00844559,0.1081111
 9,-0.29564424,-0.21272988,0.00000587,0.00000380,0.00000406,-0.00001234
 ,0.00000819,-0.00000200,-0.00001659,0.00000144,0.00000491,-0.00000569,
 0.00000659,0.00000161,-0.00001064,0.00000475,-0.00000196,0.00001024,-0
 .00000363,-0.00000686,0.00011508,0.00006151,0.00006030,-0.00009796,-0.
 00000364,0.00002344,-0.00017460,0.00009480,-0.00018948,0.00011708,-0.0
 0018067,-0.00020434,-0.00005470,-0.00001018,0.00006470,0.00003987,0.00
 010091,-0.00009671,-0.00011520,-0.00016887,-0.00014272,0.00001201,-0.0
 0001004,0.00002021,-0.00000311,-0.00000383,0.00000178,-0.00000482,0.00
 000061,-0.00000045,0.00001254,0.00001745,0.00000816,-0.00000777,-0.000
 01225,-0.00002718,-0.00000935,-0.00001530,-0.00001489,0.00001810,0.000
 01493,0.00000525,-0.00002717,-0.00001471,0.00000395,0.00000526,0.00000
 225,0.00001201,0.00001798,0.00001123,0.00001036,-0.00002324,0.00000616
 ,-0.00001405,-0.00000196,-0.00000117,-0.00001034,0.00007401,-0.0000814
 1,-0.00003995,-0.00206795,-0.00215155,0.00244853,-0.00006645,-0.001799
 07,0.00310626,-0.09921734,0.28086475,-0.00003077,0.00003912,0.00003823
 ,-0.00001111,-0.00008356,-0.00009500,0.00005651,0.00006603,0.00008378,
 -0.00002907,-0.00001984,-0.00003155,-0.00000246,0.00003225,0.00002905,
 0.00003741,-0.00003044,-0.00002343,0.00000538,-0.00002794,-0.00002932,
 -0.00023371,0.00005223,-0.00001177,0.00010224,-0.00000203,0.00002926,0
 .00015256,0.00002981,0.00009400,0.00008648,0.00004824,0.00003119,0.000
 00243,-0.00013921,-0.00004407,-0.00018830,0.00004412,0.00004769,-0.000
 22395,-0.00000073,0.00012763,0.00064732,-0.00099051,-0.00095464,0.0001
 0934,0.00013226,-0.00006033,0.00000261,0.00002953,0.00042537,-0.000029
 23,0.00027855,0.00006456,-0.00011952,-0.00028231,-0.00011854,0.0001924
 6,0.00009832,0.00021907,-0.00002775,-0.00001111,-0.00002996,0.00001109
 ,0.00001466,0.00004609,-0.00001497,-0.00001706,-0.00004909,-0.00000507
 ,-0.00000945,-0.00000581,-0.00001027,-0.00000624,-0.00002140,0.0000753
 5,0.00003305,0.00011676,-0.00001812,-0.00001429,-0.00000336,-0.0001507
 3,-0.00003116,-0.00012479,0.00003262,0.00003106,0.00000774,0.00006042,
 0.00010124,0.00016107,-0.00002265,-0.00010576,-0.00017183,0.00006735,-
 0.00014992,-0.00015378,-0.00014768,0.00020714,0.00017267,-0.00001344,-
 0.00011113,-0.00014085,0.00006462,-0.00001479,0.00000420,0.00244945,-0
 .00080601,-0.00233671,-0.00214303,-0.00259413,0.00109668,0.01301071,-0
 .02217045,-0.03291448,0.08805500,-0.16965419,-0.18415783,-0.00000381,-
 0.00000618,-0.00000242,0.00000737,-0.00000398,-0.00000203,0.00001305,-
 0.00000133,-0.00000190,0.00000419,-0.00000506,0.00000045,0.00000530,-0
 .00000236,0.00000157,-0.00000821,0.00000479,0.00000457,-0.00006519,0.0
 0004131,-0.00006880,-0.00000242,0.00000374,-0.00009910,0.00009351,-0.0
 0008226,0.00008255,0.00003403,0.00007613,-0.00000664,0.00002491,0.0000
 3011,-0.00001066,-0.00008563,-0.00014369,-0.00000573,0.00002208,0.0000
 2108,0.00004296,0.00000169,-0.00000229,-0.00003081,-0.00000026,0.00000
 479,0.00000029,0.00000627,0.00000354,-0.00000433,-0.00000709,-0.000005
 84,-0.00000831,0.00000957,0.00000227,0.00002730,0.00000500,0.00000674,
 0.00000804,-0.00001147,-0.00000937,-0.00000630,0.00000748,0.00000413,0
 .00000930,0.00000637,-0.00001732,-0.00002377,-0.00001210,-0.00000660,-
 0.00000507,0.00000370,0.00000985,0.00001819,0.00001134,0.00001024,-0.0
 0000717,-0.00001040,0.00001519,0.00005048,-0.00101859,0.00011339,-0.00
 166272,0.00260472,0.00177691,-0.00380781,-0.10343493,0.19419671,0.2241
 9136\\-0.00000060,0.00000038,0.00000248,0.00000076,-0.00000054,-0.0000
 0052,0.00000054,-0.00000063,0.00000050,-0.00000098,-0.00000078,-0.0000
 0168,0.00000061,-0.00000138,-0.00000013,-0.00000100,0.00000156,-0.0000
 0237,0.00000129,0.00000090,0.00000053,-0.00000468,-0.00000326,-0.00000
 209,-0.00000024,0.00000078,0.00000543,0.00000505,0.00000816,0.00000026
 ,0.00000256,-0.00000532,0.00000333,0.00000103,0.00000195,-0.00000407,0
 .00000477,-0.00000266,-0.00000916,-0.00000295,-0.00000036,0.00000501,0
 .00001339,-0.00000749,0.00000624,0.00000359,0.00000286,-0.00000036,0.0
 0000360,-0.00000606,-0.00001408,-0.00000355,0.00001074,-0.00000144,0.0
 0001235,0.00000037,0.00001233,-0.00003030,0.00001196,-0.00001337,0.000
 00051,-0.00000454,-0.00000357,-0.00000177,0.00000717,0.00001346,0.0000
 1012,-0.00000408,-0.00000641,0.00000280,0.00000073,-0.00000258,-0.0000
 0487,-0.00000450,-0.00000275,-0.00000742,-0.00000617,-0.00000479,-0.00
 000015,0.00000552,0.00000458,0.00001736,-0.00000633,0.00000698,-0.0000
 0455,0.00000926,0.00002055,-0.00000370,-0.00001037,-0.00000405,0.00000
 533,0.00000616,0.00000136,-0.00000085,-0.00000550,-0.00000148,0.000000
 57,0.00000939,0.00000171,0.00000071,-0.00000436,-0.00000411,-0.0000020
 4,-0.00000556,0.00000012,-0.00001030,0.00000687,-0.00000089,0.00000112
 ,-0.00000031,-0.00000254,0.00000538,-0.00000365,-0.00000555,0.00000031
 ,0.00000739,0.00000119,-0.00000051,-0.00000030,-0.00000110,-0.00000058
 ,-0.00000004,0.00000034,-0.00000056,-0.00000091,-0.00000155,0.00000034
 ,-0.00000044,-0.00000092,0.00000010,-0.00000042,-0.00000083,0.00000003
 ,-0.00000128,-0.00000004,0.00000076,-0.00000230,0.00000176,0.00000006,
 -0.00000181,-0.00000322,-0.00000151,0.00000189,-0.00000091,-0.00000149
 ,-0.00000139,-0.00000015,-0.00000390,-0.00000445,0.00000194,-0.0000043
 8,-0.00000083,0.00000341,0.00000074,0.00000690,0.00000072,0.00000462,-
 0.00000143,0.00000196,-0.00000072,0.00000039,0.00000077,-0.00000019,0.
 ,0.00000181,0.00000056,-0.00000120,-0.00000192,-0.00000603,-0.00000030
 ,0.00000024,-0.00000333,0.00000217,0.00000059,-0.00000042,0.00000004,0
 .00000124,0.00000298,0.00000515,0.00000229,0.00000157,0.00000270,0.000
 00282,-0.00000185,-0.00000083,-0.00000007,-0.00000085,-0.00000093,-0.0
 0000460,0.00000311,0.00000013,0.00000022,-0.00000019,-0.00000488,-0.00
 000305,0.00000052,0.00000091,-0.00000029,-0.00000181,-0.00000121,0.000
 00533,-0.00000086,-0.00000365,-0.00000485\\\@


 READER, WHETHER YOU BE DILETTANTE OR PROFESSOR ... SHOW YOURSELF TO BE
 MORE HUMAN THAN CRITICAL, AND THEN YOUR PLEASURE WILL INCREASE.
                                           -- DOMENICO SCARLATTI (1738)
 Job cpu time:      19 days 13 hours  1 minutes 57.4 seconds.
 Elapsed time:       2 days 10 hours 57 minutes 59.5 seconds.
 File lengths (MBytes):  RWF=  20268 Int=      0 D2E=      0 Chk=    142 Scr=      1
 Normal termination of Gaussian 16 at Mon Dec 25 19:27:23 2023.
