 Entering Gaussian System, Link 0=g16
 Input=103.com
 Output=103.log
 Initial command:
 /sysapps/ubuntu-applications/gaussian/Gaussian/AVX2/g16/l1.exe "/scratch/selhajj1/4267632/Gau-4076643.inp" -scrdir="/scratch/selhajj1/4267632/"
 Entering Link 1 = /sysapps/ubuntu-applications/gaussian/Gaussian/AVX2/g16/l1.exe PID=   4076648.
  
 Copyright (c) 1988,1990,1992,1993,1995,1998,2003,2009,2016,
            Gaussian, Inc.  All Rights Reserved.
  
 This is part of the Gaussian(R) 16 program.  It is based on
 the Gaussian(R) 09 system (copyright 2009, Gaussian, Inc.),
 the Gaussian(R) 03 system (copyright 2003, Gaussian, Inc.),
 the Gaussian(R) 98 system (copyright 1998, Gaussian, Inc.),
 the Gaussian(R) 94 system (copyright 1995, Gaussian, Inc.),
 the Gaussian 92(TM) system (copyright 1992, Gaussian, Inc.),
 the Gaussian 90(TM) system (copyright 1990, Gaussian, Inc.),
 the Gaussian 88(TM) system (copyright 1988, Gaussian, Inc.),
 the Gaussian 86(TM) system (copyright 1986, Carnegie Mellon
 University), and the Gaussian 82(TM) system (copyright 1983,
 Carnegie Mellon University). Gaussian is a federally registered
 trademark of Gaussian, Inc.
  
 This software contains proprietary and confidential information,
 including trade secrets, belonging to Gaussian, Inc.
  
 This software is provided under written license and may be
 used, copied, transmitted, or stored only in accord with that
 written license.
  
 The following legend is applicable only to US Government
 contracts under FAR:
  
                    RESTRICTED RIGHTS LEGEND
  
 Use, reproduction and disclosure by the US Government is
 subject to restrictions as set forth in subparagraphs (a)
 and (c) of the Commercial Computer Software - Restricted
 Rights clause in FAR 52.227-19.
  
 Gaussian, Inc.
 340 Quinnipiac St., Bldg. 40, Wallingford CT 06492
  
  
 ---------------------------------------------------------------
 Warning -- This program may not be used in any manner that
 competes with the business of Gaussian, Inc. or will provide
 assistance to any competitor of Gaussian, Inc.  The licensee
 of this program is prohibited from giving any competitor of
 Gaussian, Inc. access to this program.  By using this program,
 the user acknowledges that Gaussian, Inc. is engaged in the
 business of creating and licensing software in the field of
 computational chemistry and represents and warrants to the
 licensee that it is not a competitor of Gaussian, Inc. and that
 it will not use this program in any manner prohibited above.
 ---------------------------------------------------------------
  

 Cite this work as:
 Gaussian 16, Revision A.03,
 M. J. Frisch, G. W. Trucks, H. B. Schlegel, G. E. Scuseria, 
 M. A. Robb, J. R. Cheeseman, G. Scalmani, V. Barone, 
 G. A. Petersson, H. Nakatsuji, X. Li, M. Caricato, A. V. Marenich, 
 J. Bloino, B. G. Janesko, R. Gomperts, B. Mennucci, H. P. Hratchian, 
 J. V. Ortiz, A. F. Izmaylov, J. L. Sonnenberg, D. Williams-Young, 
 F. Ding, F. Lipparini, F. Egidi, J. Goings, B. Peng, A. Petrone, 
 T. Henderson, D. Ranasinghe, V. G. Zakrzewski, J. Gao, N. Rega, 
 G. Zheng, W. Liang, M. Hada, M. Ehara, K. Toyota, R. Fukuda, 
 J. Hasegawa, M. Ishida, T. Nakajima, Y. Honda, O. Kitao, H. Nakai, 
 T. Vreven, K. Throssell, J. A. Montgomery, Jr., J. E. Peralta, 
 F. Ogliaro, M. J. Bearpark, J. J. Heyd, E. N. Brothers, K. N. Kudin, 
 V. N. Staroverov, T. A. Keith, R. Kobayashi, J. Normand, 
 K. Raghavachari, A. P. Rendell, J. C. Burant, S. S. Iyengar, 
 J. Tomasi, M. Cossi, J. M. Millam, M. Klene, C. Adamo, R. Cammi, 
 J. W. Ochterski, R. L. Martin, K. Morokuma, O. Farkas, 
 J. B. Foresman, and D. J. Fox, Gaussian, Inc., Wallingford CT, 2016.
 
 ******************************************
 Gaussian 16:  ES64L-G16RevA.03 25-Dec-2016
                10-Jan-2024 
 ******************************************
 %chk=103.chk
 %nproc=8
 Will use up to    8 processors via shared memory.
 %mem=30GB
 --------------------------------------
 #P UB3LYP/6-311++G(d,p) nosym opt freq
 --------------------------------------
 1/18=20,19=15,26=3,38=1/1,3;
 2/9=110,12=2,15=1,17=6,18=5,40=1/2;
 3/5=4,6=6,7=1111,11=2,25=1,30=1,71=1,74=-5,116=2/1,2,3;
 4//1;
 5/5=2,38=5/2;
 6/7=2,8=2,9=2,10=2,28=1/1;
 7/30=1/1,2,3,16;
 1/18=20,19=15,26=3/3(2);
 2/9=110,15=1/2;
 99//99;
 2/9=110,15=1/2;
 3/5=4,6=6,7=1111,11=2,25=1,30=1,71=1,74=-5,116=2/1,2,3;
 4/5=5,16=3,69=1/1;
 5/5=2,38=5/2;
 7/30=1/1,2,3,16;
 1/18=20,19=15,26=3/3(-5);
 2/9=110,15=1/2;
 6/7=2,8=2,9=2,10=2,19=2,28=1/1;
 99/9=1/99;
 Leave Link    1 at Wed Jan 10 16:48:25 2024, MaxMem=  4026531840 cpu:               0.6 elap:               0.1
 (Enter /sysapps/ubuntu-applications/gaussian/Gaussian/AVX2/g16/l101.exe)
 --------
 Oxidized
 --------
 Symbolic Z-matrix:
 Charge =  0 Multiplicity = 1
 C                    -0.21624   1.71066   4.89022 
 C                     1.02752   1.12634   4.33973 
 C                     1.43295   1.23959   3.06104 
 C                     0.5227    1.99401   2.12413 
 C                    -0.75133   2.52315   2.64801 
 C                    -1.14027   2.41035   3.93571 
 O                    -0.45018   1.62395   6.08403 
 O                     0.7942    2.16214   0.94331 
 S                    -2.59565   3.25012   4.48181 
 C                    -3.43522   2.11196   5.7022 
 C                    -4.63968   2.89452   6.22848 
 C                    -3.83452   0.78749   5.05787 
 C                     2.74329   0.64889   2.53474 
 C                     3.51764  -0.083     3.64645 
 C                     3.64378   1.78578   1.98868 
 C                     2.44036  -0.37047   1.4075 
 H                     1.61149   0.60326   5.08607 
 H                    -1.36888   3.02239   1.90988 
 H                    -2.71925   1.94536   6.50335 
 H                    -4.33632   3.82671   6.71004 
 H                    -5.1671    2.28793   6.97016 
 H                    -5.34562   3.13246   5.42723 
 H                    -2.96744   0.23832   4.68516 
 H                    -4.52464   0.94471   4.22447 
 H                    -4.33213   0.15496   5.80078 
 H                     2.94919  -0.92061   4.06031 
 H                     3.79204   0.58722   4.46584 
 H                     4.44296  -0.48829   3.23 
 H                     3.86746   2.51583   2.7722 
 H                     3.17539   2.30252   1.15265 
 H                     4.5924    1.3625    1.64586 
 H                     1.80413  -1.18094   1.77554 
 H                     3.37777  -0.81398   1.05957 
 H                     1.94832   0.10288   0.55943 
 
 ITRead=  0  0  0  0  0  0  0  0  0  0  0  0  0  0  0  0  0  0  0  0
 ITRead=  0  0  0  0  0  0  0  0  0  0  0  0  0  0
 MicOpt= -1 -1 -1 -1 -1 -1 -1 -1 -1 -1 -1 -1 -1 -1 -1 -1 -1 -1 -1 -1
 MicOpt= -1 -1 -1 -1 -1 -1 -1 -1 -1 -1 -1 -1 -1 -1
 NAtoms=     34 NQM=       34 NQMF=       0 NMMI=      0 NMMIF=      0
                NMic=       0 NMicF=      0.
                    Isotopes and Nuclear Properties:
 (Nuclear quadrupole moments (NQMom) in fm**2, nuclear magnetic moments (NMagM)
  in nuclear magnetons)

  Atom         1           2           3           4           5           6           7           8           9          10
 IAtWgt=          12          12          12          12          12          12          16          16          32          12
 AtmWgt=  12.0000000  12.0000000  12.0000000  12.0000000  12.0000000  12.0000000  15.9949146  15.9949146  31.9720718  12.0000000
 NucSpn=           0           0           0           0           0           0           0           0           0           0
 AtZEff=  -0.0000000  -0.0000000  -0.0000000  -0.0000000  -0.0000000  -0.0000000  -0.0000000  -0.0000000  -0.0000000  -0.0000000
 NQMom=    0.0000000   0.0000000   0.0000000   0.0000000   0.0000000   0.0000000   0.0000000   0.0000000   0.0000000   0.0000000
 NMagM=    0.0000000   0.0000000   0.0000000   0.0000000   0.0000000   0.0000000   0.0000000   0.0000000   0.0000000   0.0000000
 AtZNuc=   6.0000000   6.0000000   6.0000000   6.0000000   6.0000000   6.0000000   8.0000000   8.0000000  16.0000000   6.0000000

  Atom        11          12          13          14          15          16          17          18          19          20
 IAtWgt=          12          12          12          12          12          12           1           1           1           1
 AtmWgt=  12.0000000  12.0000000  12.0000000  12.0000000  12.0000000  12.0000000   1.0078250   1.0078250   1.0078250   1.0078250
 NucSpn=           0           0           0           0           0           0           1           1           1           1
 AtZEff=  -0.0000000  -0.0000000  -0.0000000  -0.0000000  -0.0000000  -0.0000000  -0.0000000  -0.0000000  -0.0000000  -0.0000000
 NQMom=    0.0000000   0.0000000   0.0000000   0.0000000   0.0000000   0.0000000   0.0000000   0.0000000   0.0000000   0.0000000
 NMagM=    0.0000000   0.0000000   0.0000000   0.0000000   0.0000000   0.0000000   2.7928460   2.7928460   2.7928460   2.7928460
 AtZNuc=   6.0000000   6.0000000   6.0000000   6.0000000   6.0000000   6.0000000   1.0000000   1.0000000   1.0000000   1.0000000

  Atom        21          22          23          24          25          26          27          28          29          30
 IAtWgt=           1           1           1           1           1           1           1           1           1           1
 AtmWgt=   1.0078250   1.0078250   1.0078250   1.0078250   1.0078250   1.0078250   1.0078250   1.0078250   1.0078250   1.0078250
 NucSpn=           1           1           1           1           1           1           1           1           1           1
 AtZEff=  -0.0000000  -0.0000000  -0.0000000  -0.0000000  -0.0000000  -0.0000000  -0.0000000  -0.0000000  -0.0000000  -0.0000000
 NQMom=    0.0000000   0.0000000   0.0000000   0.0000000   0.0000000   0.0000000   0.0000000   0.0000000   0.0000000   0.0000000
 NMagM=    2.7928460   2.7928460   2.7928460   2.7928460   2.7928460   2.7928460   2.7928460   2.7928460   2.7928460   2.7928460
 AtZNuc=   1.0000000   1.0000000   1.0000000   1.0000000   1.0000000   1.0000000   1.0000000   1.0000000   1.0000000   1.0000000

  Atom        31          32          33          34
 IAtWgt=           1           1           1           1
 AtmWgt=   1.0078250   1.0078250   1.0078250   1.0078250
 NucSpn=           1           1           1           1
 AtZEff=  -0.0000000  -0.0000000  -0.0000000  -0.0000000
 NQMom=    0.0000000   0.0000000   0.0000000   0.0000000
 NMagM=    2.7928460   2.7928460   2.7928460   2.7928460
 AtZNuc=   1.0000000   1.0000000   1.0000000   1.0000000
 Leave Link  101 at Wed Jan 10 16:48:25 2024, MaxMem=  4026531840 cpu:               3.2 elap:               0.5
 (Enter /sysapps/ubuntu-applications/gaussian/Gaussian/AVX2/g16/l103.exe)

 GradGradGradGradGradGradGradGradGradGradGradGradGradGradGradGradGradGrad
 Berny optimization.
 Initialization pass.
                           ----------------------------
                           !    Initial Parameters    !
                           ! (Angstroms and Degrees)  !
 --------------------------                            --------------------------
 ! Name  Definition              Value          Derivative Info.                !
 --------------------------------------------------------------------------------
 ! R1    R(1,2)                  1.4803         estimate D2E/DX2                !
 ! R2    R(1,6)                  1.5015         estimate D2E/DX2                !
 ! R3    R(1,7)                  1.2196         estimate D2E/DX2                !
 ! R4    R(2,3)                  1.3462         estimate D2E/DX2                !
 ! R5    R(2,17)                 1.0824         estimate D2E/DX2                !
 ! R6    R(3,4)                  1.5085         estimate D2E/DX2                !
 ! R7    R(3,13)                 1.5307         estimate D2E/DX2                !
 ! R8    R(4,5)                  1.4757         estimate D2E/DX2                !
 ! R9    R(4,8)                  1.2232         estimate D2E/DX2                !
 ! R10   R(5,6)                  1.3499         estimate D2E/DX2                !
 ! R11   R(5,18)                 1.0842         estimate D2E/DX2                !
 ! R12   R(6,9)                  1.7668         estimate D2E/DX2                !
 ! R13   R(9,10)                 1.8681         estimate D2E/DX2                !
 ! R14   R(10,11)                1.5297         estimate D2E/DX2                !
 ! R15   R(10,12)                1.526          estimate D2E/DX2                !
 ! R16   R(10,19)                1.0873         estimate D2E/DX2                !
 ! R17   R(11,20)                1.0922         estimate D2E/DX2                !
 ! R18   R(11,21)                1.0937         estimate D2E/DX2                !
 ! R19   R(11,22)                1.0941         estimate D2E/DX2                !
 ! R20   R(12,23)                1.0919         estimate D2E/DX2                !
 ! R21   R(12,24)                1.0934         estimate D2E/DX2                !
 ! R22   R(12,25)                1.0953         estimate D2E/DX2                !
 ! R23   R(13,14)                1.5399         estimate D2E/DX2                !
 ! R24   R(13,15)                1.5497         estimate D2E/DX2                !
 ! R25   R(13,16)                1.5497         estimate D2E/DX2                !
 ! R26   R(14,26)                1.0936         estimate D2E/DX2                !
 ! R27   R(14,27)                1.0936         estimate D2E/DX2                !
 ! R28   R(14,28)                1.0927         estimate D2E/DX2                !
 ! R29   R(15,29)                1.094          estimate D2E/DX2                !
 ! R30   R(15,30)                1.0887         estimate D2E/DX2                !
 ! R31   R(15,31)                1.0939         estimate D2E/DX2                !
 ! R32   R(16,32)                1.0941         estimate D2E/DX2                !
 ! R33   R(16,33)                1.0938         estimate D2E/DX2                !
 ! R34   R(16,34)                1.0888         estimate D2E/DX2                !
 ! A1    A(2,1,6)              117.6836         estimate D2E/DX2                !
 ! A2    A(2,1,7)              119.8085         estimate D2E/DX2                !
 ! A3    A(6,1,7)              122.5036         estimate D2E/DX2                !
 ! A4    A(1,2,3)              124.9637         estimate D2E/DX2                !
 ! A5    A(1,2,17)             112.8063         estimate D2E/DX2                !
 ! A6    A(3,2,17)             122.215          estimate D2E/DX2                !
 ! A7    A(2,3,4)              116.7623         estimate D2E/DX2                !
 ! A8    A(2,3,13)             123.5016         estimate D2E/DX2                !
 ! A9    A(4,3,13)             119.7361         estimate D2E/DX2                !
 ! A10   A(3,4,5)              118.6724         estimate D2E/DX2                !
 ! A11   A(3,4,8)              122.3011         estimate D2E/DX2                !
 ! A12   A(5,4,8)              119.0152         estimate D2E/DX2                !
 ! A13   A(4,5,6)              123.8802         estimate D2E/DX2                !
 ! A14   A(4,5,18)             114.5307         estimate D2E/DX2                !
 ! A15   A(6,5,18)             121.5891         estimate D2E/DX2                !
 ! A16   A(1,6,5)              117.9078         estimate D2E/DX2                !
 ! A17   A(1,6,9)              122.1359         estimate D2E/DX2                !
 ! A18   A(5,6,9)              119.5038         estimate D2E/DX2                !
 ! A19   A(6,9,10)             106.4124         estimate D2E/DX2                !
 ! A20   A(9,10,11)            105.4821         estimate D2E/DX2                !
 ! A21   A(9,10,12)            111.7503         estimate D2E/DX2                !
 ! A22   A(9,10,19)            106.1869         estimate D2E/DX2                !
 ! A23   A(11,10,12)           112.5346         estimate D2E/DX2                !
 ! A24   A(11,10,19)           110.0814         estimate D2E/DX2                !
 ! A25   A(12,10,19)           110.5126         estimate D2E/DX2                !
 ! A26   A(10,11,20)           111.6924         estimate D2E/DX2                !
 ! A27   A(10,11,21)           109.2241         estimate D2E/DX2                !
 ! A28   A(10,11,22)           111.5517         estimate D2E/DX2                !
 ! A29   A(20,11,21)           107.9579         estimate D2E/DX2                !
 ! A30   A(20,11,22)           108.4513         estimate D2E/DX2                !
 ! A31   A(21,11,22)           107.8238         estimate D2E/DX2                !
 ! A32   A(10,12,23)           111.8911         estimate D2E/DX2                !
 ! A33   A(10,12,24)           111.2336         estimate D2E/DX2                !
 ! A34   A(10,12,25)           109.4945         estimate D2E/DX2                !
 ! A35   A(23,12,24)           108.2611         estimate D2E/DX2                !
 ! A36   A(23,12,25)           107.5682         estimate D2E/DX2                !
 ! A37   A(24,12,25)           108.2564         estimate D2E/DX2                !
 ! A38   A(3,13,14)            111.4488         estimate D2E/DX2                !
 ! A39   A(3,13,15)            109.6021         estimate D2E/DX2                !
 ! A40   A(3,13,16)            109.671          estimate D2E/DX2                !
 ! A41   A(14,13,15)           108.1114         estimate D2E/DX2                !
 ! A42   A(14,13,16)           108.1077         estimate D2E/DX2                !
 ! A43   A(15,13,16)           109.8671         estimate D2E/DX2                !
 ! A44   A(13,14,26)           112.0768         estimate D2E/DX2                !
 ! A45   A(13,14,27)           112.0757         estimate D2E/DX2                !
 ! A46   A(13,14,28)           109.0862         estimate D2E/DX2                !
 ! A47   A(26,14,27)           108.4379         estimate D2E/DX2                !
 ! A48   A(26,14,28)           107.477          estimate D2E/DX2                !
 ! A49   A(27,14,28)           107.4829         estimate D2E/DX2                !
 ! A50   A(13,15,29)           110.854          estimate D2E/DX2                !
 ! A51   A(13,15,30)           111.6401         estimate D2E/DX2                !
 ! A52   A(13,15,31)           109.2973         estimate D2E/DX2                !
 ! A53   A(29,15,30)           108.7345         estimate D2E/DX2                !
 ! A54   A(29,15,31)           107.7798         estimate D2E/DX2                !
 ! A55   A(30,15,31)           108.4268         estimate D2E/DX2                !
 ! A56   A(13,16,32)           110.8697         estimate D2E/DX2                !
 ! A57   A(13,16,33)           109.3025         estimate D2E/DX2                !
 ! A58   A(13,16,34)           111.6512         estimate D2E/DX2                !
 ! A59   A(32,16,33)           107.7571         estimate D2E/DX2                !
 ! A60   A(32,16,34)           108.7401         estimate D2E/DX2                !
 ! A61   A(33,16,34)           108.4099         estimate D2E/DX2                !
 ! D1    D(6,1,2,3)              4.0136         estimate D2E/DX2                !
 ! D2    D(6,1,2,17)          -177.3759         estimate D2E/DX2                !
 ! D3    D(7,1,2,3)           -175.2526         estimate D2E/DX2                !
 ! D4    D(7,1,2,17)             3.3579         estimate D2E/DX2                !
 ! D5    D(2,1,6,5)             -3.2398         estimate D2E/DX2                !
 ! D6    D(2,1,6,9)           -175.4768         estimate D2E/DX2                !
 ! D7    D(7,1,6,5)            176.0051         estimate D2E/DX2                !
 ! D8    D(7,1,6,9)              3.7682         estimate D2E/DX2                !
 ! D9    D(1,2,3,4)             -1.5461         estimate D2E/DX2                !
 ! D10   D(1,2,3,13)           178.5069         estimate D2E/DX2                !
 ! D11   D(17,2,3,4)           179.9679         estimate D2E/DX2                !
 ! D12   D(17,2,3,13)            0.0209         estimate D2E/DX2                !
 ! D13   D(2,3,4,5)             -1.5309         estimate D2E/DX2                !
 ! D14   D(2,3,4,8)            179.7019         estimate D2E/DX2                !
 ! D15   D(13,3,4,5)           178.4182         estimate D2E/DX2                !
 ! D16   D(13,3,4,8)            -0.349          estimate D2E/DX2                !
 ! D17   D(2,3,13,14)            0.1829         estimate D2E/DX2                !
 ! D18   D(2,3,13,15)         -119.4512         estimate D2E/DX2                !
 ! D19   D(2,3,13,16)          119.8575         estimate D2E/DX2                !
 ! D20   D(4,3,13,14)         -179.7626         estimate D2E/DX2                !
 ! D21   D(4,3,13,15)           60.6033         estimate D2E/DX2                !
 ! D22   D(4,3,13,16)          -60.088          estimate D2E/DX2                !
 ! D23   D(3,4,5,6)              2.1598         estimate D2E/DX2                !
 ! D24   D(3,4,5,18)          -177.9124         estimate D2E/DX2                !
 ! D25   D(8,4,5,6)           -179.0317         estimate D2E/DX2                !
 ! D26   D(8,4,5,18)             0.896          estimate D2E/DX2                !
 ! D27   D(4,5,6,1)              0.3267         estimate D2E/DX2                !
 ! D28   D(4,5,6,9)            172.7748         estimate D2E/DX2                !
 ! D29   D(18,5,6,1)          -179.5961         estimate D2E/DX2                !
 ! D30   D(18,5,6,9)            -7.148          estimate D2E/DX2                !
 ! D31   D(1,6,9,10)           -45.1436         estimate D2E/DX2                !
 ! D32   D(5,6,9,10)           142.7395         estimate D2E/DX2                !
 ! D33   D(6,9,10,11)          176.4263         estimate D2E/DX2                !
 ! D34   D(6,9,10,12)          -60.9812         estimate D2E/DX2                !
 ! D35   D(6,9,10,19)           59.5931         estimate D2E/DX2                !
 ! D36   D(9,10,11,20)         -59.4261         estimate D2E/DX2                !
 ! D37   D(9,10,11,21)        -178.7751         estimate D2E/DX2                !
 ! D38   D(9,10,11,22)          62.13           estimate D2E/DX2                !
 ! D39   D(12,10,11,20)        178.4855         estimate D2E/DX2                !
 ! D40   D(12,10,11,21)         59.1365         estimate D2E/DX2                !
 ! D41   D(12,10,11,22)        -59.9584         estimate D2E/DX2                !
 ! D42   D(19,10,11,20)         54.7318         estimate D2E/DX2                !
 ! D43   D(19,10,11,21)        -64.6172         estimate D2E/DX2                !
 ! D44   D(19,10,11,22)        176.2879         estimate D2E/DX2                !
 ! D45   D(9,10,12,23)          61.4716         estimate D2E/DX2                !
 ! D46   D(9,10,12,24)         -59.7547         estimate D2E/DX2                !
 ! D47   D(9,10,12,25)        -179.3635         estimate D2E/DX2                !
 ! D48   D(11,10,12,23)        179.9413         estimate D2E/DX2                !
 ! D49   D(11,10,12,24)         58.715          estimate D2E/DX2                !
 ! D50   D(11,10,12,25)        -60.8938         estimate D2E/DX2                !
 ! D51   D(19,10,12,23)        -56.5448         estimate D2E/DX2                !
 ! D52   D(19,10,12,24)       -177.7711         estimate D2E/DX2                !
 ! D53   D(19,10,12,25)         62.6201         estimate D2E/DX2                !
 ! D54   D(3,13,14,26)          61.0902         estimate D2E/DX2                !
 ! D55   D(3,13,14,27)         -61.1041         estimate D2E/DX2                !
 ! D56   D(3,13,14,28)         179.9898         estimate D2E/DX2                !
 ! D57   D(15,13,14,26)       -178.3964         estimate D2E/DX2                !
 ! D58   D(15,13,14,27)         59.4093         estimate D2E/DX2                !
 ! D59   D(15,13,14,28)        -59.4969         estimate D2E/DX2                !
 ! D60   D(16,13,14,26)        -59.5059         estimate D2E/DX2                !
 ! D61   D(16,13,14,27)        178.2998         estimate D2E/DX2                !
 ! D62   D(16,13,14,28)         59.3937         estimate D2E/DX2                !
 ! D63   D(3,13,15,29)          59.3961         estimate D2E/DX2                !
 ! D64   D(3,13,15,30)         -61.9962         estimate D2E/DX2                !
 ! D65   D(3,13,15,31)         178.0555         estimate D2E/DX2                !
 ! D66   D(14,13,15,29)        -62.264          estimate D2E/DX2                !
 ! D67   D(14,13,15,30)        176.3436         estimate D2E/DX2                !
 ! D68   D(14,13,15,31)         56.3953         estimate D2E/DX2                !
 ! D69   D(16,13,15,29)        179.9684         estimate D2E/DX2                !
 ! D70   D(16,13,15,30)         58.5761         estimate D2E/DX2                !
 ! D71   D(16,13,15,31)        -61.3722         estimate D2E/DX2                !
 ! D72   D(3,13,16,32)         -59.4282         estimate D2E/DX2                !
 ! D73   D(3,13,16,33)        -178.0725         estimate D2E/DX2                !
 ! D74   D(3,13,16,34)          61.9898         estimate D2E/DX2                !
 ! D75   D(14,13,16,32)         62.2713         estimate D2E/DX2                !
 ! D76   D(14,13,16,33)        -56.373          estimate D2E/DX2                !
 ! D77   D(14,13,16,34)       -176.3107         estimate D2E/DX2                !
 ! D78   D(15,13,16,32)       -179.9588         estimate D2E/DX2                !
 ! D79   D(15,13,16,33)         61.3969         estimate D2E/DX2                !
 ! D80   D(15,13,16,34)        -58.5408         estimate D2E/DX2                !
 --------------------------------------------------------------------------------
 Trust Radius=3.00D-01 FncErr=1.00D-07 GrdErr=1.00D-06 EigMax=2.50D+02 EigMin=1.00D-04
 Number of steps in this run=    185 maximum allowed number of steps=    204.
 GradGradGradGradGradGradGradGradGradGradGradGradGradGradGradGradGradGrad

 Leave Link  103 at Wed Jan 10 16:48:25 2024, MaxMem=  4026531840 cpu:               0.3 elap:               0.1
 (Enter /sysapps/ubuntu-applications/gaussian/Gaussian/AVX2/g16/l202.exe)
                          Input orientation:                          
 ---------------------------------------------------------------------
 Center     Atomic      Atomic             Coordinates (Angstroms)
 Number     Number       Type             X           Y           Z
 ---------------------------------------------------------------------
      1          6           0       -0.216239    1.710661    4.890223
      2          6           0        1.027519    1.126340    4.339726
      3          6           0        1.432954    1.239588    3.061044
      4          6           0        0.522704    1.994007    2.124130
      5          6           0       -0.751332    2.523145    2.648014
      6          6           0       -1.140271    2.410346    3.935707
      7          8           0       -0.450179    1.623945    6.084027
      8          8           0        0.794204    2.162137    0.943309
      9         16           0       -2.595647    3.250124    4.481813
     10          6           0       -3.435222    2.111957    5.702197
     11          6           0       -4.639676    2.894522    6.228484
     12          6           0       -3.834515    0.787488    5.057869
     13          6           0        2.743287    0.648892    2.534736
     14          6           0        3.517644   -0.082999    3.646450
     15          6           0        3.643784    1.785777    1.988675
     16          6           0        2.440360   -0.370467    1.407502
     17          1           0        1.611492    0.603257    5.086070
     18          1           0       -1.368880    3.022388    1.909875
     19          1           0       -2.719253    1.945356    6.503346
     20          1           0       -4.336321    3.826711    6.710036
     21          1           0       -5.167101    2.287926    6.970160
     22          1           0       -5.345621    3.132459    5.427233
     23          1           0       -2.967439    0.238320    4.685163
     24          1           0       -4.524636    0.944705    4.224472
     25          1           0       -4.332132    0.154955    5.800778
     26          1           0        2.949188   -0.920609    4.060310
     27          1           0        3.792037    0.587216    4.465836
     28          1           0        4.442958   -0.488294    3.229998
     29          1           0        3.867464    2.515828    2.772201
     30          1           0        3.175387    2.302520    1.152649
     31          1           0        4.592395    1.362500    1.645858
     32          1           0        1.804132   -1.180937    1.775541
     33          1           0        3.377772   -0.813982    1.059573
     34          1           0        1.948324    0.102884    0.559433
 ---------------------------------------------------------------------
                    Distance matrix (angstroms):
                    1          2          3          4          5
     1  C    0.000000
     2  C    1.480342   0.000000
     3  C    2.507517   1.346191   0.000000
     4  C    2.877080   2.432396   1.508480   0.000000
     5  C    2.444168   2.824405   2.566947   1.475672   0.000000
     6  C    1.501498   2.551708   2.959256   2.494120   1.349871
     7  O    1.219596   2.339613   3.582226   4.094415   3.564469
     8  O    4.099141   3.558505   2.396643   1.223241   2.329169
     9  S    2.863272   4.202140   4.721278   4.106168   2.700521
    10  C    3.343978   4.769049   5.606769   5.336821   4.086609
    11  C    4.770667   6.229845   7.046156   6.656337   5.298765
    12  C    3.737951   4.926452   5.651366   5.389608   4.280879
    13  C    3.928672   2.535706   1.530652   2.628483   3.967117
    14  C    4.325051   2.853744   2.537296   3.949820   5.100296
    15  C    4.829534   3.578707   2.517155   3.130950   4.505051
    16  C    4.849532   3.582525   2.518203   3.127571   4.483164
    17  H    2.145996   1.082437   2.130146   3.448584   3.900388
    18  H    3.454227   3.904088   3.514803   2.163692   1.084186
    19  H    2.987026   4.403446   5.439520   5.448870   4.366937
    20  H    4.976391   6.456094   7.300197   6.928164   5.572383
    21  H    5.400964   6.829479   7.742153   7.479591   6.183469
    22  H    5.349808   6.769350   7.425018   6.829627   5.403963
    23  H    3.127130   4.107018   4.796223   4.671448   3.779091
    24  H    4.426307   5.556321   6.077286   5.566697   4.383437
    25  H    4.493318   5.639514   6.474472   6.361547   5.326385
    26  H    4.199079   2.821504   2.822047   4.258122   5.248606
    27  H    4.184317   2.819418   2.822110   4.260421   5.262556
    28  H    5.412935   3.937482   3.474802   4.770027   6.032257
    29  H    4.670219   3.528895   2.763885   3.446696   4.620471
    30  H    5.081622   4.019228   2.794256   2.841775   4.207602
    31  H    5.811203   4.474487   3.464091   4.146074   5.559391
    32  H    4.705792   3.535774   2.765725   3.441488   4.583866
    33  H    5.827917   4.477493   3.464874   4.143609   5.541576
    34  H    5.101571   4.023178   2.795668   2.838488   4.184253
                    6          7          8          9         10
     6  C    0.000000
     7  O    2.389546   0.000000
     8  O    3.571869   5.316495   0.000000
     9  S    1.766799   3.132823   5.019543   0.000000
    10  C    2.911413   3.048677   6.366913   1.868060   0.000000
    11  C    4.211542   4.380310   7.615544   2.712078   1.529737
    12  C    3.339441   3.634060   6.343840   2.816240   1.526044
    13  C    4.488593   4.873030   2.936235   6.249939   7.095586
    14  C    5.291182   4.959744   4.445754   7.012836   7.575373
    15  C    5.202711   5.792981   3.058520   6.876812   8.000560
    16  C    5.190921   5.848314   3.056041   6.922531   7.689558
    17  H    3.487278   2.507630   4.501170   5.007100   5.303311
    18  H    2.128580   4.497021   2.520558   2.858616   4.413656
    19  H    3.049946   2.329770   6.580683   2.409210   1.087294
    20  H    4.462928   4.510672   7.896090   2.885719   2.183598
    21  H    5.043635   4.845148   8.477966   3.705411   2.153625
    22  H    4.520074   5.164528   7.664499   2.910330   2.183267
    23  H    2.935630   3.195837   5.643802   3.041471   2.182589
    24  H    3.699380   4.529957   6.366964   3.016982   2.175539
    25  H    4.330503   4.160255   7.341873   3.786175   2.154999
    26  H    5.275838   4.703816   4.884974   6.951106   7.256235
    27  H    5.285121   4.657225   4.886264   6.920538   7.489105
    28  H    6.330291   6.045645   5.056396   8.067513   8.656720
    29  H    5.142206   5.514135   3.593727   6.725605   7.878909
    30  H    5.136335   6.158221   2.394486   6.729496   8.027132
    31  H    6.261378   6.722593   3.944521   7.954478   9.025420
    32  H    5.121830   5.613585   3.590085   6.805605   7.328889
    33  H    6.251492   6.770660   3.942794   7.994399   8.748255
    34  H    5.124746   6.211890   2.391626   6.777747   7.711483
                   11         12         13         14         15
    11  C    0.000000
    12  C    2.541302   0.000000
    13  C    8.555394   7.046481   0.000000
    14  C    9.059492   7.536849   1.539871   0.000000
    15  C    9.371286   8.145028   1.549705   2.501290   0.000000
    16  C    9.166730   7.351197   1.549682   2.501213   2.536805
    17  H    6.755154   5.449195   2.791478   2.485331   3.888756
    18  H    5.418933   4.580830   4.788930   6.044604   5.163547
    19  H    2.159743   2.161914   6.875320   7.153668   7.803586
    20  H    1.092196   3.495474   8.812066   9.292801   9.494142
    21  H    1.093718   2.771995   9.215946   9.596517  10.134054
    22  H    1.094064   2.814029   8.942319   9.595198   9.718366
    23  H    3.497660   1.091932   6.115987   6.575597   7.305747
    24  H    2.798408   1.093405   7.467625   8.128256   8.510539
    25  H    2.789757   1.095278   7.808493   8.143509   8.989268
    26  H    8.766245   7.066212   2.198432   1.093624   3.478313
    27  H    8.917644   7.652118   2.198369   1.093560   2.755876
    28  H   10.145373   8.572356   2.159968   1.092658   2.711266
    29  H    9.190252   8.217781   2.192171   2.764161   1.094038
    30  H    9.337547   8.166076   2.198036   3.467980   1.088742
    31  H   10.420110   9.109625   2.172220   2.692011   1.093869
    32  H    8.829537   6.814889   2.192410   2.764397   3.497304
    33  H   10.234750   8.400486   2.172252   2.691808   2.773579
    34  H    9.128698   7.358385   2.198161   3.467995   2.783783
                   16         17         18         19         20
    16  C    0.000000
    17  H    3.894486   0.000000
    18  H    5.125832   4.982271   0.000000
    19  H    7.612639   4.750290   4.907492   0.000000
    20  H    9.573744   6.957327   5.700367   2.489403   0.000000
    21  H    9.792021   7.234447   6.369647   2.515398   1.767970
    22  H    9.436643   7.410444   5.310216   3.076531   1.773769
    23  H    6.352793   4.610913   4.243660   2.506264   4.341716
    24  H    7.627330   6.205724   4.430905   3.074732   3.810440
    25  H    8.089721   6.003203   5.669406   2.510083   3.782666
    26  H    2.756620   2.272396   6.230354   6.805395   9.090475
    27  H    3.478160   2.267096   6.252844   6.956500   9.033325
    28  H    2.710309   3.557202   6.917013   8.242252  10.382951
    29  H    3.497103   3.755173   5.330995   7.591556   9.193859
    30  H    2.783896   4.561257   4.662828   7.968959   9.467495
    31  H    2.773309   4.614899   6.193685   8.797449  10.556524
    32  H    1.094121   3.765642   5.268206   7.251680   9.334396
    33  H    1.093847   4.619631   6.162098   8.626837  10.628781
    34  H    1.088752   4.566648   4.620719   7.778887   9.549532
                   21         22         23         24         25
    21  H    0.000000
    22  H    1.767973   0.000000
    23  H    3.776322   3.818698   0.000000
    24  H    3.123429   2.628102   1.770898   0.000000
    25  H    2.571807   3.167369   1.764634   1.773557   0.000000
    26  H    9.199786   9.332722   6.061356   7.704829   7.563312
    27  H    9.456755   9.534115   6.772027   8.327851   8.244455
    28  H   10.679393  10.665551   7.586795   9.135656   9.166509
    29  H    9.964846   9.607828   7.454017   8.660535   9.054246
    30  H   10.170583   9.569140   7.380643   8.400602   9.087353
    31  H   11.155822  10.779412   8.225099   9.483884   9.918100
    32  H    9.360297   9.113682   5.766115   7.111183   7.459281
    33  H   10.843050  10.523708   7.383356   8.692389   9.102773
    34  H    9.823497   9.277685   6.419090   7.486013   8.180375
                   26         27         28         29         30
    26  H    0.000000
    27  H    1.774368   0.000000
    28  H    1.762857   1.762871   0.000000
    29  H    3.783062   2.567807   3.092818   0.000000
    30  H    4.346748   3.781499   3.702804   1.774097   0.000000
    31  H    3.707060   3.032147   2.440752   1.767580   1.770538
    32  H    2.568870   3.783625   3.091699   4.349338   3.795103
    33  H    3.033064   3.706427   2.439557   3.776311   3.124453
    34  H    3.782249   4.346704   3.701973   3.794962   2.587661
                   31         32         33         34
    31  H    0.000000
    32  H    3.776281   0.000000
    33  H    2.560491   1.767373   0.000000
    34  H    3.123790   1.774234   1.770340   0.000000
 Symmetry turned off by external request.
 Stoichiometry    C13H18O2S
 Framework group  C1[X(C13H18O2S)]
 Deg. of freedom    96
 Full point group                 C1      NOp   1
 Rotational constants (GHZ):           1.1084608           0.2335659           0.2150686
 Leave Link  202 at Wed Jan 10 16:48:25 2024, MaxMem=  4026531840 cpu:               0.4 elap:               0.1
 (Enter /sysapps/ubuntu-applications/gaussian/Gaussian/AVX2/g16/l301.exe)
 Standard basis: 6-311++G(d,p) (5D, 7F)
 Ernie: Thresh=  0.10000D-02 Tol=  0.10000D-05 Strict=F.
   486 basis functions,   752 primitive gaussians,   502 cartesian basis functions
    64 alpha electrons       64 beta electrons
       nuclear repulsion energy      1220.1436602308 Hartrees.
 IExCor=  402 DFT=T Ex+Corr=B3LYP ExCW=0 ScaHFX=  0.200000
 ScaDFX=  0.800000  0.720000  1.000000  0.810000 ScalE2=  1.000000  1.000000
 IRadAn=      5 IRanWt=     -1 IRanGd=            0 ICorTp=0 IEmpDi=  4
 NAtoms=   34 NActive=   34 NUniq=   34 SFac= 1.00D+00 NAtFMM=   60 NAOKFM=F Big=F
 Integral buffers will be    131072 words long.
 Raffenetti 2 integral format.
 Two-electron integral symmetry is turned off.
 Leave Link  301 at Wed Jan 10 16:48:26 2024, MaxMem=  4026531840 cpu:               0.4 elap:               0.1
 (Enter /sysapps/ubuntu-applications/gaussian/Gaussian/AVX2/g16/l302.exe)
 NPDir=0 NMtPBC=     1 NCelOv=     1 NCel=       1 NClECP=     1 NCelD=      1
         NCelK=      1 NCelE2=     1 NClLst=     1 CellRange=     0.0.
 One-electron integrals computed using PRISM.
 NBasis=   486 RedAO= T EigKep=  1.28D-06  NBF=   486
 NBsUse=   484 1.00D-06 EigRej=  5.17D-07 NBFU=   484
 Precomputing XC quadrature grid using
 IXCGrd= 4 IRadAn=           5 IRanWt=          -1 IRanGd=           0 AccXCQ= 0.00D+00.
 Generated NRdTot=       0 NPtTot=           0 NUsed=           0 NTot=          32
 NSgBfM=   501   501   501   501   501 MxSgAt=    34 MxSgA2=    34.
 Leave Link  302 at Wed Jan 10 16:48:27 2024, MaxMem=  4026531840 cpu:               7.3 elap:               1.2
 (Enter /sysapps/ubuntu-applications/gaussian/Gaussian/AVX2/g16/l303.exe)
 DipDrv:  MaxL=1.
 Leave Link  303 at Wed Jan 10 16:48:27 2024, MaxMem=  4026531840 cpu:               1.7 elap:               0.4
 (Enter /sysapps/ubuntu-applications/gaussian/Gaussian/AVX2/g16/l401.exe)
 ExpMin= 3.60D-02 ExpMax= 9.34D+04 ExpMxC= 3.17D+03 IAcc=3 IRadAn=         5 AccDes= 0.00D+00
 Harris functional with IExCor=  402 and IRadAn=       5 diagonalized for initial guess.
 HarFok:  IExCor=  402 AccDes= 0.00D+00 IRadAn=         5 IDoV= 1 UseB2=F ITyADJ=14
 ICtDFT=  3500011 ScaDFX=  1.000000  1.000000  1.000000  1.000000
 FoFCou: FMM=F IPFlag=           0 FMFlag=      100000 FMFlg1=           0
         NFxFlg=           0 DoJE=T BraDBF=F KetDBF=T FulRan=T
         wScrn=  0.000000 ICntrl=       500 IOpCl=  0 I1Cent=   200000004 NGrid=           0
         NMat0=    1 NMatS0=      1 NMatT0=    0 NMatD0=    1 NMtDS0=    0 NMtDT0=    0
 Symmetry not used in FoFCou.
 Harris En= -1055.11316294979    
 JPrj=0 DoOrth=F DoCkMO=F.
 Initial guess <Sx>= 0.0000 <Sy>= 0.0000 <Sz>= 0.0000 <S**2>=-0.0000 S=-0.0000
 Leave Link  401 at Wed Jan 10 16:48:35 2024, MaxMem=  4026531840 cpu:              64.3 elap:               8.3
 (Enter /sysapps/ubuntu-applications/gaussian/Gaussian/AVX2/g16/l502.exe)
 Two-electron integral symmetry not used.
 UHF open shell SCF:
 Using DIIS extrapolation, IDIIS=  1040.
 NGot=  4026531840 LenX=  4026020080 LenY=  4025767574
 Requested convergence on RMS density matrix=1.00D-08 within 128 cycles.
 Requested convergence on MAX density matrix=1.00D-06.
 Requested convergence on             energy=1.00D-06.
 No special actions if energy rises.
 Fock matrices will be formed incrementally for  20 cycles.

 Cycle   1  Pass 1  IDiag  1:
 FoFJK:  IHMeth= 1 ICntrl=       0 DoSepK=F KAlg= 0 I1Cent=           0 FoldK=F
 IRaf= 850000000 NMat=       1 IRICut=       1 DoRegI=T DoRafI=F ISym2E= 0 IDoP0=0 IntGTp=1.
 FoFCou: FMM=F IPFlag=           0 FMFlag=      100000 FMFlg1=           0
         NFxFlg=           0 DoJE=F BraDBF=F KetDBF=F FulRan=T
         wScrn=  0.000000 ICntrl=         0 IOpCl=  1 I1Cent=           0 NGrid=           0
         NMat0=    1 NMatS0=      1 NMatT0=    0 NMatD0=    1 NMtDS0=    0 NMtDT0=    0
 Symmetry not used in FoFCou.
 E= -1054.40746885175    
 DIIS: error= 2.87D-02 at cycle   1 NSaved=   1.
 NSaved= 1 IEnMin= 1 EnMin= -1054.40746885175     IErMin= 1 ErrMin= 2.87D-02
 ErrMax= 2.87D-02  0.00D+00 EMaxC= 1.00D-01 BMatC= 2.83D+00 BMatP= 2.83D+00
 IDIUse=3 WtCom= 7.13D-01 WtEn= 2.87D-01
 Coeff-Com:  0.100D+01
 Coeff-En:   0.100D+01
 Coeff:      0.100D+01
 Gap=     0.182 Goal=   None    Shift=    0.000
 Gap=     0.182 Goal=   None    Shift=    0.000
 GapD=    0.182 DampG=1.000 DampE=0.500 DampFc=0.5000 IDamp=-1.
 Damping current iteration by 5.00D-01
 RMSDP=9.20D-02 MaxDP=1.07D+01              OVMax= 4.79D-01

 Cycle   2  Pass 1  IDiag  1:
 RMSU=  4.10D-02    CP:  1.57D+00
 E= -1054.48878255179     Delta-E=       -0.081313700047 Rises=F Damp=T
 DIIS: error= 1.54D-02 at cycle   2 NSaved=   2.
 NSaved= 2 IEnMin= 2 EnMin= -1054.48878255179     IErMin= 2 ErrMin= 1.54D-02
 ErrMax= 1.54D-02  0.00D+00 EMaxC= 1.00D-01 BMatC= 6.03D-01 BMatP= 2.83D+00
 IDIUse=3 WtCom= 8.46D-01 WtEn= 1.54D-01
 Coeff-Com:  0.250D+00 0.750D+00
 Coeff-En:   0.441D+00 0.559D+00
 Coeff:      0.280D+00 0.720D+00
 Gap=     0.241 Goal=   None    Shift=    0.000
 Gap=     0.241 Goal=   None    Shift=    0.000
 RMSDP=4.70D-02 MaxDP=5.55D+00 DE=-8.13D-02 OVMax= 3.53D-01

 Cycle   3  Pass 1  IDiag  1:
 RMSU=  9.57D-03    CP:  8.60D-01  7.44D-02
 E= -1054.84743458771     Delta-E=       -0.358652035919 Rises=F Damp=F
 DIIS: error= 2.05D-02 at cycle   3 NSaved=   3.
 NSaved= 3 IEnMin= 3 EnMin= -1054.84743458771     IErMin= 2 ErrMin= 1.54D-02
 ErrMax= 2.05D-02  0.00D+00 EMaxC= 1.00D-01 BMatC= 8.19D-01 BMatP= 6.03D-01
 IDIUse=2 WtCom= 0.00D+00 WtEn= 1.00D+00
 Coeff-En:   0.000D+00 0.825D-01 0.917D+00
 Coeff:      0.000D+00 0.825D-01 0.917D+00
 Gap=     0.142 Goal=   None    Shift=    0.000
 Gap=     0.142 Goal=   None    Shift=    0.000
 RMSDP=2.00D-02 MaxDP=1.97D+00 DE=-3.59D-01 OVMax= 8.44D-01

 Cycle   4  Pass 1  IDiag  1:
 RMSU=  1.49D-02    CP:  1.13D+00  1.19D-01  5.87D-02
 E= -1051.92621523679     Delta-E=        2.921219350927 Rises=F Damp=F
 DIIS: error= 1.10D-01 at cycle   4 NSaved=   4.
 NSaved= 4 IEnMin= 3 EnMin= -1054.84743458771     IErMin= 2 ErrMin= 1.54D-02
 ErrMax= 1.10D-01  0.00D+00 EMaxC= 1.00D-01 BMatC= 9.37D+00 BMatP= 6.03D-01
 IDIUse=2 WtCom= 0.00D+00 WtEn= 1.00D+00
 Coeff-En:   0.000D+00 0.000D+00 0.883D+00 0.117D+00
 Coeff:      0.000D+00 0.000D+00 0.883D+00 0.117D+00
 Gap=     0.058 Goal=   None    Shift=    0.000
 Gap=     0.058 Goal=   None    Shift=    0.000
 RMSDP=1.57D-02 MaxDP=1.47D+00 DE= 2.92D+00 OVMax= 9.90D-01

 Cycle   5  Pass 1  IDiag  1:
 RMSU=  6.40D-03    CP:  1.04D+00  1.51D-01  7.40D-01  1.66D-01
 E= -1054.82695341907     Delta-E=       -2.900738182287 Rises=F Damp=F
 DIIS: error= 2.31D-02 at cycle   5 NSaved=   5.
 NSaved= 5 IEnMin= 3 EnMin= -1054.84743458771     IErMin= 2 ErrMin= 1.54D-02
 ErrMax= 2.31D-02  0.00D+00 EMaxC= 1.00D-01 BMatC= 9.93D-01 BMatP= 6.03D-01
 IDIUse=2 WtCom= 0.00D+00 WtEn= 1.00D+00
 Coeff-En:   0.000D+00 0.000D+00 0.517D+00 0.000D+00 0.483D+00
 Coeff:      0.000D+00 0.000D+00 0.517D+00 0.000D+00 0.483D+00
 Gap=     0.128 Goal=   None    Shift=    0.000
 Gap=     0.128 Goal=   None    Shift=    0.000
 RMSDP=7.01D-03 MaxDP=8.44D-01 DE=-2.90D+00 OVMax= 1.24D-01

 Cycle   6  Pass 1  IDiag  1:
 RMSU=  2.70D-03    CP:  9.27D-01  1.25D-01  1.06D+00  1.46D-01  4.40D-01
 E= -1055.04096062706     Delta-E=       -0.214007207992 Rises=F Damp=F
 DIIS: error= 7.95D-03 at cycle   6 NSaved=   6.
 NSaved= 6 IEnMin= 6 EnMin= -1055.04096062706     IErMin= 6 ErrMin= 7.95D-03
 ErrMax= 7.95D-03  0.00D+00 EMaxC= 1.00D-01 BMatC= 5.21D-02 BMatP= 6.03D-01
 IDIUse=3 WtCom= 9.20D-01 WtEn= 7.95D-02
 Coeff-Com:  0.575D-03 0.274D-01 0.281D+00-0.410D-02 0.250D+00 0.446D+00
 Coeff-En:   0.000D+00 0.000D+00 0.000D+00 0.000D+00 0.000D+00 0.100D+01
 Coeff:      0.529D-03 0.252D-01 0.258D+00-0.378D-02 0.230D+00 0.490D+00
 Gap=     0.107 Goal=   None    Shift=    0.000
 Gap=     0.107 Goal=   None    Shift=    0.000
 RMSDP=2.29D-03 MaxDP=2.47D-01 DE=-2.14D-01 OVMax= 5.92D-02

 Cycle   7  Pass 1  IDiag  1:
 RMSU=  1.19D-03    CP:  9.12D-01  9.37D-02  1.00D+00  1.26D-01  4.12D-01
                    CP:  5.41D-01
 E= -1055.04767136297     Delta-E=       -0.006710735902 Rises=F Damp=F
 DIIS: error= 4.79D-03 at cycle   7 NSaved=   7.
 NSaved= 7 IEnMin= 7 EnMin= -1055.04767136297     IErMin= 7 ErrMin= 4.79D-03
 ErrMax= 4.79D-03  0.00D+00 EMaxC= 1.00D-01 BMatC= 2.03D-02 BMatP= 5.21D-02
 IDIUse=3 WtCom= 9.52D-01 WtEn= 4.79D-02
 Coeff-Com: -0.826D-02-0.361D-03 0.511D-01-0.851D-03 0.421D-01 0.382D+00
 Coeff-Com:  0.534D+00
 Coeff-En:   0.000D+00 0.000D+00 0.000D+00 0.000D+00 0.000D+00 0.317D+00
 Coeff-En:   0.683D+00
 Coeff:     -0.786D-02-0.344D-03 0.486D-01-0.810D-03 0.401D-01 0.379D+00
 Coeff:      0.541D+00
 Gap=     0.109 Goal=   None    Shift=    0.000
 Gap=     0.109 Goal=   None    Shift=    0.000
 RMSDP=9.65D-04 MaxDP=8.80D-02 DE=-6.71D-03 OVMax= 2.06D-02

 Cycle   8  Pass 1  IDiag  1:
 RMSU=  2.98D-04    CP:  9.14D-01  1.06D-01  1.03D+00  1.40D-01  4.06D-01
                    CP:  7.34D-01  6.31D-01
 E= -1055.05137810457     Delta-E=       -0.003706741601 Rises=F Damp=F
 DIIS: error= 8.47D-04 at cycle   8 NSaved=   8.
 NSaved= 8 IEnMin= 8 EnMin= -1055.05137810457     IErMin= 8 ErrMin= 8.47D-04
 ErrMax= 8.47D-04  0.00D+00 EMaxC= 1.00D-01 BMatC= 1.61D-03 BMatP= 2.03D-02
 IDIUse=3 WtCom= 9.92D-01 WtEn= 8.47D-03
 Coeff-Com: -0.412D-02 0.146D-02-0.297D-02 0.122D-03-0.873D-02 0.172D+00
 Coeff-Com:  0.332D+00 0.511D+00
 Coeff-En:   0.000D+00 0.000D+00 0.000D+00 0.000D+00 0.000D+00 0.000D+00
 Coeff-En:   0.463D-01 0.954D+00
 Coeff:     -0.409D-02 0.145D-02-0.295D-02 0.121D-03-0.866D-02 0.170D+00
 Coeff:      0.329D+00 0.515D+00
 Gap=     0.108 Goal=   None    Shift=    0.000
 Gap=     0.108 Goal=   None    Shift=    0.000
 RMSDP=3.06D-04 MaxDP=3.62D-02 DE=-3.71D-03 OVMax= 6.21D-03

 Cycle   9  Pass 1  IDiag  1:
 RMSU=  1.55D-04    CP:  9.11D-01  1.03D-01  1.04D+00  1.36D-01  4.04D-01
                    CP:  7.22D-01  7.45D-01  6.20D-01
 E= -1055.05171268499     Delta-E=       -0.000334580419 Rises=F Damp=F
 DIIS: error= 2.51D-04 at cycle   9 NSaved=   9.
 NSaved= 9 IEnMin= 9 EnMin= -1055.05171268499     IErMin= 9 ErrMin= 2.51D-04
 ErrMax= 2.51D-04  0.00D+00 EMaxC= 1.00D-01 BMatC= 9.43D-05 BMatP= 1.61D-03
 IDIUse=3 WtCom= 9.97D-01 WtEn= 2.51D-03
 Coeff-Com: -0.207D-02 0.110D-02-0.283D-02 0.178D-03-0.543D-02 0.859D-01
 Coeff-Com:  0.169D+00 0.304D+00 0.451D+00
 Coeff-En:   0.000D+00 0.000D+00 0.000D+00 0.000D+00 0.000D+00 0.000D+00
 Coeff-En:   0.000D+00 0.000D+00 0.100D+01
 Coeff:     -0.206D-02 0.109D-02-0.282D-02 0.178D-03-0.542D-02 0.857D-01
 Coeff:      0.168D+00 0.303D+00 0.452D+00
 Gap=     0.108 Goal=   None    Shift=    0.000
 Gap=     0.108 Goal=   None    Shift=    0.000
 RMSDP=9.87D-05 MaxDP=7.28D-03 DE=-3.35D-04 OVMax= 3.35D-03

 Cycle  10  Pass 1  IDiag  1:
 RMSU=  4.74D-05    CP:  9.12D-01  1.04D-01  1.04D+00  1.39D-01  4.06D-01
                    CP:  7.38D-01  7.29D-01  6.83D-01  8.43D-01
 E= -1055.05173779292     Delta-E=       -0.000025107938 Rises=F Damp=F
 DIIS: error= 7.91D-05 at cycle  10 NSaved=  10.
 NSaved=10 IEnMin=10 EnMin= -1055.05173779292     IErMin=10 ErrMin= 7.91D-05
 ErrMax= 7.91D-05  0.00D+00 EMaxC= 1.00D-01 BMatC= 1.23D-05 BMatP= 9.43D-05
 IDIUse=1 WtCom= 1.00D+00 WtEn= 0.00D+00
 Coeff-Com: -0.242D-03 0.329D-03-0.159D-02 0.479D-04-0.120D-02 0.873D-02
 Coeff-Com:  0.168D-01 0.511D-01 0.282D+00 0.644D+00
 Coeff:     -0.242D-03 0.329D-03-0.159D-02 0.479D-04-0.120D-02 0.873D-02
 Coeff:      0.168D-01 0.511D-01 0.282D+00 0.644D+00
 Gap=     0.108 Goal=   None    Shift=    0.000
 Gap=     0.108 Goal=   None    Shift=    0.000
 RMSDP=3.38D-05 MaxDP=2.94D-03 DE=-2.51D-05 OVMax= 8.10D-04

 Cycle  11  Pass 1  IDiag  1:
 RMSU=  1.58D-05    CP:  9.12D-01  1.04D-01  1.04D+00  1.39D-01  4.07D-01
                    CP:  7.42D-01  7.30D-01  6.62D-01  9.16D-01  8.61D-01
 E= -1055.05174060626     Delta-E=       -0.000002813337 Rises=F Damp=F
 DIIS: error= 1.67D-05 at cycle  11 NSaved=  11.
 NSaved=11 IEnMin=11 EnMin= -1055.05174060626     IErMin=11 ErrMin= 1.67D-05
 ErrMax= 1.67D-05  0.00D+00 EMaxC= 1.00D-01 BMatC= 9.32D-07 BMatP= 1.23D-05
 IDIUse=1 WtCom= 1.00D+00 WtEn= 0.00D+00
 Coeff-Com:  0.767D-04-0.102D-03-0.581D-03 0.119D-04-0.184D-03-0.239D-02
 Coeff-Com: -0.469D-02 0.275D-02 0.130D+00 0.319D+00 0.557D+00
 Coeff:      0.767D-04-0.102D-03-0.581D-03 0.119D-04-0.184D-03-0.239D-02
 Coeff:     -0.469D-02 0.275D-02 0.130D+00 0.319D+00 0.557D+00
 Gap=     0.108 Goal=   None    Shift=    0.000
 Gap=     0.108 Goal=   None    Shift=    0.000
 RMSDP=8.57D-06 MaxDP=7.40D-04 DE=-2.81D-06 OVMax= 2.26D-04

 Cycle  12  Pass 1  IDiag  1:
 RMSU=  4.69D-06    CP:  9.12D-01  1.04D-01  1.04D+00  1.39D-01  4.07D-01
                    CP:  7.42D-01  7.32D-01  6.70D-01  9.43D-01  8.75D-01
                    CP:  1.05D+00
 E= -1055.05174077958     Delta-E=       -0.000000173321 Rises=F Damp=F
 DIIS: error= 1.66D-05 at cycle  12 NSaved=  12.
 NSaved=12 IEnMin=12 EnMin= -1055.05174077958     IErMin=12 ErrMin= 1.66D-05
 ErrMax= 1.66D-05  0.00D+00 EMaxC= 1.00D-01 BMatC= 2.66D-07 BMatP= 9.32D-07
 IDIUse=1 WtCom= 1.00D+00 WtEn= 0.00D+00
 Coeff-Com:  0.113D-03-0.178D-03-0.522D-04-0.229D-05 0.995D-05-0.293D-02
 Coeff-Com: -0.536D-02-0.743D-02 0.331D-01 0.594D-01 0.332D+00 0.592D+00
 Coeff:      0.113D-03-0.178D-03-0.522D-04-0.229D-05 0.995D-05-0.293D-02
 Coeff:     -0.536D-02-0.743D-02 0.331D-01 0.594D-01 0.332D+00 0.592D+00
 Gap=     0.108 Goal=   None    Shift=    0.000
 Gap=     0.108 Goal=   None    Shift=    0.000
 RMSDP=6.61D-06 MaxDP=8.01D-04 DE=-1.73D-07 OVMax= 1.66D-04

 Cycle  13  Pass 1  IDiag  1:
 RMSU=  2.87D-06    CP:  9.12D-01  1.04D-01  1.04D+00  1.39D-01  4.07D-01
                    CP:  7.42D-01  7.34D-01  6.76D-01  9.58D-01  8.83D-01
                    CP:  1.02D+00  8.54D-01
 E= -1055.05174086072     Delta-E=       -0.000000081142 Rises=F Damp=F
 DIIS: error= 3.94D-06 at cycle  13 NSaved=  13.
 NSaved=13 IEnMin=13 EnMin= -1055.05174086072     IErMin=13 ErrMin= 3.94D-06
 ErrMax= 3.94D-06  0.00D+00 EMaxC= 1.00D-01 BMatC= 2.99D-08 BMatP= 2.66D-07
 IDIUse=1 WtCom= 1.00D+00 WtEn= 0.00D+00
 Coeff-Com:  0.586D-04-0.834D-04 0.572D-04 0.137D-05-0.970D-05-0.132D-02
 Coeff-Com: -0.229D-02-0.417D-02 0.405D-02-0.759D-02 0.704D-01 0.282D+00
 Coeff-Com:  0.659D+00
 Coeff:      0.586D-04-0.834D-04 0.572D-04 0.137D-05-0.970D-05-0.132D-02
 Coeff:     -0.229D-02-0.417D-02 0.405D-02-0.759D-02 0.704D-01 0.282D+00
 Coeff:      0.659D+00
 Gap=     0.108 Goal=   None    Shift=    0.000
 Gap=     0.108 Goal=   None    Shift=    0.000
 RMSDP=2.02D-06 MaxDP=1.47D-04 DE=-8.11D-08 OVMax= 2.88D-05

 Cycle  14  Pass 1  IDiag  1:
 RMSU=  8.49D-07    CP:  9.12D-01  1.04D-01  1.04D+00  1.39D-01  4.07D-01
                    CP:  7.42D-01  7.35D-01  6.76D-01  9.66D-01  8.91D-01
                    CP:  1.02D+00  8.65D-01  1.00D+00
 E= -1055.05174086820     Delta-E=       -0.000000007474 Rises=F Damp=F
 DIIS: error= 1.04D-06 at cycle  14 NSaved=  14.
 NSaved=14 IEnMin=14 EnMin= -1055.05174086820     IErMin=14 ErrMin= 1.04D-06
 ErrMax= 1.04D-06  0.00D+00 EMaxC= 1.00D-01 BMatC= 2.89D-09 BMatP= 2.99D-08
 IDIUse=1 WtCom= 1.00D+00 WtEn= 0.00D+00
 Coeff-Com:  0.596D-05-0.703D-05 0.337D-04-0.534D-06-0.163D-04 0.370D-04
 Coeff-Com:  0.564D-04-0.130D-03-0.136D-02-0.986D-02-0.346D-01 0.278D-01
 Coeff-Com:  0.291D+00 0.727D+00
 Coeff:      0.596D-05-0.703D-05 0.337D-04-0.534D-06-0.163D-04 0.370D-04
 Coeff:      0.564D-04-0.130D-03-0.136D-02-0.986D-02-0.346D-01 0.278D-01
 Coeff:      0.291D+00 0.727D+00
 Gap=     0.108 Goal=   None    Shift=    0.000
 Gap=     0.108 Goal=   None    Shift=    0.000
 RMSDP=6.45D-07 MaxDP=5.92D-05 DE=-7.47D-09 OVMax= 1.66D-05

 Cycle  15  Pass 1  IDiag  1:
 RMSU=  2.78D-07    CP:  9.12D-01  1.04D-01  1.04D+00  1.39D-01  4.07D-01
                    CP:  7.42D-01  7.35D-01  6.76D-01  9.67D-01  8.89D-01
                    CP:  1.03D+00  9.01D-01  1.00D+00  9.52D-01
 E= -1055.05174086894     Delta-E=       -0.000000000742 Rises=F Damp=F
 DIIS: error= 2.10D-07 at cycle  15 NSaved=  15.
 NSaved=15 IEnMin=15 EnMin= -1055.05174086894     IErMin=15 ErrMin= 2.10D-07
 ErrMax= 2.10D-07  0.00D+00 EMaxC= 1.00D-01 BMatC= 1.43D-10 BMatP= 2.89D-09
 IDIUse=1 WtCom= 1.00D+00 WtEn= 0.00D+00
 Coeff-Com: -0.591D-06 0.462D-06 0.106D-04-0.201D-06-0.537D-05 0.780D-04
 Coeff-Com:  0.131D-03 0.151D-03-0.725D-03-0.330D-02-0.179D-01-0.125D-02
 Coeff-Com:  0.625D-01 0.269D+00 0.691D+00
 Coeff:     -0.591D-06 0.462D-06 0.106D-04-0.201D-06-0.537D-05 0.780D-04
 Coeff:      0.131D-03 0.151D-03-0.725D-03-0.330D-02-0.179D-01-0.125D-02
 Coeff:      0.625D-01 0.269D+00 0.691D+00
 Gap=     0.108 Goal=   None    Shift=    0.000
 Gap=     0.108 Goal=   None    Shift=    0.000
 RMSDP=2.37D-07 MaxDP=2.46D-05 DE=-7.42D-10 OVMax= 2.55D-06

 Cycle  16  Pass 1  IDiag  1:
 RMSU=  6.70D-08    CP:  9.12D-01  1.04D-01  1.04D+00  1.39D-01  4.07D-01
                    CP:  7.42D-01  7.35D-01  6.76D-01  9.67D-01  8.89D-01
                    CP:  1.03D+00  9.10D-01  1.03D+00  9.77D-01  7.75D-01
 E= -1055.05174086898     Delta-E=       -0.000000000045 Rises=F Damp=F
 DIIS: error= 6.63D-08 at cycle  16 NSaved=  16.
 NSaved=16 IEnMin=16 EnMin= -1055.05174086898     IErMin=16 ErrMin= 6.63D-08
 ErrMax= 6.63D-08  0.00D+00 EMaxC= 1.00D-01 BMatC= 1.42D-11 BMatP= 1.43D-10
 IDIUse=1 WtCom= 1.00D+00 WtEn= 0.00D+00
 Coeff-Com: -0.577D-06 0.120D-05 0.192D-05-0.696D-07-0.139D-05 0.300D-04
 Coeff-Com:  0.538D-04 0.793D-04-0.138D-03-0.537D-03-0.509D-02-0.149D-02
 Coeff-Com:  0.411D-02 0.541D-01 0.289D+00 0.660D+00
 Coeff:     -0.577D-06 0.120D-05 0.192D-05-0.696D-07-0.139D-05 0.300D-04
 Coeff:      0.538D-04 0.793D-04-0.138D-03-0.537D-03-0.509D-02-0.149D-02
 Coeff:      0.411D-02 0.541D-01 0.289D+00 0.660D+00
 Gap=     0.108 Goal=   None    Shift=    0.000
 Gap=     0.108 Goal=   None    Shift=    0.000
 RMSDP=6.19D-08 MaxDP=8.55D-06 DE=-4.46D-11 OVMax= 9.43D-07

 Cycle  17  Pass 1  IDiag  1:
 RMSU=  2.22D-08    CP:  9.12D-01  1.04D-01  1.04D+00  1.39D-01  4.07D-01
                    CP:  7.42D-01  7.35D-01  6.76D-01  9.67D-01  8.89D-01
                    CP:  1.03D+00  9.08D-01  1.03D+00  9.81D-01  8.25D-01
                    CP:  8.53D-01
 E= -1055.05174086899     Delta-E=       -0.000000000004 Rises=F Damp=F
 DIIS: error= 2.42D-08 at cycle  17 NSaved=  17.
 NSaved=17 IEnMin=17 EnMin= -1055.05174086899     IErMin=17 ErrMin= 2.42D-08
 ErrMax= 2.42D-08  0.00D+00 EMaxC= 1.00D-01 BMatC= 1.83D-12 BMatP= 1.42D-11
 IDIUse=1 WtCom= 1.00D+00 WtEn= 0.00D+00
 Coeff-Com: -0.192D-06 0.327D-06 0.124D-06 0.374D-08 0.975D-07 0.636D-05
 Coeff-Com:  0.127D-04 0.193D-04-0.260D-04-0.249D-04-0.712D-03-0.298D-03
 Coeff-Com: -0.411D-02-0.343D-02 0.597D-01 0.300D+00 0.649D+00
 Coeff:     -0.192D-06 0.327D-06 0.124D-06 0.374D-08 0.975D-07 0.636D-05
 Coeff:      0.127D-04 0.193D-04-0.260D-04-0.249D-04-0.712D-03-0.298D-03
 Coeff:     -0.411D-02-0.343D-02 0.597D-01 0.300D+00 0.649D+00
 Gap=     0.108 Goal=   None    Shift=    0.000
 Gap=     0.108 Goal=   None    Shift=    0.000
 RMSDP=2.01D-08 MaxDP=1.43D-06 DE=-3.64D-12 OVMax= 5.07D-07

 Cycle  18  Pass 1  IDiag  1:
 RMSU=  7.90D-09    CP:  9.12D-01  1.04D-01  1.04D+00  1.39D-01  4.07D-01
                    CP:  7.42D-01  7.35D-01  6.76D-01  9.67D-01  8.89D-01
                    CP:  1.03D+00  9.10D-01  1.03D+00  9.83D-01  8.27D-01
                    CP:  9.05D-01  8.67D-01
 E= -1055.05174086900     Delta-E=       -0.000000000011 Rises=F Damp=F
 DIIS: error= 9.65D-09 at cycle  18 NSaved=  18.
 NSaved=18 IEnMin=18 EnMin= -1055.05174086900     IErMin=18 ErrMin= 9.65D-09
 ErrMax= 9.65D-09  0.00D+00 EMaxC= 1.00D-01 BMatC= 2.58D-13 BMatP= 1.83D-12
 IDIUse=1 WtCom= 1.00D+00 WtEn= 0.00D+00
 Coeff-Com: -0.162D-07-0.398D-07-0.315D-06 0.531D-08 0.266D-06-0.123D-05
 Coeff-Com: -0.255D-05-0.198D-05 0.140D-04 0.853D-04 0.459D-03 0.128D-03
 Coeff-Com: -0.243D-02-0.927D-02-0.150D-01 0.291D-01 0.283D+00 0.714D+00
 Coeff:     -0.162D-07-0.398D-07-0.315D-06 0.531D-08 0.266D-06-0.123D-05
 Coeff:     -0.255D-05-0.198D-05 0.140D-04 0.853D-04 0.459D-03 0.128D-03
 Coeff:     -0.243D-02-0.927D-02-0.150D-01 0.291D-01 0.283D+00 0.714D+00
 Gap=     0.108 Goal=   None    Shift=    0.000
 Gap=     0.108 Goal=   None    Shift=    0.000
 RMSDP=1.72D-08 MaxDP=1.70D-06 DE=-1.09D-11 OVMax= 2.27D-07

 Cycle  19  Pass 1  IDiag  1:
 RMSU=  3.82D-09    CP:  9.12D-01  1.04D-01  1.04D+00  1.39D-01  4.07D-01
                    CP:  7.42D-01  7.35D-01  6.76D-01  9.67D-01  8.89D-01
                    CP:  1.03D+00  9.09D-01  1.03D+00  9.83D-01  8.28D-01
                    CP:  8.95D-01  9.93D-01  8.44D-01
 E= -1055.05174086900     Delta-E=       -0.000000000004 Rises=F Damp=F
 DIIS: error= 2.93D-09 at cycle  19 NSaved=  19.
 NSaved=19 IEnMin=19 EnMin= -1055.05174086900     IErMin=19 ErrMin= 2.93D-09
 ErrMax= 2.93D-09  0.00D+00 EMaxC= 1.00D-01 BMatC= 4.22D-14 BMatP= 2.58D-13
 IDIUse=1 WtCom= 1.00D+00 WtEn= 0.00D+00
 Coeff-Com:  0.808D-08-0.376D-07-0.155D-06 0.291D-08 0.119D-06-0.117D-05
 Coeff-Com: -0.266D-05-0.315D-05 0.551D-05 0.346D-04 0.289D-03 0.405D-04
 Coeff-Com: -0.522D-03-0.360D-02-0.148D-01-0.304D-01 0.467D-01 0.359D+00
 Coeff-Com:  0.644D+00
 Coeff:      0.808D-08-0.376D-07-0.155D-06 0.291D-08 0.119D-06-0.117D-05
 Coeff:     -0.266D-05-0.315D-05 0.551D-05 0.346D-04 0.289D-03 0.405D-04
 Coeff:     -0.522D-03-0.360D-02-0.148D-01-0.304D-01 0.467D-01 0.359D+00
 Coeff:      0.644D+00
 Gap=     0.108 Goal=   None    Shift=    0.000
 Gap=     0.108 Goal=   None    Shift=    0.000
 RMSDP=4.61D-09 MaxDP=4.16D-07 DE=-3.64D-12 OVMax= 8.88D-08

 SCF Done:  E(UB3LYP) =  -1055.05174087     A.U. after   19 cycles
            NFock= 19  Conv=0.46D-08     -V/T= 2.0033
 <Sx>= 0.0000 <Sy>= 0.0000 <Sz>= 0.0000 <S**2>=-0.0000 S=-0.0000
 <L.S>=  0.00000000000    
 KE= 1.051576073187D+03 PE=-4.915489211942D+03 EE= 1.588717737655D+03
 Annihilation of the first spin contaminant:
 S**2 before annihilation    -0.0000,   after     0.0000
 Leave Link  502 at Wed Jan 10 16:56:27 2024, MaxMem=  4026531840 cpu:            3726.0 elap:             471.7
 (Enter /sysapps/ubuntu-applications/gaussian/Gaussian/AVX2/g16/l601.exe)
 Copying SCF densities to generalized density rwf, IOpCl= 1 IROHF=0.

 **********************************************************************

            Population analysis using the SCF density.

 **********************************************************************

 Alpha  occ. eigenvalues --  -88.86347 -19.14071 -19.13467 -10.29004 -10.28339
 Alpha  occ. eigenvalues --  -10.24141 -10.22120 -10.21734 -10.20919 -10.20708
 Alpha  occ. eigenvalues --  -10.20590 -10.17693 -10.17482 -10.17130 -10.16510
 Alpha  occ. eigenvalues --  -10.16469  -7.94961  -5.91354  -5.90940  -5.90373
 Alpha  occ. eigenvalues --   -1.07303  -1.06596  -0.87624  -0.84905  -0.82287
 Alpha  occ. eigenvalues --   -0.78595  -0.72895  -0.70450  -0.70280  -0.69485
 Alpha  occ. eigenvalues --   -0.69294  -0.63375  -0.61412  -0.58000  -0.55563
 Alpha  occ. eigenvalues --   -0.52816  -0.49925  -0.48716  -0.47679  -0.46677
 Alpha  occ. eigenvalues --   -0.46052  -0.45056  -0.44643  -0.44495  -0.44321
 Alpha  occ. eigenvalues --   -0.43204  -0.42029  -0.40910  -0.40436  -0.39345
 Alpha  occ. eigenvalues --   -0.39239  -0.38218  -0.37522  -0.36621  -0.36385
 Alpha  occ. eigenvalues --   -0.36211  -0.34995  -0.34423  -0.34277  -0.31026
 Alpha  occ. eigenvalues --   -0.29821  -0.28459  -0.27249  -0.24224
 Alpha virt. eigenvalues --   -0.13384  -0.03533  -0.01362  -0.01054  -0.00670
 Alpha virt. eigenvalues --    0.00662   0.01020   0.01381   0.01815   0.01995
 Alpha virt. eigenvalues --    0.02172   0.02969   0.03416   0.03574   0.04033
 Alpha virt. eigenvalues --    0.04276   0.04631   0.04824   0.05263   0.05994
 Alpha virt. eigenvalues --    0.06389   0.06725   0.07126   0.07442   0.07834
 Alpha virt. eigenvalues --    0.08352   0.08572   0.08771   0.09242   0.09999
 Alpha virt. eigenvalues --    0.10223   0.10458   0.10978   0.11271   0.11508
 Alpha virt. eigenvalues --    0.11711   0.11968   0.12173   0.12733   0.12812
 Alpha virt. eigenvalues --    0.13058   0.13135   0.13370   0.13824   0.14170
 Alpha virt. eigenvalues --    0.14351   0.14498   0.14672   0.15002   0.15079
 Alpha virt. eigenvalues --    0.15451   0.15539   0.15805   0.16457   0.16630
 Alpha virt. eigenvalues --    0.16863   0.17026   0.17446   0.17647   0.17999
 Alpha virt. eigenvalues --    0.18087   0.18307   0.18589   0.18924   0.19342
 Alpha virt. eigenvalues --    0.19444   0.19655   0.19676   0.20453   0.20886
 Alpha virt. eigenvalues --    0.21394   0.21582   0.21791   0.21967   0.22779
 Alpha virt. eigenvalues --    0.23273   0.23730   0.24132   0.24617   0.24850
 Alpha virt. eigenvalues --    0.25404   0.25846   0.26178   0.26647   0.27013
 Alpha virt. eigenvalues --    0.27186   0.27658   0.27732   0.28153   0.29588
 Alpha virt. eigenvalues --    0.29805   0.30014   0.30557   0.31105   0.31767
 Alpha virt. eigenvalues --    0.32287   0.32469   0.32564   0.33355   0.33646
 Alpha virt. eigenvalues --    0.34100   0.34493   0.34790   0.35050   0.35545
 Alpha virt. eigenvalues --    0.36233   0.36574   0.37341   0.37684   0.38463
 Alpha virt. eigenvalues --    0.39106   0.39762   0.41243   0.41574   0.42258
 Alpha virt. eigenvalues --    0.43113   0.44140   0.44444   0.45453   0.45668
 Alpha virt. eigenvalues --    0.46759   0.48275   0.49887   0.50538   0.51085
 Alpha virt. eigenvalues --    0.51426   0.52671   0.53295   0.53821   0.54762
 Alpha virt. eigenvalues --    0.55487   0.56657   0.57081   0.57404   0.57897
 Alpha virt. eigenvalues --    0.58995   0.59231   0.59459   0.60747   0.61236
 Alpha virt. eigenvalues --    0.61976   0.62497   0.62873   0.64011   0.64307
 Alpha virt. eigenvalues --    0.65511   0.65838   0.66035   0.66136   0.66295
 Alpha virt. eigenvalues --    0.67464   0.67881   0.68730   0.69192   0.69360
 Alpha virt. eigenvalues --    0.69821   0.70719   0.71689   0.72179   0.72647
 Alpha virt. eigenvalues --    0.73487   0.74404   0.75004   0.75592   0.77288
 Alpha virt. eigenvalues --    0.77509   0.77912   0.78747   0.79792   0.79983
 Alpha virt. eigenvalues --    0.81225   0.82490   0.83604   0.84606   0.84932
 Alpha virt. eigenvalues --    0.85909   0.86816   0.88702   0.89686   0.91435
 Alpha virt. eigenvalues --    0.91930   0.92643   0.92903   0.93775   0.94897
 Alpha virt. eigenvalues --    0.96002   0.96736   0.99334   1.00001   1.00951
 Alpha virt. eigenvalues --    1.01726   1.02088   1.04964   1.05730   1.07149
 Alpha virt. eigenvalues --    1.08003   1.08660   1.08974   1.10058   1.12754
 Alpha virt. eigenvalues --    1.12990   1.16338   1.17310   1.18333   1.20746
 Alpha virt. eigenvalues --    1.21127   1.22318   1.25120   1.25525   1.26627
 Alpha virt. eigenvalues --    1.26761   1.28253   1.30606   1.31438   1.33784
 Alpha virt. eigenvalues --    1.38477   1.40289   1.42136   1.43297   1.43637
 Alpha virt. eigenvalues --    1.44273   1.45006   1.45407   1.45919   1.46952
 Alpha virt. eigenvalues --    1.47604   1.48627   1.49437   1.50351   1.52456
 Alpha virt. eigenvalues --    1.53056   1.55136   1.55960   1.56289   1.57368
 Alpha virt. eigenvalues --    1.57922   1.58592   1.59099   1.59990   1.61183
 Alpha virt. eigenvalues --    1.61908   1.63054   1.63771   1.64170   1.65043
 Alpha virt. eigenvalues --    1.66368   1.67601   1.67886   1.69504   1.69804
 Alpha virt. eigenvalues --    1.70784   1.71308   1.71573   1.73368   1.75238
 Alpha virt. eigenvalues --    1.75791   1.76365   1.77665   1.77860   1.78589
 Alpha virt. eigenvalues --    1.78721   1.79534   1.80972   1.81359   1.82535
 Alpha virt. eigenvalues --    1.83615   1.84707   1.86360   1.89888   1.91166
 Alpha virt. eigenvalues --    1.92590   1.93665   1.94490   1.97410   1.98236
 Alpha virt. eigenvalues --    1.99562   2.00229   2.01512   2.02271   2.05443
 Alpha virt. eigenvalues --    2.06607   2.07083   2.07737   2.09843   2.10766
 Alpha virt. eigenvalues --    2.11699   2.12269   2.13113   2.15054   2.17021
 Alpha virt. eigenvalues --    2.18334   2.20128   2.20754   2.22668   2.24070
 Alpha virt. eigenvalues --    2.26190   2.28312   2.28599   2.32168   2.35039
 Alpha virt. eigenvalues --    2.36489   2.38271   2.42235   2.43038   2.45180
 Alpha virt. eigenvalues --    2.47849   2.48495   2.49706   2.49816   2.51509
 Alpha virt. eigenvalues --    2.51605   2.52060   2.52361   2.52645   2.54079
 Alpha virt. eigenvalues --    2.54892   2.57047   2.57548   2.58132   2.58769
 Alpha virt. eigenvalues --    2.59636   2.61483   2.63415   2.64111   2.64831
 Alpha virt. eigenvalues --    2.66416   2.67257   2.67635   2.69465   2.71371
 Alpha virt. eigenvalues --    2.71981   2.73166   2.74121   2.74689   2.75428
 Alpha virt. eigenvalues --    2.76240   2.79024   2.81760   2.82103   2.82982
 Alpha virt. eigenvalues --    2.85050   2.85668   2.87563   2.88468   2.91240
 Alpha virt. eigenvalues --    2.91808   2.92510   2.95583   2.96812   2.97183
 Alpha virt. eigenvalues --    3.01404   3.01953   3.05379   3.07127   3.09453
 Alpha virt. eigenvalues --    3.11122   3.13346   3.15859   3.18328   3.20082
 Alpha virt. eigenvalues --    3.21717   3.22799   3.27832   3.30800   3.32887
 Alpha virt. eigenvalues --    3.35010   3.40555   3.43530   3.49406   3.56709
 Alpha virt. eigenvalues --    3.60428   3.63310   3.69615   3.76332   3.76756
 Alpha virt. eigenvalues --    3.76760   3.77984   3.78626   3.79986   3.81178
 Alpha virt. eigenvalues --    3.81577   3.82211   3.84246   3.84928   3.88595
 Alpha virt. eigenvalues --    4.03986   4.09948   4.11748   4.17838   4.24741
 Alpha virt. eigenvalues --    4.25705   4.26546   4.39359   4.67682   5.06843
 Alpha virt. eigenvalues --    5.07087   5.23673   5.26915   5.71959   5.80630
 Alpha virt. eigenvalues --    8.02019  17.37895  17.50590  17.55926  23.59270
 Alpha virt. eigenvalues --   23.72644  23.78580  23.79131  23.84536  23.89944
 Alpha virt. eigenvalues --   23.94984  23.96838  23.97313  23.98161  24.00342
 Alpha virt. eigenvalues --   24.14200  24.19933  49.98808  50.03220 189.20379
  Beta  occ. eigenvalues --  -88.86347 -19.14071 -19.13467 -10.29004 -10.28339
  Beta  occ. eigenvalues --  -10.24141 -10.22120 -10.21734 -10.20919 -10.20708
  Beta  occ. eigenvalues --  -10.20590 -10.17693 -10.17482 -10.17130 -10.16510
  Beta  occ. eigenvalues --  -10.16469  -7.94961  -5.91354  -5.90940  -5.90373
  Beta  occ. eigenvalues --   -1.07303  -1.06596  -0.87624  -0.84905  -0.82287
  Beta  occ. eigenvalues --   -0.78595  -0.72895  -0.70450  -0.70280  -0.69485
  Beta  occ. eigenvalues --   -0.69294  -0.63375  -0.61412  -0.58000  -0.55563
  Beta  occ. eigenvalues --   -0.52816  -0.49925  -0.48716  -0.47679  -0.46677
  Beta  occ. eigenvalues --   -0.46052  -0.45056  -0.44643  -0.44495  -0.44321
  Beta  occ. eigenvalues --   -0.43204  -0.42029  -0.40910  -0.40436  -0.39345
  Beta  occ. eigenvalues --   -0.39239  -0.38218  -0.37522  -0.36621  -0.36385
  Beta  occ. eigenvalues --   -0.36211  -0.34995  -0.34423  -0.34277  -0.31026
  Beta  occ. eigenvalues --   -0.29821  -0.28459  -0.27249  -0.24224
  Beta virt. eigenvalues --   -0.13384  -0.03533  -0.01362  -0.01054  -0.00670
  Beta virt. eigenvalues --    0.00662   0.01020   0.01381   0.01815   0.01995
  Beta virt. eigenvalues --    0.02172   0.02969   0.03416   0.03574   0.04033
  Beta virt. eigenvalues --    0.04276   0.04631   0.04824   0.05263   0.05994
  Beta virt. eigenvalues --    0.06389   0.06725   0.07126   0.07442   0.07834
  Beta virt. eigenvalues --    0.08352   0.08572   0.08771   0.09242   0.09999
  Beta virt. eigenvalues --    0.10223   0.10458   0.10978   0.11271   0.11508
  Beta virt. eigenvalues --    0.11711   0.11968   0.12173   0.12733   0.12812
  Beta virt. eigenvalues --    0.13058   0.13135   0.13370   0.13824   0.14170
  Beta virt. eigenvalues --    0.14351   0.14498   0.14672   0.15002   0.15079
  Beta virt. eigenvalues --    0.15451   0.15539   0.15805   0.16457   0.16630
  Beta virt. eigenvalues --    0.16863   0.17026   0.17446   0.17647   0.17999
  Beta virt. eigenvalues --    0.18087   0.18307   0.18589   0.18924   0.19342
  Beta virt. eigenvalues --    0.19444   0.19655   0.19676   0.20453   0.20886
  Beta virt. eigenvalues --    0.21394   0.21582   0.21791   0.21967   0.22779
  Beta virt. eigenvalues --    0.23273   0.23730   0.24132   0.24617   0.24850
  Beta virt. eigenvalues --    0.25404   0.25846   0.26178   0.26647   0.27013
  Beta virt. eigenvalues --    0.27186   0.27658   0.27732   0.28153   0.29588
  Beta virt. eigenvalues --    0.29805   0.30014   0.30557   0.31105   0.31767
  Beta virt. eigenvalues --    0.32287   0.32469   0.32564   0.33355   0.33646
  Beta virt. eigenvalues --    0.34100   0.34493   0.34790   0.35050   0.35545
  Beta virt. eigenvalues --    0.36233   0.36574   0.37341   0.37684   0.38463
  Beta virt. eigenvalues --    0.39106   0.39762   0.41243   0.41574   0.42258
  Beta virt. eigenvalues --    0.43113   0.44140   0.44444   0.45453   0.45668
  Beta virt. eigenvalues --    0.46759   0.48275   0.49887   0.50538   0.51085
  Beta virt. eigenvalues --    0.51426   0.52671   0.53295   0.53821   0.54762
  Beta virt. eigenvalues --    0.55487   0.56657   0.57081   0.57404   0.57897
  Beta virt. eigenvalues --    0.58995   0.59231   0.59459   0.60747   0.61236
  Beta virt. eigenvalues --    0.61976   0.62497   0.62873   0.64011   0.64307
  Beta virt. eigenvalues --    0.65511   0.65838   0.66035   0.66136   0.66295
  Beta virt. eigenvalues --    0.67464   0.67881   0.68730   0.69192   0.69360
  Beta virt. eigenvalues --    0.69821   0.70719   0.71689   0.72179   0.72647
  Beta virt. eigenvalues --    0.73487   0.74404   0.75004   0.75592   0.77288
  Beta virt. eigenvalues --    0.77509   0.77912   0.78747   0.79792   0.79983
  Beta virt. eigenvalues --    0.81225   0.82490   0.83604   0.84606   0.84932
  Beta virt. eigenvalues --    0.85909   0.86816   0.88702   0.89686   0.91435
  Beta virt. eigenvalues --    0.91930   0.92643   0.92903   0.93775   0.94897
  Beta virt. eigenvalues --    0.96002   0.96736   0.99334   1.00001   1.00951
  Beta virt. eigenvalues --    1.01726   1.02088   1.04964   1.05730   1.07149
  Beta virt. eigenvalues --    1.08003   1.08660   1.08974   1.10058   1.12754
  Beta virt. eigenvalues --    1.12990   1.16338   1.17310   1.18333   1.20746
  Beta virt. eigenvalues --    1.21127   1.22318   1.25120   1.25525   1.26627
  Beta virt. eigenvalues --    1.26761   1.28253   1.30606   1.31438   1.33784
  Beta virt. eigenvalues --    1.38477   1.40289   1.42136   1.43297   1.43637
  Beta virt. eigenvalues --    1.44273   1.45006   1.45407   1.45919   1.46952
  Beta virt. eigenvalues --    1.47604   1.48627   1.49437   1.50351   1.52456
  Beta virt. eigenvalues --    1.53056   1.55136   1.55960   1.56289   1.57368
  Beta virt. eigenvalues --    1.57922   1.58592   1.59099   1.59990   1.61183
  Beta virt. eigenvalues --    1.61908   1.63054   1.63771   1.64170   1.65043
  Beta virt. eigenvalues --    1.66368   1.67601   1.67886   1.69504   1.69804
  Beta virt. eigenvalues --    1.70784   1.71308   1.71573   1.73368   1.75238
  Beta virt. eigenvalues --    1.75791   1.76365   1.77665   1.77860   1.78589
  Beta virt. eigenvalues --    1.78721   1.79534   1.80972   1.81359   1.82535
  Beta virt. eigenvalues --    1.83615   1.84707   1.86360   1.89888   1.91166
  Beta virt. eigenvalues --    1.92590   1.93665   1.94490   1.97410   1.98236
  Beta virt. eigenvalues --    1.99562   2.00229   2.01512   2.02271   2.05443
  Beta virt. eigenvalues --    2.06607   2.07083   2.07737   2.09843   2.10766
  Beta virt. eigenvalues --    2.11699   2.12269   2.13113   2.15054   2.17021
  Beta virt. eigenvalues --    2.18334   2.20128   2.20754   2.22668   2.24070
  Beta virt. eigenvalues --    2.26190   2.28312   2.28599   2.32168   2.35039
  Beta virt. eigenvalues --    2.36489   2.38271   2.42235   2.43038   2.45180
  Beta virt. eigenvalues --    2.47849   2.48495   2.49706   2.49816   2.51509
  Beta virt. eigenvalues --    2.51605   2.52060   2.52361   2.52645   2.54079
  Beta virt. eigenvalues --    2.54892   2.57047   2.57548   2.58132   2.58769
  Beta virt. eigenvalues --    2.59636   2.61483   2.63415   2.64111   2.64831
  Beta virt. eigenvalues --    2.66416   2.67257   2.67635   2.69465   2.71371
  Beta virt. eigenvalues --    2.71981   2.73166   2.74121   2.74689   2.75428
  Beta virt. eigenvalues --    2.76240   2.79024   2.81760   2.82103   2.82982
  Beta virt. eigenvalues --    2.85050   2.85668   2.87563   2.88468   2.91240
  Beta virt. eigenvalues --    2.91808   2.92510   2.95583   2.96812   2.97183
  Beta virt. eigenvalues --    3.01404   3.01953   3.05379   3.07127   3.09453
  Beta virt. eigenvalues --    3.11122   3.13346   3.15859   3.18328   3.20082
  Beta virt. eigenvalues --    3.21717   3.22799   3.27832   3.30800   3.32887
  Beta virt. eigenvalues --    3.35010   3.40555   3.43530   3.49406   3.56709
  Beta virt. eigenvalues --    3.60428   3.63310   3.69615   3.76332   3.76756
  Beta virt. eigenvalues --    3.76760   3.77984   3.78626   3.79986   3.81178
  Beta virt. eigenvalues --    3.81577   3.82211   3.84246   3.84928   3.88595
  Beta virt. eigenvalues --    4.03986   4.09948   4.11748   4.17838   4.24741
  Beta virt. eigenvalues --    4.25705   4.26546   4.39359   4.67682   5.06843
  Beta virt. eigenvalues --    5.07087   5.23673   5.26915   5.71959   5.80630
  Beta virt. eigenvalues --    8.02019  17.37895  17.50590  17.55926  23.59270
  Beta virt. eigenvalues --   23.72644  23.78580  23.79131  23.84536  23.89944
  Beta virt. eigenvalues --   23.94984  23.96838  23.97313  23.98161  24.00342
  Beta virt. eigenvalues --   24.14200  24.19933  49.98808  50.03220 189.20379
          Condensed to atoms (all electrons):
               1          2          3          4          5          6
     1  C   12.168828   1.302209  -1.482439  -0.753451  -3.478125  -0.981510
     2  C    1.302209   8.008437   0.500449  -1.030497   0.022421  -2.167433
     3  C   -1.482439   0.500449  16.512339  -4.604247  -1.995539   1.577095
     4  C   -0.753451  -1.030497  -4.604247  14.606066   1.842242  -4.343648
     5  C   -3.478125   0.022421  -1.995539   1.842242  14.646687  -3.548496
     6  C   -0.981510  -2.167433   1.577095  -4.343648  -3.548496  15.975421
     7  O    0.668409  -0.248057   0.005669  -0.022280  -0.096252  -0.146576
     8  O   -0.061977  -0.031002  -0.223127   0.435968  -0.030932   0.098639
     9  S    0.163357   0.191064   0.341105  -1.288197  -0.600682  -1.700114
    10  C   -0.314034   0.000489  -0.082905   0.060615   0.426119  -0.298150
    11  C   -0.072859   0.037097   0.004990  -0.058612  -0.040323  -0.351196
    12  C    0.172737  -0.045606   0.034808   0.110189  -0.036344   0.170894
    13  C   -0.345214  -0.515239  -6.049161   1.727610  -1.540789   0.376295
    14  C   -0.173313  -0.215652  -0.035002   0.334524   0.235619  -0.249246
    15  C    0.047381   0.067500   0.454766  -0.258654  -0.091882   0.029923
    16  C    0.119284   0.110593   0.608399  -0.421037  -0.093380   0.129922
    17  H   -0.066775   0.491213  -0.132334   0.149154   0.065228  -0.202544
    18  H   -0.004178   0.011867  -0.193515   0.132731   0.641022  -0.207768
    19  H   -0.157867  -0.028524  -0.010421   0.032935   0.120397   0.154836
    20  H    0.053875   0.002633   0.001051  -0.008214  -0.048788  -0.016112
    21  H    0.006686   0.001655  -0.000401  -0.000524  -0.002302  -0.002139
    22  H   -0.022268  -0.001852   0.000353   0.006066   0.031170   0.005375
    23  H    0.003851  -0.002708  -0.012478   0.022168   0.044176  -0.043350
    24  H   -0.044081  -0.003623   0.003067   0.009683   0.039965   0.018575
    25  H   -0.004736  -0.004241   0.002669   0.007427   0.011367   0.006693
    26  H   -0.001973   0.003786   0.000673  -0.020256  -0.010242   0.014826
    27  H   -0.000890   0.005381  -0.008557  -0.017368  -0.011026   0.004411
    28  H    0.002645   0.009173  -0.001996   0.001325   0.002762   0.000153
    29  H   -0.007056   0.001338  -0.077577  -0.006161  -0.011228   0.014076
    30  H   -0.000971  -0.016663  -0.127224   0.128660   0.028770  -0.041301
    31  H    0.004044   0.006964   0.006859   0.011270  -0.002727   0.001766
    32  H   -0.006715   0.002118  -0.076227  -0.013115  -0.014719   0.020923
    33  H   -0.002111   0.002138   0.054330   0.013935  -0.002041  -0.002831
    34  H    0.006917  -0.015507  -0.164822   0.113212   0.032882  -0.018120
               7          8          9         10         11         12
     1  C    0.668409  -0.061977   0.163357  -0.314034  -0.072859   0.172737
     2  C   -0.248057  -0.031002   0.191064   0.000489   0.037097  -0.045606
     3  C    0.005669  -0.223127   0.341105  -0.082905   0.004990   0.034808
     4  C   -0.022280   0.435968  -1.288197   0.060615  -0.058612   0.110189
     5  C   -0.096252  -0.030932  -0.600682   0.426119  -0.040323  -0.036344
     6  C   -0.146576   0.098639  -1.700114  -0.298150  -0.351196   0.170894
     7  O    8.016623   0.000544   0.034717   0.005767   0.034032  -0.053896
     8  O    0.000544   8.009619   0.027213   0.000517   0.000354  -0.000509
     9  S    0.034717   0.027213  19.838112  -0.100226   0.487974  -0.216558
    10  C    0.005767   0.000517  -0.100226   6.162609  -0.247554  -0.061549
    11  C    0.034032   0.000354   0.487974  -0.247554   6.159191  -0.328902
    12  C   -0.053896  -0.000509  -0.216558  -0.061549  -0.328902   5.713470
    13  C    0.004538   0.140425  -0.162923  -0.026802  -0.002869   0.012934
    14  C    0.008537   0.028311  -0.046813   0.001596  -0.000638   0.001375
    15  C   -0.000269  -0.078919   0.006575  -0.001061   0.000116   0.000199
    16  C    0.000428  -0.083463   0.021025   0.002001   0.000311  -0.000430
    17  H   -0.023983  -0.000432  -0.040486   0.000392  -0.001223   0.001226
    18  H    0.000453  -0.027929  -0.115596   0.016142  -0.007784  -0.001519
    19  H   -0.009156  -0.000167  -0.212173   0.477010  -0.110497  -0.021660
    20  H    0.000518   0.000025   0.039011  -0.081916   0.424809  -0.000772
    21  H    0.000140   0.000003  -0.005108   0.003145   0.365017  -0.006712
[...]
 000156,-0.00000076,0.00000232,0.00000002,-0.00000105,-0.00000051,-0.00
 000039,0.00000065,-0.00000069,0.00000057,-0.00000358,-0.00000037,-0.00
 000334,0.00000188,-0.00000149,0.00000085,-0.00000083,-0.00000031,0.000
 00021,0.00009854,0.00043045,0.00024490,0.00021181,-0.00007037,0.001038
 24,-0.00005444,-0.00008955,0.00001036,0.03927615,0.17318996,0.00022876
 ,-0.00008117,-0.00007888,-0.00042119,0.00016608,0.00027355,0.00000396,
 0.00005264,0.00077737,-0.00003418,-0.00010279,-0.00051993,-0.00008214,
 0.00007650,0.00014371,-0.00001232,-0.00000560,-0.00003967,-0.00009942,
 0.00002238,0.00014252,-0.00062938,0.00009048,0.00032007,-0.00003223,0.
 00002033,0.00002762,-0.00000767,0.00001089,-0.00001500,-0.00000212,-0.
 00000975,0.00000185,0.00000390,-0.00000160,0.00000179,0.00216470,0.008
 42873,0.00765986,0.00032851,0.00028148,0.00099816,-0.03721595,-0.12414
 149,-0.18408842,0.00111289,0.00179356,-0.00023319,0.00001060,-0.000003
 01,-0.00002655,-0.00000707,-0.00000993,-0.00000653,0.00000828,-0.00000
 383,-0.00000530,0.00000134,0.00000249,0.00000060,-0.00000368,0.0000001
 8,0.00000203,-0.00000123,0.00000090,-0.00000108,-0.00000087,0.00000474
 ,0.00000185,-0.00000064,0.00000115,-0.00000138,-0.00000053,-0.00000262
 ,0.00000178,-0.00001163,-0.00014777,0.00019969,0.00008867,-0.00002347,
 0.00012493,-0.00008690,0.00003033,-0.00007066,0.03922933,0.13524453,0.
 19759260,0.00005860,-0.00020339,0.00018342,-0.00014053,0.00009057,0.00
 012976,0.00127153,0.00039732,-0.00029556,-0.00202442,-0.00052819,0.002
 86109,0.00035191,-0.00003921,-0.00059644,-0.00024186,0.00010932,0.0001
 6474,0.00001764,0.00004469,-0.00016235,-0.00223052,0.00055682,-0.00183
 118,0.00015821,-0.00012337,-0.00018247,-0.00000682,-0.00005590,0.00014
 006,0.00000478,0.00004424,-0.00001783,0.00001575,0.00000655,-0.0000492
 6,0.00855092,-0.00939437,0.01577762,-0.00230838,-0.00261964,0.00113294
 ,-0.09895165,0.05823633,-0.09359462,0.00071458,0.00084720,0.00036284,0
 .00004298,-0.00004058,-0.00010156,-0.00000821,0.00000464,0.00000123,-0
 .00000921,0.00001172,-0.00000025,-0.00000733,-0.00000298,0.00000598,0.
 00001796,-0.00000059,-0.00001292,-0.00000097,-0.00000349,0.00000678,-0
 .00000478,-0.00001246,0.00000293,-0.00000070,-0.00000695,0.00000512,0.
 00001032,0.00002518,-0.00000451,0.00073701,-0.00093408,0.00087711,-0.0
 0018292,0.00009347,0.00002650,0.00022653,-0.00030946,-0.00011891,-0.00
 280709,0.00225134,-0.00277472,0.10804446,0.00014220,-0.00010477,0.0000
 3994,-0.00006961,0.00009686,0.00019694,0.00043262,0.00044673,-0.000729
 88,-0.00029146,0.00009615,0.00151297,-0.00002998,-0.00000828,-0.000310
 11,-0.00004833,0.00003545,-0.00002262,-0.00005000,0.00002732,-0.000016
 29,0.00196795,0.00000675,-0.00078167,0.00003942,-0.00001422,-0.0000649
 9,0.00001305,-0.00001272,0.00003397,0.00000150,0.00001106,-0.00000651,
 0.00000520,-0.00000059,-0.00001123,0.01095853,-0.01156651,0.01669783,-
 0.00376465,-0.00344427,0.00117750,0.05501719,-0.10726414,0.09578850,0.
 00124561,0.00103572,0.00071953,0.00003981,-0.00004744,-0.00008653,-0.0
 0001851,0.00002609,0.00000844,0.00000121,-0.00000090,-0.00000110,-0.00
 000106,-0.00000096,0.00000119,0.00000478,-0.00000098,-0.00000267,-0.00
 000110,0.00000046,0.00000083,-0.00000074,-0.00000202,0.00000467,-0.000
 00265,0.00000026,0.00000002,0.00000259,0.00000517,-0.00000072,0.000581
 71,-0.00055454,0.00147990,0.00004233,0.00019121,0.00023699,-0.00028222
 ,0.00023939,-0.00026349,-0.01034235,0.01186145,-0.01715200,-0.06003743
 ,0.11542959,-0.00022947,0.00021497,-0.00010896,0.00016492,-0.00010323,
 -0.00020314,-0.00063318,0.00016991,-0.00000265,0.00086748,0.00018174,-
 0.00139489,0.00011406,0.00019828,0.00023493,0.00013806,-0.00014156,0.0
 0000412,0.00006971,-0.00005066,0.00006959,-0.00294406,-0.00063784,0.00
 038989,-0.00006718,0.00002552,0.00009208,-0.00000115,0.00003265,-0.000
 07938,-0.00000370,-0.00002441,0.00001137,-0.00001391,-0.00000258,0.000
 03035,-0.00430357,0.00410215,-0.00876775,0.00226528,0.00138106,-0.0001
 4217,-0.08979600,0.09734891,-0.20807608,-0.00009273,-0.00089206,0.0006
 2021,-0.00004358,0.00002285,0.00009240,0.00003096,-0.00000437,0.000002
 33,-0.00000108,-0.00000443,0.00000391,0.00000343,0.00000078,-0.0000042
 5,-0.00001027,0.00000141,0.00000743,0.00000247,0.00000158,-0.00000284,
 0.00000449,0.00000542,-0.00000557,0.00000224,0.00000336,-0.00000193,-0
 .00000643,-0.00001406,0.00000162,-0.00046889,0.00058106,-0.00017108,0.
 00011973,-0.00015835,0.00036993,-0.00021954,0.00003648,0.00008575,-0.0
 0961330,0.01092408,-0.01665375,0.09960355,-0.10729526,0.22307867,0.000
 98529,0.00004715,-0.00000016,-0.00102328,0.00067245,0.00001939,-0.0004
 6617,-0.00402031,0.00100513,0.00063236,-0.00005068,-0.00020581,-0.0001
 8959,0.00018304,0.00017513,0.00002845,-0.00004397,-0.00020914,-0.00041
 267,0.00000520,0.00039925,-0.00086837,-0.00021143,-0.00014313,-0.00009
 551,0.00003881,0.00006930,0.00001051,0.00006418,-0.00007030,-0.0000074
 0,-0.00004318,0.00001056,-0.00000375,-0.00000721,0.00002567,-0.0186922
 5,0.00711967,0.00647222,0.00043897,0.00141923,-0.00094342,-0.23846296,
 0.08959958,0.06856184,0.00046758,0.00140919,0.00012629,-0.00009155,-0.
 00014942,0.00005220,-0.00002823,0.00002440,-0.00000224,0.00002060,-0.0
 0001171,-0.00001545,0.00000677,0.00000354,-0.00000457,-0.00001747,-0.0
 0000016,0.00001296,-0.00000329,0.00000628,-0.00000667,0.00000597,0.000
 01895,0.00000440,-0.00000515,0.00000717,-0.00000732,-0.00001079,-0.000
 01819,0.00000781,0.00031820,-0.00013137,-0.00029072,-0.00001791,-0.000
 11844,0.00000275,0.00090080,-0.00047190,0.00017546,0.00675138,-0.00269
 233,-0.00206731,-0.01126839,0.00498434,0.00488144,0.26048483,0.0011254
 0,0.00017405,0.00023717,-0.00116037,0.00115796,0.00088944,-0.00140816,
 -0.00381273,0.00113134,-0.00043253,-0.00016022,0.00086107,-0.00001764,
 -0.00006299,-0.00021141,-0.00023589,0.00004830,-0.00007433,-0.00039014
 ,-0.00005879,0.00021678,0.00071307,0.00040454,-0.00055572,0.00005798,-
 0.00004558,-0.00008977,-0.00000049,-0.00000677,0.00007377,-0.00000177,
 0.00000987,-0.00001221,0.00001055,0.00000192,-0.00002468,-0.02245767,0
 .00655327,0.00827925,-0.00098903,0.00093873,-0.00014558,0.09127888,-0.
 08715242,-0.03311009,-0.00018340,0.00156368,0.00048036,-0.00023467,-0.
 00026561,-0.00005257,-0.00000744,0.00002468,-0.00000038,0.00001199,-0.
 00000031,-0.00001506,-0.00000200,-0.00000039,0.00000276,0.00000423,-0.
 00000039,-0.00000291,-0.00000416,0.00000129,0.00000183,0.00000077,0.00
 000269,0.00000695,-0.00000472,-0.00000149,0.,0.00000188,0.00000976,0.0
 0000108,-0.00004514,0.00026374,-0.00031660,0.00017510,-0.00009757,0.00
 001621,0.00014984,-0.00017567,0.00017144,0.01859872,-0.00866194,-0.005
 27255,0.01162817,-0.00629111,-0.00601058,-0.09671974,0.09568599,-0.000
 98560,0.00004297,-0.00005161,0.00079606,-0.00041140,-0.00008417,0.0007
 7363,0.00237199,-0.00042390,0.00019480,0.00021173,-0.00127119,0.000049
 63,0.00002562,0.00016936,0.00011700,-0.00003879,0.00011993,0.00032349,
 0.00000590,-0.00021939,-0.00131918,-0.00039420,0.00052695,-0.00002668,
 0.00002141,0.00005717,-0.00001402,-0.00001265,-0.00002834,0.00000182,0
 .00000314,0.00000551,-0.00000902,0.00000268,0.00001004,0.01062463,-0.0
 0355374,-0.00492535,0.00083428,-0.00086502,0.00001865,0.06811996,-0.03
 209482,-0.07104643,-0.00103920,-0.00046491,0.00022798,0.00014813,0.000
 11021,-0.00001106,0.00001154,-0.00003121,-0.00000463,-0.00001488,0.000
 00365,0.00001290,-0.00000106,-0.00000117,-0.00000015,0.00000211,0.0000
 0182,-0.00000157,0.00000361,-0.00000283,0.00000108,-0.00000060,-0.0000
 0794,-0.00000543,0.00000446,-0.00000042,0.00000235,0.00000354,-0.00000
 103,-0.00000387,-0.00036057,-0.00013099,0.00018618,0.00010923,-0.00002
 314,-0.00015491,-0.00020707,0.00076635,-0.00005816,0.02070393,-0.00890
 975,-0.00725406,-0.02119268,0.00950498,0.01007923,-0.07738736,0.033702
 55,0.07380205,-0.00021755,-0.00000115,0.00003045,0.00040586,-0.0001268
 2,-0.00022112,0.00007602,0.00097806,0.00018327,0.00001658,-0.00000406,
 0.00007758,0.00001041,-0.00003182,-0.00000409,-0.00002124,0.00003311,0
 .00005587,0.00008771,0.00001645,-0.00012584,-0.00012468,0.00011056,-0.
 00000702,0.00001644,-0.00000970,-0.00001719,-0.00000678,-0.00001611,0.
 00002189,0.00000052,0.00000970,-0.00000318,-0.00000036,0.00000254,-0.0
 0000671,-0.00402395,-0.00290348,0.00196617,-0.00017605,-0.00030635,0.0
 0072772,0.00022972,-0.00073361,-0.00155304,-0.13449467,-0.10977713,0.0
 5185523,0.00003357,-0.00001107,-0.00004058,0.00000392,-0.00000309,-0.0
 0000161,-0.00000325,0.00000120,0.00000075,-0.00000143,-0.00000113,0.00
 000205,0.00000496,0.00000023,-0.00000362,-0.00000003,-0.00000141,0.000
 00136,-0.00000170,-0.00000498,0.00000555,-0.00000217,-0.00000044,0.000
 00248,0.00000687,0.00000432,-0.00000461,0.00012057,0.00019325,-0.00067
 530,0.00015594,0.00032667,-0.00008376,-0.00005150,-0.00015340,0.000035
 00,0.00015993,-0.00055745,0.00012122,-0.00005485,-0.00003981,0.0001089
 9,0.00048331,0.00026982,-0.00007353,0.14305097,0.00003508,-0.00020532,
 -0.00009500,0.00045134,0.00026149,-0.00038312,-0.00138340,0.00048094,0
 .00120747,-0.00006520,-0.00044105,0.00050165,0.00005678,-0.00004369,-0
 .00001535,0.00000332,0.00003842,-0.00004584,0.00001287,0.00005404,-0.0
 0001390,0.00058627,-0.00018513,-0.00037840,0.00001611,-0.00000514,-0.0
 0001434,-0.00001941,-0.00001931,0.00001148,0.00000667,0.00000876,0.000
 00068,0.00002762,-0.00000714,-0.00001456,-0.01122128,-0.01642946,0.007
 44616,0.00063467,0.00043922,0.00118576,0.00004988,-0.00234927,-0.00436
 654,-0.10978452,-0.18513947,0.06643890,-0.00005145,-0.00001183,-0.0000
 4120,0.00000581,-0.00002423,-0.00000830,0.00000253,0.00000264,-0.00000
 263,-0.00000232,0.00000586,0.00000326,0.00000076,-0.00000221,-0.000001
 62,-0.00000075,-0.00000151,-0.00000100,-0.00001363,0.00000223,-0.00000
 360,0.00000173,-0.00000114,-0.00000026,-0.00000198,0.00000521,0.000005
 19,-0.00009276,0.00068109,-0.00052056,0.00028259,0.00011885,-0.0001016
 7,0.00005209,0.00003604,-0.00010363,-0.00111315,-0.00095232,0.00039971
 ,0.00015923,0.00032677,-0.00006827,-0.00005663,0.00025151,0.00004231,0
 .12247119,0.20233447,0.00021021,-0.00020829,-0.00013357,-0.00019428,0.
 00025346,0.00009250,-0.00080498,0.00008496,0.00130423,0.00017907,0.000
 11087,-0.00023963,-0.00014640,-0.00007821,0.00012651,0.00000038,0.0000
 2487,-0.00004793,-0.00008611,0.00005618,0.00011708,-0.00032485,0.00033
 538,0.00028090,-0.00003998,0.00002661,0.00001890,0.00001476,0.00002363
 ,-0.00002301,-0.00000361,-0.00001645,0.00000226,-0.00000915,-0.0000034
 8,0.00000984,-0.01398324,-0.01729477,0.00712944,-0.00005313,-0.0007487
 0,0.00149417,-0.00079906,-0.00298534,-0.00354192,0.05308993,0.06787393
 ,-0.07936594,0.00000713,0.00000580,-0.00005003,0.00000816,0.00000858,-
 0.00000524,0.00000881,-0.00000711,-0.00000561,0.00000275,-0.00000148,-
 0.00000254,-0.00000499,0.00000057,0.00000473,-0.00000134,0.00000346,-0
 .00000230,0.00001150,0.00000651,0.00000727,-0.00000653,0.00000699,-0.0
 0000266,-0.00000196,-0.00000711,0.00000096,0.00005529,0.00020330,-0.00
 028677,0.00023706,0.00012723,0.00020513,-0.00005188,0.00007369,-0.0000
 9755,-0.00089550,-0.00115474,0.00069889,0.00008834,-0.00017367,-0.0000
 3772,-0.00013056,0.00013152,-0.00012902,-0.05762647,-0.07058685,0.0843
 8914,0.00008746,0.00029842,-0.00005387,0.00062970,0.00030208,-0.000514
 02,0.00017469,-0.00061533,-0.00052435,0.00042852,-0.00035541,-0.000632
 71,-0.00023302,-0.00013088,0.00016574,0.00014721,-0.00012494,-0.000117
 66,-0.00005791,-0.00007556,0.00007406,-0.00018609,0.00068542,0.0005297
 6,-0.00009273,0.00008720,0.00010689,0.00000377,0.00003195,-0.00008395,
 0.00000076,-0.00002479,0.00001176,0.00000326,-0.00001029,0.00002462,0.
 00391986,-0.00333437,-0.00275167,0.00038526,-0.00063243,-0.00063212,0.
 00074020,-0.00020243,-0.00031864,-0.24014881,0.08975060,0.06987232,-0.
 00004237,-0.00015944,0.00000761,-0.00000511,0.00001005,0.00000289,0.00
 000575,-0.00000755,-0.00000015,0.00000382,0.00000429,-0.00000332,-0.00
 001217,-0.00000139,0.00000844,0.00000028,0.00000235,-0.00000515,-0.000
 00343,0.00001126,-0.00000500,0.00000215,0.00000469,-0.00000410,-0.0000
 0882,-0.00001435,0.00000729,-0.00011509,0.00012387,0.00004867,0.000354
 53,-0.00014064,0.00008447,0.00045058,-0.00019809,-0.00003988,0.0002623
 8,0.00011323,-0.00005338,-0.00010552,-0.00000209,0.00007947,0.00025834
 ,0.00023311,-0.00006263,-0.01572166,0.00757416,0.00473919,0.26069411,-
 0.00033578,0.00079841,0.00015240,0.00137740,-0.00025845,-0.00025552,-0
 .00259432,-0.00190352,-0.00273072,-0.00029427,0.00019254,0.00031556,0.
 00022238,0.00001834,-0.00007712,-0.00002671,-0.00007544,0.00013348,0.0
 0021784,-0.00020277,-0.00036065,0.00033465,-0.00084906,-0.00011894,0.0
 0006819,-0.00005274,-0.00004131,-0.00002222,-0.00004513,0.00004719,0.0
 0000631,0.00003005,-0.00000687,0.00000982,0.00000333,-0.00001886,0.018
 91623,-0.01091319,-0.00793939,0.00068129,0.00041311,0.00125878,0.00148
 006,0.00080934,0.00025704,0.08862376,-0.08668618,-0.03059167,-0.000095
 55,-0.00018313,-0.00011033,0.00002667,-0.00001217,0.00000652,-0.000016
 18,0.00000809,0.00000798,-0.00000533,-0.00000043,0.00000374,0.00001106
 ,0.00000013,-0.00000865,0.00000198,-0.00000451,0.00000449,-0.00000812,
 -0.00001303,-0.00000512,0.00000445,-0.00000501,0.00000523,0.00000665,0
 .00001291,-0.00000371,-0.00018852,0.00000084,0.00001414,-0.00015111,-0
 .00005863,0.00027525,-0.00046414,0.00057745,-0.00007413,-0.00021930,0.
 00038248,0.00022099,0.00005707,-0.00014800,0.00003748,-0.00086262,-0.0
 0021817,0.00006630,-0.02114125,0.01065938,0.00716066,-0.09741875,0.093
 33353,-0.00071172,0.00133478,0.00024466,0.00164805,-0.00049466,-0.0003
 8483,-0.00265433,-0.00266416,-0.00293173,0.00021207,0.00029031,-0.0014
 1948,-0.00000582,-0.00021103,0.00014907,0.00008978,-0.00021426,0.00012
 346,0.00030383,-0.00031689,-0.00042261,-0.00047799,0.00095428,0.001096
 17,-0.00002379,0.00005768,0.00007960,-0.00001509,-0.00002286,-0.000032
 33,0.00000365,0.00001211,0.00000239,-0.00000764,0.00000055,0.00001224,
 0.02010731,-0.01123017,-0.01012177,0.00167411,-0.00030330,0.00059635,0
 .00054296,0.00137631,0.00071886,0.06821203,-0.03043835,-0.06989690,-0.
 00006632,-0.00031385,-0.00013893,0.00004641,0.00000761,0.00000819,-0.0
 0002161,0.00000332,0.00001575,-0.00000191,-0.00000144,0.00000022,0.000
 00474,0.00000064,-0.00000407,0.00000407,-0.00000406,0.00000228,-0.0000
 0415,-0.00001100,-0.00000902,0.00000745,-0.00000224,0.00000406,0.00000
 479,0.00000012,-0.00000525,0.00001309,0.00000831,-0.00015641,-0.000128
 43,0.00024902,0.00046921,-0.00090361,0.00003403,-0.00040734,-0.0000825
 2,0.00029535,-0.00004638,-0.00013411,0.00002261,0.00003896,-0.00049572
 ,-0.00017734,0.00045477,0.00952074,-0.00456553,-0.00413831,-0.07486827
 ,0.03773923,0.07616725,0.00000167,-0.00002014,0.00010669,-0.00000728,0
 .00008835,-0.00002185,0.00031431,-0.00046940,0.00033946,-0.00040870,0.
 00081556,0.00100683,0.00021062,-0.00004371,-0.00012567,-0.00013683,0.0
 0005871,0.00011435,0.00002736,0.00000253,-0.00009201,-0.00142535,0.001
 70090,-0.00011119,0.00007207,-0.00005055,-0.00006934,-0.00000620,-0.00
 002287,0.00006199,0.00000152,0.00001891,-0.00000712,0.00000731,0.00000
 344,-0.00002240,-0.00376110,0.00223411,-0.00317603,-0.00008581,-0.0013
 8503,-0.00095898,-0.00006762,0.00075799,-0.00025784,-0.10380341,0.0530
 5980,-0.09529246,-0.00001206,-0.00001065,-0.00000864,0.00001361,0.0000
 0733,0.00000068,-0.00000582,0.00000478,0.00000085,-0.00000369,-0.00000
 190,0.00000228,0.00000805,0.00000053,-0.00000606,-0.00000006,-0.000001
 58,0.00000356,-0.00000059,-0.00001017,0.00000576,-0.00000300,-0.000001
 85,0.00000318,0.00000569,0.00001088,-0.00000456,0.00002543,0.00026258,
 -0.00017127,0.00031889,0.00032543,-0.00053608,0.00049416,-0.00020917,0
 .00017364,0.00007545,0.00001179,0.00024241,0.00013097,-0.00049805,-0.0
 0000824,-0.00012864,0.00003546,-0.00012777,0.01003857,-0.00862421,0.01
 651140,-0.01181988,0.01179834,-0.02179205,0.10993041,-0.00006107,0.000
 08388,-0.00013110,0.00012504,-0.00002144,-0.00010438,-0.00016263,0.000
 82351,0.00095568,0.00106404,-0.00037653,-0.00264095,-0.00029682,-0.000
 00539,0.00053602,0.00013277,-0.00010831,-0.00013494,-0.00000999,-0.000
 02307,0.00010775,0.00095254,-0.00220015,0.00114283,-0.00012033,0.00009
 386,0.00013505,0.00000809,0.00004461,-0.00010564,-0.00000433,-0.000034
 84,0.00001436,-0.00001434,-0.00000612,0.00003940,-0.01092330,0.0097708
 7,-0.01712652,-0.00073367,-0.00297205,-0.00300973,0.00023242,0.0015764
 1,-0.00021245,0.05478915,-0.10056561,0.09685563,-0.00007045,-0.0000126
 5,0.00006461,0.00001244,0.00001374,0.00000054,0.00000574,-0.00000994,0
 .00000015,0.00000564,0.00000070,-0.00000580,-0.00001334,0.00000089,0.0
 0001014,0.00000050,0.00000352,-0.00000498,0.00000920,0.00000758,0.0000
 0296,-0.00000460,0.00000930,-0.00000389,-0.00000629,-0.00002042,0.0000
 0128,0.00018371,0.00008226,-0.00022038,-0.00070337,0.00069612,-0.00131
 830,-0.00013037,-0.00014785,0.00010284,0.00020419,0.00008458,0.0001094
 8,-0.00025176,-0.00037499,0.00013798,0.00000613,-0.00007981,0.00006040
 ,0.01140717,-0.00988869,0.01674799,0.00421605,-0.00561040,0.00858486,-
 0.05984814,0.10916642,-0.00031268,0.00023891,-0.00014548,0.00029328,-0
 .00001166,-0.00026867,-0.00053447,0.00074594,0.00059145,0.00106895,-0.
 00022702,-0.00257121,-0.00025930,-0.00040126,0.00033066,0.00024043,-0.
 00013106,-0.00004936,0.00007952,-0.00008016,0.00009843,-0.00124172,0.0
 0224977,0.00187629,-0.00012208,0.00014497,0.00016772,0.00000560,0.0000
 3182,-0.00011421,-0.00000102,-0.00002742,0.00001363,-0.00000963,-0.000
 00839,0.00003882,-0.00989352,0.01045637,-0.01774985,-0.00016620,-0.004
 30878,-0.00284237,0.00066801,0.00111877,0.00086962,-0.09360535,0.09222
 653,-0.20970114,-0.00010247,-0.00001782,0.00012084,0.00003702,-0.00001
 424,-0.00000281,0.00000006,-0.00000619,0.00000552,0.00000465,0.0000023
 0,-0.00000479,-0.00001261,-0.00000070,0.00000821,0.00000257,0.00000150
 ,-0.00000376,-0.00000050,0.00000974,-0.00001036,0.00000483,0.00000251,
 -0.00000261,-0.00000950,-0.00001777,0.00000392,0.00021303,-0.00008919,
 0.00027355,-0.00100062,0.00059774,-0.00101305,-0.00012319,0.00002718,0
 .00021175,0.00024395,-0.00000784,0.00007189,-0.00030061,-0.00050808,0.
 00043936,-0.00002189,-0.00013173,-0.00000091,-0.00426869,0.00408962,-0
 .00777219,0.00490766,-0.00536348,0.00993188,0.10421651,-0.10059088,0.2
 2719924\\0.00001028,-0.00000600,0.00000470,-0.00000732,0.00000642,-0.0
 0000705,0.00000065,-0.00000157,0.00000032,-0.00001176,0.00000293,0.000
 00301,0.00000172,-0.00000229,0.00000634,0.00000493,0.00000259,-0.00000
 522,-0.00000314,-0.00000150,0.00000015,0.00000635,0.00000027,-0.000005
 85,-0.00000534,-0.00000703,0.00000670,0.00001291,0.00001408,-0.0000131
 0,-0.00000810,0.00000015,0.00000449,-0.00000372,-0.00001297,0.00000202
 ,0.00000308,0.00000100,0.00000285,-0.00000141,-0.00000055,0.00000095,0
 .00000087,0.00000358,-0.00000212,-0.00000285,-0.00000083,-0.00000293,0
 .00000072,-0.00000056,0.00000269,0.00000037,0.00000025,0.00000118,-0.0
 0000198,-0.00000323,0.00000370,-0.00000088,0.00000059,0.00000098,0.000
 00076,-0.00000088,0.00000091,0.00000143,-0.00000081,0.00000025,-0.0000
 0083,0.00000007,-0.00000056,0.00000003,0.00000146,-0.00000101,0.000001
 65,0.00000289,-0.00000255,0.00000010,-0.00000065,-0.00000236,-0.000000
 19,0.00000136,-0.00000107,0.00000074,-0.00000018,-0.00000095,0.0000007
 0,0.00000049,0.00000177,-0.00000030,-0.00000060,0.00000078,-0.00000047
 ,-0.00000042,0.00000120,-0.00000021,-0.00000081,0.00000011,0.00000003,
 0.00000077,-0.00000026,0.00000118,0.00000198,-0.00000006\\\@


 "WOULD YOU TELL ME PLEASE, WHICH WAY I OUGHT TO WALK FROM HERE?"
 "THAT DEPENDS A GREAT DEAL ON WHERE YOU WANT TO GO," SAID THE CAT.
 "I DON'T MUCH CARE WHERE -- ", SAID ALICE.
 "THEN IT DOESN'T MATTER WHICH WAY YOU WALK," SAID THE CAT.

                                      -- LEWIS CARROLL
 Job cpu time:       0 days  9 hours 22 minutes 14.6 seconds.
 Elapsed time:       0 days  1 hours 15 minutes 33.3 seconds.
 File lengths (MBytes):  RWF=   1492 Int=      0 D2E=      0 Chk=     26 Scr=      1
 Normal termination of Gaussian 16 at Wed Jan 10 18:13:31 2024.
