
Running Job 1 of 1 240-rad-SM12.in
qchem 240-rad-SM12.in_3973798.0 /expanse/lustre/scratch/selhajj/temp_project/qcscratch/28446808/qchem3973798/ 0
/cm/shared/apps/spack/cpu/opt/spack/linux-centos8-zen2/gcc-10.2.0/qchem-5.4-akfmr7b3t57bfs6qan3padb2wnb2i7cl/exe/qcprog.exe_s 240-rad-SM12.in_3973798.0 /expanse/lustre/scratch/selhajj/temp_project/qcscratch/28446808/qchem3973798/
                  Welcome to Q-Chem
     A Quantum Leap Into The Future Of Chemistry


 Q-Chem 5.4, Q-Chem, Inc., Pleasanton, CA (2021)

 License issued to: University of California, San Diego (site)

 E. Epifanovsky,  A. T. B. Gilbert,  Xintian Feng,  Joonho Lee,  Yuezhi Mao,  
 N. Mardirossian,  P. Pokhilko,  A. White,  M. Wormit,  M. P. Coons,  
 A. L. Dempwolff,  Zhengting Gan,  D. Hait,  P. R. Horn,  L. D. Jacobson,  
 I. Kaliman,  J. Kussmann,  A. W. Lange,  Ka Un Lao,  D. S. Levine,  Jie Liu,  
 S. C. McKenzie,  A. F. Morrison,  K. Nanda,  F. Plasser,  D. R. Rehn,  
 M. L. Vidal,  Zhi-Qiang You,  Ying Zhu,  B. Alam,  B. Albrecht,  
 A. Aldossary,  E. Alguire,  J. H. Andersen,  D. Barton,  K. Begam,  A. Behn,  
 Y. A. Bernard,  E. J. Berquist,  H. Burton,  A. Carreras,  K. Carter-Fenk,  
 R. Chakraborty,  A. D. Chien,  K. D. Closser,  V. Cofer-Shabica,  
 S. Dasgupta,  Jia Deng,  M. de Wergifosse,  M. Diedenhofen,  Hainam Do,  
 S. Ehlert,  Po-Tung Fang,  S. Fatehi,  Qingguo Feng,  J. Gayvert,  
 Qinghui Ge,  G. Gidofalvi,  M. Goldey,  J. Gomes,  C. Gonzalez-Espinoza,  
 S. Gulania,  A. Gunina,  M. W. D. Hanson-Heine,  P. H. P. Harbach,  
 A. W. Hauser,  M. F. Herbst,  M. Hernandez Vera,  M. Hodecker,  
 Z. C. Holden,  S. Houck,  Xunkun Huang,  Kerwin Hui,  B. C. Huynh,  
 M. Ivanov,  Hyunjun Ji,  Hanjie Jiang,  B. Kaduk,  S. Kaehler,  
 K. Khistyaev,  Jaehoon Kim,  P. Klunzinger,  Z. Koczor-Benda,  
 Joong Hoon Koh,  D. Kosenkov,  L. Koulias,  T. Kowalczyk,  C. M. Krauter,  
 K. Kue,  A. Kunitsa,  T. Kus,  A. Landau,  K. V. Lawler,  D. Lefrancois,  
 S. Lehtola,  Rain Li,  Yi-Pei Li,  Jiashu Liang,  M. Liebenthal,  
 Hung-Hsuan Lin,  You-Sheng Lin,  Fenglai Liu,  Kuan-Yu Liu,  
 M. Loipersberger,  A. Luenser,  A. Manjanath,  P. Manohar,  E. Mansoor,  
 S. F. Manzer,  Shan-Ping Mao,  A. V. Marenich,  T. Markovich,  S. Mason,  
 S. A. Maurer,  P. F. McLaughlin,  M. F. S. J. Menger,  J.-M. Mewes,  
 S. A. Mewes,  P. Morgante,  J. W. Mullinax,  T. S. Nguyen-Beck,  
 K. J. Oosterbaan,  G. Paran,  Alexander C. Paul,  Suranjan K. Paul,  
 F. Pavosevic,  Zheng Pei,  S. Prager,  E. I. Proynov,  E. Ramos,  B. Rana,  
 A. E. Rask,  A. Rettig,  R. M. Richard,  F. Rob,  E. Rossomme,  T. Scheele,  
 M. Scheurer,  M. Schneider,  N. Sergueev,  S. M. Sharada,  W. Skomorowski,  
 D. W. Small,  C. J. Stein,  Yu-Chuan Su,  E. J. Sundstrom,  Zhen Tao,  
 J. Thirman,  T. Tsuchimochi,  N. M. Tubman,  S. P. Veccham,  O. Vydrov,  
 J. Wenzel,  J. Witte,  A. Yamada,  Kun Yao,  S. Yeganeh,  S. R. Yost,  
 A. Zech,  Igor Ying Zhang,  Xing Zhang,  Yu Zhang,  D. Zuev,  
 A. Aspuru-Guzik,  A. T. Bell,  N. A. Besley,  K. B. Bravaya,  B. R. Brooks,  
 D. Casanova,  Jeng-Da Chai,  S. Coriani,  C. J. Cramer,  
 A. E. DePrince, III,  R. A. DiStasio Jr.,  A. Dreuw,  B. D. Dunietz,  
 T. R. Furlani,  W. A. Goddard III,  S. Grimme,  S. Hammes-Schiffer,  
 T. Head-Gordon,  W. J. Hehre,  Chao-Ping Hsu,  T.-C. Jagau,  Yousung Jung,  
 A. Klamt,  Jing Kong,  D. S. Lambrecht,  WanZhen Liang,  N. J. Mayhall,  
 C. W. McCurdy,  J. B. Neaton,  C. Ochsenfeld,  J. A. Parkhill,  R. Peverati,  
 V. A. Rassolov,  Yihan Shao,  L. V. Slipchenko,  T. Stauch,  R. P. Steele,  
 J. E. Subotnik,  A. J. W. Thom,  A. Tkatchenko,  D. G. Truhlar,  
 T. Van Voorhis,  T. A. Wesolowski,  K. B. Whaley,  H. L. Woodcock III,  
 P. M. Zimmerman,  S. Faraji,  P. M. W. Gill,  M. Head-Gordon,  
 J. M. Herbert,  A. I. Krylov

 Contributors to earlier versions of Q-Chem not listed above: 
 R. D. Adamson,  B. Austin,  R. Baer,  J. Baker,  G. J. O. Beran,  
 K. Brandhorst,  S. T. Brown,  E. F. C. Byrd,  A. K. Chakraborty,  
 G. K. L. Chan,  Chun-Min Chang,  Yunqing Chen,  C.-L. Cheng,  
 Siu Hung Chien,  D. M. Chipman,  D. L. Crittenden,  H. Dachsel,  
 R. J. Doerksen,  A. D. Dutoi,  R. G. Edgar,  J. Fosso-Tande,  
 L. Fusti-Molnar,  D. Ghosh,  A. Ghysels,  A. Golubeva-Zadorozhnaya,  
 J. Gonthier,  M. S. Gordon,  S. R. Gwaltney,  G. Hawkins,  J. E. Herr,  
 A. Heyden,  S. Hirata,  E. G. Hohenstein,  G. Kedziora,  F. J. Keil,  
 C. Kelley,  Jihan Kim,  R. A. King,  R. Z. Khaliullin,  P. P. Korambath,  
 W. Kurlancheek,  A. Laurent,  A. M. Lee,  M. S. Lee,  S. V. Levchenko,  
 Ching Yeh Lin,  D. Liotard,  E. Livshits,  R. C. Lochan,  I. Lotan,  
 L. A. Martinez-Martinez,  P. E. Maslen,  N. Nair,  D. P. O'Neill,  
 D. Neuhauser,  E. Neuscamman,  C. M. Oana,  R. Olivares-Amaya,  R. Olson,  
 T. M. Perrine,  B. Peters,  P. A. Pieniazek,  A. Prociuk,  Y. M. Rhee,  
 J. Ritchie,  M. A. Rohrdanz,  E. Rosta,  N. J. Russ,  H. F. Schaefer III,  
 M. W. Schmidt,  N. E. Schultz,  S. Sharma,  N. Shenvi,  C. D. Sherrill,  
 A. C. Simmonett,  A. Sodt,  T. Stein,  D. Stuck,  K. S. Thanthiriwatte,  
 V. Vanovschi,  L. Vogt,  Tao Wang,  A. Warshel,  M. A. Watson,  
 C. F. Williams,  Q. Wu,  X. Xu,  Jun Yang,  W. Zhang,  Yan Zhao

 Please cite Q-Chem as follows:
 Y. Shao et al., Mol. Phys. 113, 184-215 (2015)
 DOI: 10.1080/00268976.2014.952696

 Q-Chem 5.4.0 for Intel X86 EM64T Linux

 Parts of Q-Chem use Armadillo 9.800.1 (Horizon Scraper).
 http://arma.sourceforge.net/

 Q-Chem begins on Sat Feb  3 13:15:21 2024  

 Host: 
0

     Scratch files written to /expanse/lustre/scratch/selhajj/temp_project/qcscratch/28446808/qchem3973798//
 May1621 |scratch|qcdevops|jenkins|workspace|build_RNUM    
 Processing $rem in /cm/shared/apps/spack/cpu/opt/spack/linux-centos8-zen2/gcc-10.2.0/qchem-5.4-akfmr7b3t57bfs6qan3padb2wnb2i7cl/config/preferences:
 Processing $rem in /home/selhajj/.qchemrc:
 Symmetry turned off for PCM/SM12/SMD calculation
 Method-specific promolecule density matrix will be built for SM12 calculation

 Checking the input file for inconsistencies... 	...done.

--------------------------------------------------------------
User input:
--------------------------------------------------------------
$molecule
-1 2
O                  2.7719960000     -2.7466590000     -1.3782930000
C                  2.2217780000     -1.7560060000     -0.8257030000
C                  0.7962250000     -1.5996630000     -0.7546590000
C                  0.1426630000     -0.5340420000     -0.1607630000
C                 -1.3765510000     -0.4993310000     -0.1608270000
C                 -1.9490730000      0.7024460000     -0.9472320000
C                 -3.4847350000      0.6947880000     -0.9689480000
C                 -4.0705990000      0.6454570000      0.4494910000
C                 -3.5140730000     -0.5501890000      1.2358760000
C                 -1.9784700000     -0.5451410000      1.2625620000
C                  0.8907910000      0.5426330000      0.4568270000
O                  0.3373240000      1.5353670000      1.0112420000
C                  2.3606170000      0.4286940000      0.4106300000
C                  3.1505630000      1.4411150000      0.9924310000
C                  4.5321260000      1.3713210000      0.9696400000
C                  5.1718120000      0.2753110000      0.3578410000
C                  4.4143670000     -0.7288480000     -0.2187700000
C                  3.0073920000     -0.6748960000     -0.2052050000
H                  0.2161030000     -2.3977290000     -1.2127240000
H                 -1.7105240000     -1.4103020000     -0.6795890000
H                 -1.5837360000      1.6218400000     -0.4812930000
H                 -1.5584770000      0.6816090000     -1.9707330000
H                 -3.8582890000      1.5783280000     -1.5012800000
H                 -3.8402930000     -0.1804890000     -1.5319400000
H                 -3.8102430000      1.5725630000      0.9764750000
H                 -5.1664010000      0.6008050000      0.4097050000
H                 -3.8707140000     -1.4802750000      0.7697660000
H                 -3.9086480000     -0.5454960000      2.2595240000
H                 -1.6085020000     -1.4365970000      1.7811920000
H                 -1.6143430000      0.3246180000      1.8164280000
H                  2.6327190000      2.2728990000      1.4562880000
H                  5.1246060000      2.1609550000      1.4230870000
H                  6.2565420000      0.2202760000      0.3397160000
H                  4.8760470000     -1.5853620000     -0.6973530000
$end

$rem
BASIS  =  6-311++G(d,p)
GUI  =  2
JOB_TYPE  =  SP
METHOD  =  B3LYP
SCF_CONVERGENCE  = 8
SOLVENT_METHOD = sm12
$end

$smx
solvent dimethylformamide
charges CM5
$end





--------------------------------------------------------------
 ----------------------------------------------------------------
             Standard Nuclear Orientation (Angstroms)
    I     Atom           X                Y                Z
 ----------------------------------------------------------------
    1      O       2.7719960000    -2.7466590000    -1.3782930000
    2      C       2.2217780000    -1.7560060000    -0.8257030000
    3      C       0.7962250000    -1.5996630000    -0.7546590000
    4      C       0.1426630000    -0.5340420000    -0.1607630000
    5      C      -1.3765510000    -0.4993310000    -0.1608270000
    6      C      -1.9490730000     0.7024460000    -0.9472320000
    7      C      -3.4847350000     0.6947880000    -0.9689480000
    8      C      -4.0705990000     0.6454570000     0.4494910000
    9      C      -3.5140730000    -0.5501890000     1.2358760000
   10      C      -1.9784700000    -0.5451410000     1.2625620000
   11      C       0.8907910000     0.5426330000     0.4568270000
   12      O       0.3373240000     1.5353670000     1.0112420000
   13      C       2.3606170000     0.4286940000     0.4106300000
   14      C       3.1505630000     1.4411150000     0.9924310000
   15      C       4.5321260000     1.3713210000     0.9696400000
   16      C       5.1718120000     0.2753110000     0.3578410000
   17      C       4.4143670000    -0.7288480000    -0.2187700000
   18      C       3.0073920000    -0.6748960000    -0.2052050000
   19      H       0.2161030000    -2.3977290000    -1.2127240000
   20      H      -1.7105240000    -1.4103020000    -0.6795890000
   21      H      -1.5837360000     1.6218400000    -0.4812930000
   22      H      -1.5584770000     0.6816090000    -1.9707330000
   23      H      -3.8582890000     1.5783280000    -1.5012800000
   24      H      -3.8402930000    -0.1804890000    -1.5319400000
   25      H      -3.8102430000     1.5725630000     0.9764750000
   26      H      -5.1664010000     0.6008050000     0.4097050000
   27      H      -3.8707140000    -1.4802750000     0.7697660000
   28      H      -3.9086480000    -0.5454960000     2.2595240000
   29      H      -1.6085020000    -1.4365970000     1.7811920000
   30      H      -1.6143430000     0.3246180000     1.8164280000
   31      H       2.6327190000     2.2728990000     1.4562880000
   32      H       5.1246060000     2.1609550000     1.4230870000
   33      H       6.2565420000     0.2202760000     0.3397160000
   34      H       4.8760470000    -1.5853620000    -0.6973530000
 ----------------------------------------------------------------
 Nuclear Repulsion Energy =        1252.37647187 hartrees
 There are       65 alpha and       64 beta electrons
 Requested basis set is 6-311++G(d,p)
 There are 188 shells and 508 basis functions

 Total QAlloc Memory Limit   8000 MB
 Mega-Array Size       188 MB
 MEM_STATIC part       192 MB
 A cutoff of  1.0D-11 yielded  13657 shell pairs
 There are    101222 function pairs (    107894 Cartesian)
 Smallest overlap matrix eigenvalue = 1.96E-07

 Q-Chem warning in module stvman/mkSTV.C, line 323:

 Overlap eigenvalue is smaller than square root of threshold
 Use THRESH >= 12 to get rid of this warning

 Linear dependence detected in AO basis
 Tighter screening thresholds may be required for diffuse basis sets
 Use S2THRESH > 14 and THRESH = 14 in case of SCF convergence issues
 Number of orthogonalized atomic orbitals = 504
 Maximum deviation from orthogonality = 3.576E-10

 Scale SEOQF with 1.000000e-02/1.000000e-01/1.000000e-01

 Standard Electronic Orientation quadrupole field applied
 Nucleus-field energy     =     0.0000000067 hartrees
 ================ Generating on-the-fly Promolecule Density  ================
Attempting to make child job directory: /expanse/lustre/scratch/selhajj/temp_project/qcscratch/28446808/qchem3973798//Frg1/
Attempting to make child job directory: /expanse/lustre/scratch/selhajj/temp_project/qcscratch/28446808/qchem3973798//Frg2/
Attempting to make child job directory: /expanse/lustre/scratch/selhajj/temp_project/qcscratch/28446808/qchem3973798//Frg3/
Creating input file /expanse/lustre/scratch/selhajj/temp_project/qcscratch/28446808/qchem3973798/Frg1.input
using default PutDataFrgm: nothing
calling putenv with: QCSCRATCH=/expanse/lustre/scratch/selhajj/temp_project/qcscratch/28446808/qchem3973798/ 
Spawning Job For Fragment 0
Done Job For Fragment 0
calling putenv with: QCSCRATCH=/expanse/lustre/scratch/selhajj/temp_project/qcscratch/28446808 
calling putenv with: QCTHREADS=8 
Creating input file /expanse/lustre/scratch/selhajj/temp_project/qcscratch/28446808/qchem3973798/Frg2.input
using default PutDataFrgm: nothing
calling putenv with: QCSCRATCH=/expanse/lustre/scratch/selhajj/temp_project/qcscratch/28446808/qchem3973798/ 
Spawning Job For Fragment 1
Done Job For Fragment 1
calling putenv with: QCSCRATCH=/expanse/lustre/scratch/selhajj/temp_project/qcscratch/28446808 
calling putenv with: QCTHREADS=8 
Creating input file /expanse/lustre/scratch/selhajj/temp_project/qcscratch/28446808/qchem3973798/Frg3.input
using default PutDataFrgm: nothing
calling putenv with: QCSCRATCH=/expanse/lustre/scratch/selhajj/temp_project/qcscratch/28446808/qchem3973798/ 
Spawning Job For Fragment 2
Done Job For Fragment 2
calling putenv with: QCSCRATCH=/expanse/lustre/scratch/selhajj/temp_project/qcscratch/28446808 
calling putenv with: QCTHREADS=8 
 Time for running child jobs:  CPU 0.01 s  wall 5.22 s
 ============= Method Specific Promolecule Density Constructed =============
 Guess from superposition of atomic densities
 Warning:  Energy on first SCF cycle will be non-variational
 SAD guess density has 128.000000 electrons

 -----------------------------------------------------------------------
  General SCF calculation program by
  Eric Jon Sundstrom, Paul Horn, Yuezhi Mao, Dmitri Zuev, Alec White,
  David Stuck, Shaama M.S., Shane Yost, Joonho Lee, David Small,
  Daniel Levine, Susi Lehtola, Hugh Burton, Evgeny Epifanovsky,
  Bang C. Huynh
 -----------------------------------------------------------------------
 Exchange:     0.2000 Hartree-Fock + 0.0800 Slater + 0.7200 B88
 Correlation:  0.1900 VWN1RPA + 0.8100 LYP
 Using SG-1 standard quadrature grid
 using 8 threads for integral computing
 -------------------------------------------------------
 OpenMP Integral computing Module                
 Release: version 1.0, May 2013, Q-Chem Inc. Pittsburgh 
 -------------------------------------------------------
 
 SM12 calculation using CM5 charges
 Citation of the SM12 model:
 Marenich, A.V.; Cramer, C.J.; Truhlar, D.G.
 J. Chem. Theory Comput. 2013, 9, 609-612.
 iSolventCode=          91
 Solvent: dimethylformamide                                               
 
Hirshfeld: reading atomic densities from disk.
warning:  vdwdata pointer should have been initialzed before dftman
 Inaccurate integrated density:
   Number of electrons =   129
   Numerical integral  =   127.996557548573
   Relative error      =    -0.7778623654 %

 Charges (in A.U.) from CM5PAC (Nov. 11, 2011)
 -----------------------------------------------
 Center     Atomic      CM5         Hirshfeld
 Number     Number      Charge      Charge
 -----------------------------------------------
    1          8       -0.060065   -0.016195
    2          6        0.034561    0.006920
    3          6       -0.046237    0.001395
    4          6       -0.009650   -0.001330
    5          6       -0.068426   -0.006303
    6          6       -0.110715   -0.004564
    7          6       -0.114872   -0.006301
    8          6       -0.115364   -0.006515
    9          6       -0.114979   -0.006410
   10          6       -0.110787   -0.004636
   11          6        0.035761    0.006621
   12          8       -0.070566   -0.018952
   13          6       -0.001705    0.000249
   14          6       -0.051780   -0.000260
   15          6       -0.057845   -0.002778
   16          6       -0.057814   -0.002742
   17          6       -0.052005   -0.000477
   18          6       -0.002120   -0.000057
   19          1        0.064195    0.004661
   20          1        0.064363    0.003525
   21          1        0.067157    0.005832
   22          1        0.059497    0.004226
   23          1        0.057053    0.003234
   24          1        0.058434    0.003576
   25          1        0.058939    0.003704
   26          1        0.056895    0.003202
   27          1        0.058484    0.003626
   28          1        0.057032    0.003214
   29          1        0.059507    0.004239
   30          1        0.067145    0.005816
   31          1        0.066519    0.005476
   32          1        0.058475    0.003042
   33          1        0.058474    0.003050
   34          1        0.065881    0.005356
 -----------------------------------------------

 Dipole moment (in Debye)
 -----------------------------------------------
                 X        Y        Z     Total
 -----------------------------------------------
 CM5         -0.1484   0.0228   0.0113   0.1506
 Hirshfeld   -0.0285   0.0314   0.0184   0.0463
 -----------------------------------------------

 A unrestricted SCF calculation will be
 performed using DIIS
 SCF converges when DIIS error is below 1.0e-08
 ---------------------------------------
  Cycle       Energy         DIIS error
 ---------------------------------------
Hirshfeld: reading atomic densities from disk.

 Charges (in A.U.) from CM5PAC (Nov. 11, 2011)
 -----------------------------------------------
 Center     Atomic      CM5         Hirshfeld
 Number     Number      Charge      Charge
 -----------------------------------------------
    1          8       -0.641787   -0.597917
    2          6        0.232604    0.204963
    3          6       -0.207982   -0.160350
    4          6       -0.046487   -0.038168
    5          6       -0.151739   -0.089616
    6          6       -0.308345   -0.202194
    7          6       -0.301571   -0.193001
    8          6       -0.307848   -0.198999
    9          6       -0.301652   -0.193083
   10          6       -0.308402   -0.202250
   11          6        0.254941    0.225801
   12          8       -0.607874   -0.556260
   13          6       -0.065687   -0.063733
   14          6       -0.173462   -0.121942
   15          6       -0.174904   -0.119838
   16          6       -0.174066   -0.118994
   17          6       -0.171662   -0.120134
   18          6       -0.068401   -0.066338
   19          1        0.167770    0.108236
   20          1        0.155545    0.094707
   21          1        0.137877    0.076553
   22          1        0.154412    0.099141
   23          1        0.157574    0.103755
   24          1        0.151037    0.096179
   25          1        0.148879    0.093644
   26          1        0.157839    0.104145
   27          1        0.151048    0.096189
   28          1        0.157547    0.103729
   29          1        0.154416    0.099148
   30          1        0.137868    0.076540
   31          1        0.167231    0.106187
   32          1        0.178776    0.123343
   33          1        0.179058    0.123635
   34          1        0.168828    0.108303
 -----------------------------------------------

 Dipole moment (in Debye)
 -----------------------------------------------
                 X        Y        Z     Total
 -----------------------------------------------
 CM5         -7.7684   2.9612   0.9052   8.3628
 Hirshfeld   -7.6486   2.9698   0.9123   8.2555
 -----------------------------------------------

    1    -774.0168480980      1.42e-02  
Hirshfeld: reading atomic densities from disk.

 Charges (in A.U.) from CM5PAC (Nov. 11, 2011)
 -----------------------------------------------
 Center     Atomic      CM5         Hirshfeld
 Number     Number      Charge      Charge
 -----------------------------------------------
    1          8        0.032169    0.076039
    2          6       -0.245842   -0.273483
    3          6       -0.149853   -0.102221
    4          6       -0.084147   -0.075828
    5          6        0.041445    0.103568
    6          6        0.027709    0.133859
    7          6        0.034118    0.142689
    8          6        0.044096    0.152945
    9          6        0.034035    0.142604
   10          6        0.027622    0.133774
   11          6       -0.237768   -0.266908
   12          8        0.095840    0.147454
   13          6       -0.063962   -0.062008
   14          6       -0.044360    0.007160
   15          6       -0.036556    0.018510
   16          6       -0.041061    0.014011
   17          6       -0.044052    0.007476
   18          6       -0.057575   -0.055512
   19          1       -0.030317   -0.089851
   20          1       -0.009377   -0.070215
   21          1       -0.002631   -0.063956
   22          1       -0.037094   -0.092364
   23          1       -0.031598   -0.085416
   24          1       -0.025438   -0.080296
   25          1       -0.007556   -0.062791
   26          1       -0.037575   -0.091268
   27          1       -0.025432   -0.080290
   28          1       -0.031630   -0.085447
   29          1       -0.037103   -0.092371
   30          1       -0.002630   -0.063958
   31          1       -0.026176   -0.087219
   32          1       -0.000938   -0.056371
   33          1       -0.001156   -0.056579
   34          1       -0.023573   -0.084098
 -----------------------------------------------

 Dipole moment (in Debye)
 -----------------------------------------------
                 X        Y        Z     Total
 -----------------------------------------------
 CM5         -8.5682   3.0790   0.9664   9.1558
 Hirshfeld   -8.4484   3.0877   0.9736   9.0475
 -----------------------------------------------

    2    -769.6497829516      1.81e-03  
Hirshfeld: reading atomic densities from disk.

 Charges (in A.U.) from CM5PAC (Nov. 11, 2011)
 -----------------------------------------------
 Center     Atomic      CM5         Hirshfeld
 Number     Number      Charge      Charge
 -----------------------------------------------
    1          8       -0.569832   -0.525962
    2          6        0.132245    0.104604
    3          6       -0.057472   -0.009840
    4          6        0.020321    0.028641
    5          6       -0.085990   -0.023867
    6          6       -0.151618   -0.045467
    7          6       -0.147746   -0.039175
    8          6       -0.148871   -0.040022
    9          6       -0.147837   -0.039268
   10          6       -0.151671   -0.045519
   11          6        0.148558    0.119417
   12          8       -0.527414   -0.475800
   13          6        0.005146    0.007100
   14          6       -0.090508   -0.038988
   15          6       -0.112574   -0.057507
   16          6       -0.112599   -0.057528
   17          6       -0.093449   -0.041921
   18          6       -0.002018    0.000045
   19          1        0.049422   -0.010112
   20          1        0.065688    0.004850
   21          1        0.069699    0.008374
   22          1        0.068067    0.012796
   23          1        0.073558    0.019740
   24          1        0.065889    0.011031
   25          1        0.070708    0.015473
   26          1        0.073413    0.019719
   27          1        0.065898    0.011040
   28          1        0.073530    0.019712
   29          1        0.068053    0.012785
   30          1        0.069696    0.008368
   31          1        0.069074    0.008030
   32          1        0.071587    0.016154
   33          1        0.071763    0.016340
   34          1        0.068818    0.008293
 -----------------------------------------------

 Dipole moment (in Debye)
 -----------------------------------------------
                 X        Y        Z     Total
 -----------------------------------------------
 CM5         -8.3523   2.6697   0.7351   8.7993
 Hirshfeld   -8.2324   2.6784   0.7422   8.6889
 -----------------------------------------------

    3    -769.2390082668      2.74e-03  
Hirshfeld: reading atomic densities from disk.

 Charges (in A.U.) from CM5PAC (Nov. 11, 2011)
 -----------------------------------------------
 Center     Atomic      CM5         Hirshfeld
 Number     Number      Charge      Charge
 -----------------------------------------------
    1          8       -0.400435   -0.356564
    2          6        0.067736    0.040095
    3          6       -0.162653   -0.115021
    4          6       -0.056040   -0.047720
    5          6       -0.083299   -0.021177
    6          6       -0.173501   -0.067350
    7          6       -0.166733   -0.058162
    8          6       -0.168706   -0.059857
    9          6       -0.166820   -0.058252
   10          6       -0.173554   -0.067403
   11          6        0.082971    0.053831
   12          8       -0.361519   -0.309905
   13          6       -0.059782   -0.057827
   14          6       -0.110431   -0.058911
   15          6       -0.113090   -0.058023
   16          6       -0.113848   -0.058776
   17          6       -0.109753   -0.058225
   18          6       -0.061424   -0.059361
   19          1        0.079955    0.020421
   20          1        0.080360    0.019521
   21          1        0.080311    0.018986
   22          1        0.078154    0.022883
   23          1        0.084444    0.030626
   24          1        0.077064    0.022206
   25          1        0.082099    0.026864
   26          1        0.083810    0.030117
   27          1        0.077073    0.022214
   28          1        0.084416    0.030598
   29          1        0.078143    0.022875
   30          1        0.080314    0.018986
   31          1        0.089869    0.028826
   32          1        0.093505    0.038072
   33          1        0.093480    0.038057
   34          1        0.089418    0.028893
 -----------------------------------------------

 Dipole moment (in Debye)
 -----------------------------------------------
                 X        Y        Z     Total
 -----------------------------------------------
 CM5         -7.8687   2.9240   0.8849   8.4409
 Hirshfeld   -7.7488   2.9326   0.8920   8.3330
 -----------------------------------------------

    4    -770.0291749566      6.09e-04  
Hirshfeld: reading atomic densities from disk.

 Charges (in A.U.) from CM5PAC (Nov. 11, 2011)
 -----------------------------------------------
 Center     Atomic      CM5         Hirshfeld
 Number     Number      Charge      Charge
 -----------------------------------------------
    1          8       -0.433621   -0.389751
    2          6        0.069935    0.042294
    3          6       -0.145305   -0.097673
    4          6       -0.033917   -0.025597
    5          6       -0.071190   -0.009068
    6          6       -0.159186   -0.053036
    7          6       -0.153962   -0.045392
    8          6       -0.153547   -0.044698
    9          6       -0.154045   -0.045476
   10          6       -0.159255   -0.053104
   11          6        0.084361    0.055220
   12          8       -0.391390   -0.339776
   13          6       -0.039248   -0.037294
   14          6       -0.110525   -0.059005
   15          6       -0.118799   -0.063732
   16          6       -0.120066   -0.064994
   17          6       -0.110915   -0.059387
   18          6       -0.040472   -0.038409
   19          1        0.074469    0.014935
   20          1        0.075145    0.014306
   21          1        0.076493    0.015168
   22          1        0.070070    0.014799
   23          1        0.075555    0.021736
   24          1        0.071311    0.016453
   25          1        0.076742    0.021507
   26          1        0.074501    0.020808
   27          1        0.071321    0.016462
   28          1        0.075526    0.021708
   29          1        0.070061    0.014792
   30          1        0.076498    0.015169
   31          1        0.086572    0.025529
   32          1        0.090955    0.035522
   33          1        0.090952    0.035528
   34          1        0.086493    0.025968
 -----------------------------------------------

 Dipole moment (in Debye)
 -----------------------------------------------
                 X        Y        Z     Total
 -----------------------------------------------
 CM5         -8.2495   2.8899   0.8608   8.7833
 Hirshfeld   -8.1296   2.8986   0.8680   8.6744
 -----------------------------------------------

    5    -770.0639161882      1.71e-04  
Hirshfeld: reading atomic densities from disk.

 Charges (in A.U.) from CM5PAC (Nov. 11, 2011)
 -----------------------------------------------
 Center     Atomic      CM5         Hirshfeld
 Number     Number      Charge      Charge
 -----------------------------------------------
    1          8       -0.428971   -0.385101
    2          6        0.073630    0.045989
    3          6       -0.138141   -0.090509
    4          6       -0.039204   -0.030885
    5          6       -0.080511   -0.018388
    6          6       -0.164243   -0.058092
    7          6       -0.157852   -0.049282
    8          6       -0.158804   -0.049955
    9          6       -0.157939   -0.049370
   10          6       -0.164301   -0.058150
   11          6        0.086848    0.057708
   12          8       -0.390531   -0.338917
   13          6       -0.043221   -0.041266
   14          6       -0.107487   -0.055967
   15          6       -0.113997   -0.058931
   16          6       -0.114747   -0.059676
   17          6       -0.107926   -0.056398
   18          6       -0.045721   -0.043658
   19          1        0.072665    0.013131
   20          1        0.076709    0.015871
   21          1        0.077510    0.016185
   22          1        0.073080    0.017810
   23          1        0.078468    0.024650
   24          1        0.073023    0.018165
   25          1        0.078330    0.023095
   26          1        0.077569    0.023875
   27          1        0.073033    0.018174
   28          1        0.078440    0.024622
   29          1        0.073069    0.017801
   30          1        0.077514    0.016185
   31          1        0.084411    0.023367
   32          1        0.088320    0.032887
   33          1        0.088299    0.032875
   34          1        0.084198    0.023673
 -----------------------------------------------

 Dipole moment (in Debye)
 -----------------------------------------------
                 X        Y        Z     Total
 -----------------------------------------------
 CM5         -8.0758   2.8205   0.8238   8.5937
 Hirshfeld   -7.9559   2.8291   0.8309   8.4847
 -----------------------------------------------

    6    -770.0680004471      5.14e-05  
Hirshfeld: reading atomic densities from disk.

 Charges (in A.U.) from CM5PAC (Nov. 11, 2011)
 -----------------------------------------------
 Center     Atomic      CM5         Hirshfeld
 Number     Number      Charge      Charge
 -----------------------------------------------
    1          8       -0.430516   -0.386646
    2          6        0.072826    0.045185
    3          6       -0.143567   -0.095935
    4          6       -0.036241   -0.027922
    5          6       -0.076867   -0.014744
    6          6       -0.163036   -0.056885
    7          6       -0.157417   -0.048846
    8          6       -0.158060   -0.049211
    9          6       -0.157502   -0.048933
   10          6       -0.163097   -0.056946
   11          6        0.087822    0.058682
   12          8       -0.388208   -0.336594
   13          6       -0.042520   -0.040566
   14          6       -0.108312   -0.056792
   15          6       -0.116050   -0.060983
   16          6       -0.117072   -0.062001
   17          6       -0.108414   -0.056887
   18          6       -0.044792   -0.042729
   19          1        0.073238    0.013704
   20          1        0.075864    0.015025
   21          1        0.077031    0.015706
   22          1        0.072468    0.017197
   23          1        0.078034    0.024216
   24          1        0.072566    0.017708
   25          1        0.077919    0.022685
   26          1        0.077172    0.023478
   27          1        0.072575    0.017717
   28          1        0.078006    0.024188
   29          1        0.072457    0.017189
   30          1        0.077035    0.015707
   31          1        0.085046    0.024003
   32          1        0.089095    0.033662
   33          1        0.089077    0.033654
   34          1        0.084958    0.024433
 -----------------------------------------------

 Dipole moment (in Debye)
 -----------------------------------------------
                 X        Y        Z     Total
 -----------------------------------------------
 CM5         -8.1527   2.8781   0.8554   8.6880
 Hirshfeld   -8.0328   2.8868   0.8626   8.5792
 -----------------------------------------------

    7    -770.0684352131      1.84e-05  
Hirshfeld: reading atomic densities from disk.

 Charges (in A.U.) from CM5PAC (Nov. 11, 2011)
 -----------------------------------------------
 Center     Atomic      CM5         Hirshfeld
 Number     Number      Charge      Charge
 -----------------------------------------------
    1          8       -0.428300   -0.384430
    2          6        0.072797    0.045157
    3          6       -0.141389   -0.093757
    4          6       -0.038391   -0.030072
    5          6       -0.077622   -0.015500
    6          6       -0.163097   -0.056946
    7          6       -0.157123   -0.048553
    8          6       -0.157788   -0.048939
    9          6       -0.157208   -0.048640
   10          6       -0.163158   -0.057007
   11          6        0.086316    0.057175
   12          8       -0.390097   -0.338483
   13          6       -0.042715   -0.040760
   14          6       -0.108586   -0.057066
   15          6       -0.115551   -0.060484
   16          6       -0.116499   -0.061427
   17          6       -0.108859   -0.057332
   18          6       -0.044558   -0.042495
   19          1        0.073358    0.013824
   20          1        0.076190    0.015352
   21          1        0.077120    0.015796
   22          1        0.072526    0.017255
   23          1        0.077993    0.024175
   24          1        0.072591    0.017733
   25          1        0.077860    0.022625
   26          1        0.077102    0.023408
   27          1        0.072600    0.017742
   28          1        0.077965    0.024147
   29          1        0.072515    0.017247
   30          1        0.077124    0.015796
   31          1        0.085210    0.024167
   32          1        0.089106    0.033673
   33          1        0.089077    0.033654
   34          1        0.085007    0.024482
 -----------------------------------------------

 Dipole moment (in Debye)
 -----------------------------------------------
                 X        Y        Z     Total
 -----------------------------------------------
 CM5         -8.1204   2.8229   0.8246   8.6365
 Hirshfeld   -8.0005   2.8316   0.8318   8.5274
 -----------------------------------------------

    8    -770.0684678593      8.09e-06  
Hirshfeld: reading atomic densities from disk.

 Charges (in A.U.) from CM5PAC (Nov. 11, 2011)
 -----------------------------------------------
 Center     Atomic      CM5         Hirshfeld
 Number     Number      Charge      Charge
 -----------------------------------------------
    1          8       -0.429658   -0.385788
    2          6        0.072705    0.045064
    3          6       -0.141589   -0.093957
    4          6       -0.037593   -0.029274
    5          6       -0.077860   -0.015737
    6          6       -0.163275   -0.057124
    7          6       -0.157356   -0.048785
    8          6       -0.157982   -0.049133
    9          6       -0.157441   -0.048872
   10          6       -0.163336   -0.057185
   11          6        0.086565    0.057425
   12          8       -0.388442   -0.336828
   13          6       -0.042440   -0.040486
   14          6       -0.108498   -0.056978
   15          6       -0.115653   -0.060587
   16          6       -0.116587   -0.061516
   17          6       -0.108848   -0.057321
   18          6       -0.044797   -0.042734
   19          1        0.073291    0.013757
   20          1        0.076179    0.015341
   21          1        0.077212    0.015887
   22          1        0.072573    0.017302
   23          1        0.078064    0.024245
   24          1        0.072664    0.017806
   25          1        0.077974    0.022740
   26          1        0.077164    0.023470
   27          1        0.072674    0.017815
   28          1        0.078036    0.024218
   29          1        0.072562    0.017294
   30          1        0.077216    0.015888
   31          1        0.085071    0.024027
   32          1        0.088995    0.033562
   33          1        0.088976    0.033553
   34          1        0.084953    0.024428
 -----------------------------------------------

 Dipole moment (in Debye)
 -----------------------------------------------
                 X        Y        Z     Total
 -----------------------------------------------
 CM5         -8.1425   2.8547   0.8423   8.6694
 Hirshfeld   -8.0226   2.8634   0.8495   8.5605
 -----------------------------------------------

    9    -770.0684645698      5.88e-06  
Hirshfeld: reading atomic densities from disk.

 Charges (in A.U.) from CM5PAC (Nov. 11, 2011)
 -----------------------------------------------
 Center     Atomic      CM5         Hirshfeld
 Number     Number      Charge      Charge
 -----------------------------------------------
    1          8       -0.429011   -0.385141
    2          6        0.072759    0.045119
    3          6       -0.142075   -0.094443
    4          6       -0.037239   -0.028920
    5          6       -0.077607   -0.015484
    6          6       -0.163216   -0.057065
    7          6       -0.157390   -0.048819
    8          6       -0.158049   -0.049200
    9          6       -0.157475   -0.048906
   10          6       -0.163277   -0.057126
   11          6        0.087019    0.057879
   12          8       -0.389180   -0.337566
   13          6       -0.042498   -0.040544
   14          6       -0.108526   -0.057006
   15          6       -0.115855   -0.060789
   16          6       -0.116828   -0.061756
   17          6       -0.108687   -0.057159
   18          6       -0.044642   -0.042579
   19          1        0.073236    0.013702
   20          1        0.076110    0.015272
   21          1        0.077173    0.015848
   22          1        0.072563    0.017292
   23          1        0.078060    0.024241
   24          1        0.072662    0.017804
   25          1        0.077969    0.022734
   26          1        0.077179    0.023485
   27          1        0.072672    0.017813
   28          1        0.078032    0.024214
   29          1        0.072552    0.017284
   30          1        0.077176    0.015848
   31          1        0.085057    0.024013
   32          1        0.088988    0.033555
   33          1        0.088961    0.033537
   34          1        0.084907    0.024382
 -----------------------------------------------

 Dipole moment (in Debye)
 -----------------------------------------------
                 X        Y        Z     Total
 -----------------------------------------------
 CM5         -8.1409   2.8414   0.8348   8.6628
 Hirshfeld   -8.0210   2.8500   0.8419   8.5538
 -----------------------------------------------

   10    -770.0684852999      2.53e-06  
Hirshfeld: reading atomic densities from disk.

 Charges (in A.U.) from CM5PAC (Nov. 11, 2011)
 -----------------------------------------------
 Center     Atomic      CM5         Hirshfeld
 Number     Number      Charge      Charge
 -----------------------------------------------
    1          8       -0.429176   -0.385306
    2          6        0.072878    0.045237
    3          6       -0.141860   -0.094227
    4          6       -0.037490   -0.029171
    5          6       -0.077597   -0.015474
    6          6       -0.163196   -0.057046
    7          6       -0.157336   -0.048765
    8          6       -0.158006   -0.049157
    9          6       -0.157421   -0.048853
   10          6       -0.163257   -0.057106
   11          6        0.086792    0.057652
   12          8       -0.388959   -0.337345
   13          6       -0.042550   -0.040595
   14          6       -0.108520   -0.057000
   15          6       -0.115785   -0.060718
   16          6       -0.116755   -0.061683
   17          6       -0.108757   -0.057229
   18          6       -0.044650   -0.042587
   19          1        0.073246    0.013712
   20          1        0.076117    0.015279
   21          1        0.077146    0.015822
   22          1        0.072563    0.017292
   23          1        0.078050    0.024231
   24          1        0.072644    0.017786
   25          1        0.077942    0.022707
   26          1        0.077169    0.023476
   27          1        0.072653    0.017795
   28          1        0.078022    0.024204
   29          1        0.072552    0.017283
   30          1        0.077150    0.015822
   31          1        0.085055    0.024011
   32          1        0.088981    0.033548
   33          1        0.088956    0.033533
   34          1        0.084916    0.024391
 -----------------------------------------------

 Dipole moment (in Debye)
 -----------------------------------------------
                 X        Y        Z     Total
 -----------------------------------------------
 CM5         -8.1416   2.8428   0.8356   8.6640
 Hirshfeld   -8.0217   2.8514   0.8427   8.5550
 -----------------------------------------------

   11    -770.0685036294      1.05e-06  
Hirshfeld: reading atomic densities from disk.

 Charges (in A.U.) from CM5PAC (Nov. 11, 2011)
 -----------------------------------------------
 Center     Atomic      CM5         Hirshfeld
 Number     Number      Charge      Charge
 -----------------------------------------------
    1          8       -0.429123   -0.385253
    2          6        0.072748    0.045107
    3          6       -0.141866   -0.094234
    4          6       -0.037411   -0.029092
    5          6       -0.077642   -0.015519
    6          6       -0.163204   -0.057053
    7          6       -0.157344   -0.048774
    8          6       -0.157997   -0.049148
    9          6       -0.157430   -0.048861
   10          6       -0.163265   -0.057113
   11          6        0.086825    0.057685
   12          8       -0.388976   -0.337362
   13          6       -0.042478   -0.040523
   14          6       -0.108523   -0.057003
   15          6       -0.115794   -0.060728
   16          6       -0.116755   -0.061683
   17          6       -0.108763   -0.057236
   18          6       -0.044675   -0.042611
   19          1        0.073247    0.013713
   20          1        0.076119    0.015281
   21          1        0.077154    0.015830
   22          1        0.072566    0.017295
   23          1        0.078054    0.024236
   24          1        0.072644    0.017786
   25          1        0.077945    0.022710
   26          1        0.077170    0.023476
   27          1        0.072654    0.017795
   28          1        0.078026    0.024208
   29          1        0.072555    0.017287
   30          1        0.077158    0.015830
   31          1        0.085051    0.024007
   32          1        0.088979    0.033546
   33          1        0.088955    0.033531
   34          1        0.084913    0.024388
 -----------------------------------------------

 Dipole moment (in Debye)
 -----------------------------------------------
                 X        Y        Z     Total
 -----------------------------------------------
 CM5         -8.1422   2.8433   0.8359   8.6648
 Hirshfeld   -8.0223   2.8520   0.8430   8.5558
 -----------------------------------------------

   12    -770.0684979582      2.85e-07  
Hirshfeld: reading atomic densities from disk.

 Charges (in A.U.) from CM5PAC (Nov. 11, 2011)
 -----------------------------------------------
 Center     Atomic      CM5         Hirshfeld
 Number     Number      Charge      Charge
 -----------------------------------------------
    1          8       -0.429127   -0.385257
    2          6        0.072799    0.045159
    3          6       -0.141871   -0.094239
    4          6       -0.037429   -0.029110
    5          6       -0.077633   -0.015510
    6          6       -0.163202   -0.057051
    7          6       -0.157345   -0.048775
    8          6       -0.158003   -0.049154
    9          6       -0.157431   -0.048862
   10          6       -0.163263   -0.057112
   11          6        0.086813    0.057672
   12          8       -0.388968   -0.337354
   13          6       -0.042516   -0.040561
   14          6       -0.108530   -0.057010
   15          6       -0.115798   -0.060731
   16          6       -0.116762   -0.061691
   17          6       -0.108746   -0.057218
   18          6       -0.044651   -0.042587
   19          1        0.073245    0.013711
   20          1        0.076118    0.015280
   21          1        0.077155    0.015830
   22          1        0.072564    0.017293
   23          1        0.078054    0.024235
   24          1        0.072645    0.017787
   25          1        0.077947    0.022712
   26          1        0.077170    0.023476
   27          1        0.072655    0.017796
   28          1        0.078025    0.024208
   29          1        0.072553    0.017284
   30          1        0.077159    0.015831
   31          1        0.085050    0.024007
   32          1        0.088978    0.033545
   33          1        0.088953    0.033529
   34          1        0.084910    0.024385
 -----------------------------------------------

 Dipole moment (in Debye)
 -----------------------------------------------
                 X        Y        Z     Total
 -----------------------------------------------
 CM5         -8.1420   2.8428   0.8356   8.6644
 Hirshfeld   -8.0221   2.8514   0.8427   8.5554
 -----------------------------------------------

   13    -770.0684980736      1.37e-07  
Hirshfeld: reading atomic densities from disk.

 Charges (in A.U.) from CM5PAC (Nov. 11, 2011)
 -----------------------------------------------
 Center     Atomic      CM5         Hirshfeld
 Number     Number      Charge      Charge
 -----------------------------------------------
    1          8       -0.429125   -0.385255
    2          6        0.072795    0.045154
    3          6       -0.141869   -0.094237
    4          6       -0.037433   -0.029113
    5          6       -0.077627   -0.015504
    6          6       -0.163202   -0.057052
    7          6       -0.157344   -0.048774
    8          6       -0.158004   -0.049155
    9          6       -0.157430   -0.048861
   10          6       -0.163263   -0.057112
   11          6        0.086821    0.057681
   12          8       -0.388971   -0.337358
   13          6       -0.042509   -0.040554
   14          6       -0.108519   -0.056999
   15          6       -0.115794   -0.060727
   16          6       -0.116758   -0.061687
   17          6       -0.108760   -0.057232
   18          6       -0.044669   -0.042606
   19          1        0.073247    0.013712
   20          1        0.076118    0.015280
   21          1        0.077154    0.015829
   22          1        0.072564    0.017293
   23          1        0.078053    0.024235
   24          1        0.072646    0.017787
   25          1        0.077947    0.022712
   26          1        0.077170    0.023476
   27          1        0.072655    0.017796
   28          1        0.078025    0.024207
   29          1        0.072553    0.017284
   30          1        0.077158    0.015829
   31          1        0.085050    0.024006
   32          1        0.088977    0.033544
   33          1        0.088953    0.033530
   34          1        0.084912    0.024387
 -----------------------------------------------

 Dipole moment (in Debye)
 -----------------------------------------------
                 X        Y        Z     Total
 -----------------------------------------------
 CM5         -8.1421   2.8429   0.8357   8.6645
 Hirshfeld   -8.0222   2.8516   0.8428   8.5555
 -----------------------------------------------

   14    -770.0684987388      4.68e-08  
Hirshfeld: reading atomic densities from disk.

 Charges (in A.U.) from CM5PAC (Nov. 11, 2011)
 -----------------------------------------------
 Center     Atomic      CM5         Hirshfeld
 Number     Number      Charge      Charge
 -----------------------------------------------
    1          8       -0.429125   -0.385255
    2          6        0.072794    0.045154
    3          6       -0.141868   -0.094236
    4          6       -0.037431   -0.029111
    5          6       -0.077630   -0.015507
    6          6       -0.163203   -0.057052
    7          6       -0.157344   -0.048774
    8          6       -0.158003   -0.049153
    9          6       -0.157430   -0.048861
   10          6       -0.163264   -0.057113
   11          6        0.086817    0.057677
   12          8       -0.388971   -0.337357
   13          6       -0.042510   -0.040555
   14          6       -0.108527   -0.057007
   15          6       -0.115797   -0.060731
   16          6       -0.116760   -0.061689
   17          6       -0.108753   -0.057225
   18          6       -0.044660   -0.042597
   19          1        0.073247    0.013713
   20          1        0.076118    0.015280
   21          1        0.077154    0.015829
   22          1        0.072564    0.017293
   23          1        0.078053    0.024235
   24          1        0.072646    0.017787
   25          1        0.077947    0.022712
   26          1        0.077170    0.023476
   27          1        0.072655    0.017796
   28          1        0.078025    0.024207
   29          1        0.072553    0.017285
   30          1        0.077158    0.015830
   31          1        0.085051    0.024007
   32          1        0.088977    0.033544
   33          1        0.088953    0.033530
   34          1        0.084912    0.024387
 -----------------------------------------------

 Dipole moment (in Debye)
 -----------------------------------------------
                 X        Y        Z     Total
 -----------------------------------------------
 CM5         -8.1421   2.8428   0.8356   8.6644
 Hirshfeld   -8.0222   2.8514   0.8427   8.5555
 -----------------------------------------------

   15    -770.0684984622      2.91e-08  
Hirshfeld: reading atomic densities from disk.

 Charges (in A.U.) from CM5PAC (Nov. 11, 2011)
 -----------------------------------------------
 Center     Atomic      CM5         Hirshfeld
 Number     Number      Charge      Charge
 -----------------------------------------------
    1          8       -0.429125   -0.385254
    2          6        0.072795    0.045154
    3          6       -0.141869   -0.094237
    4          6       -0.037430   -0.029111
    5          6       -0.077631   -0.015508
    6          6       -0.163202   -0.057051
    7          6       -0.157345   -0.048774
    8          6       -0.158002   -0.049153
    9          6       -0.157430   -0.048861
   10          6       -0.163263   -0.057112
   11          6        0.086817    0.057677
   12          8       -0.388972   -0.337358
   13          6       -0.042511   -0.040557
   14          6       -0.108524   -0.057004
   15          6       -0.115796   -0.060730
   16          6       -0.116760   -0.061689
   17          6       -0.108755   -0.057227
   18          6       -0.044661   -0.042598
   19          1        0.073247    0.013713
   20          1        0.076118    0.015280
   21          1        0.077154    0.015830
   22          1        0.072564    0.017293
   23          1        0.078053    0.024235
   24          1        0.072645    0.017787
   25          1        0.077947    0.022712
   26          1        0.077170    0.023476
   27          1        0.072655    0.017796
   28          1        0.078025    0.024207
   29          1        0.072553    0.017285
   30          1        0.077158    0.015830
   31          1        0.085050    0.024007
   32          1        0.088977    0.033544
   33          1        0.088953    0.033530
   34          1        0.084912    0.024387
 -----------------------------------------------

 Dipole moment (in Debye)
 -----------------------------------------------
                 X        Y        Z     Total
 -----------------------------------------------
 CM5         -8.1420   2.8428   0.8356   8.6644
 Hirshfeld   -8.0222   2.8514   0.8427   8.5555
 -----------------------------------------------

   16    -770.0684986341      1.08e-08  
   17    -770.0684986347      6.24e-09  Convergence criterion met
 ---------------------------------------
 SCF time:   CPU 8749.91s  wall 1112.00s 
<S^2> =          0.760132997
(1)  E-EN(liq) elect-nuc energy of solute               -770.068498635 a.u.
(2)  G-P(liq) polarization free energy of solvation           -45.4090 kcal/mol
(3)  G-ENP(liq) elect-nuc-pol free energy of system     -770.140862542 a.u.
(4)  G-CDS(liq) cavity-dispersion-solvent structure 
     free energy                                               -9.4124 kcal/mol
(5)  G-P-CDS(liq) = G-P(liq) + G-CDS(liq) = (2) + (4)         -54.8215 kcal/mol
(6)  G-S(liq) free energy of system = (1) + (5)         -770.155862202 a.u.
 SCF   energy in the final basis set =     -770.1558622018
 Total energy in the final basis set =     -770.1558622018
 
 --------------------------------------------------------------
 
                    Orbital Energies (a.u.)
 --------------------------------------------------------------
 
 Alpha MOs
 -- Occupied --
-19.0745 -19.0742 -10.2214 -10.2214 -10.1828 -10.1823 -10.1790 -10.1788
-10.1782 -10.1778 -10.1762 -10.1735 -10.1662 -10.1661 -10.1653 -10.1629
-10.1605 -10.1605  -0.9984  -0.9960  -0.8638  -0.8395  -0.8073  -0.7631
 -0.7567  -0.7413  -0.7262  -0.6743  -0.6326  -0.6191  -0.6101  -0.5904
 -0.5648  -0.5506  -0.5106  -0.5038  -0.4765  -0.4656  -0.4589  -0.4414
 -0.4384  -0.4343  -0.4220  -0.4209  -0.4138  -0.4075  -0.3915  -0.3871
 -0.3791  -0.3772  -0.3725  -0.3558  -0.3548  -0.3445  -0.3425  -0.3412
 -0.3214  -0.3058  -0.3053  -0.2722  -0.2633  -0.2535  -0.2403  -0.2338
 -0.1539
 -- Virtual --
 -0.0415  -0.0297  -0.0265  -0.0242  -0.0202  -0.0139  -0.0095  -0.0093
  0.0032   0.0055   0.0125   0.0135   0.0171   0.0257   0.0312   0.0313
  0.0317   0.0411   0.0453   0.0473   0.0503   0.0577   0.0609   0.0637
  0.0699   0.0736   0.0755   0.0782   0.0834   0.0865   0.0868   0.0896
  0.0915   0.0981   0.1025   0.1056   0.1096   0.1099   0.1105   0.1113
  0.1157   0.1177   0.1197   0.1219   0.1289   0.1330   0.1333   0.1346
  0.1405   0.1410   0.1465   0.1469   0.1481   0.1513   0.1540   0.1571
  0.1589   0.1654   0.1730   0.1762   0.1780   0.1801   0.1902   0.1935
  0.1943   0.1959   0.2010   0.2062   0.2093   0.2101   0.2231   0.2261
  0.2314   0.2363   0.2365   0.2384   0.2390   0.2417   0.2465   0.2474
  0.2497   0.2543   0.2664   0.2668   0.2685   0.2722   0.2751   0.2776
  0.2833   0.2895   0.2923   0.2952   0.2985   0.3065   0.3078   0.3110
  0.3149   0.3238   0.3278   0.3295   0.3329   0.3332   0.3371   0.3404
  0.3427   0.3463   0.3561   0.3577   0.3667   0.3697   0.3704   0.3753
  0.3860   0.3950   0.4080   0.4156   0.4288   0.4375   0.4471   0.4530
  0.4659   0.4770   0.4934   0.4936   0.5141   0.5180   0.5276   0.5319
  0.5400   0.5466   0.5487   0.5612   0.5722   0.5807   0.5867   0.5936
  0.5970   0.6002   0.6098   0.6147   0.6177   0.6237   0.6329   0.6345
  0.6405   0.6440   0.6515   0.6527   0.6573   0.6659   0.6710   0.6762
  0.6898   0.7009   0.7038   0.7094   0.7134   0.7192   0.7245   0.7299
  0.7332   0.7512   0.7521   0.7560   0.7611   0.7621   0.7662   0.7712
  0.7776   0.7843   0.7860   0.7906   0.7941   0.8073   0.8130   0.8330
  0.8393   0.8476   0.8604   0.8753   0.8856   0.8885   0.9021   0.9194
  0.9277   0.9368   0.9456   0.9515   0.9535   0.9621   0.9776   0.9833
  0.9910   1.0020   1.0189   1.0304   1.0406   1.0545   1.0615   1.0644
  1.0894   1.0974   1.0979   1.1183   1.1235   1.1247   1.1395   1.1412
  1.1562   1.1881   1.2002   1.2004   1.2186   1.2237   1.2459   1.2460
  1.2511   1.2740   1.2913   1.3023   1.3139   1.3174   1.3321   1.3558
  1.3997   1.4001   1.4446   1.4623   1.4883   1.4959   1.5057   1.5187
  1.5212   1.5262   1.5400   1.5426   1.5492   1.5639   1.5691   1.5729
  1.5743   1.5916   1.6003   1.6169   1.6175   1.6253   1.6257   1.6385
  1.6416   1.6471   1.6549   1.6610   1.6684   1.6723   1.6838   1.7001
  1.7140   1.7307   1.7391   1.7505   1.7581   1.7581   1.7714   1.7921
  1.7926   1.7995   1.8025   1.8100   1.8174   1.8294   1.8342   1.8428
  1.8447   1.8701   1.8925   1.8967   1.9069   1.9083   1.9200   1.9264
  1.9407   1.9527   1.9552   1.9709   1.9824   1.9863   2.0144   2.0187
  2.0306   2.0378   2.0531   2.0732   2.0819   2.0883   2.1026   2.1321
  2.1614   2.1677   2.1887   2.2060   2.2294   2.2484   2.2493   2.2628
  2.2680   2.2910   2.2984   2.3130   2.3199   2.3463   2.3565   2.3685
  2.3841   2.3926   2.4025   2.4134   2.4289   2.4587   2.4822   2.4937
  2.5015   2.5112   2.5484   2.5542   2.5643   2.5881   2.6098   2.6468
  2.6511   2.6522   2.6832   2.6874   2.7013   2.7118   2.7143   2.7220
  2.7281   2.7438   2.7461   2.7659   2.7692   2.7746   2.7873   2.7929
  2.7932   2.8068   2.8154   2.8205   2.8356   2.8408   2.8545   2.8735
  2.8855   2.8875   2.8888   2.8922   2.9038   2.9131   2.9209   2.9345
  2.9695   2.9704   2.9766   2.9929   3.0059   3.0126   3.0657   3.0779
  3.0865   3.1105   3.1431   3.1448   3.1631   3.1796   3.2150   3.2481
  3.2804   3.3057   3.3302   3.3444   3.3533   3.3776   3.3865   3.4195
  3.4554   3.4942   3.5132   3.5379   3.5574   3.5795   3.5979   3.6472
  3.7310   3.7813   3.7994   3.8189   3.8358   3.8491   3.8577   3.9128
  4.0358   4.0608   4.1102   4.1118   4.1541   4.1687   4.2065   4.2694
  4.2829   4.2961   4.3324   4.3648   4.4563   4.8002   4.8430   5.0866
  5.1135   5.2659   5.3375   5.7703   5.8533  23.5682  23.7979  23.8400
 23.9078  23.9395  23.9407  23.9446  23.9479  23.9541  23.9580  23.9736
 23.9778  24.0336  24.1066  24.1436  24.1833  50.0571  50.1011
 
 Beta MOs
 -- Occupied --
-19.0679 -19.0674 -10.2202 -10.2200 -10.1825 -10.1819 -10.1788 -10.1784
-10.1778 -10.1775 -10.1763 -10.1719 -10.1662 -10.1661 -10.1653 -10.1616
-10.1604 -10.1604  -0.9869  -0.9843  -0.8619  -0.8384  -0.8033  -0.7616
 -0.7551  -0.7411  -0.7245  -0.6657  -0.6311  -0.6168  -0.6098  -0.5888
 -0.5633  -0.5497  -0.5085  -0.5017  -0.4744  -0.4646  -0.4580  -0.4412
 -0.4381  -0.4337  -0.4202  -0.4122  -0.4086  -0.4021  -0.3880  -0.3831
 -0.3790  -0.3761  -0.3544  -0.3527  -0.3458  -0.3432  -0.3405  -0.3375
 -0.3210  -0.3046  -0.3038  -0.2569  -0.2502  -0.2409  -0.2342  -0.2279
 -- Virtual --
 -0.0869  -0.0350  -0.0297  -0.0265  -0.0202  -0.0142  -0.0139  -0.0095
 -0.0079   0.0032   0.0055   0.0127   0.0136   0.0174   0.0258   0.0313
  0.0318   0.0331   0.0419   0.0473   0.0502   0.0538   0.0615   0.0635
  0.0638   0.0702   0.0757   0.0783   0.0791   0.0836   0.0866   0.0868
  0.0917   0.0928   0.0982   0.1034   0.1056   0.1097   0.1106   0.1106
  0.1122   0.1177   0.1178   0.1204   0.1219   0.1288   0.1336   0.1342
  0.1347   0.1409   0.1411   0.1468   0.1469   0.1490   0.1514   0.1541
  0.1580   0.1590   0.1655   0.1743   0.1767   0.1781   0.1803   0.1904
  0.1946   0.1950   0.1970   0.2011   0.2066   0.2111   0.2149   0.2237
  0.2265   0.2320   0.2364   0.2370   0.2392   0.2395   0.2419   0.2472
  0.2488   0.2510   0.2557   0.2673   0.2681   0.2692   0.2725   0.2754
  0.2780   0.2839   0.2901   0.2931   0.2960   0.2993   0.3082   0.3105
  0.3123   0.3155   0.3253   0.3288   0.3301   0.3341   0.3372   0.3376
  0.3411   0.3432   0.3467   0.3571   0.3580   0.3676   0.3702   0.3718
  0.3760   0.3869   0.3964   0.4091   0.4168   0.4317   0.4384   0.4477
  0.4540   0.4666   0.4775   0.4938   0.4942   0.5157   0.5191   0.5285
  0.5327   0.5410   0.5479   0.5497   0.5623   0.5728   0.5815   0.5884
  0.5943   0.5979   0.6013   0.6110   0.6171   0.6185   0.6269   0.6332
  0.6391   0.6426   0.6448   0.6529   0.6530   0.6580   0.6661   0.6720
  0.6777   0.6909   0.7016   0.7080   0.7101   0.7139   0.7213   0.7247
  0.7305   0.7335   0.7516   0.7546   0.7564   0.7615   0.7634   0.7665
  0.7716   0.7791   0.7845   0.7866   0.7916   0.7946   0.8078   0.8144
  0.8340   0.8396   0.8479   0.8609   0.8755   0.8862   0.8892   0.9039
  0.9202   0.9285   0.9377   0.9477   0.9536   0.9558   0.9636   0.9797
  0.9858   0.9921   1.0036   1.0198   1.0318   1.0424   1.0559   1.0619
  1.0676   1.0913   1.0992   1.1029   1.1189   1.1278   1.1288   1.1444
  1.1451   1.1629   1.1901   1.2015   1.2039   1.2193   1.2298   1.2474
  1.2480   1.2614   1.2762   1.2974   1.3034   1.3165   1.3192   1.3353
  1.3575   1.4017   1.4027   1.4459   1.4630   1.4891   1.4997   1.5062
  1.5208   1.5217   1.5270   1.5419   1.5448   1.5499   1.5645   1.5696
  1.5739   1.5745   1.5918   1.6011   1.6181   1.6182   1.6256   1.6261
  1.6391   1.6441   1.6487   1.6551   1.6619   1.6695   1.6729   1.6847
  1.7009   1.7152   1.7324   1.7399   1.7521   1.7593   1.7604   1.7726
  1.7943   1.7954   1.8002   1.8038   1.8103   1.8182   1.8295   1.8346
  1.8441   1.8458   1.8722   1.8942   1.8990   1.9096   1.9107   1.9218
  1.9279   1.9427   1.9551   1.9559   1.9721   1.9834   1.9906   2.0158
  2.0198   2.0320   2.0400   2.0543   2.0743   2.0835   2.0890   2.1047
  2.1331   2.1632   2.1712   2.1889   2.2081   2.2301   2.2491   2.2503
  2.2645   2.2699   2.2913   2.3011   2.3151   2.3203   2.3466   2.3578
  2.3693   2.3858   2.3942   2.4041   2.4153   2.4293   2.4592   2.4824
  2.4941   2.5017   2.5118   2.5491   2.5544   2.5650   2.5883   2.6104
  2.6487   2.6527   2.6549   2.6835   2.6895   2.7018   2.7122   2.7185
  2.7227   2.7289   2.7441   2.7466   2.7663   2.7695   2.7801   2.7877
  2.7935   2.7972   2.8070   2.8176   2.8219   2.8361   2.8452   2.8552
  2.8767   2.8890   2.8901   2.8946   2.8964   2.9060   2.9189   2.9270
  2.9367   2.9713   2.9820   2.9852   3.0055   3.0092   3.0220   3.0663
  3.0826   3.0873   3.1160   3.1434   3.1459   3.1645   3.1837   3.2170
  3.2500   3.2826   3.3070   3.3440   3.3451   3.3673   3.3838   3.3873
  3.4200   3.4566   3.4965   3.5154   3.5391   3.5589   3.5818   3.5992
  3.6493   3.7333   3.7813   3.7997   3.8220   3.8359   3.8498   3.8609
  3.9134   4.0365   4.0618   4.1108   4.1119   4.1543   4.1720   4.2079
  4.2709   4.2830   4.2988   4.3345   4.3649   4.4589   4.8050   4.8439
  5.1135   5.1414   5.2713   5.3430   5.7757   5.8588  23.5689  23.7992
 23.8401  23.9081  23.9404  23.9407  23.9448  23.9482  23.9542  23.9594
 23.9745  23.9780  24.0342  24.1067  24.1451  24.1835  50.0637  50.1078
 --------------------------------------------------------------
 
          Ground-State Mulliken Net Atomic Charges

     Atom                 Charge (a.u.)    Spin (a.u.)
  --------------------------------------------------------
      1 O                    -0.368461       0.237919
      2 C                    -1.783353       0.079687
      3 C                    -0.865276       0.091207
      4 C                     0.669704       0.085067
      5 C                     1.459471      -0.023425
      6 C                    -0.483076       0.018407
      7 C                     0.384217       0.000879
      8 C                     0.094221      -0.000031
      9 C                     0.384079       0.000807
     10 C                    -0.481157       0.018672
     11 C                    -2.234256       0.095613
     12 O                    -0.200322       0.257977
     13 C                    -1.473467       0.008154
     14 C                     0.074843       0.046528
     15 C                     0.922535       0.021700
     16 C                     1.036105       0.030524
     17 C                    -0.026315       0.021134
     18 C                    -0.982083       0.033381
     19 H                     0.140842      -0.009105
     20 H                     0.221025      -0.002496
     21 H                     0.031011      -0.002217
     22 H                     0.129184       0.000010
     23 H                     0.265582       0.000478
     24 H                     0.134386      -0.000067
     25 H                     0.076374       0.000085
     26 H                     0.301812      -0.000013
     27 H                     0.134296      -0.000068
     28 H                     0.265690       0.000475
     29 H                     0.129153       0.000015
     30 H                     0.031490      -0.002184
     31 H                     0.148532      -0.002640
     32 H                     0.363483      -0.001882
     33 H                     0.363661      -0.002226
     34 H                     0.136071      -0.002363
  --------------------------------------------------------
  Sum of atomic charges =    -1.000000
  Sum of spin   charges =     1.000000

 -----------------------------------------------------------------
                    Cartesian Multipole Moments
 -----------------------------------------------------------------
    Charge (ESU x 10^10)
                -4.8032
    Dipole Moment (Debye)
         X      -8.0393      Y       3.1971      Z       1.0364
       Tot       8.7135
    Quadrupole Moments (Debye-Ang)
        XX    -136.3399     XY      16.4510     YY    -135.5684
        XZ       7.9106     YZ     -10.7373     ZZ    -121.2462
    Octopole Moments (Debye-Ang^2)
       XXX    -238.8221    XXY      59.3585    XYY    -119.9178
       YYY      82.1346    XXZ      13.6161    XYZ     -20.7361
       YYZ      14.0034    XZZ     -88.4127    YZZ      23.0388
       ZZZ     -26.5114
    Hexadecapole Moments (Debye-Ang^3)
      XXXX   -6284.1324   XXXY     257.7397   XXYY   -1357.6946
      XYYY     278.1394   YYYY   -1288.6784   XXXZ      77.7376
      XXYZ     -87.2707   XYYZ      95.5299   YYYZ    -257.5852
      XXZZ   -1230.3645   XYZZ      83.0308   YYZZ    -341.4056
      XZZZ       5.1757   YZZZ    -203.2436   ZZZZ    -696.6709
 -----------------------------------------------------------------
 Total job time:  1121.22s(wall), 8757.91s(cpu) 
 Sat Feb  3 13:34:03 2024

        *************************************************************
        *                                                           *
        *  Thank you very much for using Q-Chem.  Have a nice day.  *
        *                                                           *
        *************************************************************


