 Entering Gaussian System, Link 0=g16
 Input=080-PCM.com
 Output=080-PCM.log
 Initial command:
 /sysapps/ubuntu-applications/gaussian/Gaussian/AVX2/g16/l1.exe "/scratch/selhajj1/4332826/Gau-3538226.inp" -scrdir="/scratch/selhajj1/4332826/"
 Entering Link 1 = /sysapps/ubuntu-applications/gaussian/Gaussian/AVX2/g16/l1.exe PID=   3538230.
  
 Copyright (c) 1988,1990,1992,1993,1995,1998,2003,2009,2016,
            Gaussian, Inc.  All Rights Reserved.
  
 This is part of the Gaussian(R) 16 program.  It is based on
 the Gaussian(R) 09 system (copyright 2009, Gaussian, Inc.),
 the Gaussian(R) 03 system (copyright 2003, Gaussian, Inc.),
 the Gaussian(R) 98 system (copyright 1998, Gaussian, Inc.),
 the Gaussian(R) 94 system (copyright 1995, Gaussian, Inc.),
 the Gaussian 92(TM) system (copyright 1992, Gaussian, Inc.),
 the Gaussian 90(TM) system (copyright 1990, Gaussian, Inc.),
 the Gaussian 88(TM) system (copyright 1988, Gaussian, Inc.),
 the Gaussian 86(TM) system (copyright 1986, Carnegie Mellon
 University), and the Gaussian 82(TM) system (copyright 1983,
 Carnegie Mellon University). Gaussian is a federally registered
 trademark of Gaussian, Inc.
  
 This software contains proprietary and confidential information,
 including trade secrets, belonging to Gaussian, Inc.
  
 This software is provided under written license and may be
 used, copied, transmitted, or stored only in accord with that
 written license.
  
 The following legend is applicable only to US Government
 contracts under FAR:
  
                    RESTRICTED RIGHTS LEGEND
  
 Use, reproduction and disclosure by the US Government is
 subject to restrictions as set forth in subparagraphs (a)
 and (c) of the Commercial Computer Software - Restricted
 Rights clause in FAR 52.227-19.
  
 Gaussian, Inc.
 340 Quinnipiac St., Bldg. 40, Wallingford CT 06492
  
  
 ---------------------------------------------------------------
 Warning -- This program may not be used in any manner that
 competes with the business of Gaussian, Inc. or will provide
 assistance to any competitor of Gaussian, Inc.  The licensee
 of this program is prohibited from giving any competitor of
 Gaussian, Inc. access to this program.  By using this program,
 the user acknowledges that Gaussian, Inc. is engaged in the
 business of creating and licensing software in the field of
 computational chemistry and represents and warrants to the
 licensee that it is not a competitor of Gaussian, Inc. and that
 it will not use this program in any manner prohibited above.
 ---------------------------------------------------------------
  

 Cite this work as:
 Gaussian 16, Revision A.03,
 M. J. Frisch, G. W. Trucks, H. B. Schlegel, G. E. Scuseria, 
 M. A. Robb, J. R. Cheeseman, G. Scalmani, V. Barone, 
 G. A. Petersson, H. Nakatsuji, X. Li, M. Caricato, A. V. Marenich, 
 J. Bloino, B. G. Janesko, R. Gomperts, B. Mennucci, H. P. Hratchian, 
 J. V. Ortiz, A. F. Izmaylov, J. L. Sonnenberg, D. Williams-Young, 
 F. Ding, F. Lipparini, F. Egidi, J. Goings, B. Peng, A. Petrone, 
 T. Henderson, D. Ranasinghe, V. G. Zakrzewski, J. Gao, N. Rega, 
 G. Zheng, W. Liang, M. Hada, M. Ehara, K. Toyota, R. Fukuda, 
 J. Hasegawa, M. Ishida, T. Nakajima, Y. Honda, O. Kitao, H. Nakai, 
 T. Vreven, K. Throssell, J. A. Montgomery, Jr., J. E. Peralta, 
 F. Ogliaro, M. J. Bearpark, J. J. Heyd, E. N. Brothers, K. N. Kudin, 
 V. N. Staroverov, T. A. Keith, R. Kobayashi, J. Normand, 
 K. Raghavachari, A. P. Rendell, J. C. Burant, S. S. Iyengar, 
 J. Tomasi, M. Cossi, J. M. Millam, M. Klene, C. Adamo, R. Cammi, 
 J. W. Ochterski, R. L. Martin, K. Morokuma, O. Farkas, 
 J. B. Foresman, and D. J. Fox, Gaussian, Inc., Wallingford CT, 2016.
 
 ******************************************
 Gaussian 16:  ES64L-G16RevA.03 25-Dec-2016
                24-Jan-2024 
 ******************************************
 %chk=080-PCM.chk
 %nproc=8
 Will use up to    8 processors via shared memory.
 %mem=30GB
 ----------------------------------------------------------------
 #P UB3LYP/6-311++G(d,p) SCRF=(PCM,Solvent=n,n-DiMethylFormamide)
 ----------------------------------------------------------------
 1/38=1,172=1/1;
 2/12=2,17=6,18=5,40=1/2;
 3/5=4,6=6,7=1111,11=2,25=1,30=1,70=2201,72=148,74=-5,116=2/1,2,3;
 4//1;
 5/5=2,38=5,53=148/2;
 6/7=2,8=2,9=2,10=2,28=1/1;
 99/5=1,9=1/99;
 Leave Link    1 at Wed Jan 24 22:47:35 2024, MaxMem=  4026531840 cpu:               0.9 elap:               0.2
 (Enter /sysapps/ubuntu-applications/gaussian/Gaussian/AVX2/g16/l101.exe)
 ------------------
 Quinone PCM in DMF
 ------------------
 Symbolic Z-matrix:
 Charge =  0 Multiplicity = 1
 C                     1.34915   1.48953  -2.47025 
 C                    -0.08834   1.74279  -2.70196 
 C                    -1.06338   0.97656  -2.18126 
 C                    -0.68295  -0.19221  -1.32387 
 C                     0.75698  -0.44244  -1.07346 
 O                     2.20481   2.21866  -2.94441 
 O                    -1.53294  -0.92346  -0.84336 
 H                    -0.30685   2.60609  -3.32241 
 C                     1.71914   0.31755  -1.61684 
 C                     3.18434   0.08088  -1.30179 
 C                     4.08404  -0.42537  -2.37251 
 C                     5.46157  -0.48466  -2.11649 
 C                     3.59363  -0.86435  -3.60828 
 C                     6.33118  -0.96945  -3.08422 
 C                     5.8344   -1.40785  -4.31396 
 C                     4.46605  -1.35767  -4.5741 
 O                     3.56921   0.29465  -0.16868 
 H                     5.82614  -0.14323  -1.15552 
 H                     2.53079  -0.83093  -3.81688 
 H                     7.39595  -1.00746  -2.88489 
 H                     6.51457  -1.78733  -5.0683 
 H                     4.08036  -1.69995  -5.52733 
 C                    -2.52518   1.21639  -2.39779 
 H                     0.98082  -1.28431  -0.42675 
 H                    -2.68992   2.08367  -3.03787 
 H                    -3.03308   1.37457  -1.44235 
 H                    -2.99484   0.3396   -2.85198 
 
 ITRead=  0  0  0  0  0  0  0  0  0  0  0  0  0  0  0  0  0  0  0  0
 ITRead=  0  0  0  0  0  0  0
 MicOpt= -1 -1 -1 -1 -1 -1 -1 -1 -1 -1 -1 -1 -1 -1 -1 -1 -1 -1 -1 -1
 MicOpt= -1 -1 -1 -1 -1 -1 -1
 NAtoms=     27 NQM=       27 NQMF=       0 NMMI=      0 NMMIF=      0
                NMic=       0 NMicF=      0.
                    Isotopes and Nuclear Properties:
 (Nuclear quadrupole moments (NQMom) in fm**2, nuclear magnetic moments (NMagM)
  in nuclear magnetons)

  Atom         1           2           3           4           5           6           7           8           9          10
 IAtWgt=          12          12          12          12          12          16          16           1          12          12
 AtmWgt=  12.0000000  12.0000000  12.0000000  12.0000000  12.0000000  15.9949146  15.9949146   1.0078250  12.0000000  12.0000000
 NucSpn=           0           0           0           0           0           0           0           1           0           0
 AtZEff=  -0.0000000  -0.0000000  -0.0000000  -0.0000000  -0.0000000  -0.0000000  -0.0000000  -0.0000000  -0.0000000  -0.0000000
 NQMom=    0.0000000   0.0000000   0.0000000   0.0000000   0.0000000   0.0000000   0.0000000   0.0000000   0.0000000   0.0000000
 NMagM=    0.0000000   0.0000000   0.0000000   0.0000000   0.0000000   0.0000000   0.0000000   2.7928460   0.0000000   0.0000000
 AtZNuc=   6.0000000   6.0000000   6.0000000   6.0000000   6.0000000   8.0000000   8.0000000   1.0000000   6.0000000   6.0000000

  Atom        11          12          13          14          15          16          17          18          19          20
 IAtWgt=          12          12          12          12          12          12          16           1           1           1
 AtmWgt=  12.0000000  12.0000000  12.0000000  12.0000000  12.0000000  12.0000000  15.9949146   1.0078250   1.0078250   1.0078250
 NucSpn=           0           0           0           0           0           0           0           1           1           1
 AtZEff=  -0.0000000  -0.0000000  -0.0000000  -0.0000000  -0.0000000  -0.0000000  -0.0000000  -0.0000000  -0.0000000  -0.0000000
 NQMom=    0.0000000   0.0000000   0.0000000   0.0000000   0.0000000   0.0000000   0.0000000   0.0000000   0.0000000   0.0000000
 NMagM=    0.0000000   0.0000000   0.0000000   0.0000000   0.0000000   0.0000000   0.0000000   2.7928460   2.7928460   2.7928460
 AtZNuc=   6.0000000   6.0000000   6.0000000   6.0000000   6.0000000   6.0000000   8.0000000   1.0000000   1.0000000   1.0000000

  Atom        21          22          23          24          25          26          27
 IAtWgt=           1           1          12           1           1           1           1
 AtmWgt=   1.0078250   1.0078250  12.0000000   1.0078250   1.0078250   1.0078250   1.0078250
 NucSpn=           1           1           0           1           1           1           1
 AtZEff=  -0.0000000  -0.0000000  -0.0000000  -0.0000000  -0.0000000  -0.0000000  -0.0000000
 NQMom=    0.0000000   0.0000000   0.0000000   0.0000000   0.0000000   0.0000000   0.0000000
 NMagM=    2.7928460   2.7928460   0.0000000   2.7928460   2.7928460   2.7928460   2.7928460
 AtZNuc=   1.0000000   1.0000000   6.0000000   1.0000000   1.0000000   1.0000000   1.0000000
 Leave Link  101 at Wed Jan 24 22:47:35 2024, MaxMem=  4026531840 cpu:               1.8 elap:               0.3
 (Enter /sysapps/ubuntu-applications/gaussian/Gaussian/AVX2/g16/l202.exe)
                          Input orientation:                          
 ---------------------------------------------------------------------
 Center     Atomic      Atomic             Coordinates (Angstroms)
 Number     Number       Type             X           Y           Z
 ---------------------------------------------------------------------
      1          6           0        1.349153    1.489529   -2.470250
      2          6           0       -0.088336    1.742785   -2.701963
      3          6           0       -1.063383    0.976563   -2.181258
      4          6           0       -0.682953   -0.192205   -1.323868
      5          6           0        0.756982   -0.442444   -1.073457
      6          8           0        2.204809    2.218662   -2.944412
      7          8           0       -1.532943   -0.923456   -0.843363
      8          1           0       -0.306847    2.606088   -3.322412
      9          6           0        1.719144    0.317548   -1.616836
     10          6           0        3.184338    0.080876   -1.301794
     11          6           0        4.084036   -0.425366   -2.372511
     12          6           0        5.461568   -0.484656   -2.116489
     13          6           0        3.593634   -0.864353   -3.608277
     14          6           0        6.331177   -0.969452   -3.084220
     15          6           0        5.834400   -1.407851   -4.313962
     16          6           0        4.466052   -1.357670   -4.574099
     17          8           0        3.569208    0.294652   -0.168676
     18          1           0        5.826143   -0.143225   -1.155520
     19          1           0        2.530794   -0.830927   -3.816882
     20          1           0        7.395951   -1.007459   -2.884891
     21          1           0        6.514566   -1.787329   -5.068300
     22          1           0        4.080357   -1.699952   -5.527332
     23          6           0       -2.525183    1.216388   -2.397785
     24          1           0        0.980817   -1.284311   -0.426753
     25          1           0       -2.689920    2.083668   -3.037868
     26          1           0       -3.033079    1.374574   -1.442350
     27          1           0       -2.994835    0.339595   -2.851984
 ---------------------------------------------------------------------
                    Distance matrix (angstroms):
                    1          2          3          4          5
     1  C    0.000000
     2  C    1.477905   0.000000
     3  C    2.483341   1.344971   0.000000
     4  C    2.876087   2.448857   1.498620   0.000000
     5  C    2.456464   2.853387   2.560182   1.482814   0.000000
     6  O    1.220087   2.354518   3.578588   4.096048   3.560641
     7  O    4.095819   3.556701   2.370764   1.219875   2.351185
     8  H    2.171456   1.085355   2.128363   3.459202   3.934854
     9  C    1.496245   2.544756   2.914675   2.473004   1.341121
    10  C    2.591813   3.928462   4.429317   3.876983   2.493604
    11  C    3.340054   4.713609   5.338343   4.886533   3.571711
    12  C    4.575425   6.008803   6.686878   6.202331   4.819007
    13  C    3.445803   4.601682   5.207030   4.894845   3.827521
    14  C    5.589643   6.979434   7.699470   7.273305   5.949164
    15  C    5.649029   6.899554   7.603504   7.272850   6.100251
    16  C    4.716755   5.818949   6.461345   6.199561   5.181634
    17  O    3.413740   4.678917   5.096704   4.433100   3.044758
    18  H    4.943464   6.397623   7.054901   6.511457   5.078647
    19  H    2.931588   3.837562   4.342856   4.117190   3.289941
    20  H    6.555200   7.975704   8.717326   8.268623   6.904813
    21  H    6.645988   7.852361   8.567346   8.268583   7.135633
    22  H    5.194036   6.100258   6.694625   6.529283   5.697644
    23  C    3.884628   2.511542   1.497084   2.555630   3.908731
    24  H    3.464930   3.934842   3.516901   2.183035   1.084928
    25  H    4.121808   2.645236   2.145946   3.485012   4.703327
    26  H    4.502638   3.223929   2.141051   2.827000   4.219265
    27  H    4.509801   3.230973   2.141520   2.821834   4.225029
                    6          7          8          9         10
     6  O    0.000000
     7  O    5.315835   0.000000
     8  H    2.569319   4.484047   0.000000
     9  C    2.369085   3.565729   3.500149   0.000000
    10  C    2.868414   4.844748   4.758988   1.517254   0.000000
    11  C    3.293850   5.842674   5.419583   2.591463   1.487337
    12  C    4.312756   7.122961   6.654439   3.859912   2.483814
    13  C    3.445944   5.824949   5.228712   2.979335   2.526033
    14  C    5.216371   8.177282   7.543513   5.008037   3.766009
    15  C    5.310480   8.158274   7.403364   5.214098   4.279286
    16  C    4.534231   7.077773   6.329191   4.370042   3.797392
    17  O    3.642542   5.288755   5.505687   2.349559   1.215640
    18  H    4.678964   7.406912   7.061707   4.158433   2.655325
    19  H    3.188646   5.036302   4.484393   2.611125   2.753938
    20  H    6.112230   9.159697   8.519521   5.965714   4.629077
    21  H    6.255627   9.130102   8.299513   6.272096   5.363504
    22  H    5.054176   7.351983   6.530790   4.993757   4.672191
    23  C    4.865817   2.824836   2.776187   4.408186   5.923615
    24  H    4.484148   2.573474   5.017781   2.127763   2.735861
    25  H    4.897482   3.898364   2.456201   4.957656   6.444535
    26  H    5.513995   2.808938   3.533214   4.871486   6.352140
    27  H    5.529533   2.786931   3.547333   4.873159   6.375908
                   11         12         13         14         15
    11  C    0.000000
    12  C    1.402375   0.000000
    13  C    1.400115   2.420491   0.000000
    14  C    2.419132   1.388434   2.789233   0.000000
    15  C    2.792541   2.412505   2.411310   1.396870   0.000000
    16  C    2.421181   2.791604   1.391865   2.418500   1.393760
    17  O    2.374945   2.825300   3.629703   4.210324   5.021256
    18  H    2.143737   1.083029   3.394133   2.158146   3.402220
    19  H    2.159455   3.405977   1.083634   3.872841   3.390242
    20  H    3.401492   2.146067   3.873162   1.083937   2.154298
    21  H    3.876815   3.393958   3.393434   2.153863   1.084276
    22  H    3.402569   3.875376   2.148929   3.401267   2.152732
    23  C    6.810123   8.170733   6.575310   9.147907   8.968890
    24  H    3.762144   4.855078   4.138269   5.982275   6.219560
    25  H    7.254270   8.596045   6.964140   9.523859   9.299632
    26  H    7.399886   8.721825   7.322388   9.791807   9.727293
    27  H    7.136209   8.528253   6.740133   9.420299   9.118461
                   16         17         18         19         20
    16  C    0.000000
    17  O    4.789807   0.000000
    18  H    3.874456   2.501870   0.000000
    19  H    2.143842   3.956594   4.291283   0.000000
    20  H    3.400056   4.870039   2.490366   4.956765   0.000000
    21  H    2.150640   6.084085   4.299634   4.283829   2.480385
    22  H    1.083776   5.740637   4.958216   2.466169   4.295952
    23  C    7.761410   6.554397   8.551983   5.636332  10.178982
    24  H    5.417815   3.042942   5.030941   3.755125   6.875539
    25  H    8.087691   7.114037   9.001423   6.029725  10.550036
    26  H    8.573796   6.810189   8.992875   6.438891  10.794428
    27  H    7.842909   7.091461   8.995597   5.730072  10.477789
                   21         22         23         24         25
    21  H    0.000000
    22  H    2.478653   0.000000
    23  C    9.892979   7.869705   0.000000
    24  H    7.240122   5.982960   4.736085   0.000000
    25  H   10.189693   8.145542   1.090422   5.624546   0.000000
    26  H   10.691243   8.760180   1.093543   4.920617   1.779396
    27  H    9.993226   7.834257   1.093451   4.932000   1.780257
                   26         27
    26  H    0.000000
    27  H    1.749203   0.000000
 Stoichiometry    C14H10O3
 Framework group  C1[X(C14H10O3)]
 Deg. of freedom    75
 Full point group                 C1      NOp   1
 Largest Abelian subgroup         C1      NOp   1
 Largest concise Abelian subgroup C1      NOp   1
                         Standard orientation:                         
 ---------------------------------------------------------------------
 Center     Atomic      Atomic             Coordinates (Angstroms)
 Number     Number       Type             X           Y           Z
 ---------------------------------------------------------------------
      1          6           0        0.987162   -0.603073    1.096546
      2          6           0        2.370533   -1.090225    0.914417
      3          6           0        3.234027   -0.542641    0.040645
      4          6           0        2.779982    0.617437   -0.792377
      5          6           0        1.398625    1.122150   -0.603019
      6          8           0        0.238608   -1.113884    1.913461
      7          8           0        3.523903    1.135651   -1.608545
      8          1           0        2.648765   -1.925929    1.548596
      9          6           0        0.541590    0.552491    0.256971
     10          6           0       -0.848154    1.119521    0.478662
     11          6           0       -2.030495    0.341848    0.020986
     12          6           0       -3.308757    0.796829    0.375526
     13          6           0       -1.902898   -0.807197   -0.768782
     14          6           0       -4.437330    0.108546   -0.049137
     15          6           0       -4.302329   -1.035762   -0.838808
     16          6           0       -3.035671   -1.491184   -1.200378
     17          8           0       -0.945184    2.209712    1.007671
     18          1           0       -3.391946    1.687973    0.985356
     19          1           0       -0.921565   -1.165878   -1.056178
     20          1           0       -5.423353    0.459708    0.232581
     21          1           0       -5.184603   -1.571561   -1.170721
     22          1           0       -2.930979   -2.377685   -1.814972
     23          6           0        4.640621   -1.015401   -0.157471
     24          1           0        1.125237    1.978610   -1.210311
     25          1           0        4.864519   -1.863306    0.490562
     26          1           0        5.348832   -0.208572    0.050622
     27          1           0        4.805034   -1.305228   -1.198914
 ---------------------------------------------------------------------
 Rotational constants (GHZ):           1.0601766           0.2573418           0.2484133
 Leave Link  202 at Wed Jan 24 22:47:36 2024, MaxMem=  4026531840 cpu:               0.5 elap:               0.1
 (Enter /sysapps/ubuntu-applications/gaussian/Gaussian/AVX2/g16/l301.exe)
 Standard basis: 6-311++G(d,p) (5D, 7F)
 Ernie: Thresh=  0.10000D-02 Tol=  0.10000D-05 Strict=F.
 There are   461 symmetry adapted cartesian basis functions of A   symmetry.
 There are   444 symmetry adapted basis functions of A   symmetry.
   444 basis functions,   702 primitive gaussians,   461 cartesian basis functions
    59 alpha electrons       59 beta electrons
       nuclear repulsion energy      1083.7061698999 Hartrees.
 IExCor=  402 DFT=T Ex+Corr=B3LYP ExCW=0 ScaHFX=  0.200000
 ScaDFX=  0.800000  0.720000  1.000000  0.810000 ScalE2=  1.000000  1.000000
 IRadAn=      5 IRanWt=     -1 IRanGd=            0 ICorTp=0 IEmpDi=  4
 NAtoms=   27 NActive=   27 NUniq=   27 SFac= 1.00D+00 NAtFMM=   60 NAOKFM=F Big=F
 Integral buffers will be    131072 words long.
 Raffenetti 2 integral format.
 Two-electron integral symmetry is turned on.
 ------------------------------------------------------------------------------
 Polarizable Continuum Model (PCM)
 =================================
 Model                : PCM.
 Atomic radii         : UFF (Universal Force Field).
 Polarization charges : Total charges.
 Charge compensation  : None.
 Solution method      : On-the-fly selection.
 Cavity type          : Scaled VdW (van der Waals Surface) (Alpha=1.100).
 Cavity algorithm     : GePol (No added spheres)
                        Default sphere list used, NSphG=   27.
                        Lebedev-Laikov grids with approx.  5.0 points / Ang**2.
                        Smoothing algorithm: York/Karplus (Gamma=1.0000).
                        Polarization charges: spherical gaussians, with
                                              point-specific exponents (IZeta= 3).
                        Self-potential: point-specific (ISelfS= 7).
                        Self-field    : sphere-specific E.n sum rule (ISelfD= 2).
 Solvent              : n,n-DiMethylFormamide, Eps=  37.219000 Eps(inf)=   2.046330
 ------------------------------------------------------------------------------
 GePol: Number of generator spheres                  =      27
 GePol: Total number of spheres                      =      27
 GePol: Number of exposed spheres                    =      27 (100.00%)
 GePol: Number of points                             =    2249
 GePol: Average weight of points                     =       0.13
 GePol: Minimum weight of points                     =   0.33D-09
 GePol: Maximum weight of points                     =    0.20577
 GePol: Number of points with low weight             =     134
 GePol: Fraction of low-weight points (<1% of avg)   =       5.96%
 GePol: Cavity surface area                          =    294.094 Ang**2
 GePol: Cavity volume                                =    311.128 Ang**3
 Leave Link  301 at Wed Jan 24 22:47:36 2024, MaxMem=  4026531840 cpu:               1.4 elap:               0.3
 (Enter /sysapps/ubuntu-applications/gaussian/Gaussian/AVX2/g16/l302.exe)
 NPDir=0 NMtPBC=     1 NCelOv=     1 NCel=       1 NClECP=     1 NCelD=      1
         NCelK=      1 NCelE2=     1 NClLst=     1 CellRange=     0.0.
 One-electron integrals computed using PRISM.
 One-electron integral symmetry used in STVInt
 NBasis=   444 RedAO= T EigKep=  1.39D-06  NBF=   444
 NBsUse=   442 1.00D-06 EigRej=  7.03D-07 NBFU=   442
 Precomputing XC quadrature grid using
 IXCGrd= 4 IRadAn=           5 IRanWt=          -1 IRanGd=           0 AccXCQ= 0.00D+00.
 Generated NRdTot=       0 NPtTot=           0 NUsed=           0 NTot=          32
 NSgBfM=   460   460   460   460   460 MxSgAt=    27 MxSgA2=    27.
 Leave Link  302 at Wed Jan 24 22:47:37 2024, MaxMem=  4026531840 cpu:               4.0 elap:               0.6
 (Enter /sysapps/ubuntu-applications/gaussian/Gaussian/AVX2/g16/l303.exe)
 DipDrv:  MaxL=1.
 Leave Link  303 at Wed Jan 24 22:47:37 2024, MaxMem=  4026531840 cpu:               1.1 elap:               0.2
 (Enter /sysapps/ubuntu-applications/gaussian/Gaussian/AVX2/g16/l401.exe)
 ExpMin= 3.60D-02 ExpMax= 8.59D+03 ExpMxC= 1.30D+03 IAcc=3 IRadAn=         5 AccDes= 0.00D+00
 Harris functional with IExCor=  402 and IRadAn=       5 diagonalized for initial guess.
 HarFok:  IExCor=  402 AccDes= 0.00D+00 IRadAn=         5 IDoV= 1 UseB2=F ITyADJ=14
 ICtDFT=  3500011 ScaDFX=  1.000000  1.000000  1.000000  1.000000
 FoFCou: FMM=F IPFlag=           0 FMFlag=      100000 FMFlg1=           0
         NFxFlg=           0 DoJE=T BraDBF=F KetDBF=T FulRan=T
         wScrn=  0.000000 ICntrl=       500 IOpCl=  0 I1Cent=   200000004 NGrid=           0
         NMat0=    1 NMatS0=      1 NMatT0=    0 NMatD0=    1 NMtDS0=    0 NMtDT0=    0
 Petite list used in FoFCou.
 Harris En= -765.405671112490    
 JPrj=0 DoOrth=F DoCkMO=F.
 Initial guess <Sx>= 0.0000 <Sy>= 0.0000 <Sz>= 0.0000 <S**2>=-0.0000 S=-0.0000
 Leave Link  401 at Wed Jan 24 22:47:39 2024, MaxMem=  4026531840 cpu:              14.4 elap:               1.9
 (Enter /sysapps/ubuntu-applications/gaussian/Gaussian/AVX2/g16/l502.exe)
 Integral symmetry usage will be decided dynamically.
 UHF open shell SCF:
 Using DIIS extrapolation, IDIIS=  1040.
 NGot=  4026531840 LenX=  4026098739 LenY=  4025885757
 Requested convergence on RMS density matrix=1.00D-08 within 128 cycles.
 Requested convergence on MAX density matrix=1.00D-06.
 Requested convergence on             energy=1.00D-06.
 No special actions if energy rises.
 Fock matrices will be formed incrementally for  20 cycles.

 Cycle   1  Pass 1  IDiag  1:
 FoFJK:  IHMeth= 1 ICntrl=       0 DoSepK=F KAlg= 0 I1Cent=           0 FoldK=F
 IRaf= 850000000 NMat=       1 IRICut=       1 DoRegI=T DoRafI=F ISym2E= 0 IDoP0=0 IntGTp=1.
 FoFCou: FMM=F IPFlag=           0 FMFlag=      100000 FMFlg1=           0
         NFxFlg=           0 DoJE=F BraDBF=F KetDBF=F FulRan=T
         wScrn=  0.000000 ICntrl=         0 IOpCl=  1 I1Cent=           0 NGrid=           0
         NMat0=    1 NMatS0=      1 NMatT0=    0 NMatD0=    1 NMtDS0=    0 NMtDT0=    0
 Symmetry not used in FoFCou.
 Inv3:  Mode=1 IEnd=    15174003.
 Iteration    1 A*A^-1 deviation from unit magnitude is 3.33D-15 for   2174.
 Iteration    1 A*A^-1 deviation from orthogonality  is 1.73D-15 for   1815    489.
 Iteration    1 A^-1*A deviation from unit magnitude is 3.11D-15 for    727.
 Iteration    1 A^-1*A deviation from orthogonality  is 1.78D-15 for   1997   1493.
 E= -764.968794085844    
 DIIS: error= 1.99D-02 at cycle   1 NSaved=   1.
 NSaved= 1 IEnMin= 1 EnMin= -764.968794085844     IErMin= 1 ErrMin= 1.99D-02
 ErrMax= 1.99D-02  0.00D+00 EMaxC= 1.00D-01 BMatC= 2.03D+00 BMatP= 2.03D+00
 IDIUse=3 WtCom= 8.01D-01 WtEn= 1.99D-01
 Coeff-Com:  0.100D+01
 Coeff-En:   0.100D+01
 Coeff:      0.100D+01
 Gap=     0.090 Goal=   None    Shift=    0.000
 Gap=     0.090 Goal=   None    Shift=    0.000
 GapD=    0.090 DampG=0.500 DampE=0.500 DampFc=0.2500 IDamp=-1.
 Damping current iteration by 2.50D-01
 RMSDP=2.96D-02 MaxDP=1.69D+00              OVMax= 2.42D-01

 Cycle   2  Pass 1  IDiag  1:
 RMSU=  7.08D-03    CP:  9.68D-01
 E= -765.110945672776     Delta-E=       -0.142151586932 Rises=F Damp=T
 DIIS: error= 1.04D-02 at cycle   2 NSaved=   2.
 NSaved= 2 IEnMin= 2 EnMin= -765.110945672776     IErMin= 2 ErrMin= 1.04D-02
 ErrMax= 1.04D-02  0.00D+00 EMaxC= 1.00D-01 BMatC= 4.48D-01 BMatP= 2.03D+00
 IDIUse=3 WtCom= 8.96D-01 WtEn= 1.04D-01
 Coeff-Com: -0.595D+00 0.159D+01
 Coeff-En:   0.000D+00 0.100D+01
 Coeff:     -0.533D+00 0.153D+01
 Gap=     0.137 Goal=   None    Shift=    0.000
 Gap=     0.137 Goal=   None    Shift=    0.000
 RMSDP=1.45D-02 MaxDP=2.16D+00 DE=-1.42D-01 OVMax= 1.85D-01

 Cycle   3  Pass 1  IDiag  1:
 RMSU=  6.69D-03    CP:  7.85D-01  1.56D+00
 E= -765.315341282971     Delta-E=       -0.204395610195 Rises=F Damp=F
 DIIS: error= 1.18D-02 at cycle   3 NSaved=   3.
 NSaved= 3 IEnMin= 3 EnMin= -765.315341282971     IErMin= 2 ErrMin= 1.04D-02
 ErrMax= 1.18D-02  0.00D+00 EMaxC= 1.00D-01 BMatC= 2.59D-01 BMatP= 4.48D-01
 IDIUse=3 WtCom= 8.82D-01 WtEn= 1.18D-01
 Coeff-Com: -0.433D+00 0.945D+00 0.488D+00
 Coeff-En:   0.000D+00 0.000D+00 0.100D+01
 Coeff:     -0.382D+00 0.834D+00 0.548D+00
 Gap=     0.138 Goal=   None    Shift=    0.000
 Gap=     0.138 Goal=   None    Shift=    0.000
 RMSDP=7.99D-03 MaxDP=1.06D+00 DE=-2.04D-01 OVMax= 7.49D-02

 Cycle   4  Pass 1  IDiag  1:
 RMSU=  3.88D-03    CP:  8.81D-01  1.51D+00  5.97D-01
 E= -765.361929280668     Delta-E=       -0.046587997697 Rises=F Damp=F
 DIIS: error= 5.57D-03 at cycle   4 NSaved=   4.
 NSaved= 4 IEnMin= 4 EnMin= -765.361929280668     IErMin= 4 ErrMin= 5.57D-03
 ErrMax= 5.57D-03  0.00D+00 EMaxC= 1.00D-01 BMatC= 5.18D-02 BMatP= 2.59D-01
 IDIUse=3 WtCom= 9.44D-01 WtEn= 5.57D-02
 Coeff-Com: -0.857D-01 0.187D+00 0.326D+00 0.572D+00
 Coeff-En:   0.000D+00 0.000D+00 0.195D+00 0.805D+00
 Coeff:     -0.809D-01 0.177D+00 0.319D+00 0.585D+00
 Gap=     0.133 Goal=   None    Shift=    0.000
 Gap=     0.133 Goal=   None    Shift=    0.000
 RMSDP=4.63D-03 MaxDP=5.21D-01 DE=-4.66D-02 OVMax= 2.43D-02

 Cycle   5  Pass 1  IDiag  1:
 RMSU=  1.71D-03    CP:  8.23D-01  1.59D+00  7.53D-01  6.50D-01
 E= -765.372701806248     Delta-E=       -0.010772525580 Rises=F Damp=F
 DIIS: error= 5.59D-04 at cycle   5 NSaved=   5.
 NSaved= 5 IEnMin= 5 EnMin= -765.372701806248     IErMin= 5 ErrMin= 5.59D-04
 ErrMax= 5.59D-04  0.00D+00 EMaxC= 1.00D-01 BMatC= 1.33D-03 BMatP= 5.18D-02
 IDIUse=3 WtCom= 9.94D-01 WtEn= 5.59D-03
 Coeff-Com: -0.977D-02 0.200D-01 0.118D+00 0.279D+00 0.592D+00
 Coeff-En:   0.000D+00 0.000D+00 0.000D+00 0.000D+00 0.100D+01
 Coeff:     -0.971D-02 0.199D-01 0.117D+00 0.278D+00 0.594D+00
 Gap=     0.132 Goal=   None    Shift=    0.000
 Gap=     0.132 Goal=   None    Shift=    0.000
 RMSDP=6.52D-04 MaxDP=8.70D-02 DE=-1.08D-02 OVMax= 6.61D-03

 Cycle   6  Pass 1  IDiag  1:
 RMSU=  3.19D-04    CP:  8.19D-01  1.56D+00  7.56D-01  6.47D-01  7.55D-01
 E= -765.372982054243     Delta-E=       -0.000280247995 Rises=F Damp=F
 DIIS: error= 3.80D-04 at cycle   6 NSaved=   6.
 NSaved= 6 IEnMin= 6 EnMin= -765.372982054243     IErMin= 6 ErrMin= 3.80D-04
 ErrMax= 3.80D-04  0.00D+00 EMaxC= 1.00D-01 BMatC= 1.51D-04 BMatP= 1.33D-03
 IDIUse=3 WtCom= 9.96D-01 WtEn= 3.80D-03
 EnCoef did     3 forward-backward iterations
 Coeff-Com: -0.364D-03 0.124D-03 0.431D-01 0.113D+00 0.331D+00 0.513D+00
 Coeff-En:   0.000D+00 0.000D+00 0.000D+00 0.000D+00 0.949D-03 0.999D+00
 Coeff:     -0.362D-03 0.124D-03 0.430D-01 0.113D+00 0.330D+00 0.515D+00
 Gap=     0.131 Goal=   None    Shift=    0.000
 Gap=     0.131 Goal=   None    Shift=    0.000
 RMSDP=1.70D-04 MaxDP=1.24D-02 DE=-2.80D-04 OVMax= 2.50D-03

 Cycle   7  Pass 1  IDiag  1:
 RMSU=  8.80D-05    CP:  8.21D-01  1.56D+00  7.55D-01  6.50D-01  7.47D-01
                    CP:  8.23D-01
 E= -765.373009431344     Delta-E=       -0.000027377101 Rises=F Damp=F
 DIIS: error= 1.87D-04 at cycle   7 NSaved=   7.
 NSaved= 7 IEnMin= 7 EnMin= -765.373009431344     IErMin= 7 ErrMin= 1.87D-04
 ErrMax= 1.87D-04  0.00D+00 EMaxC= 1.00D-01 BMatC= 3.32D-05 BMatP= 1.51D-04
 IDIUse=3 WtCom= 9.98D-01 WtEn= 1.87D-03
 Coeff-Com:  0.107D-02-0.248D-02 0.130D-01 0.379D-01 0.145D+00 0.349D+00
 Coeff-Com:  0.456D+00
 Coeff-En:   0.000D+00 0.000D+00 0.000D+00 0.000D+00 0.000D+00 0.152D+00
 Coeff-En:   0.848D+00
 Coeff:      0.107D-02-0.247D-02 0.130D-01 0.378D-01 0.145D+00 0.349D+00
 Coeff:      0.457D+00
 Gap=     0.131 Goal=   None    Shift=    0.000
 Gap=     0.131 Goal=   None    Shift=    0.000
 RMSDP=4.72D-05 MaxDP=6.06D-03 DE=-2.74D-05 OVMax= 1.05D-03

 Cycle   8  Pass 1  IDiag  1:
 RMSU=  2.45D-05    CP:  8.21D-01  1.56D+00  7.55D-01  6.53D-01  7.50D-01
                    CP:  8.02D-01  7.67D-01
 E= -765.373015767409     Delta-E=       -0.000006336066 Rises=F Damp=F
 DIIS: error= 3.04D-05 at cycle   8 NSaved=   8.
 NSaved= 8 IEnMin= 8 EnMin= -765.373015767409     IErMin= 8 ErrMin= 3.04D-05
 ErrMax= 3.04D-05  0.00D+00 EMaxC= 1.00D-01 BMatC= 1.67D-06 BMatP= 3.32D-05
 IDIUse=1 WtCom= 1.00D+00 WtEn= 0.00D+00
 Coeff-Com:  0.700D-03-0.145D-02 0.292D-02 0.956D-02 0.471D-01 0.138D+00
 Coeff-Com:  0.244D+00 0.560D+00
 Coeff:      0.700D-03-0.145D-02 0.292D-02 0.956D-02 0.471D-01 0.138D+00
 Coeff:      0.244D+00 0.560D+00
 Gap=     0.131 Goal=   None    Shift=    0.000
 Gap=     0.131 Goal=   None    Shift=    0.000
 RMSDP=1.81D-05 MaxDP=1.99D-03 DE=-6.34D-06 OVMax= 2.45D-04

 Cycle   9  Pass 1  IDiag  1:
 RMSU=  1.11D-05    CP:  8.21D-01  1.56D+00  7.56D-01  6.53D-01  7.47D-01
                    CP:  8.12D-01  7.23D-01  9.19D-01
 E= -765.373016071801     Delta-E=       -0.000000304392 Rises=F Damp=F
 DIIS: error= 1.08D-05 at cycle   9 NSaved=   9.
 NSaved= 9 IEnMin= 9 EnMin= -765.373016071801     IErMin= 9 ErrMin= 1.08D-05
 ErrMax= 1.08D-05  0.00D+00 EMaxC= 1.00D-01 BMatC= 2.61D-07 BMatP= 1.67D-06
 IDIUse=1 WtCom= 1.00D+00 WtEn= 0.00D+00
 Coeff-Com:  0.268D-03-0.482D-03-0.226D-03-0.237D-03 0.527D-02 0.261D-01
 Coeff-Com:  0.692D-01 0.318D+00 0.582D+00
 Coeff:      0.268D-03-0.482D-03-0.226D-03-0.237D-03 0.527D-02 0.261D-01
 Coeff:      0.692D-01 0.318D+00 0.582D+00
 Gap=     0.131 Goal=   None    Shift=    0.000
 Gap=     0.131 Goal=   None    Shift=    0.000
 RMSDP=6.71D-06 MaxDP=4.84D-04 DE=-3.04D-07 OVMax= 1.02D-04

 Cycle  10  Pass 1  IDiag  1:
 RMSU=  2.73D-06    CP:  8.21D-01  1.56D+00  7.56D-01  6.53D-01  7.50D-01
                    CP:  8.12D-01  7.42D-01  9.21D-01  7.32D-01
 E= -765.373016130507     Delta-E=       -0.000000058705 Rises=F Damp=F
 DIIS: error= 3.84D-06 at cycle  10 NSaved=  10.
 NSaved=10 IEnMin=10 EnMin= -765.373016130507     IErMin=10 ErrMin= 3.84D-06
 ErrMax= 3.84D-06  0.00D+00 EMaxC= 1.00D-01 BMatC= 1.94D-08 BMatP= 2.61D-07
 IDIUse=1 WtCom= 1.00D+00 WtEn= 0.00D+00
 Coeff-Com:  0.112D-03-0.193D-03-0.239D-03-0.567D-03 0.459D-03 0.678D-02
 Coeff-Com:  0.235D-01 0.133D+00 0.316D+00 0.521D+00
 Coeff:      0.112D-03-0.193D-03-0.239D-03-0.567D-03 0.459D-03 0.678D-02
 Coeff:      0.235D-01 0.133D+00 0.316D+00 0.521D+00
 Gap=     0.131 Goal=   None    Shift=    0.000
 Gap=     0.131 Goal=   None    Shift=    0.000
 RMSDP=1.73D-06 MaxDP=1.84D-04 DE=-5.87D-08 OVMax= 2.72D-05

 Cycle  11  Pass 1  IDiag  1:
 RMSU=  7.57D-07    CP:  8.21D-01  1.56D+00  7.56D-01  6.53D-01  7.50D-01
                    CP:  8.13D-01  7.43D-01  9.15D-01  7.75D-01  8.44D-01
 E= -765.373016135057     Delta-E=       -0.000000004550 Rises=F Damp=F
 DIIS: error= 1.07D-06 at cycle  11 NSaved=  11.
 NSaved=11 IEnMin=11 EnMin= -765.373016135057     IErMin=11 ErrMin= 1.07D-06
 ErrMax= 1.07D-06  0.00D+00 EMaxC= 1.00D-01 BMatC= 1.84D-09 BMatP= 1.94D-08
 IDIUse=1 WtCom= 1.00D+00 WtEn= 0.00D+00
 Coeff-Com:  0.119D-04-0.168D-04-0.876D-04-0.278D-03-0.692D-03-0.667D-03
 Coeff-Com:  0.960D-03 0.149D-01 0.731D-01 0.263D+00 0.650D+00
 Coeff:      0.119D-04-0.168D-04-0.876D-04-0.278D-03-0.692D-03-0.667D-03
 Coeff:      0.960D-03 0.149D-01 0.731D-01 0.263D+00 0.650D+00
 Gap=     0.131 Goal=   None    Shift=    0.000
 Gap=     0.131 Goal=   None    Shift=    0.000
 RMSDP=5.65D-07 MaxDP=3.07D-05 DE=-4.55D-09 OVMax= 7.27D-06

 Cycle  12  Pass 1  IDiag  1:
 RMSU=  2.20D-07    CP:  8.21D-01  1.56D+00  7.56D-01  6.53D-01  7.49D-01
                    CP:  8.14D-01  7.43D-01  9.23D-01  7.82D-01  8.81D-01
                    CP:  8.45D-01
 E= -765.373016135477     Delta-E=       -0.000000000420 Rises=F Damp=F
 DIIS: error= 2.86D-07 at cycle  12 NSaved=  12.
 NSaved=12 IEnMin=12 EnMin= -765.373016135477     IErMin=12 ErrMin= 2.86D-07
 ErrMax= 2.86D-07  0.00D+00 EMaxC= 1.00D-01 BMatC= 1.99D-10 BMatP= 1.84D-09
 IDIUse=1 WtCom= 1.00D+00 WtEn= 0.00D+00
 Coeff-Com:  0.119D-05-0.104D-06-0.379D-04-0.132D-03-0.428D-03-0.673D-03
 Coeff-Com: -0.600D-03 0.142D-02 0.255D-01 0.112D+00 0.358D+00 0.505D+00
 Coeff:      0.119D-05-0.104D-06-0.379D-04-0.132D-03-0.428D-03-0.673D-03
 Coeff:     -0.600D-03 0.142D-02 0.255D-01 0.112D+00 0.358D+00 0.505D+00
 Gap=     0.131 Goal=   None    Shift=    0.000
 Gap=     0.131 Goal=   None    Shift=    0.000
 RMSDP=1.50D-07 MaxDP=9.29D-06 DE=-4.20D-10 OVMax= 2.06D-06

 Cycle  13  Pass 1  IDiag  1:
 RMSU=  9.63D-08    CP:  8.21D-01  1.56D+00  7.56D-01  6.53D-01  7.49D-01
                    CP:  8.14D-01  7.43D-01  9.23D-01  7.87D-01  8.76D-01
                    CP:  8.31D-01  8.39D-01
 E= -765.373016135536     Delta-E=       -0.000000000060 Rises=F Damp=F
 DIIS: error= 1.33D-07 at cycle  13 NSaved=  13.
 NSaved=13 IEnMin=13 EnMin= -765.373016135536     IErMin=13 ErrMin= 1.33D-07
 ErrMax= 1.33D-07  0.00D+00 EMaxC= 1.00D-01 BMatC= 4.79D-11 BMatP= 1.99D-10
 IDIUse=1 WtCom= 1.00D+00 WtEn= 0.00D+00
 Coeff-Com: -0.213D-05 0.377D-05-0.137D-06-0.990D-05-0.920D-04-0.235D-03
 Coeff-Com: -0.676D-03-0.348D-02-0.311D-02-0.332D-02 0.585D-01 0.341D+00
 Coeff-Com:  0.611D+00
 Coeff:     -0.213D-05 0.377D-05-0.137D-06-0.990D-05-0.920D-04-0.235D-03
 Coeff:     -0.676D-03-0.348D-02-0.311D-02-0.332D-02 0.585D-01 0.341D+00
 Coeff:      0.611D+00
 Gap=     0.131 Goal=   None    Shift=    0.000
 Gap=     0.131 Goal=   None    Shift=    0.000
 RMSDP=7.43D-08 MaxDP=6.73D-06 DE=-5.96D-11 OVMax= 1.36D-06

 Cycle  14  Pass 1  IDiag  1:
 RMSU=  2.72D-08    CP:  8.21D-01  1.56D+00  7.56D-01  6.53D-01  7.49D-01
                    CP:  8.14D-01  7.43D-01  9.23D-01  7.88D-01  8.86D-01
                    CP:  8.55D-01  9.56D-01  8.78D-01
 E= -765.373016135552     Delta-E=       -0.000000000016 Rises=F Damp=F
 DIIS: error= 3.22D-08 at cycle  14 NSaved=  14.
 NSaved=14 IEnMin=14 EnMin= -765.373016135552     IErMin=14 ErrMin= 3.22D-08
 ErrMax= 3.22D-08  0.00D+00 EMaxC= 1.00D-01 BMatC= 4.26D-12 BMatP= 4.79D-11
 IDIUse=1 WtCom= 1.00D+00 WtEn= 0.00D+00
 Coeff-Com: -0.109D-05 0.178D-05 0.333D-05 0.638D-05-0.127D-04-0.697D-04
 Coeff-Com: -0.329D-03-0.212D-02-0.396D-02-0.131D-01 0.952D-03 0.143D+00
 Coeff-Com:  0.339D+00 0.537D+00
 Coeff:     -0.109D-05 0.178D-05 0.333D-05 0.638D-05-0.127D-04-0.697D-04
 Coeff:     -0.329D-03-0.212D-02-0.396D-02-0.131D-01 0.952D-03 0.143D+00
 Coeff:      0.339D+00 0.537D+00
 Gap=     0.131 Goal=   None    Shift=    0.000
 Gap=     0.131 Goal=   None    Shift=    0.000
 RMSDP=1.96D-08 MaxDP=8.82D-07 DE=-1.57D-11 OVMax= 5.01D-07

 Cycle  15  Pass 1  IDiag  1:
 RMSU=  1.09D-08    CP:  8.21D-01  1.56D+00  7.56D-01  6.53D-01  7.49D-01
                    CP:  8.14D-01  7.43D-01  9.23D-01  7.88D-01  8.85D-01
                    CP:  8.67D-01  9.65D-01  8.57D-01  8.59D-01
 E= -765.373016135526     Delta-E=        0.000000000026 Rises=F Damp=F
 DIIS: error= 1.66D-08 at cycle  15 NSaved=  15.
 NSaved=15 IEnMin=14 EnMin= -765.373016135552     IErMin=15 ErrMin= 1.66D-08
 ErrMax= 1.66D-08  0.00D+00 EMaxC= 1.00D-01 BMatC= 2.93D-13 BMatP= 4.26D-12
 IDIUse=1 WtCom= 1.00D+00 WtEn= 0.00D+00
 Coeff-Com:  0.103D-07-0.947D-09 0.122D-05 0.376D-05 0.884D-05 0.696D-05
 Coeff-Com: -0.275D-04-0.273D-03-0.908D-03-0.503D-02-0.795D-02-0.344D-03
 Coeff-Com:  0.343D-01 0.213D+00 0.768D+00
 Coeff:      0.103D-07-0.947D-09 0.122D-05 0.376D-05 0.884D-05 0.696D-05
 Coeff:     -0.275D-04-0.273D-03-0.908D-03-0.503D-02-0.795D-02-0.344D-03
 Coeff:      0.343D-01 0.213D+00 0.768D+00
 Gap=     0.131 Goal=   None    Shift=    0.000
 Gap=     0.131 Goal=   None    Shift=    0.000
 RMSDP=9.49D-09 MaxDP=9.03D-07 DE= 2.61D-11 OVMax= 2.51D-07

 Error on total polarization charges =  0.01654
 SCF Done:  E(UB3LYP) =  -765.373016136     A.U. after   15 cycles
            NFock= 15  Conv=0.95D-08     -V/T= 2.0041
 <Sx>= 0.0000 <Sy>= 0.0000 <Sz>= 0.0000 <S**2>=-0.0000 S=-0.0000
 <L.S>=  0.00000000000    
 KE= 7.622551489417D+02 PE=-3.951924990530D+03 EE= 1.340590655553D+03
 Annihilation of the first spin contaminant:
 S**2 before annihilation    -0.0000,   after     0.0000
 Leave Link  502 at Wed Jan 24 22:50:26 2024, MaxMem=  4026531840 cpu:            1311.1 elap:             166.1
 (Enter /sysapps/ubuntu-applications/gaussian/Gaussian/AVX2/g16/l601.exe)
 Copying SCF densities to generalized density rwf, IOpCl= 1 IROHF=0.

 **********************************************************************

            Population analysis using the SCF density.

 **********************************************************************

 Orbital symmetries:
 Alpha Orbitals:
       Occupied  (A) (A) (A) (A) (A) (A) (A) (A) (A) (A) (A) (A)
                 (A) (A) (A) (A) (A) (A) (A) (A) (A) (A) (A) (A)
                 (A) (A) (A) (A) (A) (A) (A) (A) (A) (A) (A) (A)
                 (A) (A) (A) (A) (A) (A) (A) (A) (A) (A) (A) (A)
                 (A) (A) (A) (A) (A) (A) (A) (A) (A) (A) (A)
       Virtual   (A) (A) (A) (A) (A) (A) (A) (A) (A) (A) (A) (A)
                 (A) (A) (A) (A) (A) (A) (A) (A) (A) (A) (A) (A)
                 (A) (A) (A) (A) (A) (A) (A) (A) (A) (A) (A) (A)
                 (A) (A) (A) (A) (A) (A) (A) (A) (A) (A) (A) (A)
                 (A) (A) (A) (A) (A) (A) (A) (A) (A) (A) (A) (A)
                 (A) (A) (A) (A) (A) (A) (A) (A) (A) (A) (A) (A)
                 (A) (A) (A) (A) (A) (A) (A) (A) (A) (A) (A) (A)
                 (A) (A) (A) (A) (A) (A) (A) (A) (A) (A) (A) (A)
                 (A) (A) (A) (A) (A) (A) (A) (A) (A) (A) (A) (A)
                 (A) (A) (A) (A) (A) (A) (A) (A) (A) (A) (A) (A)
                 (A) (A) (A) (A) (A) (A) (A) (A) (A) (A) (A) (A)
                 (A) (A) (A) (A) (A) (A) (A) (A) (A) (A) (A) (A)
                 (A) (A) (A) (A) (A) (A) (A) (A) (A) (A) (A) (A)
                 (A) (A) (A) (A) (A) (A) (A) (A) (A) (A) (A) (A)
                 (A) (A) (A) (A) (A) (A) (A) (A) (A) (A) (A) (A)
                 (A) (A) (A) (A) (A) (A) (A) (A) (A) (A) (A) (A)
                 (A) (A) (A) (A) (A) (A) (A) (A) (A) (A) (A) (A)
                 (A) (A) (A) (A) (A) (A) (A) (A) (A) (A) (A) (A)
                 (A) (A) (A) (A) (A) (A) (A) (A) (A) (A) (A) (A)
                 (A) (A) (A) (A) (A) (A) (A) (A) (A) (A) (A) (A)
                 (A) (A) (A) (A) (A) (A) (A) (A) (A) (A) (A) (A)
                 (A) (A) (A) (A) (A) (A) (A) (A) (A) (A) (A) (A)
                 (A) (A) (A) (A) (A) (A) (A) (A) (A) (A) (A) (A)
                 (A) (A) (A) (A) (A) (A) (A) (A) (A) (A) (A) (A)
                 (A) (A) (A) (A) (A) (A) (A) (A) (A) (A) (A) (A)
                 (A) (A) (A) (A) (A) (A) (A) (A) (A) (A) (A) (A)
                 (A) (A) (A) (A) (A) (A) (A) (A) (A) (A) (A) (A)
                 (A) (A) (A) (A) (A) (A) (A) (A) (A) (A) (A) (A)
                 (A) (A) (A) (A) (A) (A) (A) (A) (A) (A) (A) (A)
                 (A) (A) (A) (A) (A) (A) (A) (A) (A) (A) (A) (A)
                 (A) (A) (A) (A) (A) (A) (A) (A) (A) (A) (A) (A)
                 (A) (A) (A) (A) (A) (A) (A) (A) (A) (A) (A)
 Beta  Orbitals:
       Occupied  (A) (A) (A) (A) (A) (A) (A) (A) (A) (A) (A) (A)
                 (A) (A) (A) (A) (A) (A) (A) (A) (A) (A) (A) (A)
                 (A) (A) (A) (A) (A) (A) (A) (A) (A) (A) (A) (A)
                 (A) (A) (A) (A) (A) (A) (A) (A) (A) (A) (A) (A)
                 (A) (A) (A) (A) (A) (A) (A) (A) (A) (A) (A)
       Virtual   (A) (A) (A) (A) (A) (A) (A) (A) (A) (A) (A) (A)
                 (A) (A) (A) (A) (A) (A) (A) (A) (A) (A) (A) (A)
                 (A) (A) (A) (A) (A) (A) (A) (A) (A) (A) (A) (A)
                 (A) (A) (A) (A) (A) (A) (A) (A) (A) (A) (A) (A)
                 (A) (A) (A) (A) (A) (A) (A) (A) (A) (A) (A) (A)
                 (A) (A) (A) (A) (A) (A) (A) (A) (A) (A) (A) (A)
                 (A) (A) (A) (A) (A) (A) (A) (A) (A) (A) (A) (A)
                 (A) (A) (A) (A) (A) (A) (A) (A) (A) (A) (A) (A)
                 (A) (A) (A) (A) (A) (A) (A) (A) (A) (A) (A) (A)
                 (A) (A) (A) (A) (A) (A) (A) (A) (A) (A) (A) (A)
                 (A) (A) (A) (A) (A) (A) (A) (A) (A) (A) (A) (A)
                 (A) (A) (A) (A) (A) (A) (A) (A) (A) (A) (A) (A)
                 (A) (A) (A) (A) (A) (A) (A) (A) (A) (A) (A) (A)
                 (A) (A) (A) (A) (A) (A) (A) (A) (A) (A) (A) (A)
                 (A) (A) (A) (A) (A) (A) (A) (A) (A) (A) (A) (A)
                 (A) (A) (A) (A) (A) (A) (A) (A) (A) (A) (A) (A)
                 (A) (A) (A) (A) (A) (A) (A) (A) (A) (A) (A) (A)
                 (A) (A) (A) (A) (A) (A) (A) (A) (A) (A) (A) (A)
                 (A) (A) (A) (A) (A) (A) (A) (A) (A) (A) (A) (A)
                 (A) (A) (A) (A) (A) (A) (A) (A) (A) (A) (A) (A)
                 (A) (A) (A) (A) (A) (A) (A) (A) (A) (A) (A) (A)
                 (A) (A) (A) (A) (A) (A) (A) (A) (A) (A) (A) (A)
                 (A) (A) (A) (A) (A) (A) (A) (A) (A) (A) (A) (A)
                 (A) (A) (A) (A) (A) (A) (A) (A) (A) (A) (A) (A)
                 (A) (A) (A) (A) (A) (A) (A) (A) (A) (A) (A) (A)
                 (A) (A) (A) (A) (A) (A) (A) (A) (A) (A) (A) (A)
                 (A) (A) (A) (A) (A) (A) (A) (A) (A) (A) (A) (A)
                 (A) (A) (A) (A) (A) (A) (A) (A) (A) (A) (A) (A)
                 (A) (A) (A) (A) (A) (A) (A) (A) (A) (A) (A) (A)
                 (A) (A) (A) (A) (A) (A) (A) (A) (A) (A) (A) (A)
                 (A) (A) (A) (A) (A) (A) (A) (A) (A) (A) (A) (A)
                 (A) (A) (A) (A) (A) (A) (A) (A) (A) (A) (A)
 The electronic state is 1-A.
 Alpha  occ. eigenvalues --  -19.15083 -19.14966 -19.14161 -10.29712 -10.29441
 Alpha  occ. eigenvalues --  -10.29369 -10.23046 -10.22700 -10.22305 -10.20984
 Alpha  occ. eigenvalues --  -10.20393 -10.19995 -10.19652 -10.19576 -10.19218
 Alpha  occ. eigenvalues --  -10.19178 -10.18176  -1.08333  -1.08055  -1.07496
 Alpha  occ. eigenvalues --   -0.88237  -0.87562  -0.82440  -0.78343  -0.76878
 Alpha  occ. eigenvalues --   -0.73755  -0.71665  -0.66105  -0.63798  -0.62852
 Alpha  occ. eigenvalues --   -0.61137  -0.57140  -0.54158  -0.53936  -0.50737
 Alpha  occ. eigenvalues --   -0.49365  -0.48168  -0.47959  -0.46776  -0.45969
 Alpha  occ. eigenvalues --   -0.45472  -0.45166  -0.44399  -0.44257  -0.43111
 Alpha  occ. eigenvalues --   -0.41968  -0.41438  -0.41412  -0.39744  -0.38174
 Alpha  occ. eigenvalues --   -0.37880  -0.36336  -0.32355  -0.30398  -0.30062
 Alpha  occ. eigenvalues --   -0.29599  -0.27946  -0.27650  -0.27410
 Alpha virt. eigenvalues --   -0.14333  -0.08743  -0.03822  -0.03112  -0.01161
 Alpha virt. eigenvalues --   -0.00777   0.00007   0.01070   0.01378   0.01437
 Alpha virt. eigenvalues --    0.01650   0.02960   0.03319   0.03541   0.04303
 Alpha virt. eigenvalues --    0.04625   0.04997   0.05736   0.06512   0.06785
 Alpha virt. eigenvalues --    0.07038   0.07475   0.08474   0.08593   0.09537
 Alpha virt. eigenvalues --    0.09755   0.10107   0.10805   0.11089   0.11401
 Alpha virt. eigenvalues --    0.11668   0.11809   0.11901   0.12236   0.12387
 Alpha virt. eigenvalues --    0.12687   0.12834   0.13010   0.13440   0.13524
 Alpha virt. eigenvalues --    0.14150   0.14582   0.14705   0.15072   0.15443
 Alpha virt. eigenvalues --    0.15704   0.16039   0.16428   0.16774   0.17588
 Alpha virt. eigenvalues --    0.17787   0.18214   0.18336   0.18606   0.18930
 Alpha virt. eigenvalues --    0.19399   0.20414   0.20812   0.20961   0.21443
 Alpha virt. eigenvalues --    0.21700   0.21715   0.21978   0.22431   0.22828
 Alpha virt. eigenvalues --    0.23607   0.23990   0.24515   0.24662   0.24967
 Alpha virt. eigenvalues --    0.25538   0.25979   0.26588   0.26849   0.27406
 Alpha virt. eigenvalues --    0.27496   0.27959   0.28672   0.28938   0.29102
 Alpha virt. eigenvalues --    0.29851   0.30208   0.31140   0.31279   0.31731
 Alpha virt. eigenvalues --    0.32054   0.32443   0.32567   0.33254   0.34092
 Alpha virt. eigenvalues --    0.34474   0.34690   0.35292   0.35565   0.35812
 Alpha virt. eigenvalues --    0.36658   0.37136   0.37291   0.38301   0.38812
 Alpha virt. eigenvalues --    0.39424   0.40656   0.41034   0.42205   0.44101
 Alpha virt. eigenvalues --    0.45388   0.46040   0.46407   0.47669   0.49651
 Alpha virt. eigenvalues --    0.51593   0.52076   0.53212   0.53285   0.54383
 Alpha virt. eigenvalues --    0.54518   0.55101   0.55383   0.56034   0.57000
 Alpha virt. eigenvalues --    0.57422   0.57659   0.58691   0.59242   0.60253
 Alpha virt. eigenvalues --    0.60841   0.61567   0.62659   0.63709   0.64007
 Alpha virt. eigenvalues --    0.64976   0.65188   0.65677   0.66233   0.66517
 Alpha virt. eigenvalues --    0.67650   0.68692   0.69532   0.69800   0.70167
 Alpha virt. eigenvalues --    0.70625   0.71142   0.72020   0.73060   0.73337
 Alpha virt. eigenvalues --    0.74589   0.75466   0.76773   0.78162   0.79661
 Alpha virt. eigenvalues --    0.80617   0.83169   0.83695   0.83891   0.84684
 Alpha virt. eigenvalues --    0.85686   0.86659   0.87501   0.88923   0.89186
 Alpha virt. eigenvalues --    0.89597   0.90739   0.90799   0.92297   0.92861
 Alpha virt. eigenvalues --    0.93642   0.94899   0.95253   0.96497   0.97846
 Alpha virt. eigenvalues --    0.98890   0.99881   1.00098   1.00633   1.02115
 Alpha virt. eigenvalues --    1.03887   1.04445   1.05263   1.06929   1.07579
 Alpha virt. eigenvalues --    1.09729   1.10145   1.10475   1.12479   1.13365
 Alpha virt. eigenvalues --    1.14440   1.16007   1.18470   1.20525   1.21499
 Alpha virt. eigenvalues --    1.22217   1.23700   1.25348   1.26308   1.28150
 Alpha virt. eigenvalues --    1.29122   1.31574   1.31990   1.34107   1.35475
 Alpha virt. eigenvalues --    1.38878   1.40599   1.43538   1.45169   1.46035
 Alpha virt. eigenvalues --    1.48030   1.49585   1.50380   1.51027   1.51542
 Alpha virt. eigenvalues --    1.52711   1.53726   1.54651   1.55463   1.55855
 Alpha virt. eigenvalues --    1.56209   1.57542   1.58133   1.60576   1.62159
 Alpha virt. eigenvalues --    1.63149   1.64486   1.65387   1.66141   1.67227
 Alpha virt. eigenvalues --    1.68244   1.69397   1.71690   1.73102   1.74861
 Alpha virt. eigenvalues --    1.76030   1.77026   1.77790   1.79789   1.80611
 Alpha virt. eigenvalues --    1.81458   1.82552   1.84415   1.85357   1.85980
 Alpha virt. eigenvalues --    1.88031   1.89056   1.91229   1.91624   1.93632
 Alpha virt. eigenvalues --    1.94127   1.94773   1.94839   1.96416   1.97149
 Alpha virt. eigenvalues --    1.98725   2.00158   2.01394   2.03370   2.04686
 Alpha virt. eigenvalues --    2.06855   2.08095   2.10147   2.10565   2.13290
 Alpha virt. eigenvalues --    2.15356   2.17092   2.20969   2.22992   2.24253
 Alpha virt. eigenvalues --    2.24705   2.27423   2.30442   2.33187   2.33688
 Alpha virt. eigenvalues --    2.41906   2.43178   2.44603   2.45602   2.46111
 Alpha virt. eigenvalues --    2.48010   2.51130   2.53079   2.53415   2.54507
 Alpha virt. eigenvalues --    2.60485   2.61359   2.62743   2.64580   2.65880
 Alpha virt. eigenvalues --    2.65968   2.66853   2.69109   2.70415   2.71583
 Alpha virt. eigenvalues --    2.71797   2.72332   2.73137   2.74121   2.75474
 Alpha virt. eigenvalues --    2.77269   2.78016   2.79357   2.80557   2.81774
 Alpha virt. eigenvalues --    2.82751   2.84262   2.84993   2.85759   2.86363
 Alpha virt. eigenvalues --    2.88712   2.89514   2.89894   2.92402   2.93241
 Alpha virt. eigenvalues --    2.93521   2.94559   2.96185   2.98295   3.00294
 Alpha virt. eigenvalues --    3.03458   3.07176   3.09013   3.11633   3.13383
 Alpha virt. eigenvalues --    3.18949   3.19123   3.21073   3.22963   3.30487
 Alpha virt. eigenvalues --    3.31189   3.32837   3.34177   3.35015   3.36810
 Alpha virt. eigenvalues --    3.42318   3.46728   3.48929   3.51845   3.52460
 Alpha virt. eigenvalues --    3.54771   3.58770   3.60879   3.64269   3.66587
 Alpha virt. eigenvalues --    3.70592   3.75661   3.77681   3.85293   3.85940
 Alpha virt. eigenvalues --    3.99239   4.02793   4.07647   4.11831   4.13705
 Alpha virt. eigenvalues --    4.15402   4.17030   4.18292   4.29514   4.41077
 Alpha virt. eigenvalues --    4.68488   4.83305   5.03976   5.05037   5.08161
 Alpha virt. eigenvalues --    5.19832   5.21908   5.23247   5.69585   5.74368
 Alpha virt. eigenvalues --    5.77777  23.58949  23.65305  23.73668  23.81192
 Alpha virt. eigenvalues --   23.87594  23.89745  23.94832  23.95693  23.96793
 Alpha virt. eigenvalues --   24.05261  24.09041  24.16532  24.17774  24.21530
 Alpha virt. eigenvalues --   49.96707  50.00473  50.03995
  Beta  occ. eigenvalues --  -19.15083 -19.14966 -19.14161 -10.29712 -10.29441
  Beta  occ. eigenvalues --  -10.29369 -10.23046 -10.22700 -10.22305 -10.20984
  Beta  occ. eigenvalues --  -10.20393 -10.19995 -10.19652 -10.19576 -10.19218
  Beta  occ. eigenvalues --  -10.19178 -10.18176  -1.08333  -1.08055  -1.07496
  Beta  occ. eigenvalues --   -0.88237  -0.87562  -0.82440  -0.78343  -0.76878
  Beta  occ. eigenvalues --   -0.73755  -0.71665  -0.66105  -0.63798  -0.62852
  Beta  occ. eigenvalues --   -0.61137  -0.57140  -0.54158  -0.53936  -0.50737
  Beta  occ. eigenvalues --   -0.49365  -0.48168  -0.47959  -0.46776  -0.45969
  Beta  occ. eigenvalues --   -0.45472  -0.45166  -0.44399  -0.44257  -0.43111
  Beta  occ. eigenvalues --   -0.41968  -0.41438  -0.41412  -0.39744  -0.38174
  Beta  occ. eigenvalues --   -0.37880  -0.36336  -0.32355  -0.30398  -0.30062
  Beta  occ. eigenvalues --   -0.29599  -0.27946  -0.27650  -0.27410
  Beta virt. eigenvalues --   -0.14333  -0.08743  -0.03822  -0.03112  -0.01161
  Beta virt. eigenvalues --   -0.00777   0.00007   0.01070   0.01378   0.01437
  Beta virt. eigenvalues --    0.01650   0.02960   0.03319   0.03541   0.04303
  Beta virt. eigenvalues --    0.04625   0.04997   0.05736   0.06512   0.06785
  Beta virt. eigenvalues --    0.07038   0.07475   0.08474   0.08593   0.09537
  Beta virt. eigenvalues --    0.09755   0.10107   0.10805   0.11089   0.11401
  Beta virt. eigenvalues --    0.11668   0.11809   0.11901   0.12236   0.12387
  Beta virt. eigenvalues --    0.12687   0.12834   0.13010   0.13440   0.13524
  Beta virt. eigenvalues --    0.14150   0.14582   0.14705   0.15072   0.15443
  Beta virt. eigenvalues --    0.15704   0.16039   0.16428   0.16774   0.17588
  Beta virt. eigenvalues --    0.17787   0.18214   0.18336   0.18606   0.18930
  Beta virt. eigenvalues --    0.19399   0.20414   0.20812   0.20961   0.21443
  Beta virt. eigenvalues --    0.21700   0.21715   0.21978   0.22431   0.22828
  Beta virt. eigenvalues --    0.23607   0.23990   0.24515   0.24662   0.24967
  Beta virt. eigenvalues --    0.25538   0.25979   0.26588   0.26849   0.27406
  Beta virt. eigenvalues --    0.27496   0.27959   0.28672   0.28938   0.29102
  Beta virt. eigenvalues --    0.29851   0.30208   0.31140   0.31279   0.31731
  Beta virt. eigenvalues --    0.32054   0.32443   0.32567   0.33254   0.34092
  Beta virt. eigenvalues --    0.34474   0.34690   0.35292   0.35565   0.35812
  Beta virt. eigenvalues --    0.36658   0.37136   0.37291   0.38301   0.38812
  Beta virt. eigenvalues --    0.39424   0.40656   0.41034   0.42205   0.44101
  Beta virt. eigenvalues --    0.45388   0.46040   0.46407   0.47669   0.49651
  Beta virt. eigenvalues --    0.51593   0.52076   0.53212   0.53285   0.54383
  Beta virt. eigenvalues --    0.54518   0.55101   0.55383   0.56034   0.57000
  Beta virt. eigenvalues --    0.57422   0.57659   0.58691   0.59242   0.60253
  Beta virt. eigenvalues --    0.60841   0.61567   0.62659   0.63709   0.64007
  Beta virt. eigenvalues --    0.64976   0.65188   0.65677   0.66233   0.66517
  Beta virt. eigenvalues --    0.67650   0.68692   0.69532   0.69800   0.70167
  Beta virt. eigenvalues --    0.70625   0.71142   0.72020   0.73060   0.73337
  Beta virt. eigenvalues --    0.74589   0.75466   0.76773   0.78162   0.79661
  Beta virt. eigenvalues --    0.80617   0.83169   0.83695   0.83891   0.84684
  Beta virt. eigenvalues --    0.85686   0.86659   0.87501   0.88923   0.89186
  Beta virt. eigenvalues --    0.89597   0.90739   0.90799   0.92297   0.92861
  Beta virt. eigenvalues --    0.93642   0.94899   0.95253   0.96497   0.97846
  Beta virt. eigenvalues --    0.98890   0.99881   1.00098   1.00633   1.02115
  Beta virt. eigenvalues --    1.03887   1.04445   1.05263   1.06929   1.07579
  Beta virt. eigenvalues --    1.09729   1.10145   1.10475   1.12479   1.13365
  Beta virt. eigenvalues --    1.14440   1.16007   1.18470   1.20525   1.21499
  Beta virt. eigenvalues --    1.22217   1.23700   1.25348   1.26308   1.28150
  Beta virt. eigenvalues --    1.29122   1.31574   1.31990   1.34107   1.35475
  Beta virt. eigenvalues --    1.38878   1.40599   1.43538   1.45169   1.46035
  Beta virt. eigenvalues --    1.48030   1.49585   1.50380   1.51027   1.51542
  Beta virt. eigenvalues --    1.52711   1.53726   1.54651   1.55463   1.55855
  Beta virt. eigenvalues --    1.56209   1.57542   1.58133   1.60576   1.62159
  Beta virt. eigenvalues --    1.63149   1.64486   1.65387   1.66141   1.67227
  Beta virt. eigenvalues --    1.68244   1.69397   1.71690   1.73102   1.74861
  Beta virt. eigenvalues --    1.76030   1.77026   1.77790   1.79789   1.80611
  Beta virt. eigenvalues --    1.81458   1.82552   1.84415   1.85357   1.85980
  Beta virt. eigenvalues --    1.88031   1.89056   1.91229   1.91624   1.93632
  Beta virt. eigenvalues --    1.94127   1.94773   1.94839   1.96416   1.97149
  Beta virt. eigenvalues --    1.98725   2.00158   2.01394   2.03370   2.04686
  Beta virt. eigenvalues --    2.06855   2.08095   2.10147   2.10565   2.13290
  Beta virt. eigenvalues --    2.15356   2.17092   2.20969   2.22992   2.24253
  Beta virt. eigenvalues --    2.24705   2.27423   2.30442   2.33187   2.33688
  Beta virt. eigenvalues --    2.41906   2.43178   2.44603   2.45602   2.46111
  Beta virt. eigenvalues --    2.48010   2.51130   2.53079   2.53415   2.54507
  Beta virt. eigenvalues --    2.60485   2.61359   2.62743   2.64580   2.65880
  Beta virt. eigenvalues --    2.65968   2.66853   2.69109   2.70415   2.71583
  Beta virt. eigenvalues --    2.71797   2.72332   2.73137   2.74121   2.75474
  Beta virt. eigenvalues --    2.77269   2.78016   2.79357   2.80557   2.81774
  Beta virt. eigenvalues --    2.82751   2.84262   2.84993   2.85759   2.86363
  Beta virt. eigenvalues --    2.88712   2.89514   2.89894   2.92402   2.93241
  Beta virt. eigenvalues --    2.93521   2.94559   2.96185   2.98295   3.00294
  Beta virt. eigenvalues --    3.03458   3.07176   3.09013   3.11633   3.13383
  Beta virt. eigenvalues --    3.18949   3.19123   3.21073   3.22963   3.30487
  Beta virt. eigenvalues --    3.31189   3.32837   3.34177   3.35015   3.36810
  Beta virt. eigenvalues --    3.42318   3.46728   3.48929   3.51845   3.52460
  Beta virt. eigenvalues --    3.54771   3.58770   3.60879   3.64269   3.66587
  Beta virt. eigenvalues --    3.70592   3.75661   3.77681   3.85293   3.85940
  Beta virt. eigenvalues --    3.99239   4.02793   4.07647   4.11831   4.13705
  Beta virt. eigenvalues --    4.15402   4.17030   4.18292   4.29514   4.41077
  Beta virt. eigenvalues --    4.68488   4.83305   5.03976   5.05037   5.08161
  Beta virt. eigenvalues --    5.19832   5.21908   5.23247   5.69585   5.74368
  Beta virt. eigenvalues --    5.77777  23.58949  23.65305  23.73668  23.81192
  Beta virt. eigenvalues --   23.87594  23.89745  23.94832  23.95693  23.96793
  Beta virt. eigenvalues --   24.05261  24.09041  24.16532  24.17774  24.21530
  Beta virt. eigenvalues --   49.96707  50.00473  50.03995
          Condensed to atoms (all electrons):
               1          2          3          4          5          6
     1  C   13.285044  -3.328833   1.139850  -1.885220  -1.815269   0.497503
     2  C   -3.328833  15.192697  -5.129164   0.018730  -0.089342  -0.144644
     3  C    1.139850  -5.129164  12.827146  -0.539226  -0.514003   0.015276
     4  C   -1.885220   0.018730  -0.539226  11.468884  -4.115815  -0.006339
     5  C   -1.815269  -0.089342  -0.514003  -4.115815  24.277693  -0.016291
     6  O    0.497503  -0.144644   0.015276  -0.006339  -0.016291   8.042162
     7  O    0.001676  -0.116489  -0.098134   0.493969  -0.118928   0.000308
     8  H   -0.028608   0.452395  -0.068711   0.034221   0.063117  -0.020292
     9  C   -2.110588  -0.919279  -1.266188   1.843260  -7.475780  -0.071710
    10  C    1.110333  -0.165938  -0.184781   0.772502  -6.501198  -0.119453
    11  C   -0.487831   0.222735  -0.039868  -0.018990   1.410254   0.169633
    12  C   -0.059722  -0.007772   0.033485   0.073266   0.021914   0.009482
    13  C   -0.219432   0.207918  -0.086263   0.091458  -0.007798  -0.085093
    14  C    0.074419   0.016141  -0.000080  -0.020667  -0.227273  -0.010359
    15  C   -0.011525   0.006862  -0.006237   0.005432   0.086429   0.010148
    16  C    0.282950  -0.129026   0.091047   0.039934  -0.191001  -0.010022
    17  O    0.011288   0.011396  -0.011439   0.000982  -0.104673  -0.001242
    18  H   -0.014809  -0.002704   0.000020   0.001236   0.031042  -0.000331
    19  H   -0.053213   0.038987  -0.021040   0.001736  -0.038673  -0.000886
    20  H    0.001262  -0.000055   0.000209  -0.000099  -0.002857  -0.000237
    21  H   -0.001567   0.000005  -0.000105  -0.000108   0.003539   0.000172
    22  H    0.003272  -0.005042   0.003301   0.000139   0.003163  -0.000364
    23  C    0.342301   0.457641  -1.085383  -1.159723   0.421460   0.002525
    24  H    0.110001  -0.007645  -0.089540  -0.127357   0.427222  -0.001747
    25  H    0.029579  -0.006623  -0.082411  -0.051468  -0.011678   0.001058
    26  H   -0.000271  -0.067529   0.076591   0.019877  -0.004037   0.000233
    27  H    0.013939  -0.080012   0.041174   0.012463   0.014483  -0.000033
               7          8          9         10         11         12
     1  C    0.001676  -0.028608  -2.110588   1.110333  -0.487831  -0.059722
     2  C   -0.116489   0.452395  -0.919279  -0.165938   0.222735  -0.007772
     3  C   -0.098134  -0.068711  -1.266188  -0.184781  -0.039868   0.033485
     4  C    0.493969   0.034221   1.843260   0.772502  -0.018990   0.073266
     5  C   -0.118928   0.063117  -7.475780  -6.501198   1.410254   0.021914
     6  O    0.000308  -0.020292  -0.071710  -0.119453   0.169633   0.009482
     7  O    8.119765  -0.001741  -0.060497  -0.001628   0.008056  -0.000161
     8  H   -0.001741   0.474651  -0.068174  -0.022466   0.002303  -0.002318
     9  C   -0.060497  -0.068174  18.354055   1.963870  -4.415260   0.349791
    10  C   -0.001628  -0.022466   1.963870  13.903595  -4.422671  -1.730904
    11  C    0.008056   0.002303  -4.415260  -4.422671  17.312244  -0.307591
    12  C   -0.000161  -0.002318   0.349791  -1.730904  -0.307591  12.679061
    13  C   -0.003550  -0.003318  -0.746886   1.036500  -0.797003  -4.919195
    14  C   -0.000105  -0.001127  -0.413425  -0.462690   0.280251  -0.835881
    15  C    0.000070   0.001536   0.054646   0.071972  -0.294212  -0.411363
    16  C    0.000700  -0.001903   0.277006   0.954859  -3.304849   0.365581
    17  O    0.000159   0.000279  -0.152877   0.605876  -0.145172   0.117086
    18  H   -0.000015  -0.000015   0.027001  -0.017203  -0.039778   0.408144
    19  H   -0.001043  -0.000174   0.005511   0.054356  -0.085346  -0.102616
    20  H    0.000000  -0.000035  -0.008071  -0.007258   0.011597  -0.077710
    21  H    0.000001   0.000039   0.003099  -0.001477   0.014793  -0.024532
    22  H    0.000027  -0.000263  -0.003586  -0.010062   0.043144   0.059234
    23  C    0.063128  -0.040399  -0.381148  -0.159272  -0.022241   0.008149
    24  H   -0.017363   0.002471   0.074645  -0.049525  -0.031124   0.003343
    25  H    0.002094  -0.005471   0.011230   0.003953  -0.001303  -0.000023
    26  H   -0.006226   0.000289   0.010368   0.002155  -0.000594  -0.000048
    27  H   -0.004964   0.000368  -0.020027  -0.005952   0.001880   0.000249
              13         14         15         16         17         18
     1  C   -0.219432   0.074419  -0.011525   0.282950   0.011288  -0.014809
     2  C    0.207918   0.016141   0.006862  -0.129026   0.011396  -0.002704
     3  C   -0.086263  -0.000080  -0.006237   0.091047  -0.011439   0.000020
     4  C    0.091458  -0.020667   0.005432   0.039934   0.000982   0.001236
     5  C   -0.007798  -0.227273   0.086429  -0.191001  -0.104673   0.031042
     6  O   -0.085093  -0.010359   0.010148  -0.010022  -0.001242  -0.000331
     7  O   -0.003550  -0.000105   0.000070   0.000700   0.000159  -0.000015
     8  H   -0.003318  -0.001127   0.001536  -0.001903   0.000279  -0.000015
     9  C   -0.746886  -0.413425   0.054646   0.277006  -0.152877   0.027001
    10  C    1.036500  -0.462690   0.071972   0.954859   0.605876  -0.017203
    11  C   -0.797003   0.280251  -0.294212  -3.304849  -0.145172  -0.039778
    12  C   -4.919195  -0.835881  -0.411363   0.365581   0.117086   0.408144
    13  C   12.861852   1.198817  -0.600226  -1.433522  -0.094918  -0.007962
    14  C    1.198817   7.169945   0.129446  -0.814167   0.031962  -0.117617
    15  C   -0.600226   0.129446   5.898794   0.969303  -0.006482   0.014330
    16  C   -1.433522  -0.814167   0.969303   8.934346  -0.008077   0.030560
    17  O   -0.094918   0.031962  -0.006482  -0.008077   8.000289   0.002309
    18  H   -0.007962  -0.117617   0.014330   0.030560   0.002309   0.482731
    19  H    0.593322   0.045928  -0.001832  -0.099592  -0.003252  -0.001373
    20  H    0.022092   0.487062  -0.084952  -0.015466   0.001827  -0.014412
    21  H   -0.049971  -0.058896   0.496915  -0.045124  -0.000036   0.001417
    22  H   -0.133939   0.000790  -0.059682   0.418494   0.000438   0.000495
    23  C   -0.014823  -0.001018   0.000194   0.008307  -0.002321   0.000044
    24  H   -0.034335  -0.004790   0.001663   0.005759  -0.003289   0.000048
    25  H    0.001270   0.000025  -0.000044   0.000611   0.000018  -0.000003
    26  H    0.000228   0.000017  -0.000006  -0.000078  -0.000036  -0.000000
    27  H   -0.001614  -0.000048   0.000043   0.000180   0.000010   0.000001
              19         20         21         22         23         24
     1  C   -0.053213   0.001262  -0.001567   0.003272   0.342301   0.110001
     2  C    0.038987  -0.000055   0.000005  -0.005042   0.457641  -0.007645
     3  C   -0.021040   0.000209  -0.000105   0.003301  -1.085383  -0.089540
     4  C    0.001736  -0.000099  -0.000108   0.000139  -1.159723  -0.127357
     5  C   -0.038673  -0.002857   0.003539   0.003163   0.421460   0.427222
     6  O   -0.000886  -0.000237   0.000172  -0.000364   0.002525  -0.001747
     7  O   -0.001043   0.000000   0.000001   0.000027   0.063128  -0.017363
     8  H   -0.000174  -0.000035   0.000039  -0.000263  -0.040399   0.002471
     9  C    0.005511  -0.008071   0.003099  -0.003586  -0.381148   0.074645
    10  C    0.054356  -0.007258  -0.001477  -0.010062  -0.159272  -0.049525
    11  C   -0.085346   0.011597   0.014793   0.043144  -0.022241  -0.031124
    12  C   -0.102616  -0.077710  -0.024532   0.059234   0.008149   0.003343
    13  C    0.593322   0.022092  -0.049971  -0.133939  -0.014823  -0.034335
    14  C    0.045928   0.487062  -0.058896   0.000790  -0.001018  -0.004790
    15  C   -0.001832  -0.084952   0.496915  -0.059682   0.000194   0.001663
    16  C   -0.099592  -0.015466  -0.045124   0.418494   0.008307   0.005759
    17  O   -0.003252   0.001827  -0.000036   0.000438  -0.002321  -0.003289
    18  H   -0.001373  -0.014412   0.001417   0.000495   0.000044   0.000048
    19  H    0.512697   0.000000   0.001288  -0.014329  -0.005115  -0.002232
    20  H    0.000000   0.497595  -0.017004   0.001345   0.000008  -0.000101
    21  H    0.001288  -0.017004   0.501475  -0.014927  -0.000004   0.000051
    22  H   -0.014329   0.001345  -0.014927   0.488955   0.000355  -0.000019
    23  C   -0.005115   0.000008  -0.000004   0.000355   6.899704   0.000260
    24  H   -0.002232  -0.000101   0.000051  -0.000019   0.000260   0.466422
    25  H    0.000269   0.000001  -0.000002   0.000021   0.463264  -0.000319
    26  H    0.000225  -0.000000   0.000000  -0.000007   0.316908  -0.000663
    27  H   -0.000786   0.000000   0.000000   0.000026   0.370888   0.000874
              25         26         27
     1  C    0.029579  -0.000271   0.013939
     2  C   -0.006623  -0.067529  -0.080012
     3  C   -0.082411   0.076591   0.041174
     4  C   -0.051468   0.019877   0.012463
     5  C   -0.011678  -0.004037   0.014483
     6  O    0.001058   0.000233  -0.000033
     7  O    0.002094  -0.006226  -0.004964
     8  H   -0.005471   0.000289   0.000368
     9  C    0.011230   0.010368  -0.020027
    10  C    0.003953   0.002155  -0.005952
    11  C   -0.001303  -0.000594   0.001880
    12  C   -0.000023  -0.000048   0.000249
    13  C    0.001270   0.000228  -0.001614
    14  C    0.000025   0.000017  -0.000048
    15  C   -0.000044  -0.000006   0.000043
    16  C    0.000611  -0.000078   0.000180
    17  O    0.000018  -0.000036   0.000010
    18  H   -0.000003  -0.000000   0.000001
    19  H    0.000269   0.000225  -0.000786
    20  H    0.000001  -0.000000   0.000000
    21  H   -0.000002   0.000000   0.000000
    22  H    0.000021  -0.000007   0.000026
    23  C    0.463264   0.316908   0.370888
    24  H   -0.000319  -0.000663   0.000874
    25  H    0.508179  -0.016043  -0.016868
    26  H   -0.016043   0.530811  -0.055676
    27  H   -0.016868  -0.055676   0.536100
          Atomic-Atomic Spin Densities.
               1          2          3          4          5          6
     1  C   -0.000000   0.000000  -0.000000  -0.000000   0.000000  -0.000000
     2  C    0.000000  -0.000000   0.000000  -0.000000   0.000000   0.000000
     3  C   -0.000000   0.000000   0.000000  -0.000000   0.000000   0.000000
     4  C   -0.000000  -0.000000  -0.000000   0.000000  -0.000000   0.000000
     5  C    0.000000   0.000000   0.000000  -0.000000   0.000000  -0.000000
     6  O   -0.000000   0.000000   0.000000   0.000000  -0.000000  -0.000000
     7  O   -0.000000   0.000000   0.000000  -0.000000   0.000000  -0.000000
     8  H    0.000000  -0.000000   0.000000  -0.000000   0.000000   0.000000
     9  C   -0.000000  -0.000000  -0.000000   0.000000  -0.000000   0.000000
    10  C   -0.000000   0.000000  -0.000000   0.000000  -0.000000   0.000000
    11  C    0.000000  -0.000000   0.000000  -0.000000   0.000000  -0.000000
    12  C    0.000000   0.000000  -0.000000  -0.000000  -0.000000  -0.000000
    13  C   -0.000000  -0.000000   0.000000   0.000000  -0.000000  -0.000000
    14  C   -0.000000   0.000000   0.000000   0.000000   0.000000   0.000000
    15  C    0.000000  -0.000000   0.000000   0.000000  -0.000000  -0.000000
    16  C   -0.000000   0.000000  -0.000000   0.000000  -0.000000  -0.000000
    17  O    0.000000  -0.000000   0.000000  -0.000000   0.000000  -0.000000
    18  H   -0.000000  -0.000000   0.000000  -0.000000   0.000000  -0.000000
    19  H   -0.000000   0.000000   0.000000  -0.000000   0.000000   0.000000
    20  H   -0.000000  -0.000000   0.000000  -0.000000   0.000000  -0.000000
    21  H   -0.000000  -0.000000   0.000000  -0.000000   0.000000  -0.000000
    22  H    0.000000   0.000000  -0.000000  -0.000000   0.000000  -0.000000
    23  C    0.000000   0.000000  -0.000000  -0.000000   0.000000  -0.000000
    24  H   -0.000000   0.000000   0.000000  -0.000000   0.000000  -0.000000
    25  H   -0.000000  -0.000000   0.000000   0.000000  -0.000000   0.000000
    26  H   -0.000000   0.000000  -0.000000   0.000000   0.000000  -0.000000
    27  H   -0.000000   0.000000  -0.000000   0.000000   0.000000  -0.000000
               7          8          9         10         11         12
     1  C   -0.000000   0.000000  -0.000000  -0.000000   0.000000   0.000000
     2  C    0.000000  -0.000000  -0.000000   0.000000  -0.000000   0.000000
     3  C    0.000000   0.000000  -0.000000  -0.000000   0.000000  -0.000000
     4  C   -0.000000  -0.000000   0.000000   0.000000  -0.000000  -0.000000
     5  C    0.000000   0.000000  -0.000000  -0.000000   0.000000  -0.000000
     6  O   -0.000000   0.000000   0.000000   0.000000  -0.000000  -0.000000
     7  O    0.000000   0.000000  -0.000000  -0.000000   0.000000  -0.000000
     8  H    0.000000  -0.000000   0.000000  -0.000000   0.000000   0.000000
     9  C   -0.000000   0.000000   0.000000   0.000000  -0.000000  -0.000000
    10  C   -0.000000  -0.000000   0.000000   0.000000  -0.000000  -0.000000
    11  C    0.000000   0.000000  -0.000000  -0.000000   0.000000   0.000000
    12  C   -0.000000   0.000000  -0.000000  -0.000000   0.000000   0.000000
    13  C    0.000000  -0.000000   0.000000   0.000000  -0.000000  -0.000000
    14  C   -0.000000   0.000000   0.000000  -0.000000  -0.000000   0.000000
    15  C    0.000000  -0.000000   0.000000   0.000000  -0.000000  -0.000000
    16  C   -0.000000  -0.000000  -0.000000   0.000000  -0.000000  -0.000000
    17  O   -0.000000   0.000000   0.000000  -0.000000   0.000000   0.000000
    18  H    0.000000  -0.000000  -0.000000  -0.000000   0.000000  -0.000000
    19  H    0.000000   0.000000  -0.000000  -0.000000  -0.000000  -0.000000
    20  H   -0.000000   0.000000   0.000000  -0.000000  -0.000000   0.000000
    21  H    0.000000  -0.000000   0.000000   0.000000  -0.000000  -0.000000
    22  H   -0.000000   0.000000  -0.000000  -0.000000   0.000000   0.000000
    23  C    0.000000   0.000000  -0.000000  -0.000000   0.000000  -0.000000
    24  H   -0.000000   0.000000  -0.000000  -0.000000   0.000000   0.000000
    25  H   -0.000000  -0.000000   0.000000   0.000000  -0.000000  -0.000000
    26  H   -0.000000   0.000000  -0.000000  -0.000000   0.000000  -0.000000
    27  H   -0.000000   0.000000  -0.000000  -0.000000   0.000000   0.000000
              13         14         15         16         17         18
     1  C   -0.000000  -0.000000   0.000000  -0.000000   0.000000  -0.000000
     2  C   -0.000000   0.000000  -0.000000   0.000000  -0.000000  -0.000000
     3  C    0.000000   0.000000   0.000000  -0.000000   0.000000   0.000000
     4  C    0.000000   0.000000   0.000000   0.000000  -0.000000  -0.000000
     5  C   -0.000000   0.000000  -0.000000  -0.000000   0.000000   0.000000
     6  O   -0.000000   0.000000  -0.000000  -0.000000  -0.000000  -0.000000
     7  O    0.000000  -0.000000   0.000000  -0.000000  -0.000000   0.000000
     8  H   -0.000000   0.000000  -0.000000  -0.000000   0.000000  -0.000000
     9  C    0.000000   0.000000   0.000000  -0.000000   0.000000  -0.000000
    10  C    0.000000  -0.000000   0.000000   0.000000  -0.000000  -0.000000
    11  C   -0.000000  -0.000000  -0.000000  -0.000000   0.000000   0.000000
    12  C   -0.000000   0.000000  -0.000000  -0.000000   0.000000  -0.000000
    13  C    0.000000  -0.000000   0.000000   0.000000  -0.000000   0.000000
    14  C   -0.000000  -0.000000   0.000000   0.000000   0.000000   0.000000
    15  C    0.000000   0.000000   0.000000   0.000000  -0.000000  -0.000000
    16  C    0.000000   0.000000   0.000000  -0.000000  -0.000000  -0.000000
    17  O   -0.000000   0.000000  -0.000000  -0.000000   0.000000  -0.000000
    18  H    0.000000   0.000000  -0.000000  -0.000000  -0.000000   0.000000
    19  H    0.000000  -0.000000   0.000000   0.000000  -0.000000   0.000000
    20  H   -0.000000  -0.000000   0.000000   0.000000   0.000000   0.000000
    21  H   -0.000000   0.000000   0.000000  -0.000000  -0.000000   0.000000
    22  H    0.000000   0.000000  -0.000000  -0.000000   0.000000  -0.000000
    23  C   -0.000000   0.000000  -0.000000  -0.000000   0.000000   0.000000
    24  H   -0.000000   0.000000  -0.000000  -0.000000   0.000000   0.000000
    25  H    0.000000   0.000000   0.000000   0.000000   0.000000  -0.000000
    26  H    0.000000  -0.000000   0.000000   0.000000  -0.000000   0.000000
    27  H   -0.000000  -0.000000  -0.000000  -0.000000  -0.000000   0.000000
              19         20         21         22         23         24
     1  C   -0.000000  -0.000000  -0.000000   0.000000   0.000000  -0.000000
     2  C    0.000000  -0.000000  -0.000000   0.000000   0.000000   0.000000
     3  C    0.000000   0.000000   0.000000  -0.000000  -0.000000   0.000000
     4  C   -0.000000  -0.000000  -0.000000  -0.000000  -0.000000  -0.000000
     5  C    0.000000   0.000000   0.000000   0.000000   0.000000   0.000000
     6  O    0.000000  -0.000000  -0.000000  -0.000000  -0.000000  -0.000000
     7  O    0.000000  -0.000000   0.000000  -0.000000   0.000000  -0.000000
     8  H    0.000000   0.000000  -0.000000   0.000000   0.000000   0.000000
     9  C   -0.000000   0.000000   0.000000  -0.000000  -0.000000  -0.000000
    10  C   -0.000000  -0.000000   0.000000  -0.000000  -0.000000  -0.000000
    11  C   -0.000000  -0.000000  -0.000000   0.000000   0.000000   0.000000
    12  C   -0.000000   0.000000  -0.000000   0.000000  -0.000000   0.000000
    13  C    0.000000  -0.000000  -0.000000   0.000000  -0.000000  -0.000000
    14  C   -0.000000  -0.000000   0.000000   0.000000   0.000000   0.000000
    15  C    0.000000   0.000000   0.000000  -0.000000  -0.000000  -0.000000
    16  C    0.000000   0.000000  -0.000000  -0.000000  -0.000000  -0.000000
    17  O   -0.000000   0.000000  -0.000000   0.000000   0.000000   0.000000
    18  H    0.000000   0.000000   0.000000  -0.000000   0.000000   0.000000
    19  H    0.000000  -0.000000   0.000000  -0.000000   0.000000   0.000000
    20  H   -0.000000  -0.000000  -0.000000   0.000000   0.000000   0.000000
    21  H    0.000000  -0.000000   0.000000  -0.000000   0.000000   0.000000
    22  H   -0.000000   0.000000  -0.000000   0.000000  -0.000000   0.000000
    23  C    0.000000   0.000000   0.000000  -0.000000   0.000000   0.000000
    24  H    0.000000   0.000000   0.000000   0.000000   0.000000  -0.000000
    25  H   -0.000000  -0.000000  -0.000000  -0.000000  -0.000000  -0.000000
    26  H    0.000000  -0.000000   0.000000  -0.000000  -0.000000  -0.000000
    27  H   -0.000000   0.000000   0.000000   0.000000  -0.000000   0.000000
              25         26         27
     1  C   -0.000000  -0.000000  -0.000000
     2  C   -0.000000   0.000000   0.000000
     3  C    0.000000  -0.000000  -0.000000
     4  C    0.000000   0.000000   0.000000
     5  C   -0.000000   0.000000   0.000000
     6  O    0.000000  -0.000000  -0.000000
     7  O   -0.000000  -0.000000  -0.000000
     8  H   -0.000000   0.000000   0.000000
     9  C    0.000000  -0.000000  -0.000000
    10  C    0.000000  -0.000000  -0.000000
    11  C   -0.000000   0.000000   0.000000
    12  C   -0.000000  -0.000000   0.000000
    13  C    0.000000   0.000000  -0.000000
    14  C    0.000000  -0.000000  -0.000000
    15  C    0.000000   0.000000  -0.000000
    16  C    0.000000   0.000000  -0.000000
    17  O    0.000000  -0.000000  -0.000000
    18  H   -0.000000   0.000000   0.000000
    19  H   -0.000000   0.000000  -0.000000
    20  H   -0.000000  -0.000000   0.000000
    21  H   -0.000000   0.000000   0.000000
    22  H   -0.000000  -0.000000   0.000000
    23  C   -0.000000  -0.000000  -0.000000
    24  H   -0.000000  -0.000000   0.000000
    25  H   -0.000000   0.000000   0.000000
    26  H    0.000000  -0.000000  -0.000000
    27  H    0.000000  -0.000000  -0.000000
 Mulliken charges and spin densities:
               1          2
     1  C   -0.886528  -0.000000
     2  C   -0.425409   0.000000
     3  C    0.994475  -0.000000
     4  C   -0.953078   0.000000
     5  C    0.474298  -0.000000
     6  O   -0.259460   0.000000
     7  O   -0.259109  -0.000000
     8  H    0.233345   0.000000
     9  C    1.139014   0.000000
    10  C   -0.617493   0.000000
    11  C    0.936943  -0.000000
    12  C    0.351050   0.000000
    13  C   -0.773610  -0.000000
    14  C   -0.466663  -0.000000
    15  C   -0.271222   0.000000
    16  C   -0.326811   0.000000
    17  O   -0.250104  -0.000000
    18  H    0.216844   0.000000
    19  H    0.177183  -0.000000
    20  H    0.205257  -0.000000
    21  H    0.190961   0.000000
    22  H    0.219023  -0.000000
    23  C   -0.483690  -0.000000
    24  H    0.277288  -0.000000
    25  H    0.170685   0.000000
    26  H    0.193512  -0.000000
    27  H    0.193299  -0.000000
 Sum of Mulliken charges =  -0.00000  -0.00000
 Mulliken charges and spin densities with hydrogens summed into heavy atoms:
               1          2
     1  C   -0.886528  -0.000000
     2  C   -0.192064   0.000000
     3  C    0.994475  -0.000000
     4  C   -0.953078   0.000000
     5  C    0.751586  -0.000000
     6  O   -0.259460   0.000000
     7  O   -0.259109  -0.000000
     9  C    1.139014   0.000000
    10  C   -0.617493   0.000000
    11  C    0.936943  -0.000000
    12  C    0.567893   0.000000
    13  C   -0.596427  -0.000000
    14  C   -0.261406  -0.000000
    15  C   -0.080261   0.000000
    16  C   -0.107788   0.000000
    17  O   -0.250104  -0.000000
    23  C    0.073807  -0.000000
 Electronic spatial extent (au):  <R**2>=           4561.9285
 Charge=              0.0000 electrons
 Dipole moment (field-independent basis, Debye):
    X=             -0.2006    Y=             -3.9766    Z=             -2.3473  Tot=              4.6221
 Quadrupole moment (field-independent basis, Debye-Ang):
   XX=            -78.4725   YY=           -102.6339   ZZ=           -107.1673
   XY=             -5.6364   XZ=             11.7273   YZ=              4.6209
 Traceless Quadrupole moment (field-independent basis, Debye-Ang):
   XX=             17.6187   YY=             -6.5426   ZZ=            -11.0761
   XY=             -5.6364   XZ=             11.7273   YZ=              4.6209
 Octapole moment (field-independent basis, Debye-Ang**2):
  XXX=            -54.5072  YYY=            -21.1000  ZZZ=             -2.3638  XYY=              5.3018
  XXY=            -48.9959  XXZ=             29.6781  XZZ=             -4.6958  YZZ=             -5.8707
  YYZ=            -15.2333  XYZ=             -3.1248
 Hexadecapole moment (field-independent basis, Debye-Ang**3):
 XXXX=          -4217.2653 YYYY=           -837.9668 ZZZZ=           -646.4886 XXXY=           -115.1061
 XXXZ=            136.1586 YYYX=             10.1230 YYYZ=            -14.8603 ZZZX=              7.0482
 ZZZY=             24.4111 XXYY=           -901.1661 XXZZ=           -962.6767 YYZZ=           -242.6299
 XXYZ=             90.1801 YYXZ=             42.0197 ZZXY=            -17.1591
 N-N= 1.083706169900D+03 E-N=-3.951924990626D+03  KE= 7.622551489417D+02
                          Isotropic Fermi Contact Couplings
        Atom                 a.u.       MegaHertz       Gauss      10(-4) cm-1
     1  C(13)              0.00000       0.00000       0.00000       0.00000
     2  C(13)              0.00000       0.00000       0.00000       0.00000
     3  C(13)             -0.00000      -0.00000      -0.00000      -0.00000
     4  C(13)             -0.00000      -0.00000      -0.00000      -0.00000
     5  C(13)             -0.00000      -0.00000      -0.00000      -0.00000
     6  O(17)             -0.00000       0.00000       0.00000       0.00000
     7  O(17)             -0.00000       0.00000       0.00000       0.00000
     8  H(1)              -0.00000      -0.00000      -0.00000      -0.00000
     9  C(13)              0.00000       0.00000       0.00000       0.00000
    10  C(13)             -0.00000      -0.00000      -0.00000      -0.00000
    11  C(13)              0.00000       0.00000       0.00000       0.00000
    12  C(13)             -0.00000      -0.00000      -0.00000      -0.00000
    13  C(13)              0.00000       0.00000       0.00000       0.00000
    14  C(13)             -0.00000      -0.00000      -0.00000      -0.00000
    15  C(13)             -0.00000      -0.00000      -0.00000      -0.00000
    16  C(13)             -0.00000      -0.00000      -0.00000      -0.00000
    17  O(17)              0.00000      -0.00000      -0.00000      -0.00000
    18  H(1)              -0.00000      -0.00000      -0.00000      -0.00000
    19  H(1)              -0.00000      -0.00000      -0.00000      -0.00000
    20  H(1)              -0.00000      -0.00000      -0.00000      -0.00000
    21  H(1)              -0.00000      -0.00000      -0.00000      -0.00000
    22  H(1)              -0.00000      -0.00000      -0.00000      -0.00000
    23  C(13)              0.00000       0.00000       0.00000       0.00000
    24  H(1)               0.00000       0.00000       0.00000       0.00000
    25  H(1)               0.00000       0.00000       0.00000       0.00000
    26  H(1)               0.00000       0.00000       0.00000       0.00000
    27  H(1)              -0.00000      -0.00000      -0.00000      -0.00000
 --------------------------------------------------------
       Center         ----  Spin Dipole Couplings  ----
                      3XX-RR        3YY-RR        3ZZ-RR
 --------------------------------------------------------
     1   Atom       -0.000000     -0.000000      0.000000
     2   Atom        0.000000     -0.000000     -0.000000
     3   Atom       -0.000000     -0.000000      0.000000
     4   Atom        0.000000     -0.000000      0.000000
     5   Atom       -0.000000     -0.000000      0.000000
     6   Atom        0.000000     -0.000000      0.000000
     7   Atom       -0.000000      0.000000      0.000000
     8   Atom       -0.000000      0.000000      0.000000
     9   Atom        0.000000     -0.000000      0.000000
    10   Atom       -0.000000     -0.000000      0.000000
    11   Atom       -0.000000     -0.000000      0.000000
    12   Atom       -0.000000     -0.000000      0.000000
    13   Atom       -0.000000      0.000000     -0.000000
    14   Atom        0.000000     -0.000000      0.000000
    15   Atom       -0.000000      0.000000      0.000000
    16   Atom       -0.000000      0.000000      0.000000
    17   Atom        0.000000      0.000000     -0.000000
    18   Atom       -0.000000      0.000000     -0.000000
    19   Atom        0.000000     -0.000000     -0.000000
    20   Atom       -0.000000      0.000000      0.000000
    21   Atom        0.000000     -0.000000      0.000000
    22   Atom        0.000000     -0.000000      0.000000
    23   Atom       -0.000000      0.000000      0.000000
    24   Atom        0.000000     -0.000000     -0.000000
    25   Atom        0.000000     -0.000000     -0.000000
    26   Atom       -0.000000     -0.000000      0.000000
    27   Atom        0.000000      0.000000     -0.000000
 --------------------------------------------------------
                        XY            XZ            YZ
 --------------------------------------------------------
     1   Atom       -0.000000      0.000000      0.000000
     2   Atom        0.000000     -0.000000     -0.000000
     3   Atom       -0.000000     -0.000000     -0.000000
     4   Atom        0.000000     -0.000000      0.000000
     5   Atom        0.000000      0.000000     -0.000000
     6   Atom        0.000000     -0.000000      0.000000
     7   Atom        0.000000      0.000000     -0.000000
     8   Atom       -0.000000     -0.000000     -0.000000
     9   Atom       -0.000000      0.000000     -0.000000
    10   Atom       -0.000000      0.000000     -0.000000
    11   Atom       -0.000000      0.000000      0.000000
    12   Atom       -0.000000      0.000000     -0.000000
    13   Atom       -0.000000      0.000000     -0.000000
    14   Atom       -0.000000     -0.000000      0.000000
    15   Atom        0.000000     -0.000000      0.000000
    16   Atom       -0.000000      0.000000      0.000000
    17   Atom       -0.000000      0.000000      0.000000
    18   Atom        0.000000     -0.000000      0.000000
    19   Atom        0.000000     -0.000000     -0.000000
    20   Atom       -0.000000     -0.000000     -0.000000
    21   Atom        0.000000      0.000000      0.000000
    22   Atom       -0.000000      0.000000     -0.000000
    23   Atom        0.000000      0.000000     -0.000000
    24   Atom       -0.000000     -0.000000     -0.000000
    25   Atom       -0.000000     -0.000000      0.000000
    26   Atom        0.000000     -0.000000      0.000000
    27   Atom        0.000000     -0.000000      0.000000
 --------------------------------------------------------


 ---------------------------------------------------------------------------------
              Anisotropic Spin Dipole Couplings in Principal Axis System
 ---------------------------------------------------------------------------------

       Atom             a.u.   MegaHertz   Gauss  10(-4) cm-1        Axes

              Baa    -0.0000    -0.000    -0.000    -0.000  0.4703  0.8469 -0.2481
     1 C(13)  Bbb    -0.0000    -0.000    -0.000    -0.000  0.8795 -0.4266  0.2110
              Bcc     0.0000     0.000     0.000     0.000 -0.0729  0.3174  0.9455
 
              Baa    -0.0000    -0.000    -0.000    -0.000 -0.0705  0.9608  0.2682
     2 C(13)  Bbb    -0.0000    -0.000    -0.000    -0.000  0.3589 -0.2265  0.9055
              Bcc     0.0000     0.000     0.000     0.000  0.9307  0.1601 -0.3288
 
              Baa    -0.0000    -0.000    -0.000    -0.000  0.6251  0.7486  0.2208
     3 C(13)  Bbb     0.0000     0.000     0.000     0.000  0.7778 -0.5739 -0.2561
              Bcc     0.0000     0.000     0.000     0.000  0.0650 -0.3319  0.9411
 
              Baa    -0.0000    -0.000    -0.000    -0.000 -0.1095  0.9007 -0.4203
     4 C(13)  Bbb     0.0000     0.000     0.000     0.000  0.8183  0.3217  0.4763
              Bcc     0.0000     0.000     0.000     0.000 -0.5642  0.2918  0.7723
 
              Baa    -0.0000    -0.000    -0.000    -0.000  0.9584 -0.2777 -0.0667
     5 C(13)  Bbb    -0.0000    -0.000    -0.000    -0.000  0.2853  0.9407  0.1837
              Bcc     0.0000     0.000     0.000     0.000  0.0117 -0.1951  0.9807
 
              Baa    -0.0000     0.000     0.000     0.000 -0.3401  0.8288 -0.4443
     6 O(17)  Bbb     0.0000    -0.000    -0.000    -0.000  0.4010  0.5552  0.7287
              Bcc     0.0000    -0.000    -0.000    -0.000  0.8506  0.0696 -0.5212
 
              Baa    -0.0000     0.000     0.000     0.000  0.8066 -0.5273 -0.2671
     7 O(17)  Bbb     0.0000    -0.000    -0.000    -0.000 -0.0237 -0.4804  0.8767
              Bcc     0.0000    -0.000    -0.000    -0.000  0.5906  0.7008  0.4000
 
              Baa    -0.0000    -0.000    -0.000    -0.000  0.6250  0.5553  0.5487
     8 H(1)   Bbb    -0.0000    -0.000    -0.000    -0.000  0.7692 -0.3179 -0.5544
              Bcc     0.0000     0.000     0.000     0.000 -0.1334  0.7685 -0.6258
 
              Baa    -0.0000    -0.000    -0.000    -0.000  0.1558  0.9877  0.0147
     9 C(13)  Bbb     0.0000     0.000     0.000     0.000 -0.6391  0.0895  0.7639
              Bcc     0.0000     0.000     0.000     0.000  0.7532 -0.1284  0.6451
 
              Baa    -0.0000    -0.000    -0.000    -0.000 -0.2737  0.7776  0.5661
    10 C(13)  Bbb    -0.0000    -0.000    -0.000    -0.000  0.9591  0.2644  0.1006
              Bcc     0.0000     0.000     0.000     0.000  0.0714 -0.5705  0.8182
 
              Baa    -0.0000    -0.000    -0.000    -0.000  0.6732  0.5424 -0.5026
    11 C(13)  Bbb    -0.0000    -0.000    -0.000    -0.000 -0.5213  0.8301  0.1977
              Bcc     0.0000     0.000     0.000     0.000  0.5245  0.1289  0.8416
 
              Baa    -0.0000    -0.000    -0.000    -0.000 -0.3219  0.7633  0.5602
    12 C(13)  Bbb    -0.0000    -0.000    -0.000    -0.000  0.7976  0.5374 -0.2739
              Bcc     0.0000     0.000     0.000     0.000  0.5101 -0.3587  0.7818
 
              Baa    -0.0000    -0.000    -0.000    -0.000  0.5617  0.6060  0.5632
    13 C(13)  Bbb    -0.0000    -0.000    -0.000    -0.000  0.7592 -0.1072 -0.6419
              Bcc     0.0000     0.000     0.000     0.000 -0.3286  0.7882 -0.5204
 
              Baa    -0.0000    -0.000    -0.000    -0.000  0.2887  0.9532  0.0900
    14 C(13)  Bbb    -0.0000    -0.000    -0.000    -0.000  0.6621 -0.2666  0.7004
              Bcc     0.0000     0.000     0.000     0.000 -0.6916  0.1426  0.7081
 
              Baa    -0.0000    -0.000    -0.000    -0.000  0.9835 -0.1504  0.1007
    15 C(13)  Bbb    -0.0000    -0.000    -0.000    -0.000 -0.1675 -0.5452  0.8214
              Bcc     0.0000     0.000     0.000     0.000  0.0686  0.8247  0.5614
 
              Baa    -0.0000    -0.000    -0.000    -0.000  0.8736  0.1669 -0.4571
    16 C(13)  Bbb     0.0000     0.000     0.000     0.000 -0.3823  0.8166 -0.4325
              Bcc     0.0000     0.000     0.000     0.000  0.3011  0.5526  0.7772
 
              Baa    -0.0000     0.000     0.000     0.000 -0.3631 -0.2514  0.8972
    17 O(17)  Bbb     0.0000    -0.000    -0.000    -0.000 -0.1301  0.9672  0.2183
              Bcc     0.0000    -0.000    -0.000    -0.000  0.9226  0.0374  0.3839
 
              Baa    -0.0000    -0.000    -0.000    -0.000  0.5206 -0.3113  0.7950
    18 H(1)   Bbb    -0.0000    -0.000    -0.000    -0.000  0.8396  0.3557 -0.4105
              Bcc     0.0000     0.000     0.000     0.000 -0.1550  0.8812  0.4465
 
              Baa    -0.0000    -0.000    -0.000    -0.000 -0.2173  0.9418  0.2567
    19 H(1)   Bbb    -0.0000    -0.000    -0.000    -0.000  0.3437 -0.1723  0.9231
              Bcc     0.0000     0.000     0.000     0.000  0.9136  0.2888 -0.2862
 
              Baa    -0.0000    -0.000    -0.000    -0.000  0.8121  0.4752  0.3386
    20 H(1)   Bbb     0.0000     0.000     0.000     0.000 -0.2345 -0.2656  0.9351
              Bcc     0.0000     0.000     0.000     0.000 -0.5343  0.8388  0.1042
 
              Baa    -0.0000    -0.000    -0.000    -0.000 -0.1849  0.9779 -0.0974
    21 H(1)   Bbb     0.0000     0.000     0.000     0.000 -0.1487  0.0701  0.9864
              Bcc     0.0000     0.000     0.000     0.000  0.9714  0.1969  0.1325
 
              Baa    -0.0000    -0.000    -0.000    -0.000 -0.0374  0.8648  0.5007
    22 H(1)   Bbb    -0.0000    -0.000    -0.000    -0.000  0.7170  0.3722 -0.5893
              Bcc     0.0000     0.000     0.000     0.000  0.6960 -0.3370  0.6340
 
              Baa    -0.0000    -0.000    -0.000    -0.000  0.6417 -0.4662 -0.6090
    23 C(13)  Bbb    -0.0000    -0.000    -0.000    -0.000  0.7027  0.6756  0.2232
              Bcc     0.0000     0.000     0.000     0.000  0.3074 -0.5712  0.7611
 
              Baa    -0.0000    -0.000    -0.000    -0.000  0.0114  0.2581  0.9660
    24 H(1)   Bbb    -0.0000    -0.000    -0.000    -0.000  0.0013  0.9661 -0.2581
              Bcc     0.0000     0.000     0.000     0.000  0.9999 -0.0042 -0.0107
 
              Baa    -0.0000    -0.000    -0.000    -0.000 -0.1078  0.7138 -0.6920
    25 H(1)   Bbb    -0.0000    -0.000    -0.000    -0.000  0.2657  0.6915  0.6718
              Bcc     0.0000     0.000     0.000     0.000  0.9580 -0.1114 -0.2642
 
              Baa    -0.0000    -0.000    -0.000    -0.000  0.6795 -0.6013  0.4204
    26 H(1)   Bbb     0.0000     0.000     0.000     0.000  0.7017  0.7000 -0.1330
              Bcc     0.0000     0.000     0.000     0.000 -0.2143  0.3854  0.8975
 
              Baa    -0.0000    -0.000    -0.000    -0.000  0.2985 -0.3679  0.8806
    27 H(1)   Bbb    -0.0000    -0.000    -0.000    -0.000  0.6385 -0.6088 -0.4708
              Bcc     0.0000     0.000     0.000     0.000  0.7094  0.7028  0.0531
 

 ---------------------------------------------------------------------------------

 No NMR shielding tensors so no spin-rotation constants.
 Leave Link  601 at Wed Jan 24 22:50:27 2024, MaxMem=  4026531840 cpu:               3.4 elap:               0.6
 (Enter /sysapps/ubuntu-applications/gaussian/Gaussian/AVX2/g16/l9999.exe)
 1\1\GINC-ACIDSCN021\SP\UB3LYP\6-311++G(d,p)\C14H10O3\SELHAJJ1\24-Jan-2
 024\0\\#P UB3LYP/6-311++G(d,p) SCRF=(PCM,Solvent=n,n-DiMethylFormamide
 )\\Quinone PCM in DMF\\0,1\C,0,1.349153,1.489529,-2.47025\C,0,-0.08833
 6,1.742785,-2.701963\C,0,-1.063383,0.976563,-2.181258\C,0,-0.682953,-0
 .192205,-1.323868\C,0,0.756982,-0.442444,-1.073457\O,0,2.204809,2.2186
 62,-2.944412\O,0,-1.532943,-0.923456,-0.843363\H,0,-0.306847,2.606088,
 -3.322412\C,0,1.719144,0.317548,-1.616836\C,0,3.184338,0.080876,-1.301
 794\C,0,4.084036,-0.425366,-2.372511\C,0,5.461568,-0.484656,-2.116489\
 C,0,3.593634,-0.864353,-3.608277\C,0,6.331177,-0.969452,-3.08422\C,0,5
 .8344,-1.407851,-4.313962\C,0,4.466052,-1.35767,-4.574099\O,0,3.569208
 ,0.294652,-0.168676\H,0,5.826143,-0.143225,-1.15552\H,0,2.530794,-0.83
 0927,-3.816882\H,0,7.395951,-1.007459,-2.884891\H,0,6.514566,-1.787329
 ,-5.0683\H,0,4.080357,-1.699952,-5.527332\C,0,-2.525183,1.216388,-2.39
 7785\H,0,0.980817,-1.284311,-0.426753\H,0,-2.68992,2.083668,-3.037868\
 H,0,-3.033079,1.374574,-1.44235\H,0,-2.994835,0.339595,-2.851984\\Vers
 ion=ES64L-G16RevA.03\State=1-A\HF=-765.3730161\S2=0.\S2-1=0.\S2A=0.\RM
 SD=9.490e-09\Dipole=-0.3868572,-0.510403,-1.7019447\Quadrupole=8.33039
 82,-4.4501674,-3.8802308,-12.8577596,-0.0893507,4.4108018\PG=C01 [X(C1
 4H10O3)]\\@


 IT CANNOT BE MY BEAUTY, FOR I HAVE NONE; AND IT CANNOT BE MY WIT,
 FOR HE HAS NOT ENOUGH TO KNOW THAT I HAVE ANY.
 -- CATHARINE SEDLEY, PUZZLED ABOUT WHY SHE WAS MISTRESS TO JAMES II
 Job cpu time:       0 days  0 hours 22 minutes 20.0 seconds.
 Elapsed time:       0 days  0 hours  2 minutes 50.5 seconds.
 File lengths (MBytes):  RWF=    279 Int=      0 D2E=      0 Chk=     16 Scr=      1
 Normal termination of Gaussian 16 at Wed Jan 24 22:50:27 2024.
