 Entering Gaussian System, Link 0=g16
 Input=317-an.com
 Output=317-an.log
 Initial command:
 /sysapps/ubuntu-applications/gaussian/Gaussian/AVX2/g16/l1.exe "/scratch/selhajj1/4255357/Gau-2688358.inp" -scrdir="/scratch/selhajj1/4255357/"
 Entering Link 1 = /sysapps/ubuntu-applications/gaussian/Gaussian/AVX2/g16/l1.exe PID=   2688377.
  
 Copyright (c) 1988,1990,1992,1993,1995,1998,2003,2009,2016,
            Gaussian, Inc.  All Rights Reserved.
  
 This is part of the Gaussian(R) 16 program.  It is based on
 the Gaussian(R) 09 system (copyright 2009, Gaussian, Inc.),
 the Gaussian(R) 03 system (copyright 2003, Gaussian, Inc.),
 the Gaussian(R) 98 system (copyright 1998, Gaussian, Inc.),
 the Gaussian(R) 94 system (copyright 1995, Gaussian, Inc.),
 the Gaussian 92(TM) system (copyright 1992, Gaussian, Inc.),
 the Gaussian 90(TM) system (copyright 1990, Gaussian, Inc.),
 the Gaussian 88(TM) system (copyright 1988, Gaussian, Inc.),
 the Gaussian 86(TM) system (copyright 1986, Carnegie Mellon
 University), and the Gaussian 82(TM) system (copyright 1983,
 Carnegie Mellon University). Gaussian is a federally registered
 trademark of Gaussian, Inc.
  
 This software contains proprietary and confidential information,
 including trade secrets, belonging to Gaussian, Inc.
  
 This software is provided under written license and may be
 used, copied, transmitted, or stored only in accord with that
 written license.
  
 The following legend is applicable only to US Government
 contracts under FAR:
  
                    RESTRICTED RIGHTS LEGEND
  
 Use, reproduction and disclosure by the US Government is
 subject to restrictions as set forth in subparagraphs (a)
 and (c) of the Commercial Computer Software - Restricted
 Rights clause in FAR 52.227-19.
  
 Gaussian, Inc.
 340 Quinnipiac St., Bldg. 40, Wallingford CT 06492
  
  
 ---------------------------------------------------------------
 Warning -- This program may not be used in any manner that
 competes with the business of Gaussian, Inc. or will provide
 assistance to any competitor of Gaussian, Inc.  The licensee
 of this program is prohibited from giving any competitor of
 Gaussian, Inc. access to this program.  By using this program,
 the user acknowledges that Gaussian, Inc. is engaged in the
 business of creating and licensing software in the field of
 computational chemistry and represents and warrants to the
 licensee that it is not a competitor of Gaussian, Inc. and that
 it will not use this program in any manner prohibited above.
 ---------------------------------------------------------------
  

 Cite this work as:
 Gaussian 16, Revision A.03,
 M. J. Frisch, G. W. Trucks, H. B. Schlegel, G. E. Scuseria, 
 M. A. Robb, J. R. Cheeseman, G. Scalmani, V. Barone, 
 G. A. Petersson, H. Nakatsuji, X. Li, M. Caricato, A. V. Marenich, 
 J. Bloino, B. G. Janesko, R. Gomperts, B. Mennucci, H. P. Hratchian, 
 J. V. Ortiz, A. F. Izmaylov, J. L. Sonnenberg, D. Williams-Young, 
 F. Ding, F. Lipparini, F. Egidi, J. Goings, B. Peng, A. Petrone, 
 T. Henderson, D. Ranasinghe, V. G. Zakrzewski, J. Gao, N. Rega, 
 G. Zheng, W. Liang, M. Hada, M. Ehara, K. Toyota, R. Fukuda, 
 J. Hasegawa, M. Ishida, T. Nakajima, Y. Honda, O. Kitao, H. Nakai, 
 T. Vreven, K. Throssell, J. A. Montgomery, Jr., J. E. Peralta, 
 F. Ogliaro, M. J. Bearpark, J. J. Heyd, E. N. Brothers, K. N. Kudin, 
 V. N. Staroverov, T. A. Keith, R. Kobayashi, J. Normand, 
 K. Raghavachari, A. P. Rendell, J. C. Burant, S. S. Iyengar, 
 J. Tomasi, M. Cossi, J. M. Millam, M. Klene, C. Adamo, R. Cammi, 
 J. W. Ochterski, R. L. Martin, K. Morokuma, O. Farkas, 
 J. B. Foresman, and D. J. Fox, Gaussian, Inc., Wallingford CT, 2016.
 
 ******************************************
 Gaussian 16:  ES64L-G16RevA.03 25-Dec-2016
                 6-Jan-2024 
 ******************************************
 %chk=317-an.chk
 %nproc=8
 Will use up to    8 processors via shared memory.
 %mem=30GB
 --------------------------------------
 #P UB3LYP/6-311++G(d,p) nosym opt freq
 --------------------------------------
 1/18=20,19=15,26=3,38=1/1,3;
 2/9=110,12=2,15=1,17=6,18=5,40=1/2;
 3/5=4,6=6,7=1111,11=2,25=1,30=1,71=1,74=-5,116=2/1,2,3;
 4//1;
 5/5=2,38=5/2;
 6/7=2,8=2,9=2,10=2,28=1/1;
 7/30=1/1,2,3,16;
 1/18=20,19=15,26=3/3(2);
 2/9=110,15=1/2;
 99//99;
 2/9=110,15=1/2;
 3/5=4,6=6,7=1111,11=2,25=1,30=1,71=1,74=-5,116=2/1,2,3;
 4/5=5,16=3,69=1/1;
 5/5=2,38=5/2;
 7/30=1/1,2,3,16;
 1/18=20,19=15,26=3/3(-5);
 2/9=110,15=1/2;
 6/7=2,8=2,9=2,10=2,19=2,28=1/1;
 99/9=1/99;
 Leave Link    1 at Sat Jan  6 01:35:25 2024, MaxMem=  4026531840 cpu:               0.9 elap:               0.3
 (Enter /sysapps/ubuntu-applications/gaussian/Gaussian/AVX2/g16/l101.exe)
 -------
 Reduced
 -------
 Symbolic Z-matrix:
 Charge = -2 Multiplicity = 1
 Cl                    3.04579   0.35297  -0.01672 
 C                     1.29946   0.06877  -0.01074 
 C                     0.84244  -1.17831  -0.06082 
 Cl                    1.97987  -2.52105  -0.13199 
 C                    -0.59982  -1.37892  -0.05438 
 O                    -1.04419  -2.55629  -0.10152 
 C                    -1.47581  -0.21386   0.00621 
 O                    -2.70903  -0.33808   0.0138 
 C                    -0.90889   1.1279    0.0593 
 C                     0.41204   1.22435   0.04955 
 Cl                    1.09296   2.84504   0.11375 
 Cl                   -1.93483   2.56747   0.13357 
 
 ITRead=  0  0  0  0  0  0  0  0  0  0  0  0
 MicOpt= -1 -1 -1 -1 -1 -1 -1 -1 -1 -1 -1 -1
 NAtoms=     12 NQM=       12 NQMF=       0 NMMI=      0 NMMIF=      0
                NMic=       0 NMicF=      0.
                    Isotopes and Nuclear Properties:
 (Nuclear quadrupole moments (NQMom) in fm**2, nuclear magnetic moments (NMagM)
  in nuclear magnetons)

  Atom         1           2           3           4           5           6           7           8           9          10
 IAtWgt=          35          12          12          35          12          16          12          16          12          12
 AtmWgt=  34.9688527  12.0000000  12.0000000  34.9688527  12.0000000  15.9949146  12.0000000  15.9949146  12.0000000  12.0000000
 NucSpn=           3           0           0           3           0           0           0           0           0           0
 AtZEff=  -0.0000000  -0.0000000  -0.0000000  -0.0000000  -0.0000000  -0.0000000  -0.0000000  -0.0000000  -0.0000000  -0.0000000
 NQMom=   -8.1650000   0.0000000   0.0000000  -8.1650000   0.0000000   0.0000000   0.0000000   0.0000000   0.0000000   0.0000000
 NMagM=    0.8218740   0.0000000   0.0000000   0.8218740   0.0000000   0.0000000   0.0000000   0.0000000   0.0000000   0.0000000
 AtZNuc=  17.0000000   6.0000000   6.0000000  17.0000000   6.0000000   8.0000000   6.0000000   8.0000000   6.0000000   6.0000000

  Atom        11          12
 IAtWgt=          35          35
 AtmWgt=  34.9688527  34.9688527
 NucSpn=           3           3
 AtZEff=  -0.0000000  -0.0000000
 NQMom=   -8.1650000  -8.1650000
 NMagM=    0.8218740   0.8218740
 AtZNuc=  17.0000000  17.0000000
 Leave Link  101 at Sat Jan  6 01:35:26 2024, MaxMem=  4026531840 cpu:               3.6 elap:               1.0
 (Enter /sysapps/ubuntu-applications/gaussian/Gaussian/AVX2/g16/l103.exe)

 GradGradGradGradGradGradGradGradGradGradGradGradGradGradGradGradGradGrad
 Berny optimization.
 Initialization pass.
                           ----------------------------
                           !    Initial Parameters    !
                           ! (Angstroms and Degrees)  !
 --------------------------                            --------------------------
 ! Name  Definition              Value          Derivative Info.                !
 --------------------------------------------------------------------------------
 ! R1    R(1,2)                  1.7693         estimate D2E/DX2                !
 ! R2    R(2,3)                  1.3291         estimate D2E/DX2                !
 ! R3    R(2,10)                 1.4583         estimate D2E/DX2                !
 ! R4    R(3,4)                  1.7612         estimate D2E/DX2                !
 ! R5    R(3,5)                  1.4562         estimate D2E/DX2                !
 ! R6    R(5,6)                  1.2593         estimate D2E/DX2                !
 ! R7    R(5,7)                  1.4589         estimate D2E/DX2                !
 ! R8    R(7,8)                  1.2395         estimate D2E/DX2                !
 ! R9    R(7,9)                  1.4576         estimate D2E/DX2                !
 ! R10   R(9,10)                 1.3245         estimate D2E/DX2                !
 ! R11   R(9,12)                 1.7693         estimate D2E/DX2                !
 ! R12   R(10,11)                1.7591         estimate D2E/DX2                !
 ! A1    A(1,2,3)              119.3384         estimate D2E/DX2                !
 ! A2    A(1,2,10)             118.2612         estimate D2E/DX2                !
 ! A3    A(3,2,10)             122.4005         estimate D2E/DX2                !
 ! A4    A(2,3,4)              119.6567         estimate D2E/DX2                !
 ! A5    A(2,3,5)              118.0124         estimate D2E/DX2                !
 ! A6    A(4,3,5)              122.331          estimate D2E/DX2                !
 ! A7    A(3,5,6)              118.5638         estimate D2E/DX2                !
 ! A8    A(3,5,7)              119.0044         estimate D2E/DX2                !
 ! A9    A(6,5,7)              122.4318         estimate D2E/DX2                !
 ! A10   A(5,7,8)              121.1735         estimate D2E/DX2                !
 ! A11   A(5,7,9)              120.2055         estimate D2E/DX2                !
 ! A12   A(8,7,9)              118.621          estimate D2E/DX2                !
 ! A13   A(7,9,10)             117.0436         estimate D2E/DX2                !
 ! A14   A(7,9,12)             121.667          estimate D2E/DX2                !
 ! A15   A(10,9,12)            121.2894         estimate D2E/DX2                !
 ! A16   A(2,10,9)             123.3337         estimate D2E/DX2                !
 ! A17   A(2,10,11)            119.7385         estimate D2E/DX2                !
 ! A18   A(9,10,11)            116.9277         estimate D2E/DX2                !
 ! D1    D(1,2,3,4)              0.0005         estimate D2E/DX2                !
 ! D2    D(1,2,3,5)            179.9997         estimate D2E/DX2                !
 ! D3    D(10,2,3,4)          -179.9994         estimate D2E/DX2                !
 ! D4    D(10,2,3,5)            -0.0001         estimate D2E/DX2                !
 ! D5    D(1,2,10,9)          -179.9997         estimate D2E/DX2                !
 ! D6    D(1,2,10,11)           -0.0012         estimate D2E/DX2                !
 ! D7    D(3,2,10,9)             0.0001         estimate D2E/DX2                !
 ! D8    D(3,2,10,11)          179.9987         estimate D2E/DX2                !
 ! D9    D(2,3,5,6)           -179.9999         estimate D2E/DX2                !
 ! D10   D(2,3,5,7)              0.0001         estimate D2E/DX2                !
 ! D11   D(4,3,5,6)             -0.0007         estimate D2E/DX2                !
 ! D12   D(4,3,5,7)            179.9993         estimate D2E/DX2                !
 ! D13   D(3,5,7,8)            179.9999         estimate D2E/DX2                !
 ! D14   D(3,5,7,9)              0.0            estimate D2E/DX2                !
 ! D15   D(6,5,7,8)             -0.0001         estimate D2E/DX2                !
 ! D16   D(6,5,7,9)            179.9999         estimate D2E/DX2                !
 ! D17   D(5,7,9,10)             0.0            estimate D2E/DX2                !
 ! D18   D(5,7,9,12)           180.0            estimate D2E/DX2                !
 ! D19   D(8,7,9,10)          -179.9999         estimate D2E/DX2                !
 ! D20   D(8,7,9,12)             0.0001         estimate D2E/DX2                !
 ! D21   D(7,9,10,2)            -0.0001         estimate D2E/DX2                !
 ! D22   D(7,9,10,11)         -179.9987         estimate D2E/DX2                !
 ! D23   D(12,9,10,2)          180.0            estimate D2E/DX2                !
 ! D24   D(12,9,10,11)           0.0013         estimate D2E/DX2                !
 --------------------------------------------------------------------------------
 Trust Radius=3.00D-01 FncErr=1.00D-07 GrdErr=1.00D-06 EigMax=2.50D+02 EigMin=1.00D-04
 Number of steps in this run=     64 maximum allowed number of steps=    100.
 GradGradGradGradGradGradGradGradGradGradGradGradGradGradGradGradGradGrad

 Leave Link  103 at Sat Jan  6 01:35:27 2024, MaxMem=  4026531840 cpu:               0.2 elap:               0.1
 (Enter /sysapps/ubuntu-applications/gaussian/Gaussian/AVX2/g16/l202.exe)
                          Input orientation:                          
 ---------------------------------------------------------------------
 Center     Atomic      Atomic             Coordinates (Angstroms)
 Number     Number       Type             X           Y           Z
 ---------------------------------------------------------------------
      1         17           0        3.045785    0.352975   -0.016720
      2          6           0        1.299458    0.068771   -0.010742
      3          6           0        0.842444   -1.178307   -0.060825
      4         17           0        1.979875   -2.521053   -0.131993
      5          6           0       -0.599816   -1.378921   -0.054381
      6          8           0       -1.044188   -2.556289   -0.101525
      7          6           0       -1.475810   -0.213856    0.006211
      8          8           0       -2.709030   -0.338076    0.013804
      9          6           0       -0.908890    1.127902    0.059299
     10          6           0        0.412043    1.224349    0.049552
     11         17           0        1.092958    2.845036    0.113752
     12         17           0       -1.934828    2.567470    0.133568
 ---------------------------------------------------------------------
                    Distance matrix (angstroms):
                    1          2          3          4          5
     1  Cl   0.000000
     2  C    1.769312   0.000000
     3  C    2.683558   1.329125   0.000000
     4  Cl   3.067489   2.680458   1.761188   0.000000
     5  C    4.036247   2.388505   1.456159   2.822286   0.000000
     6  O    5.019849   3.520207   2.336637   3.024422   1.259319
     7  C    4.557044   2.789674   2.511765   4.157406   1.458909
     8  O    5.796239   4.029157   3.650277   5.174213   2.353039
     9  C    4.030601   2.450197   2.898309   4.657943   2.528361
    10  C    2.774938   1.458253   2.443396   4.064369   2.794937
    11  Cl   3.168742   2.786717   4.034913   5.444440   4.553632
    12  Cl   5.452805   4.089613   4.667105   6.425612   4.170322
                    6          7          8          9         10
     6  O    0.000000
     7  C    2.384303   0.000000
     8  O    2.775873   1.239483   0.000000
     9  C    3.690180   1.457577   2.321996   0.000000
    10  C    4.054214   2.373668   3.490494   1.324485   0.000000
    11  Cl   5.812749   3.995867   4.959567   2.637974   1.759089
    12  Cl   5.205902   2.821824   3.009307   1.769300   2.705335
                   11         12
    11  Cl   0.000000
    12  Cl   3.040546   0.000000
 Symmetry turned off by external request.
 Stoichiometry    C6Cl4O2(2-)
 Framework group  C1[X(C6Cl4O2)]
 Deg. of freedom    30
 Full point group                 C1      NOp   1
 Rotational constants (GHZ):           0.7390895           0.4882874           0.2940320
 Leave Link  202 at Sat Jan  6 01:35:27 2024, MaxMem=  4026531840 cpu:               0.5 elap:               0.2
 (Enter /sysapps/ubuntu-applications/gaussian/Gaussian/AVX2/g16/l301.exe)
 Standard basis: 6-311++G(d,p) (5D, 7F)
 Ernie: Thresh=  0.10000D-02 Tol=  0.10000D-05 Strict=F.
   296 basis functions,   500 primitive gaussians,   308 cartesian basis functions
    61 alpha electrons       61 beta electrons
       nuclear repulsion energy      1075.3554521238 Hartrees.
 IExCor=  402 DFT=T Ex+Corr=B3LYP ExCW=0 ScaHFX=  0.200000
 ScaDFX=  0.800000  0.720000  1.000000  0.810000 ScalE2=  1.000000  1.000000
 IRadAn=      5 IRanWt=     -1 IRanGd=            0 ICorTp=0 IEmpDi=  4
 NAtoms=   12 NActive=   12 NUniq=   12 SFac= 1.00D+00 NAtFMM=   60 NAOKFM=F Big=F
 Integral buffers will be    131072 words long.
 Raffenetti 2 integral format.
 Two-electron integral symmetry is turned off.
 Leave Link  301 at Sat Jan  6 01:35:27 2024, MaxMem=  4026531840 cpu:               0.6 elap:               0.2
 (Enter /sysapps/ubuntu-applications/gaussian/Gaussian/AVX2/g16/l302.exe)
 NPDir=0 NMtPBC=     1 NCelOv=     1 NCel=       1 NClECP=     1 NCelD=      1
         NCelK=      1 NCelE2=     1 NClLst=     1 CellRange=     0.0.
 One-electron integrals computed using PRISM.
 NBasis=   296 RedAO= T EigKep=  2.36D-06  NBF=   296
 NBsUse=   294 1.00D-06 EigRej=  7.86D-07 NBFU=   294
 Precomputing XC quadrature grid using
 IXCGrd= 4 IRadAn=           5 IRanWt=          -1 IRanGd=           0 AccXCQ= 0.00D+00.
 Generated NRdTot=       0 NPtTot=           0 NUsed=           0 NTot=          32
 NSgBfM=   304   304   304   304   304 MxSgAt=    12 MxSgA2=    12.
 Leave Link  302 at Sat Jan  6 01:35:28 2024, MaxMem=  4026531840 cpu:               3.1 elap:               0.6
 (Enter /sysapps/ubuntu-applications/gaussian/Gaussian/AVX2/g16/l303.exe)
 DipDrv:  MaxL=1.
 Leave Link  303 at Sat Jan  6 01:35:28 2024, MaxMem=  4026531840 cpu:               1.5 elap:               0.3
 (Enter /sysapps/ubuntu-applications/gaussian/Gaussian/AVX2/g16/l401.exe)
 ExpMin= 4.38D-02 ExpMax= 1.06D+05 ExpMxC= 3.62D+03 IAcc=3 IRadAn=         5 AccDes= 0.00D+00
 Harris functional with IExCor=  402 and IRadAn=       5 diagonalized for initial guess.
 HarFok:  IExCor=  402 AccDes= 0.00D+00 IRadAn=         5 IDoV= 1 UseB2=F ITyADJ=14
 ICtDFT=  3500011 ScaDFX=  1.000000  1.000000  1.000000  1.000000
 FoFCou: FMM=F IPFlag=           0 FMFlag=      100000 FMFlg1=           0
         NFxFlg=           0 DoJE=T BraDBF=F KetDBF=T FulRan=T
         wScrn=  0.000000 ICntrl=       500 IOpCl=  0 I1Cent=   200000004 NGrid=           0
         NMat0=    1 NMatS0=      1 NMatT0=    0 NMatD0=    1 NMtDS0=    0 NMtDT0=    0
 Symmetry not used in FoFCou.
 Harris En= -2220.20147218346    
 JPrj=0 DoOrth=F DoCkMO=F.
 Initial guess <Sx>= 0.0000 <Sy>= 0.0000 <Sz>= 0.0000 <S**2>=-0.0000 S=-0.0000
 Leave Link  401 at Sat Jan  6 01:35:29 2024, MaxMem=  4026531840 cpu:               7.1 elap:               1.1
 (Enter /sysapps/ubuntu-applications/gaussian/Gaussian/AVX2/g16/l502.exe)
 Keep R1 and R2 ints in memory in canonical form, NReq=1946926283.
 FoFCou: FMM=F IPFlag=           0 FMFlag=           0 FMFlg1=           0
         NFxFlg=           0 DoJE=F BraDBF=F KetDBF=F FulRan=T
         wScrn=  0.000000 ICntrl=       600 IOpCl=  0 I1Cent=           0 NGrid=           0
         NMat0=    1 NMatS0=  43956 NMatT0=    0 NMatD0=    1 NMtDS0=    0 NMtDT0=    0
 Symmetry not used in FoFCou.
 Two-electron integral symmetry not used.
 UHF open shell SCF:
 Using DIIS extrapolation, IDIIS=  1040.
 NGot=  4026531840 LenX=  2094163696 LenY=  2094068391
 Requested convergence on RMS density matrix=1.00D-08 within 128 cycles.
 Requested convergence on MAX density matrix=1.00D-06.
 Requested convergence on             energy=1.00D-06.
 No special actions if energy rises.

 Cycle   1  Pass 1  IDiag  1:
 E= -2219.47658606453    
 DIIS: error= 5.12D-02 at cycle   1 NSaved=   1.
 NSaved= 1 IEnMin= 1 EnMin= -2219.47658606453     IErMin= 1 ErrMin= 5.12D-02
 ErrMax= 5.12D-02  0.00D+00 EMaxC= 1.00D-01 BMatC= 2.67D+00 BMatP= 2.67D+00
 IDIUse=3 WtCom= 4.88D-01 WtEn= 5.12D-01
 Coeff-Com:  0.100D+01
 Coeff-En:   0.100D+01
 Coeff:      0.100D+01
 Gap=     0.098 Goal=   None    Shift=    0.000
 Gap=     0.098 Goal=   None    Shift=    0.000
 GapD=    0.098 DampG=0.500 DampE=0.500 DampFc=0.2500 IDamp=-1.
 Damping current iteration by 2.50D-01
 RMSDP=7.79D+00 MaxDP=5.94D+02              OVMax= 9.98D-01

 Cycle   2  Pass 1  IDiag  1:
 E= -2218.64319995016     Delta-E=        0.833386114379 Rises=F Damp=T
 DIIS: error= 3.89D-02 at cycle   2 NSaved=   2.
 NSaved= 2 IEnMin= 1 EnMin= -2219.47658606453     IErMin= 2 ErrMin= 3.89D-02
 ErrMax= 3.89D-02  0.00D+00 EMaxC= 1.00D-01 BMatC= 8.23D-01 BMatP= 2.67D+00
 IDIUse=3 WtCom= 6.11D-01 WtEn= 3.89D-01
 Coeff-Com:  0.255D+00 0.745D+00
 Coeff-En:   0.755D+00 0.245D+00
 Coeff:      0.449D+00 0.551D+00
 Gap=     0.261 Goal=   None    Shift=    0.000
 Gap=     0.261 Goal=   None    Shift=    0.000
 RMSDP=1.92D+00 MaxDP=1.45D+02 DE= 8.33D-01 OVMax= 8.84D-01

 Cycle   3  Pass 1  IDiag  1:
 E= -2219.75737013966     Delta-E=       -1.114170189502 Rises=F Damp=F
 DIIS: error= 5.46D-02 at cycle   3 NSaved=   3.
 NSaved= 3 IEnMin= 3 EnMin= -2219.75737013966     IErMin= 2 ErrMin= 3.89D-02
 ErrMax= 5.46D-02  0.00D+00 EMaxC= 1.00D-01 BMatC= 8.22D-01 BMatP= 8.23D-01
 IDIUse=3 WtCom= 4.54D-01 WtEn= 5.46D-01
 EnCoef did     2 forward-backward iterations
 Coeff-Com:  0.186D-01 0.494D+00 0.488D+00
 Coeff-En:   0.308D-01 0.660D-01 0.903D+00
 Coeff:      0.253D-01 0.260D+00 0.715D+00
 Gap=     0.101 Goal=   None    Shift=    0.000
 Gap=     0.101 Goal=   None    Shift=    0.000
 RMSDP=8.96D-02 MaxDP=6.79D+00 DE=-1.11D+00 OVMax= 5.33D-01

 Cycle   4  Pass 1  IDiag  1:
 E= -2219.68433550924     Delta-E=        0.073034630415 Rises=F Damp=F
 DIIS: error= 6.11D-02 at cycle   4 NSaved=   4.
 NSaved= 4 IEnMin= 3 EnMin= -2219.75737013966     IErMin= 2 ErrMin= 3.89D-02
 ErrMax= 6.11D-02  0.00D+00 EMaxC= 1.00D-01 BMatC= 1.40D+00 BMatP= 8.22D-01
 IDIUse=2 WtCom= 0.00D+00 WtEn= 1.00D+00
 Coeff-En:   0.000D+00 0.000D+00 0.545D+00 0.455D+00
 Coeff:      0.000D+00 0.000D+00 0.545D+00 0.455D+00
 Gap=     0.030 Goal=   None    Shift=    0.000
 Gap=     0.030 Goal=   None    Shift=    0.000
 RMSDP=8.70D-01 MaxDP=7.83D+01 DE= 7.30D-02 OVMax= 9.98D-01

 Cycle   5  Pass 1  IDiag  1:
 E= -2219.50922630399     Delta-E=        0.175109205257 Rises=F Damp=F
 DIIS: error= 2.80D-02 at cycle   5 NSaved=   5.
 NSaved= 5 IEnMin= 3 EnMin= -2219.75737013966     IErMin= 5 ErrMin= 2.80D-02
 ErrMax= 2.80D-02  0.00D+00 EMaxC= 1.00D-01 BMatC= 9.38D-01 BMatP= 8.22D-01
 IDIUse=2 WtCom= 0.00D+00 WtEn= 1.00D+00
 EnCoef did     2 forward-backward iterations
 Coeff-En:   0.000D+00 0.000D+00 0.490D+00 0.379D+00 0.131D+00
 Coeff:      0.000D+00 0.000D+00 0.490D+00 0.379D+00 0.131D+00
 Gap=    -0.045 Goal=   None    Shift=    0.000
 Gap=    -0.045 Goal=   None    Shift=    0.000
 RMSDP=8.49D-01 MaxDP=7.53D+01 DE= 1.75D-01 OVMax= 9.99D-01

 Cycle   6  Pass 1  IDiag  1:
 E= -2220.02845778017     Delta-E=       -0.519231476184 Rises=F Damp=F
 DIIS: error= 2.54D-03 at cycle   6 NSaved=   6.
 NSaved= 6 IEnMin= 6 EnMin= -2220.02845778017     IErMin= 6 ErrMin= 2.54D-03
 ErrMax= 2.54D-03  0.00D+00 EMaxC= 1.00D-01 BMatC= 9.48D-03 BMatP= 8.22D-01
 IDIUse=3 WtCom= 9.75D-01 WtEn= 2.54D-02
 Coeff-Com: -0.450D-01 0.487D-01 0.116D+00 0.647D-01-0.170D-01 0.832D+00
 Coeff-En:   0.000D+00 0.000D+00 0.000D+00 0.000D+00 0.000D+00 0.100D+01
 Coeff:     -0.438D-01 0.475D-01 0.113D+00 0.631D-01-0.165D-01 0.837D+00
 Gap=     0.058 Goal=   None    Shift=    0.000
 Gap=     0.058 Goal=   None    Shift=    0.000
 RMSDP=1.76D-02 MaxDP=1.55D+00 DE=-5.19D-01 OVMax= 1.42D-02

 Cycle   7  Pass 1  IDiag  1:
 E= -2220.02888607308     Delta-E=       -0.000428292909 Rises=F Damp=F
 DIIS: error= 3.79D-03 at cycle   7 NSaved=   7.
 NSaved= 7 IEnMin= 7 EnMin= -2220.02888607308     IErMin= 6 ErrMin= 2.54D-03
 ErrMax= 3.79D-03  0.00D+00 EMaxC= 1.00D-01 BMatC= 4.91D-03 BMatP= 9.48D-03
 IDIUse=3 WtCom= 9.75D-01 WtEn= 2.54D-02
 Coeff-Com: -0.294D-01 0.287D-01 0.169D-01 0.188D-01-0.196D-02 0.320D+00
 Coeff-Com:  0.647D+00
 Coeff-En:   0.000D+00 0.000D+00 0.000D+00 0.000D+00 0.000D+00 0.340D+00
 Coeff-En:   0.660D+00
 Coeff:     -0.287D-01 0.280D-01 0.165D-01 0.183D-01-0.191D-02 0.321D+00
 Coeff:      0.647D+00
 Gap=     0.057 Goal=   None    Shift=    0.000
 Gap=     0.057 Goal=   None    Shift=    0.000
 RMSDP=6.35D-03 MaxDP=5.45D-01 DE=-4.28D-04 OVMax= 1.59D-02

 Cycle   8  Pass 1  IDiag  1:
 E= -2220.02955693851     Delta-E=       -0.000670865431 Rises=F Damp=F
 DIIS: error= 2.90D-03 at cycle   8 NSaved=   8.
 NSaved= 8 IEnMin= 8 EnMin= -2220.02955693851     IErMin= 6 ErrMin= 2.54D-03
 ErrMax= 2.90D-03  0.00D+00 EMaxC= 1.00D-01 BMatC= 2.69D-03 BMatP= 4.91D-03
 IDIUse=3 WtCom= 9.75D-01 WtEn= 2.54D-02
 Coeff-Com: -0.198D-01 0.193D-01-0.485D-02 0.992D-02 0.553D-02 0.130D+00
 Coeff-Com:  0.450D+00 0.410D+00
 Coeff-En:   0.000D+00 0.000D+00 0.000D+00 0.000D+00 0.000D+00 0.000D+00
 Coeff-En:   0.000D+00 0.100D+01
 Coeff:     -0.193D-01 0.188D-01-0.473D-02 0.967D-02 0.539D-02 0.126D+00
 Coeff:      0.439D+00 0.425D+00
 Gap=     0.056 Goal=   None    Shift=    0.000
 Gap=     0.056 Goal=   None    Shift=    0.000
 RMSDP=2.91D-03 MaxDP=2.86D-01 DE=-6.71D-04 OVMax= 1.21D-02

 Cycle   9  Pass 1  IDiag  1:
 E= -2220.03003948712     Delta-E=       -0.000482548608 Rises=F Damp=F
 DIIS: error= 2.05D-03 at cycle   9 NSaved=   9.
 NSaved= 9 IEnMin= 9 EnMin= -2220.03003948712     IErMin= 9 ErrMin= 2.05D-03
 ErrMax= 2.05D-03  0.00D+00 EMaxC= 1.00D-01 BMatC= 1.13D-03 BMatP= 2.69D-03
 IDIUse=3 WtCom= 9.80D-01 WtEn= 2.05D-02
 Coeff-Com: -0.864D-02 0.852D-02-0.104D-01 0.506D-02 0.860D-02-0.287D-01
 Coeff-Com: -0.350D-01 0.220D+00 0.841D+00
 Coeff-En:   0.000D+00 0.000D+00 0.000D+00 0.000D+00 0.000D+00 0.000D+00
 Coeff-En:   0.000D+00 0.000D+00 0.100D+01
 Coeff:     -0.846D-02 0.835D-02-0.102D-01 0.495D-02 0.842D-02-0.281D-01
 Coeff:     -0.343D-01 0.215D+00 0.844D+00
 Gap=     0.054 Goal=   None    Shift=    0.000
 Gap=     0.054 Goal=   None    Shift=    0.000
 RMSDP=2.97D-03 MaxDP=2.70D-01 DE=-4.83D-04 OVMax= 8.35D-03

 Cycle  10  Pass 1  IDiag  1:
 E= -2220.03032081911     Delta-E=       -0.000281331992 Rises=F Damp=F
 DIIS: error= 9.51D-04 at cycle  10 NSaved=  10.
 NSaved=10 IEnMin=10 EnMin= -2220.03032081911     IErMin=10 ErrMin= 9.51D-04
 ErrMax= 9.51D-04  0.00D+00 EMaxC= 1.00D-01 BMatC= 3.17D-04 BMatP= 1.13D-03
 IDIUse=3 WtCom= 9.90D-01 WtEn= 9.51D-03
 Coeff-Com: -0.134D-02 0.153D-02-0.496D-02 0.223D-03 0.441D-02-0.714D-01
 Coeff-Com: -0.213D+00-0.859D-01 0.405D+00 0.966D+00
 Coeff-En:   0.000D+00 0.000D+00 0.000D+00 0.000D+00 0.000D+00 0.000D+00
 Coeff-En:   0.000D+00 0.000D+00 0.000D+00 0.100D+01
 Coeff:     -0.133D-02 0.151D-02-0.492D-02 0.221D-03 0.436D-02-0.707D-01
 Coeff:     -0.211D+00-0.851D-01 0.401D+00 0.966D+00
 Gap=     0.053 Goal=   None    Shift=    0.000
 Gap=     0.053 Goal=   None    Shift=    0.000
 RMSDP=2.94D-03 MaxDP=2.47D-01 DE=-2.81D-04 OVMax= 4.47D-03

 Cycle  11  Pass 1  IDiag  1:
 E= -2220.03040829611     Delta-E=       -0.000087476996 Rises=F Damp=F
 DIIS: error= 3.58D-04 at cycle  11 NSaved=  11.
 NSaved=11 IEnMin=11 EnMin= -2220.03040829611     IErMin=11 ErrMin= 3.58D-04
 ErrMax= 3.58D-04  0.00D+00 EMaxC= 1.00D-01 BMatC= 4.64D-05 BMatP= 3.17D-04
 IDIUse=3 WtCom= 9.96D-01 WtEn= 3.58D-03
 Coeff-Com:  0.274D-03-0.791D-04 0.147D-03-0.391D-03 0.125D-02-0.282D-01
 Coeff-Com: -0.107D+00-0.121D+00-0.379D-01 0.681D+00 0.612D+00
 Coeff-En:   0.000D+00 0.000D+00 0.000D+00 0.000D+00 0.000D+00 0.000D+00
 Coeff-En:   0.000D+00 0.000D+00 0.000D+00 0.000D+00 0.100D+01
 Coeff:      0.273D-03-0.788D-04 0.147D-03-0.390D-03 0.125D-02-0.281D-01
 Coeff:     -0.106D+00-0.121D+00-0.377D-01 0.678D+00 0.613D+00
 Gap=     0.052 Goal=   None    Shift=    0.000
 Gap=     0.052 Goal=   None    Shift=    0.000
 RMSDP=1.07D-03 MaxDP=8.71D-02 DE=-8.75D-05 OVMax= 2.58D-03

 Cycle  12  Pass 1  IDiag  1:
 E= -2220.03042304506     Delta-E=       -0.000014748955 Rises=F Damp=F
 DIIS: error= 2.81D-05 at cycle  12 NSaved=  12.
 NSaved=12 IEnMin=12 EnMin= -2220.03042304506     IErMin=12 ErrMin= 2.81D-05
 ErrMax= 2.81D-05  0.00D+00 EMaxC= 1.00D-01 BMatC= 7.33D-07 BMatP= 4.64D-05
 IDIUse=1 WtCom= 1.00D+00 WtEn= 0.00D+00
 Coeff-Com:  0.570D-04-0.293D-04 0.244D-03-0.608D-04 0.297D-03-0.485D-02
 Coeff-Com: -0.157D-01-0.284D-01-0.371D-01 0.140D+00 0.182D+00 0.763D+00
 Coeff:      0.570D-04-0.293D-04 0.244D-03-0.608D-04 0.297D-03-0.485D-02
 Coeff:     -0.157D-01-0.284D-01-0.371D-01 0.140D+00 0.182D+00 0.763D+00
 Gap=     0.052 Goal=   None    Shift=    0.000
 Gap=     0.052 Goal=   None    Shift=    0.000
 RMSDP=1.22D-04 MaxDP=1.15D-02 DE=-1.47D-05 OVMax= 2.12D-04

 Cycle  13  Pass 1  IDiag  1:
 E= -2220.03042306951     Delta-E=       -0.000000024450 Rises=F Damp=F
 DIIS: error= 3.50D-05 at cycle  13 NSaved=  13.
 NSaved=13 IEnMin=13 EnMin= -2220.03042306951     IErMin=12 ErrMin= 2.81D-05
 ErrMax= 3.50D-05  0.00D+00 EMaxC= 1.00D-01 BMatC= 6.93D-07 BMatP= 7.33D-07
 IDIUse=1 WtCom= 1.00D+00 WtEn= 0.00D+00
 Coeff-Com:  0.135D-04-0.158D-04 0.130D-03 0.493D-05 0.900D-04-0.761D-03
 Coeff-Com:  0.261D-03-0.627D-02-0.205D-01 0.227D-01 0.528D-01 0.541D+00
 Coeff-Com:  0.410D+00
 Coeff:      0.135D-04-0.158D-04 0.130D-03 0.493D-05 0.900D-04-0.761D-03
 Coeff:      0.261D-03-0.627D-02-0.205D-01 0.227D-01 0.528D-01 0.541D+00
 Coeff:      0.410D+00
 Gap=     0.052 Goal=   None    Shift=    0.000
 Gap=     0.052 Goal=   None    Shift=    0.000
 RMSDP=4.27D-05 MaxDP=4.03D-03 DE=-2.44D-08 OVMax= 1.27D-04

 Cycle  14  Pass 1  IDiag  1:
 E= -2220.03042322109     Delta-E=       -0.000000151578 Rises=F Damp=F
 DIIS: error= 5.78D-06 at cycle  14 NSaved=  14.
 NSaved=14 IEnMin=14 EnMin= -2220.03042322109     IErMin=14 ErrMin= 5.78D-06
 ErrMax= 5.78D-06  0.00D+00 EMaxC= 1.00D-01 BMatC= 1.61D-08 BMatP= 6.93D-07
 IDIUse=1 WtCom= 1.00D+00 WtEn= 0.00D+00
 Coeff-Com: -0.462D-06 0.257D-05 0.343D-04 0.245D-04 0.304D-04-0.157D-03
 Coeff-Com:  0.592D-03-0.813D-03-0.428D-02 0.651D-03 0.308D-02 0.139D+00
 Coeff-Com:  0.157D+00 0.705D+00
 Coeff:     -0.462D-06 0.257D-05 0.343D-04 0.245D-04 0.304D-04-0.157D-03
 Coeff:      0.592D-03-0.813D-03-0.428D-02 0.651D-03 0.308D-02 0.139D+00
 Coeff:      0.157D+00 0.705D+00
 Gap=     0.052 Goal=   None    Shift=    0.000
 Gap=     0.052 Goal=   None    Shift=    0.000
 RMSDP=8.67D-06 MaxDP=7.96D-04 DE=-1.52D-07 OVMax= 2.04D-05

 Cycle  15  Pass 1  IDiag  1:
 E= -2220.03042322510     Delta-E=       -0.000000004006 Rises=F Damp=F
 DIIS: error= 1.79D-06 at cycle  15 NSaved=  15.
 NSaved=15 IEnMin=15 EnMin= -2220.03042322510     IErMin=15 ErrMin= 1.79D-06
 ErrMax= 1.79D-06  0.00D+00 EMaxC= 1.00D-01 BMatC= 3.10D-09 BMatP= 1.61D-08
 IDIUse=1 WtCom= 1.00D+00 WtEn= 0.00D+00
 Coeff-Com: -0.224D-05 0.473D-05 0.664D-05 0.113D-04 0.566D-05-0.444D-04
 Coeff-Com:  0.219D-03 0.131D-04-0.754D-03-0.135D-02-0.395D-02 0.195D-01
 Coeff-Com:  0.413D-01 0.340D+00 0.605D+00
 Coeff:     -0.224D-05 0.473D-05 0.664D-05 0.113D-04 0.566D-05-0.444D-04
 Coeff:      0.219D-03 0.131D-04-0.754D-03-0.135D-02-0.395D-02 0.195D-01
 Coeff:      0.413D-01 0.340D+00 0.605D+00
 Gap=     0.052 Goal=   None    Shift=    0.000
 Gap=     0.052 Goal=   None    Shift=    0.000
 RMSDP=7.96D-06 MaxDP=6.56D-04 DE=-4.01D-09 OVMax= 6.61D-06

 Cycle  16  Pass 1  IDiag  1:
 E= -2220.03042322576     Delta-E=       -0.000000000667 Rises=F Damp=F
 DIIS: error= 1.21D-06 at cycle  16 NSaved=  16.
 NSaved=16 IEnMin=16 EnMin= -2220.03042322576     IErMin=16 ErrMin= 1.21D-06
 ErrMax= 1.21D-06  0.00D+00 EMaxC= 1.00D-01 BMatC= 4.71D-10 BMatP= 3.10D-09
 IDIUse=1 WtCom= 1.00D+00 WtEn= 0.00D+00
 Coeff-Com: -0.201D-05 0.177D-05-0.194D-05 0.583D-05 0.138D-05 0.276D-04
 Coeff-Com:  0.690D-04 0.525D-04-0.193D-04-0.628D-03-0.230D-02-0.910D-02
 Coeff-Com: -0.797D-03 0.555D-01 0.193D+00 0.764D+00
 Coeff:     -0.201D-05 0.177D-05-0.194D-05 0.583D-05 0.138D-05 0.276D-04
 Coeff:      0.690D-04 0.525D-04-0.193D-04-0.628D-03-0.230D-02-0.910D-02
 Coeff:     -0.797D-03 0.555D-01 0.193D+00 0.764D+00
 Gap=     0.052 Goal=   None    Shift=    0.000
 Gap=     0.052 Goal=   None    Shift=    0.000
 RMSDP=2.91D-06 MaxDP=2.56D-04 DE=-6.67D-10 OVMax= 3.57D-06

 Cycle  17  Pass 1  IDiag  1:
 E= -2220.03042322593     Delta-E=       -0.000000000164 Rises=F Damp=F
 DIIS: error= 4.09D-07 at cycle  17 NSaved=  17.
 NSaved=17 IEnMin=17 EnMin= -2220.03042322593     IErMin=17 ErrMin= 4.09D-07
 ErrMax= 4.09D-07  0.00D+00 EMaxC= 1.00D-01 BMatC= 9.67D-11 BMatP= 4.71D-10
 IDIUse=1 WtCom= 1.00D+00 WtEn= 0.00D+00
 Coeff-Com: -0.801D-06 0.373D-06-0.253D-05 0.248D-05 0.609D-07 0.101D-04
 Coeff-Com: -0.109D-04-0.920D-05 0.212D-04-0.111D-03-0.857D-03-0.727D-02
 Coeff-Com: -0.473D-02-0.750D-02 0.302D-01 0.468D+00 0.522D+00
 Coeff:     -0.801D-06 0.373D-06-0.253D-05 0.248D-05 0.609D-07 0.101D-04
 Coeff:     -0.109D-04-0.920D-05 0.212D-04-0.111D-03-0.857D-03-0.727D-02
 Coeff:     -0.473D-02-0.750D-02 0.302D-01 0.468D+00 0.522D+00
 Gap=     0.052 Goal=   None    Shift=    0.000
 Gap=     0.052 Goal=   None    Shift=    0.000
 RMSDP=1.32D-06 MaxDP=9.88D-05 DE=-1.64D-10 OVMax= 1.52D-06

 Cycle  18  Pass 1  IDiag  1:
 E= -2220.03042322593     Delta-E=       -0.000000000001 Rises=F Damp=F
 DIIS: error= 1.56D-07 at cycle  18 NSaved=  18.
 NSaved=18 IEnMin=18 EnMin= -2220.03042322593     IErMin=18 ErrMin= 1.56D-07
 ErrMax= 1.56D-07  0.00D+00 EMaxC= 1.00D-01 BMatC= 6.52D-12 BMatP= 9.67D-11
 IDIUse=1 WtCom= 1.00D+00 WtEn= 0.00D+00
 Coeff-Com: -0.188D-06 0.659D-07-0.817D-06 0.887D-06 0.443D-07 0.151D-05
 Coeff-Com: -0.518D-05-0.120D-04-0.203D-04 0.372D-04-0.543D-04-0.101D-02
 Coeff-Com: -0.963D-03-0.822D-02-0.176D-01 0.767D-01 0.143D+00 0.808D+00
 Coeff:     -0.188D-06 0.659D-07-0.817D-06 0.887D-06 0.443D-07 0.151D-05
 Coeff:     -0.518D-05-0.120D-04-0.203D-04 0.372D-04-0.543D-04-0.101D-02
 Coeff:     -0.963D-03-0.822D-02-0.176D-01 0.767D-01 0.143D+00 0.808D+00
 Gap=     0.052 Goal=   None    Shift=    0.000
 Gap=     0.052 Goal=   None    Shift=    0.000
 RMSDP=3.36D-07 MaxDP=2.60D-05 DE=-9.09D-13 OVMax= 5.13D-07

 Cycle  19  Pass 1  IDiag  1:
 E= -2220.03042322592     Delta-E=        0.000000000006 Rises=F Damp=F
 DIIS: error= 2.65D-08 at cycle  19 NSaved=  19.
 NSaved=19 IEnMin=18 EnMin= -2220.03042322593     IErMin=19 ErrMin= 2.65D-08
 ErrMax= 2.65D-08  0.00D+00 EMaxC= 1.00D-01 BMatC= 5.08D-13 BMatP= 6.52D-12
 IDIUse=1 WtCom= 1.00D+00 WtEn= 0.00D+00
 Coeff-Com: -0.142D-07-0.379D-08-0.232D-06 0.238D-06 0.587D-08-0.737D-06
 Coeff-Com: -0.256D-05-0.669D-05-0.113D-04 0.317D-04 0.447D-04 0.178D-03
 Coeff-Com: -0.325D-04-0.352D-02-0.113D-01-0.403D-02 0.702D-02 0.369D+00
 Coeff-Com:  0.643D+00
 Coeff:     -0.142D-07-0.379D-08-0.232D-06 0.238D-06 0.587D-08-0.737D-06
 Coeff:     -0.256D-05-0.669D-05-0.113D-04 0.317D-04 0.447D-04 0.178D-03
 Coeff:     -0.325D-04-0.352D-02-0.113D-01-0.403D-02 0.702D-02 0.369D+00
 Coeff:      0.643D+00
 Gap=     0.052 Goal=   None    Shift=    0.000
 Gap=     0.052 Goal=   None    Shift=    0.000
 RMSDP=7.83D-08 MaxDP=7.69D-06 DE= 5.91D-12 OVMax= 1.01D-07

 Cycle  20  Pass 1  IDiag  1:
 E= -2220.03042322592     Delta-E=       -0.000000000004 Rises=F Damp=F
 DIIS: error= 6.17D-09 at cycle  20 NSaved=  20.
 NSaved=20 IEnMin=18 EnMin= -2220.03042322593     IErMin=20 ErrMin= 6.17D-09
 ErrMax= 6.17D-09  0.00D+00 EMaxC= 1.00D-01 BMatC= 2.46D-14 BMatP= 5.08D-13
 IDIUse=1 WtCom= 1.00D+00 WtEn= 0.00D+00
 Coeff-Com:  0.368D-08-0.141D-08-0.505D-07 0.533D-07 0.497D-08-0.466D-06
 Coeff-Com: -0.853D-06-0.171D-05-0.169D-05 0.103D-04 0.145D-04 0.131D-03
 Coeff-Com:  0.661D-04-0.739D-03-0.283D-02-0.744D-02-0.126D-01 0.898D-01
 Coeff-Com:  0.281D+00 0.653D+00
 Coeff:      0.368D-08-0.141D-08-0.505D-07 0.533D-07 0.497D-08-0.466D-06
 Coeff:     -0.853D-06-0.171D-05-0.169D-05 0.103D-04 0.145D-04 0.131D-03
 Coeff:      0.661D-04-0.739D-03-0.283D-02-0.744D-02-0.126D-01 0.898D-01
 Coeff:      0.281D+00 0.653D+00
 Gap=     0.052 Goal=   None    Shift=    0.000
 Gap=     0.052 Goal=   None    Shift=    0.000
 RMSDP=2.63D-08 MaxDP=2.16D-06 DE=-4.09D-12 OVMax= 2.45D-08

 Cycle  21  Pass 1  IDiag  1:
 E= -2220.03042322593     Delta-E=       -0.000000000006 Rises=F Damp=F
 DIIS: error= 1.25D-09 at cycle  21 NSaved=  20.
 NSaved=20 IEnMin=20 EnMin= -2220.03042322593     IErMin=20 ErrMin= 1.25D-09
 ErrMax= 1.25D-09  0.00D+00 EMaxC= 1.00D-01 BMatC= 1.46D-15 BMatP= 2.46D-14
 IDIUse=1 WtCom= 1.00D+00 WtEn= 0.00D+00
 Large coefficients: NSaved= 20 BigCof=    0.00 CofMax=   10.00 Det=-4.45D-15
 Inversion failed.  Reducing to 19 matrices.
 Coeff-Com:  0.382D-09 0.204D-08 0.890D-09-0.939D-07-0.201D-07-0.142D-06
 Coeff-Com:  0.210D-06 0.128D-05 0.738D-06 0.352D-04 0.297D-04 0.980D-05
 Coeff-Com: -0.106D-03-0.218D-02-0.575D-02 0.195D-02 0.381D-01 0.224D+00
 Coeff-Com:  0.744D+00
 Coeff:      0.382D-09 0.204D-08 0.890D-09-0.939D-07-0.201D-07-0.142D-06
 Coeff:      0.210D-06 0.128D-05 0.738D-06 0.352D-04 0.297D-04 0.980D-05
 Coeff:     -0.106D-03-0.218D-02-0.575D-02 0.195D-02 0.381D-01 0.224D+00
 Coeff:      0.744D+00
 Gap=     0.052 Goal=   None    Shift=    0.000
 Gap=     0.052 Goal=   None    Shift=    0.000
 RMSDP=2.21D-08 MaxDP=2.35D-06 DE=-6.37D-12 OVMax= 8.07D-09

 Cycle  22  Pass 1  IDiag  1:
 E= -2220.03042322591     Delta-E=        0.000000000016 Rises=F Damp=F
 DIIS: error= 2.64D-10 at cycle  22 NSaved=  20.
 NSaved=20 IEnMin=19 EnMin= -2220.03042322593     IErMin=20 ErrMin= 2.64D-10
 ErrMax= 2.64D-10  0.00D+00 EMaxC= 1.00D-01 BMatC= 8.32D-17 BMatP= 1.46D-15
 IDIUse=1 WtCom= 1.00D+00 WtEn= 0.00D+00
 Large coefficients: NSaved= 20 BigCof=    0.00 CofMax=   10.00 Det=-5.49D-16
 Inversion failed.  Reducing to 19 matrices.
 Large coefficients: NSaved= 19 BigCof=    0.00 CofMax=   10.00 Det=-5.46D-16
 Inversion failed.  Reducing to 18 matrices.
 Large coefficients: NSaved= 18 BigCof=    0.00 CofMax=   10.00 Det=-5.48D-16
 Inversion failed.  Reducing to 17 matrices.
 Large coefficients: NSaved= 17 BigCof=    0.00 CofMax=   10.00 Det=-5.49D-16
 Inversion failed.  Reducing to 16 matrices.
 Large coefficients: NSaved= 16 BigCof=    0.00 CofMax=   10.00 Det=-5.76D-16
 Inversion failed.  Reducing to 15 matrices.
 Coeff-Com: -0.312D-07 0.145D-06 0.160D-06-0.692D-06 0.943D-06 0.274D-05
 Coeff-Com:  0.506D-05 0.259D-04-0.127D-03-0.113D-02-0.162D-02-0.780D-03
 Coeff-Com:  0.448D-01 0.262D+00 0.697D+00
 Coeff:     -0.312D-07 0.145D-06 0.160D-06-0.692D-06 0.943D-06 0.274D-05
 Coeff:      0.506D-05 0.259D-04-0.127D-03-0.113D-02-0.162D-02-0.780D-03
 Coeff:      0.448D-01 0.262D+00 0.697D+00
 Gap=     0.052 Goal=   None    Shift=    0.000
 Gap=     0.052 Goal=   None    Shift=    0.000
 RMSDP=1.78D-08 MaxDP=1.56D-06 DE= 1.64D-11 OVMax= 2.64D-09

 Cycle  23  Pass 1  IDiag  1:
 E= -2220.03042322590     Delta-E=        0.000000000015 Rises=F Damp=F
 DIIS: error= 1.76D-10 at cycle  23 NSaved=  16.
 NSaved=16 IEnMin=14 EnMin= -2220.03042322593     IErMin=16 ErrMin= 1.76D-10
 ErrMax= 1.76D-10  0.00D+00 EMaxC= 1.00D-01 BMatC= 2.68D-17 BMatP= 8.32D-17
 IDIUse=1 WtCom= 1.00D+00 WtEn= 0.00D+00
 Large coefficients: NSaved= 16 BigCof=    0.00 CofMax=   10.00 Det=-1.23D-16
 Inversion failed.  Reducing to 15 matrices.
 Coeff-Com:  0.612D-07-0.405D-07-0.435D-06-0.120D-05 0.510D-06 0.107D-04
 Coeff-Com:  0.330D-04 0.116D-03-0.162D-03-0.125D-02-0.480D-02 0.176D-02
 Coeff-Com:  0.668D-01 0.384D+00 0.554D+00
 Coeff:      0.612D-07-0.405D-07-0.435D-06-0.120D-05 0.510D-06 0.107D-04
 Coeff:      0.330D-04 0.116D-03-0.162D-03-0.125D-02-0.480D-02 0.176D-02
 Coeff:      0.668D-01 0.384D+00 0.554D+00
 Gap=     0.052 Goal=   None    Shift=    0.000
 Gap=     0.052 Goal=   None    Shift=    0.000
 RMSDP=2.17D-08 MaxDP=1.90D-06 DE= 1.46D-11 OVMax= 1.06D-09

 Cycle  24  Pass 1  IDiag  1:
 E= -2220.03042322593     Delta-E=       -0.000000000029 Rises=F Damp=F
 DIIS: error= 1.30D-10 at cycle  24 NSaved=  16.
 NSaved=16 IEnMin=13 EnMin= -2220.03042322593     IErMin=16 ErrMin= 1.30D-10
 ErrMax= 1.30D-10  0.00D+00 EMaxC= 1.00D-01 BMatC= 4.17D-18 BMatP= 2.68D-17
 IDIUse=1 WtCom= 1.00D+00 WtEn= 0.00D+00
 Large coefficients: NSaved= 16 BigCof=    0.00 CofMax=   10.00 Det=-1.59D-17
 Inversion failed.  Reducing to 15 matrices.
 Coeff-Com: -0.184D-07-0.116D-06-0.520D-06 0.137D-06 0.547D-05 0.183D-04
 Coeff-Com:  0.996D-04 0.296D-04-0.681D-03-0.328D-02-0.485D-02 0.998D-02
 Coeff-Com:  0.142D+00 0.233D+00 0.623D+00
 Coeff:     -0.184D-07-0.116D-06-0.520D-06 0.137D-06 0.547D-05 0.183D-04
 Coeff:      0.996D-04 0.296D-04-0.681D-03-0.328D-02-0.485D-02 0.998D-02
 Coeff:      0.142D+00 0.233D+00 0.623D+00
 Gap=     0.052 Goal=   None    Shift=    0.000
 Gap=     0.052 Goal=   None    Shift=    0.000
 RMSDP=1.87D-08 MaxDP=1.57D-06 DE=-2.86D-11 OVMax= 6.33D-10

 Cycle  25  Pass 1  IDiag  1:
 E= -2220.03042322593     Delta-E=        0.000000000001 Rises=F Damp=F
 DIIS: error= 8.40D-11 at cycle  25 NSaved=  16.
 NSaved=16 IEnMin=12 EnMin= -2220.03042322593     IErMin=16 ErrMin= 8.40D-11
 ErrMax= 8.40D-11  0.00D+00 EMaxC= 1.00D-01 BMatC= 1.27D-18 BMatP= 4.17D-18
 IDIUse=1 WtCom= 1.00D+00 WtEn= 0.00D+00
 Large coefficients: NSaved= 16 BigCof=    0.00 CofMax=   10.00 Det=-4.10D-18
 Inversion failed.  Reducing to 15 matrices.
 Coeff-Com: -0.410D-07-0.217D-06 0.304D-07 0.192D-05 0.749D-05 0.420D-04
 Coeff-Com:  0.103D-04-0.300D-03-0.154D-02-0.277D-02 0.222D-02 0.715D-01
 Coeff-Com:  0.101D+00 0.234D+00 0.595D+00
 Coeff:     -0.410D-07-0.217D-06 0.304D-07 0.192D-05 0.749D-05 0.420D-04
 Coeff:      0.103D-04-0.300D-03-0.154D-02-0.277D-02 0.222D-02 0.715D-01
 Coeff:      0.101D+00 0.234D+00 0.595D+00
 Gap=     0.052 Goal=   None    Shift=    0.000
 Gap=     0.052 Goal=   None    Shift=    0.000
 RMSDP=1.14D-08 MaxDP=1.14D-06 DE= 9.09D-13 OVMax= 4.66D-10

 Cycle  26  Pass 1  IDiag  1:
 E= -2220.03042322592     Delta-E=        0.000000000010 Rises=F Damp=F
 DIIS: error= 1.18D-10 at cycle  26 NSaved=  16.
 NSaved=16 IEnMin=11 EnMin= -2220.03042322593     IErMin=15 ErrMin= 8.40D-11
 ErrMax= 1.18D-10  0.00D+00 EMaxC= 1.00D-01 BMatC= 2.74D-18 BMatP= 1.27D-18
 IDIUse=1 WtCom= 1.00D+00 WtEn= 0.00D+00
 Large coefficients: NSaved= 16 BigCof=    0.00 CofMax=   10.00 Det=-3.15D-18
 Inversion failed.  Reducing to 15 matrices.
 Coeff-Com: -0.490D-07 0.270D-07 0.588D-06 0.297D-05 0.305D-04 0.162D-04
 Coeff-Com: -0.202D-03-0.127D-02-0.289D-02-0.650D-03 0.603D-01 0.872D-01
 Coeff-Com:  0.196D+00 0.494D+00 0.168D+00
 Coeff:     -0.490D-07 0.270D-07 0.588D-06 0.297D-05 0.305D-04 0.162D-04
 Coeff:     -0.202D-03-0.127D-02-0.289D-02-0.650D-03 0.603D-01 0.872D-01
 Coeff:      0.196D+00 0.494D+00 0.168D+00
 Gap=     0.052 Goal=   None    Shift=    0.000
 Gap=     0.052 Goal=   None    Shift=    0.000
 RMSDP=4.81D-09 MaxDP=5.85D-07 DE= 1.05D-11 OVMax= 1.76D-10

 SCF Done:  E(UB3LYP) =  -2220.03042323     A.U. after   26 cycles
            NFock= 26  Conv=0.48D-08     -V/T= 2.0023
 <Sx>= 0.0000 <Sy>= 0.0000 <Sz>= 0.0000 <S**2>=-0.0000 S=-0.0000
 <L.S>=  0.00000000000    
 KE= 2.214954979900D+03 PE=-7.451572513354D+03 EE= 1.941231658104D+03
 Annihilation of the first spin contaminant:
 S**2 before annihilation    -0.0000,   after     0.0000
 Leave Link  502 at Sat Jan  6 01:38:19 2024, MaxMem=  4026531840 cpu:             672.6 elap:             169.7
 (Enter /sysapps/ubuntu-applications/gaussian/Gaussian/AVX2/g16/l601.exe)
 Copying SCF densities to generalized density rwf, IOpCl= 1 IROHF=0.

 **********************************************************************

            Population analysis using the SCF density.

 **********************************************************************

 Alpha  occ. eigenvalues -- -101.29964-101.29883-101.29367-101.29201 -18.75471
 Alpha  occ. eigenvalues --  -18.75411  -9.95288  -9.95245  -9.93205  -9.93167
 Alpha  occ. eigenvalues --   -9.92349  -9.92310  -9.21471  -9.21421  -9.20797
 Alpha  occ. eigenvalues --   -9.20650  -6.97874  -6.97819  -6.97220  -6.97067
 Alpha  occ. eigenvalues --   -6.96991  -6.96944  -6.96942  -6.96890  -6.96331
 Alpha  occ. eigenvalues --   -6.96254  -6.96185  -6.96108  -0.70694  -0.67329
 Alpha  occ. eigenvalues --   -0.64725  -0.61695  -0.58566  -0.57472  -0.52172
 Alpha  occ. eigenvalues --   -0.44081  -0.38647  -0.30763  -0.28595  -0.23029
 Alpha  occ. eigenvalues --   -0.21467  -0.18379  -0.16707  -0.15917  -0.13784
 Alpha  occ. eigenvalues --   -0.11564  -0.10375  -0.10023  -0.10005  -0.08069
 Alpha  occ. eigenvalues --   -0.07773  -0.06954  -0.06423  -0.05096  -0.03446
 Alpha  occ. eigenvalues --   -0.02110  -0.01584   0.05154   0.05775   0.07668
 Alpha  occ. eigenvalues --    0.14341
 Alpha virt. eigenvalues --    0.19550   0.21245   0.22520   0.23223   0.25157
 Alpha virt. eigenvalues --    0.26570   0.27499   0.27719   0.28274   0.28294
 Alpha virt. eigenvalues --    0.28526   0.28990   0.29091   0.29228   0.29566
 Alpha virt. eigenvalues --    0.31279   0.31505   0.31519   0.32346   0.32499
 Alpha virt. eigenvalues --    0.33550   0.34796   0.36280   0.36375   0.36708
 Alpha virt. eigenvalues --    0.36728   0.37134   0.39030   0.40091   0.40516
 Alpha virt. eigenvalues --    0.41111   0.41602   0.42273   0.43530   0.44417
 Alpha virt. eigenvalues --    0.45003   0.45454   0.45673   0.46213   0.47295
 Alpha virt. eigenvalues --    0.47644   0.48307   0.49522   0.50044   0.51395
 Alpha virt. eigenvalues --    0.51557   0.53655   0.54658   0.55844   0.57742
 Alpha virt. eigenvalues --    0.58485   0.59481   0.60176   0.61090   0.63969
 Alpha virt. eigenvalues --    0.65914   0.66223   0.66853   0.67463   0.68045
 Alpha virt. eigenvalues --    0.69273   0.69772   0.71347   0.71656   0.72156
 Alpha virt. eigenvalues --    0.72693   0.73186   0.73206   0.73655   0.75760
 Alpha virt. eigenvalues --    0.80206   0.80391   0.80547   0.85328   0.85802
 Alpha virt. eigenvalues --    0.86702   0.88383   0.89608   0.91370   0.91455
 Alpha virt. eigenvalues --    0.95704   0.96665   0.97872   1.01928   1.02449
 Alpha virt. eigenvalues --    1.04084   1.07188   1.07647   1.10517   1.10789
 Alpha virt. eigenvalues --    1.11443   1.12205   1.12337   1.12391   1.13553
 Alpha virt. eigenvalues --    1.14409   1.14492   1.15731   1.16526   1.17375
 Alpha virt. eigenvalues --    1.18938   1.19962   1.20691   1.20831   1.21714
 Alpha virt. eigenvalues --    1.22408   1.23237   1.25513   1.27801   1.29117
 Alpha virt. eigenvalues --    1.30728   1.32646   1.34979   1.35451   1.42147
 Alpha virt. eigenvalues --    1.42286   1.46151   1.46890   1.50586   1.51725
 Alpha virt. eigenvalues --    1.52100   1.52703   1.53730   1.54499   1.55470
 Alpha virt. eigenvalues --    1.57920   1.58233   1.59563   1.60498   1.61604
 Alpha virt. eigenvalues --    1.63240   1.66723   1.73491   1.75321   1.79586
 Alpha virt. eigenvalues --    1.90686   1.96195   2.01685   2.02417   2.04816
 Alpha virt. eigenvalues --    2.05861   2.07175   2.09726   2.13831   2.14161
 Alpha virt. eigenvalues --    2.15120   2.18291   2.18497   2.23097   2.40750
 Alpha virt. eigenvalues --    2.42857   2.47262   2.49212   2.50440   2.51368
 Alpha virt. eigenvalues --    2.53740   2.54658   2.57771   2.58848   2.59165
 Alpha virt. eigenvalues --    2.62157   2.66148   2.68778   2.69975   2.75370
 Alpha virt. eigenvalues --    2.76834   2.78427   2.83352   2.88528   2.89454
 Alpha virt. eigenvalues --    2.89462   2.99263   3.03338   3.13598   3.13865
 Alpha virt. eigenvalues --    3.17394   3.25363   3.26090   3.28750   3.34206
 Alpha virt. eigenvalues --    3.36028   3.42340   3.43113   3.45639   3.48479
 Alpha virt. eigenvalues --    3.50600   3.55381   3.62222   3.71122   3.73683
 Alpha virt. eigenvalues --    3.80051   3.82329   3.96395   4.00444   4.08094
 Alpha virt. eigenvalues --    4.26101   4.40519   4.53220   5.07302   5.37016
 Alpha virt. eigenvalues --    5.44809   5.48970   5.63854   5.97383   6.17307
 Alpha virt. eigenvalues --    9.96881  10.04127  10.07919  10.08426  23.65660
 Alpha virt. eigenvalues --   23.97222  24.16241  24.26092  24.45761  24.48229
 Alpha virt. eigenvalues --   26.03327  26.07634  26.10633  26.17490  26.31637
 Alpha virt. eigenvalues --   26.38533  26.43212  26.49631  26.68402  26.86121
 Alpha virt. eigenvalues --   26.95281  27.16367  50.30915  50.42153 215.95365
 Alpha virt. eigenvalues --  216.03634 216.08026 216.08632
  Beta  occ. eigenvalues -- -101.29964-101.29883-101.29367-101.29201 -18.75471
  Beta  occ. eigenvalues --  -18.75411  -9.95288  -9.95245  -9.93205  -9.93167
  Beta  occ. eigenvalues --   -9.92349  -9.92310  -9.21471  -9.21421  -9.20797
  Beta  occ. eigenvalues --   -9.20650  -6.97874  -6.97819  -6.97220  -6.97067
  Beta  occ. eigenvalues --   -6.96991  -6.96944  -6.96942  -6.96890  -6.96331
  Beta  occ. eigenvalues --   -6.96254  -6.96185  -6.96108  -0.70694  -0.67329
  Beta  occ. eigenvalues --   -0.64725  -0.61695  -0.58566  -0.57472  -0.52172
  Beta  occ. eigenvalues --   -0.44081  -0.38647  -0.30763  -0.28595  -0.23029
  Beta  occ. eigenvalues --   -0.21467  -0.18379  -0.16707  -0.15917  -0.13784
  Beta  occ. eigenvalues --   -0.11564  -0.10375  -0.10023  -0.10005  -0.08069
  Beta  occ. eigenvalues --   -0.07773  -0.06954  -0.06423  -0.05096  -0.03446
  Beta  occ. eigenvalues --   -0.02110  -0.01584   0.05154   0.05775   0.07668
  Beta  occ. eigenvalues --    0.14341
  Beta virt. eigenvalues --    0.19550   0.21245   0.22520   0.23223   0.25157
  Beta virt. eigenvalues --    0.26570   0.27499   0.27719   0.28274   0.28294
  Beta virt. eigenvalues --    0.28526   0.28990   0.29091   0.29228   0.29566
  Beta virt. eigenvalues --    0.31279   0.31505   0.31519   0.32346   0.32499
  Beta virt. eigenvalues --    0.33550   0.34796   0.36280   0.36375   0.36708
  Beta virt. eigenvalues --    0.36728   0.37134   0.39030   0.40091   0.40516
  Beta virt. eigenvalues --    0.41111   0.41602   0.42273   0.43530   0.44417
  Beta virt. eigenvalues --    0.45003   0.45454   0.45673   0.46213   0.47295
  Beta virt. eigenvalues --    0.47644   0.48307   0.49522   0.50044   0.51395
  Beta virt. eigenvalues --    0.51557   0.53655   0.54658   0.55844   0.57742
  Beta virt. eigenvalues --    0.58485   0.59481   0.60176   0.61090   0.63969
  Beta virt. eigenvalues --    0.65914   0.66223   0.66853   0.67463   0.68045
  Beta virt. eigenvalues --    0.69273   0.69772   0.71347   0.71656   0.72156
  Beta virt. eigenvalues --    0.72693   0.73186   0.73206   0.73655   0.75760
  Beta virt. eigenvalues --    0.80206   0.80391   0.80547   0.85328   0.85802
  Beta virt. eigenvalues --    0.86702   0.88383   0.89608   0.91370   0.91455
  Beta virt. eigenvalues --    0.95704   0.96665   0.97872   1.01928   1.02449
  Beta virt. eigenvalues --    1.04084   1.07188   1.07647   1.10517   1.10789
  Beta virt. eigenvalues --    1.11443   1.12205   1.12337   1.12391   1.13553
  Beta virt. eigenvalues --    1.14409   1.14492   1.15731   1.16526   1.17375
  Beta virt. eigenvalues --    1.18938   1.19962   1.20691   1.20831   1.21714
  Beta virt. eigenvalues --    1.22408   1.23237   1.25513   1.27801   1.29117
  Beta virt. eigenvalues --    1.30728   1.32646   1.34979   1.35451   1.42147
  Beta virt. eigenvalues --    1.42286   1.46151   1.46890   1.50586   1.51725
  Beta virt. eigenvalues --    1.52100   1.52703   1.53730   1.54499   1.55470
  Beta virt. eigenvalues --    1.57920   1.58233   1.59563   1.60498   1.61604
  Beta virt. eigenvalues --    1.63240   1.66723   1.73491   1.75321   1.79586
  Beta virt. eigenvalues --    1.90686   1.96195   2.01685   2.02417   2.04816
  Beta virt. eigenvalues --    2.05861   2.07175   2.09726   2.13831   2.14161
  Beta virt. eigenvalues --    2.15120   2.18291   2.18497   2.23097   2.40750
  Beta virt. eigenvalues --    2.42857   2.47262   2.49212   2.50440   2.51368
  Beta virt. eigenvalues --    2.53740   2.54658   2.57771   2.58848   2.59165
  Beta virt. eigenvalues --    2.62157   2.66148   2.68778   2.69975   2.75370
  Beta virt. eigenvalues --    2.76834   2.78427   2.83352   2.88528   2.89454
  Beta virt. eigenvalues --    2.89462   2.99263   3.03338   3.13598   3.13865
  Beta virt. eigenvalues --    3.17394   3.25363   3.26090   3.28750   3.34206
  Beta virt. eigenvalues --    3.36028   3.42340   3.43113   3.45639   3.48479
  Beta virt. eigenvalues --    3.50600   3.55381   3.62222   3.71122   3.73683
  Beta virt. eigenvalues --    3.80051   3.82329   3.96395   4.00444   4.08094
  Beta virt. eigenvalues --    4.26101   4.40519   4.53220   5.07302   5.37016
  Beta virt. eigenvalues --    5.44809   5.48970   5.63854   5.97383   6.17307
  Beta virt. eigenvalues --    9.96881  10.04127  10.07919  10.08426  23.65660
  Beta virt. eigenvalues --   23.97222  24.16241  24.26092  24.45761  24.48229
  Beta virt. eigenvalues --   26.03327  26.07634  26.10633  26.17490  26.31637
  Beta virt. eigenvalues --   26.38533  26.43212  26.49631  26.68402  26.86121
  Beta virt. eigenvalues --   26.95281  27.16367  50.30915  50.42153 215.95365
  Beta virt. eigenvalues --  216.03634 216.08026 216.08632
          Condensed to atoms (all electrons):
               1          2          3          4          5          6
     1  Cl  18.259634  -3.530863   2.072396  -0.730115   0.382113  -0.018086
     2  C   -3.530863  37.900873 -17.630734   3.845551  -9.287810   0.197998
     3  C    2.072396 -17.630734  42.312136  -4.231039  -4.589308  -0.491711
     4  Cl  -0.730115   3.845551  -4.231039  18.301088  -0.215687   0.142371
     5  C    0.382113  -9.287810  -4.589308  -0.215687  30.601053   0.714117
     6  O   -0.018086   0.197998  -0.491711   0.142371   0.714117   8.330506
     7  C   -0.152460   0.903108  -7.445125   0.264631  -3.969608  -0.258437
     8  O    0.001338  -0.113512  -0.066501  -0.003267  -0.255661   0.033518
     9  C    0.245069 -11.143669   7.354256  -0.617515  -6.779101  -0.084590
    10  C    0.445393   5.451800 -11.827057   0.114197   0.183265  -0.093293
    11  Cl  -0.412402   0.306990   0.389528  -0.015632  -0.108836   0.000576
    12  Cl  -0.011649   0.102321  -0.632918   0.040058   0.216282  -0.002451
               7          8          9         10         11         12
     1  Cl  -0.152460   0.001338   0.245069   0.445393  -0.412402  -0.011649
     2  C    0.903108  -0.113512 -11.143669   5.451800   0.306990   0.102321
     3  C   -7.445125  -0.066501   7.354256 -11.827057   0.389528  -0.632918
     4  Cl   0.264631  -0.003267  -0.617515   0.114197  -0.015632   0.040058
     5  C   -3.969608  -0.255661  -6.779101   0.183265  -0.108836   0.216282
     6  O   -0.258437   0.033518  -0.084590  -0.093293   0.000576  -0.002451
     7  C   30.255918   0.683162  -5.651771  -8.012053   0.246058   0.029306
     8  O    0.683162   8.337804  -0.451452   0.164144  -0.018289   0.140471
     9  C   -5.651771  -0.451452  40.739296 -16.294230   2.183047  -4.257958
    10  C   -8.012053   0.164144 -16.294230  36.731557  -3.602816   3.706037
    11  Cl   0.246058  -0.018289   2.183047  -3.602816  18.350991  -0.791093
    12  Cl   0.029306   0.140471  -4.257958   3.706037  -0.791093  18.358337
          Atomic-Atomic Spin Densities.
               1          2          3          4          5          6
     1  Cl   0.000000  -0.000000   0.000000  -0.000000   0.000000  -0.000000
     2  C   -0.000000   0.000000  -0.000000   0.000000  -0.000000   0.000000
     3  C    0.000000  -0.000000   0.000000  -0.000000   0.000000  -0.000000
     4  Cl  -0.000000   0.000000  -0.000000   0.000000  -0.000000  -0.000000
     5  C    0.000000  -0.000000   0.000000  -0.000000   0.000000  -0.000000
     6  O   -0.000000   0.000000  -0.000000  -0.000000  -0.000000   0.000000
     7  C   -0.000000  -0.000000  -0.000000   0.000000  -0.000000   0.000000
     8  O    0.000000  -0.000000  -0.000000  -0.000000   0.000000   0.000000
     9  C    0.000000  -0.000000   0.000000  -0.000000   0.000000   0.000000
    10  C   -0.000000   0.000000  -0.000000   0.000000   0.000000  -0.000000
    11  Cl  -0.000000  -0.000000   0.000000   0.000000   0.000000   0.000000
    12  Cl  -0.000000   0.000000  -0.000000   0.000000  -0.000000  -0.000000
               7          8          9         10         11         12
     1  Cl  -0.000000   0.000000   0.000000  -0.000000  -0.000000  -0.000000
     2  C   -0.000000  -0.000000  -0.000000   0.000000  -0.000000   0.000000
     3  C   -0.000000  -0.000000   0.000000  -0.000000   0.000000  -0.000000
     4  Cl   0.000000  -0.000000  -0.000000   0.000000   0.000000   0.000000
     5  C   -0.000000   0.000000   0.000000   0.000000   0.000000  -0.000000
     6  O    0.000000   0.000000   0.000000  -0.000000   0.000000  -0.000000
     7  C    0.000000  -0.000000  -0.000000   0.000000  -0.000000   0.000000
     8  O   -0.000000  -0.000000   0.000000   0.000000   0.000000  -0.000000
     9  C   -0.000000   0.000000   0.000000  -0.000000   0.000000  -0.000000
    10  C    0.000000   0.000000  -0.000000   0.000000  -0.000000   0.000000
    11  Cl  -0.000000   0.000000   0.000000  -0.000000   0.000000  -0.000000
    12  Cl   0.000000  -0.000000  -0.000000   0.000000  -0.000000   0.000000
 Mulliken charges and spin densities:
               1          2
     1  Cl   0.449632  -0.000000
     2  C   -1.002053   0.000000
     3  C    0.786077  -0.000000
     4  Cl   0.105359   0.000000
     5  C   -0.890819  -0.000000
     6  O   -0.470518   0.000000
     7  C   -0.892728   0.000000
     8  O   -0.451756  -0.000000
     9  C    0.758618   0.000000
    10  C   -0.966945  -0.000000
    11  Cl   0.471877   0.000000
    12  Cl   0.103257  -0.000000
 Sum of Mulliken charges =  -2.00000   0.00000
 Mulliken charges and spin densities with hydrogens summed into heavy atoms:
               1          2
     1  Cl   0.449632  -0.000000
     2  C   -1.002053   0.000000
     3  C    0.786077  -0.000000
     4  Cl   0.105359   0.000000
     5  C   -0.890819  -0.000000
     6  O   -0.470518   0.000000
     7  C   -0.892728   0.000000
     8  O   -0.451756  -0.000000
     9  C    0.758618   0.000000
    10  C   -0.966945  -0.000000
    11  Cl   0.471877   0.000000
    12  Cl   0.103257  -0.000000
 Electronic spatial extent (au):  <R**2>=           3378.1698
 Charge=             -2.0000 electrons
 Dipole moment (field-independent basis, Debye):
    X=              4.6073    Y=              3.7330    Z=              0.1156  Tot=              5.9310
 Quadrupole moment (field-independent basis, Debye-Ang):
   XX=           -151.0611   YY=           -149.1533   ZZ=           -103.2176
   XY=             -4.7681   XZ=              0.2977   YZ=             -1.9766
 Traceless Quadrupole moment (field-independent basis, Debye-Ang):
   XX=            -16.5837   YY=            -14.6760   ZZ=             31.2597
   XY=             -4.7681   XZ=              0.2977   YZ=             -1.9766
 Octapole moment (field-independent basis, Debye-Ang**2):
  XXX=            -57.6137  YYY=            -41.5617  ZZZ=             -2.2470  XYY=            -17.8245
  XXY=            -13.9676  XXZ=             -0.6898  XZZ=            -32.2943  YZZ=            -24.7363
  YYZ=              0.5412  XYZ=              0.5235
 Hexadecapole moment (field-independent basis, Debye-Ang**3):
 XXXX=          -2489.3557 YYYY=          -2659.3384 ZZZZ=           -135.3112 XXXY=            155.3836
 XXXZ=             20.7783 YYYX=            142.5251 YYYZ=            -62.6968 ZZZX=             18.7993
 ZZZY=            -52.0840 XXYY=           -846.6450 XXZZ=           -392.1773 YYZZ=           -424.6587
 XXYZ=            -20.4632 YYXZ=              5.5933 ZZXY=             58.6531
 N-N= 1.075355452124D+03 E-N=-7.451572513354D+03  KE= 2.214954979900D+03
                          Isotropic Fermi Contact Couplings
        Atom                 a.u.       MegaHertz       Gauss      10(-4) cm-1
     1  Cl(35)             0.00000       0.00000       0.00000       0.00000
     2  C(13)             -0.00000      -0.00000      -0.00000      -0.00000
     3  C(13)              0.00000       0.00000       0.00000       0.00000
     4  Cl(35)             0.00000       0.00000       0.00000       0.00000
     5  C(13)             -0.00000      -0.00000      -0.00000      -0.00000
     6  O(17)              0.00000      -0.00000      -0.00000      -0.00000
     7  C(13)             -0.00000      -0.00000      -0.00000      -0.00000
     8  O(17)             -0.00000       0.00000       0.00000       0.00000
     9  C(13)             -0.00000      -0.00000      -0.00000      -0.00000
    10  C(13)              0.00000       0.00000       0.00000       0.00000
    11  Cl(35)             0.00000       0.00000       0.00000       0.00000
    12  Cl(35)             0.00000       0.00000       0.00000       0.00000
 --------------------------------------------------------
       Center         ----  Spin Dipole Couplings  ----
                      3XX-RR        3YY-RR        3ZZ-RR
 --------------------------------------------------------
     1   Atom       -0.000000      0.000000      0.000000
     2   Atom       -0.000000      0.000000     -0.000000
     3   Atom        0.000000      0.000000     -0.000000
     4   Atom        0.000000     -0.000000      0.000000
     5   Atom       -0.000000      0.000000      0.000000
     6   Atom        0.000000     -0.000000     -0.000000
     7   Atom       -0.000000      0.000000      0.000000
     8   Atom        0.000000     -0.000000      0.000000
     9   Atom       -0.000000     -0.000000      0.000000
    10   Atom       -0.000000     -0.000000      0.000000
    11   Atom        0.000000     -0.000000     -0.000000
    12   Atom        0.000000     -0.000000     -0.000000
 --------------------------------------------------------
                        XY            XZ            YZ
 --------------------------------------------------------
     1   Atom        0.000000     -0.000000      0.000000
     2   Atom        0.000000      0.000000      0.000000
     3   Atom        0.000000      0.000000      0.000000
     4   Atom        0.000000      0.000000      0.000000
     5   Atom        0.000000      0.000000      0.000000
     6   Atom       -0.000000     -0.000000      0.000000
     7   Atom        0.000000      0.000000     -0.000000
     8   Atom       -0.000000     -0.000000     -0.000000
     9   Atom       -0.000000      0.000000     -0.000000
    10   Atom       -0.000000     -0.000000      0.000000
    11   Atom       -0.000000     -0.000000     -0.000000
    12   Atom       -0.000000     -0.000000     -0.000000
 --------------------------------------------------------


 ---------------------------------------------------------------------------------
              Anisotropic Spin Dipole Couplings in Principal Axis System
 ---------------------------------------------------------------------------------

       Atom             a.u.   MegaHertz   Gauss  10(-4) cm-1        Axes

              Baa    -0.0000    -0.000    -0.000    -0.000  0.9892 -0.1464  0.0119
     1 Cl(35) Bbb     0.0000     0.000     0.000     0.000 -0.0187 -0.0454  0.9988
              Bcc     0.0000     0.000     0.000     0.000  0.1456  0.9882  0.0477
 
              Baa    -0.0000    -0.000    -0.000    -0.000  0.9505 -0.3106  0.0047
     2 C(13)  Bbb    -0.0000    -0.000    -0.000    -0.000 -0.0165 -0.0351  0.9992
              Bcc     0.0000     0.000     0.000     0.000  0.3102  0.9499  0.0385
 
              Baa    -0.0000    -0.000    -0.000    -0.000 -0.2281  0.1563  0.9610
     3 C(13)  Bbb    -0.0000    -0.000    -0.000    -0.000  0.6962 -0.6638  0.2732
              Bcc     0.0000     0.000     0.000     0.000  0.6806  0.7314  0.0426
 
              Baa    -0.0000    -0.000    -0.000    -0.000 -0.1915  0.9814 -0.0168
     4 Cl(35) Bbb     0.0000     0.000     0.000     0.000  0.9811  0.1909 -0.0329
              Bcc     0.0000     0.000     0.000     0.000  0.0291  0.0227  0.9993
 
              Baa    -0.0000    -0.000    -0.000    -0.000  0.9358 -0.3525 -0.0009
     5 C(13)  Bbb     0.0000     0.000     0.000     0.000 -0.0196 -0.0545  0.9983
              Bcc     0.0000     0.000     0.000     0.000  0.3520  0.9342  0.0580
 
              Baa    -0.0000     0.000     0.000     0.000  0.5854  0.8108 -0.0008
     6 O(17)  Bbb    -0.0000     0.000     0.000     0.000  0.0062 -0.0035  1.0000
              Bcc     0.0000    -0.000    -0.000    -0.000  0.8107 -0.5854 -0.0071
 
              Baa    -0.0000    -0.000    -0.000    -0.000  0.8612 -0.5076 -0.0260
     7 C(13)  Bbb     0.0000     0.000     0.000     0.000  0.0008 -0.0498  0.9988
              Bcc     0.0000     0.000     0.000     0.000  0.5082  0.8602  0.0425
 
              Baa    -0.0000     0.000     0.000     0.000  0.1674  0.9850  0.0416
     8 O(17)  Bbb     0.0000    -0.000    -0.000    -0.000 -0.1479 -0.0166  0.9889
              Bcc     0.0000    -0.000    -0.000    -0.000  0.9747 -0.1716  0.1429
 
              Baa    -0.0000    -0.000    -0.000    -0.000  0.6642  0.7475  0.0039
     9 C(13)  Bbb     0.0000     0.000     0.000     0.000  0.7458 -0.6623 -0.0712
              Bcc     0.0000     0.000     0.000     0.000  0.0506 -0.0502  0.9975
 
              Baa    -0.0000    -0.000    -0.000    -0.000  0.7809  0.6240  0.0298
    10 C(13)  Bbb     0.0000     0.000     0.000     0.000  0.1377 -0.2185  0.9661
              Bcc     0.0000     0.000     0.000     0.000 -0.6093  0.7503  0.2566
 
              Baa    -0.0000    -0.000    -0.000    -0.000  0.4184  0.9077  0.0329
    11 Cl(35) Bbb    -0.0000    -0.000    -0.000    -0.000 -0.0008 -0.0359  0.9994
              Bcc     0.0000     0.000     0.000     0.000  0.9083 -0.4181 -0.0143
 
              Baa    -0.0000    -0.000    -0.000    -0.000  0.0063  0.9866  0.1633
    12 Cl(35) Bbb    -0.0000    -0.000    -0.000    -0.000  0.0043 -0.1633  0.9866
              Bcc     0.0000     0.000     0.000     0.000  1.0000 -0.0055 -0.0053
 

 ---------------------------------------------------------------------------------

 No NMR shielding tensors so no spin-rotation constants.
 Leave Link  601 at Sat Jan  6 01:38:22 2024, MaxMem=  4026531840 cpu:               8.2 elap:               2.5
 (Enter /sysapps/ubuntu-applications/gaussian/Gaussian/AVX2/g16/l701.exe)
 ... and contract with generalized density number  0.
 Compute integral first derivatives.
 Leave Link  701 at Sat Jan  6 01:38:23 2024, MaxMem=  4026531840 cpu:               4.0 elap:               0.9
 (Enter /sysapps/ubuntu-applications/gaussian/Gaussian/AVX2/g16/l702.exe)
 L702 exits ... SP integral derivatives will be done elsewhere.
 Leave Link  702 at Sat Jan  6 01:38:23 2024, MaxMem=  4026531840 cpu:               0.5 elap:               0.2
 (Enter /sysapps/ubuntu-applications/gaussian/Gaussian/AVX2/g16/l703.exe)
 Integral derivatives from FoFJK, PRISM(SPDF).
 Compute integral first derivatives, UseDBF=F ICtDFT=           0.
 Calling FoFJK, ICntrl=      2127 FMM=F ISym2X=0 I1Cent= 0 IOpClX= 1 NMat=1 NMatS=1 NMatT=0.
 FoFJK:  IHMeth= 1 ICntrl=    2127 DoSepK=F KAlg= 0 I1Cent=           0 FoldK=F
 IRaf=         0 NMat=       1 IRICut=       1 DoRegI=T DoRafI=F ISym2E= 0 IDoP0=0 IntGTp=1.
 FoFCou: FMM=F IPFlag=           0 FMFlag=      100000 FMFlg1=         800
         NFxFlg=           0 DoJE=F BraDBF=F KetDBF=F FulRan=T
         wScrn=  0.000000 ICntrl=      2127 IOpCl=  1 I1Cent=           0 NGrid=           0
         NMat0=    1 NMatS0=      1 NMatT0=    0 NMatD0=    1 NMtDS0=    0 NMtDT0=    0
 Symmetry not used in FoFCou.
 Leave Link  703 at Sat Jan  6 01:38:37 2024, MaxMem=  4026531840 cpu:             102.4 elap:              13.5
 (Enter /sysapps/ubuntu-applications/gaussian/Gaussian/AVX2/g16/l716.exe)
 Dipole        = 1.81266664D+00 1.46868225D+00 4.54693527D-02
 -------------------------------------------------------------------
 Center     Atomic                   Forces (Hartrees/Bohr)
 Number     Number              X              Y              Z
 -------------------------------------------------------------------
      1       17           0.012180040    0.008741625    0.000256482
      2        6           0.010142236    0.098012982    0.004209038
      3        6          -0.050574643   -0.030353880   -0.000801681
      4       17          -0.006021398   -0.010346572   -0.000391490
      5        6           0.038509263   -0.027950180   -0.001638169
      6        8          -0.017067380   -0.013569585   -0.000417016
      7        6          -0.003791939    0.038652006    0.001741597
      8        8          -0.042786817   -0.013709267   -0.000150683
      9        6          -0.046304523   -0.044443389   -0.001464300
     10        6           0.095424212   -0.012156475   -0.001545593
     11       17           0.018438342    0.013597684    0.000402770
     12       17          -0.008147392   -0.006474949   -0.000200955
 -------------------------------------------------------------------
 Cartesian Forces:  Max     0.098012982 RMS     0.030667818
 Leave Link  716 at Sat Jan  6 01:38:37 2024, MaxMem=  4026531840 cpu:               0.7 elap:               0.3
 (Enter /sysapps/ubuntu-applications/gaussian/Gaussian/AVX2/g16/l103.exe)

 GradGradGradGradGradGradGradGradGradGradGradGradGradGradGradGradGradGrad
 Berny optimization.
 FormGI is forming the generalized inverse of G from B-inverse, IUseBI=4.
 Internal  Forces:  Max     0.088726479 RMS     0.022324178
 Search for a local minimum.
 Step number   1 out of a maximum of   64
 All quantities printed in internal units (Hartrees-Bohrs-Radians)
 RMS Force = .22324D-01 SwitMx=.10000D-02 MixMth= 1
 Mixed Optimization -- RFO/linear search
 Second derivative matrix not updated -- first step.
 ITU=  0
     Eigenvalues ---    0.01318   0.01324   0.01329   0.01826   0.01913
     Eigenvalues ---    0.02174   0.02188   0.02360   0.02629   0.25000
     Eigenvalues ---    0.25000   0.25000   0.25000   0.25000   0.25000
     Eigenvalues ---    0.25000   0.25000   0.25000   0.28691   0.28692
     Eigenvalues ---    0.29429   0.29624   0.35256   0.36182   0.37142
     Eigenvalues ---    0.37326   0.57469   0.59283   0.79886   0.87247
 RFO step:  Lambda=-5.45531157D-02 EMin= 1.31760810D-02
 Linear search not attempted -- first point.
 Maximum step size (   0.300) exceeded in Quadratic search.
    -- Step size scaled by   0.840
 Iteration  1 RMS(Cart)=  0.07014911 RMS(Int)=  0.00131942
 Iteration  2 RMS(Cart)=  0.00174199 RMS(Int)=  0.00029290
 Iteration  3 RMS(Cart)=  0.00000110 RMS(Int)=  0.00029290
 Iteration  4 RMS(Cart)=  0.00000000 RMS(Int)=  0.00029290
 ITry= 1 IFail=0 DXMaxC= 2.46D-01 DCOld= 1.00D+10 DXMaxT= 3.00D-01 DXLimC= 3.00D+00 Rises=F
 Variable       Old X    -DE/DX   Delta X   Delta X   Delta X     New X
                                 (Linear)    (Quad)   (Total)
    R1        3.34352   0.01343   0.00000   0.03304   0.03304   3.37655
    R2        2.51168   0.08310   0.00000   0.10835   0.10859   2.62028
    R3        2.75570  -0.04593   0.00000  -0.08646  -0.08595   2.66975
    R4        3.32816   0.00402   0.00000   0.00967   0.00967   3.33784
    R5        2.75174  -0.00249   0.00000  -0.00721  -0.00746   2.74428
    R6        2.37977   0.01872   0.00000   0.01844   0.01844   2.39820
    R7        2.75694   0.01858   0.00000   0.03264   0.03213   2.78906
    R8        2.34228   0.04394   0.00000   0.03983   0.03983   2.38212
    R9        2.75442   0.00047   0.00000  -0.00073  -0.00095   2.75347
   R10        2.50291   0.08873   0.00000   0.11413   0.11440   2.61732
   R11        3.34349  -0.00055   0.00000  -0.00136  -0.00136   3.34213
   R12        3.32420   0.01968   0.00000   0.04714   0.04714   3.37134
    A1        2.08285   0.01924   0.00000   0.04918   0.04879   2.13164
    A2        2.06405  -0.00309   0.00000  -0.01242  -0.01281   2.05124
    A3        2.13629  -0.01615   0.00000  -0.03676  -0.03598   2.10031
    A4        2.08840   0.00522   0.00000   0.01475   0.01476   2.10316
    A5        2.05970   0.02713   0.00000   0.07413   0.07411   2.13382
    A6        2.13508  -0.03234   0.00000  -0.08888  -0.08887   2.04621
    A7        2.06933   0.01666   0.00000   0.05059   0.05100   2.12033
    A8        2.07702  -0.00671   0.00000  -0.02776  -0.02859   2.04843
    A9        2.13684  -0.00995   0.00000  -0.02283  -0.02241   2.11443
   A10        2.11488  -0.00416   0.00000  -0.00742  -0.00702   2.10785
   A11        2.09798  -0.01361   0.00000  -0.04566  -0.04645   2.05153
   A12        2.07033   0.01777   0.00000   0.05307   0.05347   2.12380
   A13        2.04280   0.03041   0.00000   0.08535   0.08540   2.12820
   A14        2.12349  -0.03258   0.00000  -0.09061  -0.09064   2.03285
   A15        2.11690   0.00217   0.00000   0.00526   0.00524   2.12214
   A16        2.15258  -0.02107   0.00000  -0.04930  -0.04849   2.10409
   A17        2.08983  -0.00897   0.00000  -0.02917  -0.02958   2.06025
   A18        2.04077   0.03004   0.00000   0.07848   0.07807   2.11885
    D1        0.00001   0.00000   0.00000  -0.00000  -0.00000   0.00001
    D2        3.14159   0.00000   0.00000   0.00000   0.00000   3.14159
    D3       -3.14158  -0.00000   0.00000  -0.00000  -0.00000  -3.14159
    D4       -0.00000  -0.00000   0.00000  -0.00000  -0.00000  -0.00000
    D5       -3.14159  -0.00000   0.00000  -0.00000  -0.00000  -3.14159
    D6       -0.00002   0.00000   0.00000   0.00001   0.00001  -0.00001
    D7        0.00000   0.00000   0.00000   0.00000   0.00000   0.00000
    D8        3.14157   0.00000   0.00000   0.00001   0.00001   3.14158
    D9       -3.14159  -0.00000   0.00000  -0.00000  -0.00000   3.14159
   D10        0.00000   0.00000   0.00000   0.00000   0.00000   0.00000
   D11       -0.00001   0.00000   0.00000  -0.00000  -0.00000  -0.00001
   D12        3.14158   0.00000   0.00000   0.00000   0.00000   3.14158
   D13        3.14159  -0.00000   0.00000  -0.00001  -0.00000   3.14159
   D14       -0.00000  -0.00000   0.00000  -0.00000  -0.00000  -0.00000
   D15       -0.00000   0.00000   0.00000   0.00000   0.00000  -0.00000
   D16        3.14159   0.00000   0.00000   0.00000   0.00000  -3.14159
   D17        0.00000   0.00000   0.00000   0.00000   0.00000   0.00000
   D18        3.14159  -0.00000   0.00000  -0.00002  -0.00002   3.14158
   D19       -3.14159   0.00000   0.00000   0.00001   0.00001  -3.14159
   D20        0.00000  -0.00000   0.00000  -0.00001  -0.00001  -0.00001
   D21       -0.00000  -0.00000   0.00000  -0.00000  -0.00000  -0.00000
   D22       -3.14157  -0.00000   0.00000  -0.00001  -0.00001  -3.14158
   D23        3.14159   0.00000   0.00000   0.00002   0.00002  -3.14158
   D24        0.00002   0.00000   0.00000   0.00001   0.00001   0.00003
         Item               Value     Threshold  Converged?
 Maximum Force            0.088726     0.000450     NO 
 RMS     Force            0.022324     0.000300     NO 
 Maximum Displacement     0.246321     0.001800     NO 
 RMS     Displacement     0.070282     0.001200     NO 
 Predicted change in Energy=-2.901851D-02
 Lowest energy point so far.  Saving SCF results.
 GradGradGradGradGradGradGradGradGradGradGradGradGradGradGradGradGradGrad

 Leave Link  103 at Sat Jan  6 01:38:43 2024, MaxMem=  4026531840 cpu:              24.8 elap:               5.2
 (Enter /sysapps/ubuntu-applications/gaussian/Gaussian/AVX2/g16/l202.exe)
                          Input orientation:                          
 ---------------------------------------------------------------------
 Center     Atomic      Atomic             Coordinates (Angstroms)
 Number     Number       Type             X           Y           Z
 ---------------------------------------------------------------------
      1         17           0        3.101033    0.443447   -0.013319
      2          6           0        1.340902    0.135959   -0.008217
      3          6           0        0.816089   -1.146464   -0.059142
      4         17           0        1.885315   -2.550474   -0.132296
      5          6           0       -0.613904   -1.399489   -0.055135
      6          8           0       -1.078350   -2.579586   -0.102195
      7          6           0       -1.509952   -0.228304    0.005942
      8          8           0       -2.762058   -0.373905    0.012788
      9          6           0       -0.892535    1.090485    0.057486
     10          6           0        0.482484    1.256503    0.050230
     11         17           0        1.223305    2.878206    0.113825
     12         17           0       -1.992329    2.473621    0.130032
 ---------------------------------------------------------------------
                    Distance matrix (angstroms):
                    1          2          3          4          5
     1  Cl   0.000000
     2  C    1.786794   0.000000
     3  C    2.784042   1.386590   0.000000
     4  Cl   3.233526   2.743848   1.766306   0.000000
     5  C    4.147159   2.486176   1.452212   2.752602   0.000000
     6  O    5.158863   3.638103   2.375834   2.963960   1.269075
     7  C    4.659700   2.874067   2.501544   4.115753   1.475909
     8  O    5.919847   4.134573   3.661306   5.133866   2.381387
     9  C    4.046264   2.429749   2.817258   4.583563   2.508045
    10  C    2.742607   1.412770   2.428479   4.061320   2.875320
    11  Cl   3.077349   2.747480   4.048915   5.474431   4.658601
    12  Cl   5.484933   4.073599   4.585632   6.351887   4.115255
                    6          7          8          9         10
     6  O    0.000000
     7  C    2.393011   0.000000
     8  O    2.777251   1.260562   0.000000
     9  C    3.678239   1.457074   2.375195   0.000000
    10  C    4.144275   2.485240   3.631348   1.385024   0.000000
    11  Cl   5.927206   4.139171   5.144857   2.770542   1.784035
    12  Cl   5.140446   2.747450   2.952056   1.768580   2.759066
                   11         12
    11  Cl   0.000000
    12  Cl   3.241027   0.000000
 Symmetry turned off by external request.
 Stoichiometry    C6Cl4O2(2-)
 Framework group  C1[X(C6Cl4O2)]
 Deg. of freedom    30
 Full point group                 C1      NOp   1
 Rotational constants (GHZ):           0.6835477           0.5026814           0.2896630
 Leave Link  202 at Sat Jan  6 01:38:43 2024, MaxMem=  4026531840 cpu:               0.9 elap:               0.6
 (Enter /sysapps/ubuntu-applications/gaussian/Gaussian/AVX2/g16/l301.exe)
 Standard basis: 6-311++G(d,p) (5D, 7F)
 Ernie: Thresh=  0.10000D-02 Tol=  0.10000D-05 Strict=F.
   296 basis functions,   500 primitive gaussians,   308 cartesian basis functions
    61 alpha electrons       61 beta electrons
       nuclear repulsion energy      1064.8668231853 Hartrees.
 IExCor=  402 DFT=T Ex+Corr=B3LYP ExCW=0 ScaHFX=  0.200000
 ScaDFX=  0.800000  0.720000  1.000000  0.810000 ScalE2=  1.000000  1.000000
 IRadAn=      5 IRanWt=     -1 IRanGd=            0 ICorTp=0 IEmpDi=  4
 NAtoms=   12 NActive=   12 NUniq=   12 SFac= 1.00D+00 NAtFMM=   60 NAOKFM=F Big=F
 Integral buffers will be    131072 words long.
 Raffenetti 2 integral format.
 Two-electron integral symmetry is turned off.
 Leave Link  301 at Sat Jan  6 01:38:44 2024, MaxMem=  4026531840 cpu:               1.2 elap:               0.4
 (Enter /sysapps/ubuntu-applications/gaussian/Gaussian/AVX2/g16/l302.exe)
 NPDir=0 NMtPBC=     1 NCelOv=     1 NCel=       1 NClECP=     1 NCelD=      1
         NCelK=      1 NCelE2=     1 NClLst=     1 CellRange=     0.0.
 One-electron integrals computed using PRISM.
 NBasis=   296 RedAO= T EigKep=  2.81D-06  NBF=   296
 NBsUse=   294 1.00D-06 EigRej=  7.47D-07 NBFU=   294
 Precomputing XC quadrature grid using
 IXCGrd= 4 IRadAn=           5 IRanWt=          -1 IRanGd=           0 AccXCQ= 0.00D+00.
 Generated NRdTot=       0 NPtTot=           0 NUsed=           0 NTot=          32
 NSgBfM=   304   304   304   304   304 MxSgAt=    12 MxSgA2=    12.
 Leave Link  302 at Sat Jan  6 01:38:46 2024, MaxMem=  4026531840 cpu:              13.2 elap:               2.1
 (Enter /sysapps/ubuntu-applications/gaussian/Gaussian/AVX2/g16/l303.exe)
 DipDrv:  MaxL=1.
 Leave Link  303 at Sat Jan  6 01:38:46 2024, MaxMem=  4026531840 cpu:               2.6 elap:               0.6
 (Enter /sysapps/ubuntu-applications/gaussian/Gaussian/AVX2/g16/l401.exe)
 Initial guess from the checkpoint file:  "317-an.chk"
 B after Tr=     0.002847   -0.001519   -0.000102
         Rot=    1.000000    0.000003   -0.000010    0.000229 Ang=   0.03 deg.
 Guess basis will be translated and rotated to current coordinates.
 JPrj=2 DoOrth=T DoCkMO=T.
[...]
         Item               Value     Threshold  Converged?
 Maximum Force            0.000408     0.000450     YES
 RMS     Force            0.000117     0.000300     YES
 Maximum Displacement     0.001474     0.001800     YES
 RMS     Displacement     0.000414     0.001200     YES
 Predicted change in Energy=-1.285743D-06
 Optimization completed.
    -- Stationary point found.
                           ----------------------------
                           !   Optimized Parameters   !
                           ! (Angstroms and Degrees)  !
 --------------------------                            --------------------------
 ! Name  Definition              Value          Derivative Info.                !
 --------------------------------------------------------------------------------
 ! R1    R(1,2)                  1.7837         -DE/DX =    0.0                 !
 ! R2    R(2,3)                  1.4197         -DE/DX =   -0.0004              !
 ! R3    R(2,10)                 1.3835         -DE/DX =    0.0002              !
 ! R4    R(3,4)                  1.794          -DE/DX =    0.0                 !
 ! R5    R(3,5)                  1.4258         -DE/DX =    0.0                 !
 ! R6    R(5,6)                  1.261          -DE/DX =    0.0                 !
 ! R7    R(5,7)                  1.5198         -DE/DX =    0.0003              !
 ! R8    R(7,8)                  1.2613         -DE/DX =   -0.0003              !
 ! R9    R(7,9)                  1.4256         -DE/DX =    0.0001              !
 ! R10   R(9,10)                 1.4197         -DE/DX =   -0.0004              !
 ! R11   R(9,12)                 1.794          -DE/DX =    0.0                 !
 ! R12   R(10,11)                1.784          -DE/DX =   -0.0001              !
 ! A1    A(1,2,3)              120.6653         -DE/DX =   -0.0001              !
 ! A2    A(1,2,10)             120.2705         -DE/DX =    0.0001              !
 ! A3    A(3,2,10)             119.0643         -DE/DX =    0.0                 !
 ! A4    A(2,3,4)              118.8544         -DE/DX =    0.0                 !
 ! A5    A(2,3,5)              125.0853         -DE/DX =    0.0001              !
 ! A6    A(4,3,5)              116.0603         -DE/DX =   -0.0001              !
 ! A7    A(3,5,6)              123.9428         -DE/DX =    0.0001              !
 ! A8    A(3,5,7)              115.8404         -DE/DX =   -0.0001              !
 ! A9    A(6,5,7)              120.2168         -DE/DX =    0.0                 !
 ! A10   A(5,7,8)              120.2035         -DE/DX =    0.0                 !
 ! A11   A(5,7,9)              115.8559         -DE/DX =   -0.0001              !
 ! A12   A(8,7,9)              123.9406         -DE/DX =    0.0001              !
 ! A13   A(7,9,10)             125.0819         -DE/DX =    0.0001              !
 ! A14   A(7,9,12)             116.0869         -DE/DX =   -0.0002              !
 ! A15   A(10,9,12)            118.8312         -DE/DX =    0.0001              !
 ! A16   A(2,10,9)             119.0723         -DE/DX =    0.0                 !
 ! A17   A(2,10,11)            120.245          -DE/DX =    0.0002              !
 ! A18   A(9,10,11)            120.6827         -DE/DX =   -0.0002              !
 ! D1    D(1,2,3,4)              0.0079         -DE/DX =    0.0                 !
 ! D2    D(1,2,3,5)           -179.9992         -DE/DX =    0.0                 !
 ! D3    D(10,2,3,4)          -179.9908         -DE/DX =    0.0                 !
 ! D4    D(10,2,3,5)             0.002          -DE/DX =    0.0                 !
 ! D5    D(1,2,10,9)           180.001          -DE/DX =    0.0                 !
 ! D6    D(1,2,10,11)            0.012          -DE/DX =    0.0                 !
 ! D7    D(3,2,10,9)            -0.0003         -DE/DX =    0.0                 !
 ! D8    D(3,2,10,11)         -179.9893         -DE/DX =    0.0                 !
 ! D9    D(2,3,5,6)           -179.9978         -DE/DX =    0.0                 !
 ! D10   D(2,3,5,7)             -0.0025         -DE/DX =    0.0                 !
 ! D11   D(4,3,5,6)             -0.0047         -DE/DX =    0.0                 !
 ! D12   D(4,3,5,7)            179.9906         -DE/DX =    0.0                 !
 ! D13   D(3,5,7,8)           -179.9917         -DE/DX =    0.0                 !
 ! D14   D(3,5,7,9)              0.0013         -DE/DX =    0.0                 !
 ! D15   D(6,5,7,8)              0.0038         -DE/DX =    0.0                 !
 ! D16   D(6,5,7,9)            179.9967         -DE/DX =    0.0                 !
 ! D17   D(5,7,9,10)             0.0003         -DE/DX =    0.0                 !
 ! D18   D(5,7,9,12)          -180.0039         -DE/DX =    0.0                 !
 ! D19   D(8,7,9,10)           179.993          -DE/DX =    0.0                 !
 ! D20   D(8,7,9,12)            -0.0112         -DE/DX =    0.0                 !
 ! D21   D(7,9,10,2)            -0.0008         -DE/DX =    0.0                 !
 ! D22   D(7,9,10,11)          179.9881         -DE/DX =    0.0                 !
 ! D23   D(12,9,10,2)          180.0034         -DE/DX =    0.0                 !
 ! D24   D(12,9,10,11)          -0.0076         -DE/DX =    0.0                 !
 --------------------------------------------------------------------------------
 GradGradGradGradGradGradGradGradGradGradGradGradGradGradGradGradGradGrad

 Leave Link  103 at Sat Jan  6 02:09:27 2024, MaxMem=  4026531840 cpu:              16.2 elap:               2.8
 (Enter /sysapps/ubuntu-applications/gaussian/Gaussian/AVX2/g16/l9999.exe)

 ----------------------------------------------------------------------

 Electric dipole moment (input orientation):
 (Debye = 10**-18 statcoulomb cm , SI units = C m)
                  (au)            (Debye)         (10**-30 SI)
   Tot        0.239051D+01      0.607607D+01      0.202676D+02
   x          0.189598D+01      0.481910D+01      0.160748D+02
   y          0.145529D+01      0.369897D+01      0.123384D+02
   z          0.439774D-01      0.111779D+00      0.372856D+00

 Dipole polarizability, Alpha (input orientation).
 (esu units = cm**3 , SI units = C**2 m**2 J**-1)
 Alpha(0;0):
               (au)            (10**-24 esu)      (10**-40 SI)
   iso        0.159190D+03      0.235895D+02      0.262469D+02
   aniso      0.112085D+03      0.166094D+02      0.184804D+02
   xx         0.194558D+03      0.288305D+02      0.320783D+02
   yx        -0.657318D+01     -0.974045D+00     -0.108377D+01
   yy         0.197887D+03      0.293239D+02      0.326272D+02
   zx        -0.145251D+01     -0.215240D+00     -0.239487D+00
   zy         0.504348D+01      0.747367D+00      0.831558D+00
   zz         0.851254D+02      0.126143D+02      0.140353D+02

 ----------------------------------------------------------------------

 Dipole orientation:
    17          1.92592331         -2.30542489          5.13969145
     6          0.83749603         -1.00249281          2.22782591
     6          1.67392315         -2.00338947         -0.11656426
    17          3.84721983         -4.60516429         -0.10257396
     6          0.92149855         -1.10259778         -2.54189452
     8          1.69082447         -2.02332868         -4.60066757
     6         -0.92002757          1.10133141         -2.54272167
     8         -1.68857015          2.02090345         -4.60292938
     6         -1.67388236          2.00333146         -0.11881446
     6         -0.83879385          1.00371540          2.22661373
    17         -1.92812521          2.30810664          5.13815889
    17         -3.84748620          4.60500956         -0.10612416

 Electric dipole moment (dipole orientation):
 (Debye = 10**-18 statcoulomb cm , SI units = C m)
                  (au)            (Debye)         (10**-30 SI)
   Tot        0.239051D+01      0.607607D+01      0.202676D+02
   x          0.000000D+00      0.000000D+00      0.000000D+00
   y          0.000000D+00      0.000000D+00      0.000000D+00
   z          0.239051D+01      0.607607D+01      0.202676D+02

 Dipole polarizability, Alpha (dipole orientation).
 (esu units = cm**3 , SI units = C**2 m**2 J**-1)
 Alpha(0;0):
               (au)            (10**-24 esu)      (10**-40 SI)
   iso        0.159190D+03      0.235895D+02      0.262469D+02
   aniso      0.112085D+03      0.166094D+02      0.184804D+02
   xx         0.133524D+03      0.197863D+02      0.220152D+02
   yx        -0.582151D+02     -0.862659D+01     -0.959838D+01
   yy         0.154568D+03      0.229047D+02      0.254849D+02
   zx         0.200396D-02      0.296957D-03      0.330409D-03
   zy        -0.290042D-03     -0.429798D-04     -0.478215D-04
   zz         0.189478D+03      0.280777D+02      0.312407D+02

 ----------------------------------------------------------------------
 1\1\GINC-ACIDSGN001\Freq\UB3LYP\6-311++G(d,p)\C6Cl4O2(2-)\SELHAJJ1\06-
 Jan-2024\0\\#P Geom=AllCheck Guess=TCheck SCRF=Check GenChk UB3LYP/6-3
 11++G(d,p) Freq\\Reduced\\-2,1\Cl,3.1252016227,0.3965456764,-0.0155914
 869\C,1.355981446,0.1701334787,-0.0068600526\C,0.7923615559,-1.1318694
 807,-0.0582966611\Cl,1.8906754839,-2.5483870907,-0.1321420508\C,-0.603
 7868485,-1.4212056022,-0.0563012152\O,-1.0812197661,-2.5873777627,-0.1
 026200007\C,-1.529639647,-0.2176015695,0.0065925529\O,-2.7805167309,-0
 .3789478946,0.0128572106\C,-0.891128516,1.0560123373,0.0560067901\C,0.
 5130024501,1.2656037974,0.050375311\Cl,1.1873512685,2.9159244835,0.115
 707606\Cl,-1.9782823189,2.4811696271,0.1302719966\\Version=ES64L-G16Re
 vA.03\HF=-2220.0621482\S2=0.\S2-1=0.\S2A=0.\RMSD=6.566e-09\RMSF=2.333e
 -04\ZeroPoint=0.04265\Thermal=0.0536872\Dipole=3.1164585,2.3927508,0.0
 723605\DipoleDeriv=-0.935447,-0.0665331,0.0052323,-0.1294968,-0.137586
 9,0.0023975,0.0025729,0.001754,-0.1611044,0.284552,0.3682168,0.0131513
 ,-0.1634675,0.3381888,0.0172842,-0.0105488,0.011731,-0.0115096,0.17912
 15,-1.1865755,-0.0562384,-0.1517962,0.2473727,0.0215852,-0.0103558,0.0
 325819,-0.2065722,-0.4490154,0.4429018,0.0222226,0.4355912,-0.7028795,
 -0.0271695,0.0217167,-0.0272962,-0.1912961,0.3101664,0.8604381,0.03466
 42,1.0905117,1.5642338,0.0567268,0.0450409,0.059256,0.0186252,-0.67525
 78,-0.6382244,-0.0257001,-0.7096136,-2.0228064,-0.0620487,-0.0288922,-
 0.0627785,-0.4473191,1.9672691,0.6492073,0.0079112,0.4197873,-0.092509
 4,-0.0092223,-0.0022782,-0.0115104,0.0155979,-2.270907,-0.2851017,0.00
 68419,-0.2141709,-0.4294802,0.002973,0.0100649,0.0036464,-0.4449975,-0
 .0887268,-0.0804483,-0.0047229,-1.1153438,0.5157984,0.0436641,-0.05033
 05,0.0329181,-0.2059129,0.3857419,-0.1895169,-0.0126689,0.3418741,0.23
 66479,0.0072321,0.0104714,0.0120834,-0.0119982,-0.2393491,-0.3149055,-
 0.0130387,-0.2518263,-0.8332052,-0.0269229,-0.0100946,-0.0258834,-0.16
 22171,-0.468148,0.4405413,0.0223456,0.4479507,-0.683774,-0.0264996,0.0
 226334,-0.0265023,-0.1912961\Polar=194.557923,-6.5731835,197.8871897,-
 1.4525122,5.0434827,85.1253746\Quadrupole=-12.4199793,-11.1375668,23.5
 575461,-2.298384,0.2809184,-1.5069826\PG=C01 [X(C6Cl4O2)]\NImag=1\\0.1
 8602786,0.01490981,0.05193463,-0.00128616,0.00202301,0.00266973,-0.121
 17685,-0.01088414,0.00081386,0.46537465,-0.00757444,-0.03738956,-0.001
 60201,-0.05597891,0.60293551,0.00095282,-0.00156354,0.00053967,-0.0069
 9918,0.02549478,0.03911746,-0.03267963,-0.02366854,-0.00074916,-0.1013
 1783,-0.05212848,-0.00138190,0.48039182,0.00280197,-0.00021779,0.00018
 018,-0.09596782,-0.25577187,-0.00960703,0.09591510,0.50406972,0.000419
 12,0.00045709,-0.00487562,-0.00332040,-0.01007119,-0.01499551,-0.00029
 251,0.01901098,0.05016272,0.00255218,-0.00672307,-0.00030431,-0.005552
 81,-0.00099769,-0.00005802,-0.06013511,0.03473811,0.00206840,0.0911289
 2,-0.00225902,-0.00736434,-0.00037893,0.02645563,-0.02402437,-0.001034
 64,0.03519189,-0.08352641,-0.00372018,-0.06234159,0.12950107,-0.000109
 37,-0.00032895,0.00167750,0.00115422,-0.00075038,-0.00679786,0.0020841
 6,-0.00371625,-0.00725621,-0.00363253,0.00612362,0.00525066,0.00815177
 ,0.00395363,0.00008706,-0.01665427,-0.05240561,-0.00216220,-0.22862775
 ,-0.00293868,0.00173388,-0.02624283,0.01038501,0.00080909,0.54361457,-
 0.00423261,-0.00402992,-0.00013065,-0.02839252,0.01945182,0.00128234,-
 0.03472429,-0.09585445,-0.00162769,0.04173742,-0.02542567,-0.00185808,
 0.12617918,0.66995922,-0.00026828,-0.00021257,-0.00011867,-0.00110845,
 0.00152837,-0.00276467,0.00034202,-0.00195522,-0.05090291,0.00218701,-
 0.00153401,0.00681670,0.00148020,0.02127730,0.15804197,-0.00345011,-0.
 00247161,-0.00005634,0.00156136,0.00701572,0.00032178,-0.04290771,-0.0
 5642237,-0.00184973,0.00201622,-0.00473077,-0.00027492,-0.13573711,-0.
 14617771,-0.00566107,0.16702532,-0.00217370,-0.00001859,-0.00004296,0.
 00712810,-0.00594763,-0.00046510,-0.04697782,-0.03061968,-0.00158535,-
 0.00070753,0.00990877,0.00062825,-0.13196454,-0.42543218,-0.01461337,0
 .18389264,0.51559552,-0.00004545,-0.00004225,0.00151786,0.00032925,-0.
 00045623,0.00278617,-0.00144006,-0.00150094,0.01684633,-0.00009806,0.0
 0067480,-0.00423873,-0.00503221,-0.01445687,-0.06277275,0.00665254,0.0
 1943937,0.03103646,0.00333256,0.00035361,-0.00006439,0.00276602,0.0168
 5383,0.00084346,-0.03892959,0.00794366,0.00070150,-0.00044797,-0.00288
 100,-0.00005256,-0.08080670,0.03493880,0.00159837,-0.00212760,-0.01910
 319,-0.00062796,0.72411481,0.00365143,0.00059797,0.00016600,0.01597683
 ,-0.02169114,-0.00166571,0.01553153,0.02122762,0.00101071,-0.01331283,
 0.01002903,0.00029872,0.01425853,-0.09385017,-0.00098962,0.00317875,-0
 .08323099,-0.00448453,0.07800678,0.48919268,0.00008335,0.00019971,-0.0
 0401846,0.00080449,-0.00167916,0.01212948,0.00103867,0.00109620,-0.005
 55916,-0.00051274,0.00018868,0.00640587,0.00068486,-0.00122127,-0.0748
 3478,0.00035353,-0.00424315,0.01753277,-0.00259810,0.01381761,0.157759
 60,-0.00375224,-0.00047095,0.00003524,-0.00562757,-0.01749190,-0.00075
 568,0.02149847,0.01298222,0.00040194,-0.00474210,0.00445674,0.00022349
 ,-0.08194865,0.00210091,0.00115608,0.01836325,0.00720480,0.00008271,-0
 .47492054,-0.04139701,0.00258867,0.58362895,-0.00090906,0.00024626,-0.
 00003892,-0.00367570,-0.00137173,0.00014953,0.00391170,-0.00339637,-0.
 00042010,0.00350930,-0.00168517,-0.00002366,0.02438336,-0.00352141,-0.
 00119594,0.00966180,0.01384963,0.00065928,-0.05561999,-0.08576020,-0.0
 0044407,0.07274356,0.09859201,0.00001400,-0.00004357,0.00134815,-0.000
 14244,0.00030168,-0.00387191,-0.00000504,-0.00052036,0.00516768,0.0001
 8401,-0.00003392,-0.00198436,0.00214092,-0.00095591,0.01765645,0.00019
 122,0.00068423,-0.00338629,0.00195984,-0.00059246,-0.06230382,-0.00270
 210,0.00223304,0.03045260,-0.00138475,-0.00120380,-0.00002921,-0.04701
 748,0.03341192,0.00204575,-0.00458228,-0.01387899,-0.00052607,0.002822
 59,-0.00334813,-0.00018340,0.02313062,-0.00855974,-0.00068318,0.002431
 43,0.01805368,0.00082398,-0.11413306,-0.03358441,-0.00080761,-0.057188
 76,-0.05260545,-0.00153542,0.55086483,0.00203179,-0.00239531,-0.000157
 92,0.00446417,0.00489968,-0.00016752,0.01272601,-0.00426858,-0.0004862
 5,0.00177216,-0.00135757,-0.00005013,-0.00095705,-0.04074691,-0.001539
 90,0.00897659,0.01564629,0.00036635,-0.06534757,-0.21061590,-0.0063557
 8,-0.04316933,-0.01634345,-0.00100726,0.07738298,0.43402895,0.00010904
 ,-0.00012483,0.00071229,0.00078398,-0.00048456,0.00765485,0.00066094,-
 0.00020290,0.00376329,0.00004095,0.00000395,-0.00064057,-0.00035704,-0
 .00145897,-0.00565942,0.00042648,0.00027110,0.00519773,-0.00221538,-0.
 00669042,-0.05103238,-0.00111256,-0.00090587,0.01686625,-0.00187578,0.
 01610586,0.05003032,-0.03408419,0.01658758,0.00109136,-0.17120015,0.12
 331335,0.00693285,0.01088746,0.01803750,0.00076763,-0.00187369,-0.0013
 3607,-0.00005676,-0.01197076,0.02077700,0.00116857,-0.00690555,-0.0171
 4958,-0.00072059,-0.00299995,-0.05603943,-0.00248403,-0.00196006,0.007
 94250,0.00040799,-0.28273192,-0.00393301,0.00264894,0.56693164,-0.0107
 0103,0.00222754,0.00020783,0.16028386,-0.24627364,-0.01116772,-0.01092
 910,-0.05292482,-0.00256651,0.00054884,-0.00227162,-0.00003027,0.01989
 188,-0.00698509,-0.00106094,-0.00333852,-0.00009712,0.00020407,-0.0320
 3319,0.00577493,0.00072067,0.00806617,-0.00243722,-0.00031675,-0.04773
 401,-0.07460527,-0.00213540,-0.08307574,0.50133246,-0.00010958,-0.0000
 7813,0.00005004,0.00854698,-0.01075376,-0.03216495,-0.00052769,-0.0028
 7735,0.00757293,0.00002664,-0.00001146,-0.00163256,0.00114496,-0.00106
 650,0.01216014,-0.00011951,0.00034175,-0.00387223,-0.00141093,0.000970
 33,-0.00276301,0.00040442,-0.00031329,0.00278445,0.00073379,-0.0026024
 5,-0.01469649,-0.00925320,0.02130759,0.03890913,-0.00090365,0.00891453
 ,0.00037376,0.00128845,0.00716956,0.00030219,-0.00212342,-0.00100529,-
 0.00001521,0.00080877,-0.00021294,0.00001228,0.00177973,0.00076738,-0.
 00002761,-0.00036272,-0.00137287,-0.00004235,-0.00330291,0.00699293,0.
 00034555,-0.00140118,-0.00301454,-0.00010321,-0.00752958,-0.03032109,-
 0.00130516,-0.04757381,-0.03035951,-0.00083686,0.06827376,0.00248272,-
 0.00393491,-0.00009504,-0.02011133,-0.03311490,-0.00124275,0.00223303,
 -0.00165107,-0.00012794,0.00105596,-0.00309242,-0.00027423,0.00406296,
 0.00214887,0.00022927,-0.00180997,-0.00313824,-0.00017863,-0.00119312,
 0.00739993,0.00034915,-0.00271668,-0.00206192,-0.00013095,-0.00385645,
 -0.02529149,-0.00085322,-0.02705187,-0.11062666,-0.00461568,0.04610732
 ,0.16923489,0.00009604,-0.00016807,-0.00234530,-0.00090396,-0.00153858
 ,-0.00000527,0.00013535,-0.00008706,0.00071251,0.00006811,-0.00026055,
 0.00283915,0.00011256,0.00026165,-0.00401826,-0.00005961,-0.00017982,0
 .00134371,-0.00002062,0.00025929,-0.00010641,-0.00008755,-0.00012685,0
 .00151817,-0.00013919,-0.00057565,-0.00493359,-0.00069368,-0.00457338,
 0.00042513,0.00134531,0.00684313,0.00287603,-0.00263293,0.00070295,0.0
 0008830,-0.00244350,-0.00118735,-0.00004188,-0.00147444,-0.00220542,-0
 .00008855,-0.00033417,0.00062024,0.00002630,0.00531139,-0.00441383,-0.
 00018368,0.00009322,0.00317002,0.00011820,-0.01254508,0.00673690,0.000
 50336,0.00805043,-0.00632748,-0.00040977,-0.06468163,0.03637435,0.0021
 9558,-0.01651902,0.02938035,0.00140097,-0.00895344,0.00079743,0.000147
 22,0.09612917,0.00197213,0.00034402,-0.00013059,0.00070183,-0.00170216
 ,-0.00001262,0.00291897,0.00293371,0.00012640,0.00072092,-0.00069130,-
 0.00001864,-0.01484868,0.00428589,0.00006664,0.00222546,-0.00651579,-0
 .00022443,0.03808138,-0.03907376,-0.00242858,-0.00230853,0.00388957,0.
 00038223,0.03592240,-0.07895043,-0.00352473,0.00192776,-0.01311349,-0.
 00030106,-0.00366549,0.00412792,0.00014588,-0.06364815,0.12446583,0.00
 014447,-0.00011790,0.00284279,0.00004164,0.00001102,-0.00162747,0.0001
 3523,0.00017976,-0.00063606,0.00003054,-0.00001736,-0.00043957,-0.0006
 4208,-0.00004535,0.00639620,0.00007562,-0.00023494,-0.00199104,0.00188
 676,-0.00209992,0.00679030,-0.00023467,0.00042684,-0.00424738,0.002176
 33,-0.00352935,-0.00726225,0.00019092,-0.00058919,-0.00677258,-0.00004
 869,0.00009689,0.00169412,-0.00375607,0.00591950,0.00525293\\-0.000039
 67,0.00006205,0.00000401,0.00014079,0.00047539,0.00001552,-0.00023453,
 -0.00049130,-0.00001592,0.00003412,0.00002011,-0.00000269,-0.00021735,
 0.00038181,0.00001861,0.00001447,-0.00004925,-0.00000104,0.00068185,-0
 .00016539,-0.00002502,-0.00028638,-0.00001823,0.00000874,-0.00063719,-
 0.00025209,0.00000257,0.00037844,-0.00005778,-0.00000935,0.00011528,0.
 00001891,0.00000234,0.00005019,0.00007574,0.00000223\\\@


 GOD GAVE US TWO ENDS... ONE TO SIT ON...    
 AND THE OTHER TO THINK WITH...              
 YOUR SUCCESS DEPENDS UPON WHICH END YOU     
 USE THE MOST...                             
                                             
 IT'S A CASE OF HEADS YOU WIN TAILS YOU LOSE.
          SOURCE UNKNOWN(IT'S JUST AS WELL.) 
 Job cpu time:       0 days  0 hours 58 minutes 37.3 seconds.
 Elapsed time:       0 days  0 hours 11 minutes 26.5 seconds.
 File lengths (MBytes):  RWF=    274 Int=      0 D2E=      0 Chk=     11 Scr=      1
 Normal termination of Gaussian 16 at Sat Jan  6 02:09:28 2024.
