 Entering Gaussian System, Link 0=g16
 Input=202-an-PCM.com
 Output=202-an-PCM.log
 Initial command:
 /sysapps/ubuntu-applications/gaussian/Gaussian/AVX2/g16/l1.exe "/scratch/selhajj1/4293280/Gau-956308.inp" -scrdir="/scratch/selhajj1/4293280/"
 Entering Link 1 = /sysapps/ubuntu-applications/gaussian/Gaussian/AVX2/g16/l1.exe PID=    956315.
  
 Copyright (c) 1988,1990,1992,1993,1995,1998,2003,2009,2016,
            Gaussian, Inc.  All Rights Reserved.
  
 This is part of the Gaussian(R) 16 program.  It is based on
 the Gaussian(R) 09 system (copyright 2009, Gaussian, Inc.),
 the Gaussian(R) 03 system (copyright 2003, Gaussian, Inc.),
 the Gaussian(R) 98 system (copyright 1998, Gaussian, Inc.),
 the Gaussian(R) 94 system (copyright 1995, Gaussian, Inc.),
 the Gaussian 92(TM) system (copyright 1992, Gaussian, Inc.),
 the Gaussian 90(TM) system (copyright 1990, Gaussian, Inc.),
 the Gaussian 88(TM) system (copyright 1988, Gaussian, Inc.),
 the Gaussian 86(TM) system (copyright 1986, Carnegie Mellon
 University), and the Gaussian 82(TM) system (copyright 1983,
 Carnegie Mellon University). Gaussian is a federally registered
 trademark of Gaussian, Inc.
  
 This software contains proprietary and confidential information,
 including trade secrets, belonging to Gaussian, Inc.
  
 This software is provided under written license and may be
 used, copied, transmitted, or stored only in accord with that
 written license.
  
 The following legend is applicable only to US Government
 contracts under FAR:
  
                    RESTRICTED RIGHTS LEGEND
  
 Use, reproduction and disclosure by the US Government is
 subject to restrictions as set forth in subparagraphs (a)
 and (c) of the Commercial Computer Software - Restricted
 Rights clause in FAR 52.227-19.
  
 Gaussian, Inc.
 340 Quinnipiac St., Bldg. 40, Wallingford CT 06492
  
  
 ---------------------------------------------------------------
 Warning -- This program may not be used in any manner that
 competes with the business of Gaussian, Inc. or will provide
 assistance to any competitor of Gaussian, Inc.  The licensee
 of this program is prohibited from giving any competitor of
 Gaussian, Inc. access to this program.  By using this program,
 the user acknowledges that Gaussian, Inc. is engaged in the
 business of creating and licensing software in the field of
 computational chemistry and represents and warrants to the
 licensee that it is not a competitor of Gaussian, Inc. and that
 it will not use this program in any manner prohibited above.
 ---------------------------------------------------------------
  

 Cite this work as:
 Gaussian 16, Revision A.03,
 M. J. Frisch, G. W. Trucks, H. B. Schlegel, G. E. Scuseria, 
 M. A. Robb, J. R. Cheeseman, G. Scalmani, V. Barone, 
 G. A. Petersson, H. Nakatsuji, X. Li, M. Caricato, A. V. Marenich, 
 J. Bloino, B. G. Janesko, R. Gomperts, B. Mennucci, H. P. Hratchian, 
 J. V. Ortiz, A. F. Izmaylov, J. L. Sonnenberg, D. Williams-Young, 
 F. Ding, F. Lipparini, F. Egidi, J. Goings, B. Peng, A. Petrone, 
 T. Henderson, D. Ranasinghe, V. G. Zakrzewski, J. Gao, N. Rega, 
 G. Zheng, W. Liang, M. Hada, M. Ehara, K. Toyota, R. Fukuda, 
 J. Hasegawa, M. Ishida, T. Nakajima, Y. Honda, O. Kitao, H. Nakai, 
 T. Vreven, K. Throssell, J. A. Montgomery, Jr., J. E. Peralta, 
 F. Ogliaro, M. J. Bearpark, J. J. Heyd, E. N. Brothers, K. N. Kudin, 
 V. N. Staroverov, T. A. Keith, R. Kobayashi, J. Normand, 
 K. Raghavachari, A. P. Rendell, J. C. Burant, S. S. Iyengar, 
 J. Tomasi, M. Cossi, J. M. Millam, M. Klene, C. Adamo, R. Cammi, 
 J. W. Ochterski, R. L. Martin, K. Morokuma, O. Farkas, 
 J. B. Foresman, and D. J. Fox, Gaussian, Inc., Wallingford CT, 2016.
 
 ******************************************
 Gaussian 16:  ES64L-G16RevA.03 25-Dec-2016
                16-Jan-2024 
 ******************************************
 %chk=202-an-PCM.chk
 %nproc=8
 Will use up to    8 processors via shared memory.
 %mem=30GB
 ----------------------------------------------------------------
 #P UB3LYP/6-311++G(d,p) SCRF=(PCM,Solvent=n,n-DiMethylFormamide)
 ----------------------------------------------------------------
 1/38=1,172=1/1;
 2/12=2,17=6,18=5,40=1/2;
 3/5=4,6=6,7=1111,11=2,25=1,30=1,70=2201,72=148,74=-5,116=2/1,2,3;
 4//1;
 5/5=2,38=5,53=148/2;
 6/7=2,8=2,9=2,10=2,28=1/1;
 99/5=1,9=1/99;
 Leave Link    1 at Tue Jan 16 06:19:59 2024, MaxMem=  4026531840 cpu:               0.5 elap:               0.1
 (Enter /sysapps/ubuntu-applications/gaussian/Gaussian/AVX2/g16/l101.exe)
 -------
 Reduced
 -------
 Symbolic Z-matrix:
 Charge = -2 Multiplicity = 1
 O                     4.893     0.88891  -0.72181 
 C                     3.62979   0.30907  -0.51711 
 C                     3.52045  -1.10561  -0.43744 
 C                     2.26983  -1.66249  -0.22015 
 C                     1.10575  -0.88484  -0.10621 
 C                    -0.17877  -1.5554    0.10732 
 O                    -0.23582  -2.81566   0.19455 
 C                    -1.34436  -0.67262   0.21041 
 C                    -2.66509  -1.18209   0.41491 
 O                    -2.89005  -2.56046   0.51962 
 C                    -3.74519  -0.33005   0.51315 
 C                    -3.60416   1.07278   0.41219 
 C                    -2.35602   1.66851   0.21108 
 O                    -2.21066   2.96742   0.11738 
 C                    -1.19389   0.76948   0.10747 
 C                     0.08574   1.35102  -0.10167 
 O                     0.22821   2.71508  -0.20288 
 C                     1.22631   0.54999  -0.20801 
 C                     2.5325    1.11542  -0.39974 
 H                     5.54327   0.26291  -0.38019 
 H                     4.4001   -1.73001  -0.58381 
 H                     2.14151  -2.73797  -0.14838 
 H                    -3.84709  -2.64878   0.58245 
 H                    -4.73783  -0.75763   0.67615 
 H                    -4.47121   1.72332   0.49253 
 H                    -0.73268   3.05711  -0.09022 
 H                     2.63634   2.19259  -0.44162 
 
 ITRead=  0  0  0  0  0  0  0  0  0  0  0  0  0  0  0  0  0  0  0  0
 ITRead=  0  0  0  0  0  0  0
 MicOpt= -1 -1 -1 -1 -1 -1 -1 -1 -1 -1 -1 -1 -1 -1 -1 -1 -1 -1 -1 -1
 MicOpt= -1 -1 -1 -1 -1 -1 -1
 NAtoms=     27 NQM=       27 NQMF=       0 NMMI=      0 NMMIF=      0
                NMic=       0 NMicF=      0.
                    Isotopes and Nuclear Properties:
 (Nuclear quadrupole moments (NQMom) in fm**2, nuclear magnetic moments (NMagM)
  in nuclear magnetons)

  Atom         1           2           3           4           5           6           7           8           9          10
 IAtWgt=          16          12          12          12          12          12          16          12          12          16
 AtmWgt=  15.9949146  12.0000000  12.0000000  12.0000000  12.0000000  12.0000000  15.9949146  12.0000000  12.0000000  15.9949146
 NucSpn=           0           0           0           0           0           0           0           0           0           0
 AtZEff=  -0.0000000  -0.0000000  -0.0000000  -0.0000000  -0.0000000  -0.0000000  -0.0000000  -0.0000000  -0.0000000  -0.0000000
 NQMom=    0.0000000   0.0000000   0.0000000   0.0000000   0.0000000   0.0000000   0.0000000   0.0000000   0.0000000   0.0000000
 NMagM=    0.0000000   0.0000000   0.0000000   0.0000000   0.0000000   0.0000000   0.0000000   0.0000000   0.0000000   0.0000000
 AtZNuc=   8.0000000   6.0000000   6.0000000   6.0000000   6.0000000   6.0000000   8.0000000   6.0000000   6.0000000   8.0000000

  Atom        11          12          13          14          15          16          17          18          19          20
 IAtWgt=          12          12          12          16          12          12          16          12          12           1
 AtmWgt=  12.0000000  12.0000000  12.0000000  15.9949146  12.0000000  12.0000000  15.9949146  12.0000000  12.0000000   1.0078250
 NucSpn=           0           0           0           0           0           0           0           0           0           1
 AtZEff=  -0.0000000  -0.0000000  -0.0000000  -0.0000000  -0.0000000  -0.0000000  -0.0000000  -0.0000000  -0.0000000  -0.0000000
 NQMom=    0.0000000   0.0000000   0.0000000   0.0000000   0.0000000   0.0000000   0.0000000   0.0000000   0.0000000   0.0000000
 NMagM=    0.0000000   0.0000000   0.0000000   0.0000000   0.0000000   0.0000000   0.0000000   0.0000000   0.0000000   2.7928460
 AtZNuc=   6.0000000   6.0000000   6.0000000   8.0000000   6.0000000   6.0000000   8.0000000   6.0000000   6.0000000   1.0000000

  Atom        21          22          23          24          25          26          27
 IAtWgt=           1           1           1           1           1           1           1
 AtmWgt=   1.0078250   1.0078250   1.0078250   1.0078250   1.0078250   1.0078250   1.0078250
 NucSpn=           1           1           1           1           1           1           1
 AtZEff=  -0.0000000  -0.0000000  -0.0000000  -0.0000000  -0.0000000  -0.0000000  -0.0000000
 NQMom=    0.0000000   0.0000000   0.0000000   0.0000000   0.0000000   0.0000000   0.0000000
 NMagM=    2.7928460   2.7928460   2.7928460   2.7928460   2.7928460   2.7928460   2.7928460
 AtZNuc=   1.0000000   1.0000000   1.0000000   1.0000000   1.0000000   1.0000000   1.0000000
 Leave Link  101 at Tue Jan 16 06:19:59 2024, MaxMem=  4026531840 cpu:               1.2 elap:               0.2
 (Enter /sysapps/ubuntu-applications/gaussian/Gaussian/AVX2/g16/l202.exe)
                          Input orientation:                          
 ---------------------------------------------------------------------
 Center     Atomic      Atomic             Coordinates (Angstroms)
 Number     Number       Type             X           Y           Z
 ---------------------------------------------------------------------
      1          8           0        4.893003    0.888911   -0.721810
      2          6           0        3.629789    0.309065   -0.517108
      3          6           0        3.520446   -1.105614   -0.437438
      4          6           0        2.269834   -1.662487   -0.220147
      5          6           0        1.105754   -0.884835   -0.106211
      6          6           0       -0.178771   -1.555402    0.107316
      7          8           0       -0.235823   -2.815660    0.194554
      8          6           0       -1.344361   -0.672622    0.210409
      9          6           0       -2.665086   -1.182085    0.414913
     10          8           0       -2.890051   -2.560460    0.519621
     11          6           0       -3.745186   -0.330046    0.513153
     12          6           0       -3.604159    1.072775    0.412188
     13          6           0       -2.356019    1.668507    0.211080
     14          8           0       -2.210659    2.967417    0.117383
     15          6           0       -1.193887    0.769476    0.107473
     16          6           0        0.085742    1.351022   -0.101667
     17          8           0        0.228213    2.715079   -0.202877
     18          6           0        1.226306    0.549992   -0.208011
     19          6           0        2.532504    1.115416   -0.399741
     20          1           0        5.543270    0.262913   -0.380188
     21          1           0        4.400095   -1.730005   -0.583807
     22          1           0        2.141511   -2.737968   -0.148375
     23          1           0       -3.847089   -2.648780    0.582447
     24          1           0       -4.737826   -0.757628    0.676153
     25          1           0       -4.471214    1.723323    0.492527
     26          1           0       -0.732675    3.057108   -0.090220
     27          1           0        2.636340    2.192589   -0.441618
 ---------------------------------------------------------------------
                    Distance matrix (angstroms):
                    1          2          3          4          5
     1  O    0.000000
     2  C    1.404932   0.000000
     3  C    2.437808   1.421133   0.000000
     4  C    3.693550   2.413438   1.386129   0.000000
     5  C    4.227102   2.822231   2.447283   1.404566   0.000000
     6  C    5.690783   4.286172   3.766069   2.472724   1.464670
     7  O    6.392842   5.021287   4.175312   2.789283   2.370311
     8  C    6.497086   5.122027   4.926818   3.771951   2.479586
     9  C    7.918704   6.535874   6.244450   4.998752   3.818267
    10  O    8.603211   7.198423   6.642816   5.289426   4.377881
    11  C    8.810749   7.473965   7.368483   6.204321   4.921689
    12  C    8.574469   7.333270   7.498482   6.510399   5.126817
    13  C    7.350264   6.181281   6.530633   5.716642   4.313247
    14  O    7.448922   6.448275   7.052870   6.451725   5.088068
    15  C    6.144282   4.885686   5.102727   4.244896   2.840907
    16  C    4.869074   3.717329   4.236153   3.723645   2.457540
    17  O    5.036313   4.178321   5.048912   4.830279   3.706589
    18  C    3.718000   2.435224   2.838441   2.446255   1.443477
    19  C    2.393113   1.366752   2.431137   2.796068   2.474425
    20  H    0.965104   1.918929   2.442941   3.801074   4.591725
    21  H    2.668469   2.180740   1.088609   2.162133   3.434398
    22  H    4.588441   3.411062   2.156293   1.085485   2.123363
    23  H    9.518695   8.115514   7.596190   6.247694   5.302491
    24  H    9.870069   8.519313   8.340278   7.122459   5.897093
    25  H    9.479421   8.285272   8.528444   7.577159   6.185754
    26  H    6.062032   5.173496   5.961363   5.595223   4.349597
    27  H    2.621185   2.130799   3.414646   3.878787   3.453365
                    6          7          8          9         10
     6  C    0.000000
     7  O    1.264561   0.000000
     8  C    1.465786   2.412824   0.000000
     9  C    2.532932   2.935719   1.430276   0.000000
    10  O    2.920818   2.686210   2.459411   1.400532   0.000000
    11  C    3.792824   4.312240   2.443967   1.379216   2.388733
    12  C    4.328226   5.149076   2.862484   2.442593   3.704307
    13  C    3.891628   4.960167   2.550360   2.874534   4.273704
    14  O    4.958282   6.111457   3.742861   4.184901   5.583976
    15  C    2.536832   3.711963   1.453577   2.463237   3.759696
    16  C    2.925909   4.189557   2.497543   3.774989   4.953891
    17  O    4.301031   5.564383   3.757700   4.892927   6.170647
    18  C    2.550756   3.691543   2.877184   4.304771   5.210447
    19  C    3.839451   4.844603   4.312707   5.740829   6.615239
    20  H    6.023760   6.573116   6.975922   8.372414   8.938792
    21  H    4.634021   4.824544   5.894711   7.156427   7.419800
    22  H    2.616782   2.403196   4.067639   5.083448   5.078813
    23  H    3.857173   3.635870   3.210492   1.891135   0.963156
    24  H    4.663154   4.973476   3.426332   2.131821   2.586306
    25  H    5.415117   6.215279   3.949348   3.421917   4.566356
    26  H    4.649847   5.900624   3.791494   4.686164   6.048409
    27  H    4.719493   5.808321   4.947783   6.342491   7.352309
                   11         12         13         14         15
    11  C    0.000000
    12  C    1.413502   0.000000
    13  C    2.452600   1.397567   0.000000
    14  O    3.658506   2.370321   1.310372   0.000000
    15  C    2.807606   2.448316   1.472937   2.421749   0.000000
    16  C    4.228475   3.735885   2.482097   2.816766   1.421051
    17  O    5.057013   4.214563   2.818675   2.472719   2.429826
    18  C    5.100027   4.898096   3.776210   4.214564   2.450518
    19  C    6.506314   6.190289   4.957486   5.118097   3.776630
    20  H    9.350138   9.217331   8.045126   8.227110   6.773751
    21  H    8.337194   8.539067   7.604394   8.139994   6.165866
    22  H    6.394444   6.917277   6.306664   7.180768   4.846906
    23  H    2.322006   3.733360   4.582594   5.868207   4.353109
    24  H    1.093037   2.169160   3.431534   4.535941   3.900634
    25  H    2.178042   1.086946   2.134541   2.607415   3.434962
    26  H    4.572974   3.526388   2.157369   1.495186   2.342020
    27  H    6.928142   6.397405   5.062048   4.940267   4.122789
                   16         17         18         19         20
    16  C    0.000000
    17  O    1.375207   0.000000
    18  C    1.397800   2.384076   0.000000
    19  C    2.476086   2.812016   1.436182   0.000000
    20  H    5.571909   5.856141   4.329923   3.129194   0.000000
    21  H    5.323423   6.108067   3.925882   3.408548   2.306519
    22  H    4.576921   5.779222   3.413479   3.881318   4.542135
    23  H    5.650981   6.782021   6.049488   7.472153   9.878434
    24  H    5.321486   6.123229   6.169480   7.584427  10.385485
    25  H    4.610588   4.853018   5.859112   7.086449  10.157968
    26  H    1.892265   1.026149   3.183883   3.811478   6.875979
    27  H    2.707278   2.475696   2.177359   1.082976   3.489651
                   21         22         23         24         25
    21  H    0.000000
    22  H    2.511333   0.000000
    23  H    8.379758   6.033688   0.000000
    24  H    9.275485   7.206030   2.092522   0.000000
    25  H    9.580401   8.002625   4.417341   2.501983   0.000000
    26  H    7.036008   6.468944   6.535229   5.583975   4.011889
    27  H    4.303231   4.963994   8.156127   8.020693   7.184021
                   26         27
    26  H    0.000000
    27  H    3.495874   0.000000
 Stoichiometry    C14H8O5(2-)
 Framework group  C1[X(C14H8O5)]
 Deg. of freedom    75
 Full point group                 C1      NOp   1
 Largest Abelian subgroup         C1      NOp   1
 Largest concise Abelian subgroup C1      NOp   1
                         Standard orientation:                         
 ---------------------------------------------------------------------
 Center     Atomic      Atomic             Coordinates (Angstroms)
 Number     Number       Type             X           Y           Z
 ---------------------------------------------------------------------
      1          8           0        4.998117    0.754326   -0.015996
      2          6           0        3.708194    0.197630   -0.011161
      3          6           0        3.562554   -1.215947   -0.025573
      4          6           0        2.283891   -1.750704   -0.005345
      5          6           0        1.129877   -0.950051   -0.001611
      6          6           0       -0.184048   -1.597221    0.004105
      7          8           0       -0.275947   -2.858410    0.012650
      8          6           0       -1.336137   -0.691011    0.002776
      9          6           0       -2.681699   -1.175935    0.003811
     10          8           0       -2.944550   -2.551578    0.001068
     11          6           0       -3.749004   -0.302386    0.007159
     12          6           0       -3.569372    1.099652    0.003980
     13          6           0       -2.294563    1.672410    0.001615
     14          8           0       -2.113563    2.970220    0.000398
     15          6           0       -1.146140    0.750094    0.001075
     16          6           0        0.160669    1.308293   -0.005907
     17          8           0        0.341031    2.671610   -0.011303
     18          6           0        1.289932    0.484516   -0.006512
     19          6           0        2.620466    1.025008    0.006318
     20          1           0        5.585569    0.094401    0.372366
     21          1           0        4.441868   -1.854471   -0.090104
     22          1           0        2.126897   -2.824760   -0.011130
     23          1           0       -3.902992   -2.618094   -0.067003
     24          1           0       -4.762384   -0.711939    0.014646
     25          1           0       -4.426983    1.767447    0.006262
     26          1           0       -0.619677    3.032163   -0.006538
     27          1           0        2.749273    2.099813    0.038581
 ---------------------------------------------------------------------
 Rotational constants (GHZ):           0.6776416           0.2902240           0.2032258
 Leave Link  202 at Tue Jan 16 06:19:59 2024, MaxMem=  4026531840 cpu:               0.2 elap:               0.1
 (Enter /sysapps/ubuntu-applications/gaussian/Gaussian/AVX2/g16/l301.exe)
 Standard basis: 6-311++G(d,p) (5D, 7F)
 Ernie: Thresh=  0.10000D-02 Tol=  0.10000D-05 Strict=F.
 There are   493 symmetry adapted cartesian basis functions of A   symmetry.
 There are   474 symmetry adapted basis functions of A   symmetry.
   474 basis functions,   756 primitive gaussians,   493 cartesian basis functions
    67 alpha electrons       67 beta electrons
       nuclear repulsion energy      1348.2930101904 Hartrees.
 IExCor=  402 DFT=T Ex+Corr=B3LYP ExCW=0 ScaHFX=  0.200000
 ScaDFX=  0.800000  0.720000  1.000000  0.810000 ScalE2=  1.000000  1.000000
 IRadAn=      5 IRanWt=     -1 IRanGd=            0 ICorTp=0 IEmpDi=  4
 NAtoms=   27 NActive=   27 NUniq=   27 SFac= 1.00D+00 NAtFMM=   60 NAOKFM=F Big=F
 Integral buffers will be    131072 words long.
 Raffenetti 2 integral format.
 Two-electron integral symmetry is turned on.
 ------------------------------------------------------------------------------
 Polarizable Continuum Model (PCM)
 =================================
 Model                : PCM.
 Atomic radii         : UFF (Universal Force Field).
 Polarization charges : Total charges.
 Charge compensation  : None.
 Solution method      : On-the-fly selection.
 Cavity type          : Scaled VdW (van der Waals Surface) (Alpha=1.100).
 Cavity algorithm     : GePol (No added spheres)
                        Default sphere list used, NSphG=   27.
                        Lebedev-Laikov grids with approx.  5.0 points / Ang**2.
                        Smoothing algorithm: York/Karplus (Gamma=1.0000).
                        Polarization charges: spherical gaussians, with
                                              point-specific exponents (IZeta= 3).
                        Self-potential: point-specific (ISelfS= 7).
                        Self-field    : sphere-specific E.n sum rule (ISelfD= 2).
 Solvent              : n,n-DiMethylFormamide, Eps=  37.219000 Eps(inf)=   2.046330
 ------------------------------------------------------------------------------
 GePol: Number of generator spheres                  =      27
 GePol: Total number of spheres                      =      27
 GePol: Number of exposed spheres                    =      27 (100.00%)
 GePol: Number of points                             =    2242
 GePol: Average weight of points                     =       0.13
 GePol: Minimum weight of points                     =   0.12D-08
 GePol: Maximum weight of points                     =    0.20577
 GePol: Number of points with low weight             =     134
 GePol: Fraction of low-weight points (<1% of avg)   =       5.98%
 GePol: Cavity surface area                          =    282.611 Ang**2
 GePol: Cavity volume                                =    311.176 Ang**3
 Leave Link  301 at Tue Jan 16 06:19:59 2024, MaxMem=  4026531840 cpu:               0.6 elap:               0.1
 (Enter /sysapps/ubuntu-applications/gaussian/Gaussian/AVX2/g16/l302.exe)
 NPDir=0 NMtPBC=     1 NCelOv=     1 NCel=       1 NClECP=     1 NCelD=      1
         NCelK=      1 NCelE2=     1 NClLst=     1 CellRange=     0.0.
 One-electron integrals computed using PRISM.
 One-electron integral symmetry used in STVInt
 NBasis=   474 RedAO= T EigKep=  1.30D-06  NBF=   474
 NBsUse=   467 1.00D-06 EigRej=  9.09D-07 NBFU=   467
 Precomputing XC quadrature grid using
 IXCGrd= 4 IRadAn=           5 IRanWt=          -1 IRanGd=           0 AccXCQ= 0.00D+00.
 Generated NRdTot=       0 NPtTot=           0 NUsed=           0 NTot=          32
 NSgBfM=   490   490   490   490   490 MxSgAt=    27 MxSgA2=    27.
 Leave Link  302 at Tue Jan 16 06:20:00 2024, MaxMem=  4026531840 cpu:               6.1 elap:               1.0
 (Enter /sysapps/ubuntu-applications/gaussian/Gaussian/AVX2/g16/l303.exe)
 DipDrv:  MaxL=1.
 Leave Link  303 at Tue Jan 16 06:20:00 2024, MaxMem=  4026531840 cpu:               0.7 elap:               0.2
 (Enter /sysapps/ubuntu-applications/gaussian/Gaussian/AVX2/g16/l401.exe)
 ExpMin= 3.60D-02 ExpMax= 8.59D+03 ExpMxC= 1.30D+03 IAcc=3 IRadAn=         5 AccDes= 0.00D+00
 Harris functional with IExCor=  402 and IRadAn=       5 diagonalized for initial guess.
 HarFok:  IExCor=  402 AccDes= 0.00D+00 IRadAn=         5 IDoV= 1 UseB2=F ITyADJ=14
 ICtDFT=  3500011 ScaDFX=  1.000000  1.000000  1.000000  1.000000
 FoFCou: FMM=F IPFlag=           0 FMFlag=      100000 FMFlg1=           0
         NFxFlg=           0 DoJE=T BraDBF=F KetDBF=T FulRan=T
         wScrn=  0.000000 ICntrl=       500 IOpCl=  0 I1Cent=   200000004 NGrid=           0
         NMat0=    1 NMatS0=      1 NMatT0=    0 NMatD0=    1 NMtDS0=    0 NMtDT0=    0
 Petite list used in FoFCou.
 Harris En= -915.149747114346    
 JPrj=0 DoOrth=F DoCkMO=F.
 Initial guess <Sx>= 0.0000 <Sy>= 0.0000 <Sz>= 0.0000 <S**2>=-0.0000 S=-0.0000
 Leave Link  401 at Tue Jan 16 06:20:02 2024, MaxMem=  4026531840 cpu:              14.3 elap:               1.9
 (Enter /sysapps/ubuntu-applications/gaussian/Gaussian/AVX2/g16/l502.exe)
 Integral symmetry usage will be decided dynamically.
 UHF open shell SCF:
 Using DIIS extrapolation, IDIIS=  1040.
 NGot=  4026531840 LenX=  4026037257 LenY=  4025793715
 Requested convergence on RMS density matrix=1.00D-08 within 128 cycles.
 Requested convergence on MAX density matrix=1.00D-06.
 Requested convergence on             energy=1.00D-06.
 No special actions if energy rises.
 Fock matrices will be formed incrementally for  20 cycles.

 Cycle   1  Pass 1  IDiag  1:
 FoFJK:  IHMeth= 1 ICntrl=       0 DoSepK=F KAlg= 0 I1Cent=           0 FoldK=F
 IRaf= 850000000 NMat=       1 IRICut=       1 DoRegI=T DoRafI=F ISym2E= 0 IDoP0=0 IntGTp=1.
 FoFCou: FMM=F IPFlag=           0 FMFlag=      100000 FMFlg1=           0
         NFxFlg=           0 DoJE=F BraDBF=F KetDBF=F FulRan=T
         wScrn=  0.000000 ICntrl=         0 IOpCl=  1 I1Cent=           0 NGrid=           0
         NMat0=    1 NMatS0=      1 NMatT0=    0 NMatD0=    1 NMtDS0=    0 NMtDT0=    0
 Symmetry not used in FoFCou.
 Inv3:  Mode=1 IEnd=    15079692.
 Iteration    1 A*A^-1 deviation from unit magnitude is 2.89D-15 for    986.
 Iteration    1 A*A^-1 deviation from orthogonality  is 2.36D-15 for   1133    447.
 Iteration    1 A^-1*A deviation from unit magnitude is 2.89D-15 for    765.
 Iteration    1 A^-1*A deviation from orthogonality  is 2.76D-15 for   1355    592.
 E= -914.395708564998    
 DIIS: error= 3.80D-02 at cycle   1 NSaved=   1.
 NSaved= 1 IEnMin= 1 EnMin= -914.395708564998     IErMin= 1 ErrMin= 3.80D-02
 ErrMax= 3.80D-02  0.00D+00 EMaxC= 1.00D-01 BMatC= 2.73D+00 BMatP= 2.73D+00
 IDIUse=3 WtCom= 6.20D-01 WtEn= 3.80D-01
 Coeff-Com:  0.100D+01
 Coeff-En:   0.100D+01
 Coeff:      0.100D+01
 Gap=     0.085 Goal=   None    Shift=    0.000
 Gap=     0.085 Goal=   None    Shift=    0.000
 GapD=    0.085 DampG=0.500 DampE=0.500 DampFc=0.2500 IDamp=-1.
 Damping current iteration by 2.50D-01
 RMSDP=9.80D-02 MaxDP=6.20D+00              OVMax= 3.23D-01

 Cycle   2  Pass 1  IDiag  1:
 RMSU=  2.38D-02    CP:  1.10D+00
 E= -914.587166610191     Delta-E=       -0.191458045193 Rises=F Damp=T
 DIIS: error= 1.77D-02 at cycle   2 NSaved=   2.
 NSaved= 2 IEnMin= 2 EnMin= -914.587166610191     IErMin= 2 ErrMin= 1.77D-02
 ErrMax= 1.77D-02  0.00D+00 EMaxC= 1.00D-01 BMatC= 5.92D-01 BMatP= 2.73D+00
 IDIUse=3 WtCom= 8.23D-01 WtEn= 1.77D-01
 Coeff-Com: -0.662D+00 0.166D+01
 Coeff-En:   0.000D+00 0.100D+01
 Coeff:     -0.545D+00 0.154D+01
 Gap=     0.103 Goal=   None    Shift=    0.000
 Gap=     0.103 Goal=   None    Shift=    0.000
 RMSDP=2.51D-02 MaxDP=1.98D+00 DE=-1.91D-01 OVMax= 2.19D-01

 Cycle   3  Pass 1  IDiag  1:
 RMSU=  8.73D-03    CP:  8.56D-01  2.32D-01
 E= -914.886599259943     Delta-E=       -0.299432649752 Rises=F Damp=F
 DIIS: error= 1.50D-02 at cycle   3 NSaved=   3.
 NSaved= 3 IEnMin= 3 EnMin= -914.886599259943     IErMin= 3 ErrMin= 1.50D-02
 ErrMax= 1.50D-02  0.00D+00 EMaxC= 1.00D-01 BMatC= 2.86D-01 BMatP= 5.92D-01
 IDIUse=3 WtCom= 8.50D-01 WtEn= 1.50D-01
 Coeff-Com: -0.432D+00 0.980D+00 0.452D+00
 Coeff-En:   0.000D+00 0.000D+00 0.100D+01
 Coeff:     -0.367D+00 0.833D+00 0.534D+00
 Gap=     0.094 Goal=   None    Shift=    0.000
 Gap=     0.094 Goal=   None    Shift=    0.000
 RMSDP=4.65D-03 MaxDP=4.51D-01 DE=-2.99D-01 OVMax= 1.23D-01

 Cycle   4  Pass 1  IDiag  1:
 RMSU=  4.05D-03    CP:  8.55D-01  2.78D-01  7.69D-01
 E= -914.933465153558     Delta-E=       -0.046865893615 Rises=F Damp=F
 DIIS: error= 6.93D-03 at cycle   4 NSaved=   4.
 NSaved= 4 IEnMin= 4 EnMin= -914.933465153558     IErMin= 4 ErrMin= 6.93D-03
 ErrMax= 6.93D-03  0.00D+00 EMaxC= 1.00D-01 BMatC= 7.10D-02 BMatP= 2.86D-01
 IDIUse=3 WtCom= 9.31D-01 WtEn= 6.93D-02
 Coeff-Com: -0.116D+00 0.245D+00 0.340D+00 0.531D+00
 Coeff-En:   0.000D+00 0.000D+00 0.235D+00 0.765D+00
 Coeff:     -0.108D+00 0.228D+00 0.333D+00 0.547D+00
 Gap=     0.091 Goal=   None    Shift=    0.000
 Gap=     0.091 Goal=   None    Shift=    0.000
 RMSDP=3.37D-03 MaxDP=2.22D-01 DE=-4.69D-02 OVMax= 5.46D-02

 Cycle   5  Pass 1  IDiag  1:
 RMSU=  1.20D-03    CP:  8.21D-01  2.15D-01  8.57D-01  6.01D-01
 E= -914.947824450818     Delta-E=       -0.014359297261 Rises=F Damp=F
 DIIS: error= 1.29D-03 at cycle   5 NSaved=   5.
 NSaved= 5 IEnMin= 5 EnMin= -914.947824450818     IErMin= 5 ErrMin= 1.29D-03
 ErrMax= 1.29D-03  0.00D+00 EMaxC= 1.00D-01 BMatC= 3.62D-03 BMatP= 7.10D-02
 IDIUse=3 WtCom= 9.87D-01 WtEn= 1.29D-02
 Coeff-Com: -0.295D-01 0.541D-01 0.144D+00 0.312D+00 0.519D+00
 Coeff-En:   0.000D+00 0.000D+00 0.000D+00 0.000D+00 0.100D+01
 Coeff:     -0.291D-01 0.534D-01 0.142D+00 0.308D+00 0.525D+00
 Gap=     0.092 Goal=   None    Shift=    0.000
 Gap=     0.092 Goal=   None    Shift=    0.000
 RMSDP=8.82D-04 MaxDP=6.11D-02 DE=-1.44D-02 OVMax= 1.86D-02

 Cycle   6  Pass 1  IDiag  1:
 RMSU=  5.06D-04    CP:  8.11D-01  2.11D-01  8.64D-01  6.07D-01  1.28D+00
 E= -914.948587431802     Delta-E=       -0.000762980984 Rises=F Damp=F
 DIIS: error= 4.77D-04 at cycle   6 NSaved=   6.
 NSaved= 6 IEnMin= 6 EnMin= -914.948587431802     IErMin= 6 ErrMin= 4.77D-04
 ErrMax= 4.77D-04  0.00D+00 EMaxC= 1.00D-01 BMatC= 3.75D-04 BMatP= 3.62D-03
 IDIUse=3 WtCom= 9.95D-01 WtEn= 4.77D-03
 Coeff-Com: -0.483D-02 0.520D-02 0.355D-01 0.993D-01 0.300D+00 0.565D+00
 Coeff-En:   0.000D+00 0.000D+00 0.000D+00 0.000D+00 0.498D-01 0.950D+00
 Coeff:     -0.480D-02 0.518D-02 0.353D-01 0.988D-01 0.298D+00 0.567D+00
 Gap=     0.092 Goal=   None    Shift=    0.000
 Gap=     0.092 Goal=   None    Shift=    0.000
 RMSDP=2.00D-04 MaxDP=8.98D-03 DE=-7.63D-04 OVMax= 6.25D-03

 Cycle   7  Pass 1  IDiag  1:
 RMSU=  1.51D-04    CP:  8.10D-01  2.07D-01  8.63D-01  5.95D-01  1.30D+00
                    CP:  9.11D-01
 E= -914.948659382198     Delta-E=       -0.000071950395 Rises=F Damp=F
 DIIS: error= 1.96D-04 at cycle   7 NSaved=   7.
 NSaved= 7 IEnMin= 7 EnMin= -914.948659382198     IErMin= 7 ErrMin= 1.96D-04
 ErrMax= 1.96D-04  0.00D+00 EMaxC= 1.00D-01 BMatC= 6.90D-05 BMatP= 3.75D-04
 IDIUse=3 WtCom= 9.98D-01 WtEn= 1.96D-03
 Coeff-Com: -0.395D-03-0.116D-02 0.671D-02 0.268D-01 0.135D+00 0.360D+00
 Coeff-Com:  0.473D+00
 Coeff-En:   0.000D+00 0.000D+00 0.000D+00 0.000D+00 0.000D+00 0.134D+00
 Coeff-En:   0.866D+00
 Coeff:     -0.394D-03-0.116D-02 0.669D-02 0.268D-01 0.134D+00 0.360D+00
 Coeff:      0.474D+00
 Gap=     0.092 Goal=   None    Shift=    0.000
 Gap=     0.092 Goal=   None    Shift=    0.000
 RMSDP=7.95D-05 MaxDP=4.74D-03 DE=-7.20D-05 OVMax= 2.55D-03

 Cycle   8  Pass 1  IDiag  1:
 RMSU=  5.59D-05    CP:  8.10D-01  2.05D-01  8.63D-01  5.94D-01  1.32D+00
                    CP:  9.56D-01  9.68D-01
 E= -914.948675106102     Delta-E=       -0.000015723905 Rises=F Damp=F
 DIIS: error= 5.02D-05 at cycle   8 NSaved=   8.
 NSaved= 8 IEnMin= 8 EnMin= -914.948675106102     IErMin= 8 ErrMin= 5.02D-05
 ErrMax= 5.02D-05  0.00D+00 EMaxC= 1.00D-01 BMatC= 3.80D-06 BMatP= 6.90D-05
 IDIUse=1 WtCom= 1.00D+00 WtEn= 0.00D+00
 Coeff-Com:  0.321D-03-0.111D-02 0.515D-03 0.505D-02 0.463D-01 0.132D+00
 Coeff-Com:  0.242D+00 0.575D+00
 Coeff:      0.321D-03-0.111D-02 0.515D-03 0.505D-02 0.463D-01 0.132D+00
 Coeff:      0.242D+00 0.575D+00
 Gap=     0.092 Goal=   None    Shift=    0.000
 Gap=     0.092 Goal=   None    Shift=    0.000
 RMSDP=2.49D-05 MaxDP=1.55D-03 DE=-1.57D-05 OVMax= 4.82D-04

 Cycle   9  Pass 1  IDiag  1:
 RMSU=  1.11D-05    CP:  8.10D-01  2.05D-01  8.62D-01  5.92D-01  1.33D+00
                    CP:  9.56D-01  9.95D-01  9.09D-01
 E= -914.948675798085     Delta-E=       -0.000000691982 Rises=F Damp=F
 DIIS: error= 2.45D-05 at cycle   9 NSaved=   9.
 NSaved= 9 IEnMin= 9 EnMin= -914.948675798085     IErMin= 9 ErrMin= 2.45D-05
 ErrMax= 2.45D-05  0.00D+00 EMaxC= 1.00D-01 BMatC= 9.64D-07 BMatP= 3.80D-06
 IDIUse=1 WtCom= 1.00D+00 WtEn= 0.00D+00
 Coeff-Com:  0.257D-03-0.433D-03-0.839D-03-0.177D-02 0.587D-02 0.167D-01
 Coeff-Com:  0.685D-01 0.369D+00 0.543D+00
 Coeff:      0.257D-03-0.433D-03-0.839D-03-0.177D-02 0.587D-02 0.167D-01
 Coeff:      0.685D-01 0.369D+00 0.543D+00
 Gap=     0.092 Goal=   None    Shift=    0.000
 Gap=     0.092 Goal=   None    Shift=    0.000
 RMSDP=1.58D-05 MaxDP=9.25D-04 DE=-6.92D-07 OVMax= 1.47D-04

 Cycle  10  Pass 1  IDiag  1:
 RMSU=  5.22D-06    CP:  8.10D-01  2.04D-01  8.62D-01  5.91D-01  1.33D+00
                    CP:  9.67D-01  1.01D+00  9.56D-01  1.01D+00
 E= -914.948675996161     Delta-E=       -0.000000198077 Rises=F Damp=F
 DIIS: error= 5.04D-06 at cycle  10 NSaved=  10.
 NSaved=10 IEnMin=10 EnMin= -914.948675996161     IErMin=10 ErrMin= 5.04D-06
 ErrMax= 5.04D-06  0.00D+00 EMaxC= 1.00D-01 BMatC= 3.74D-08 BMatP= 9.64D-07
 IDIUse=1 WtCom= 1.00D+00 WtEn= 0.00D+00
 Coeff-Com:  0.621D-04-0.841D-04-0.367D-03-0.101D-02 0.437D-03 0.166D-03
 Coeff-Com:  0.175D-01 0.125D+00 0.247D+00 0.612D+00
 Coeff:      0.621D-04-0.841D-04-0.367D-03-0.101D-02 0.437D-03 0.166D-03
 Coeff:      0.175D-01 0.125D+00 0.247D+00 0.612D+00
 Gap=     0.092 Goal=   None    Shift=    0.000
 Gap=     0.092 Goal=   None    Shift=    0.000
 RMSDP=3.88D-06 MaxDP=2.35D-04 DE=-1.98D-07 OVMax= 5.99D-05

 Cycle  11  Pass 1  IDiag  1:
 RMSU=  1.89D-06    CP:  8.10D-01  2.04D-01  8.62D-01  5.91D-01  1.33D+00
                    CP:  9.68D-01  1.02D+00  9.79D-01  9.99D-01  9.16D-01
 E= -914.948676001587     Delta-E=       -0.000000005426 Rises=F Damp=F
 DIIS: error= 1.90D-06 at cycle  11 NSaved=  11.
 NSaved=11 IEnMin=11 EnMin= -914.948676001587     IErMin=11 ErrMin= 1.90D-06
 ErrMax= 1.90D-06  0.00D+00 EMaxC= 1.00D-01 BMatC= 1.31D-08 BMatP= 3.74D-08
 IDIUse=1 WtCom= 1.00D+00 WtEn= 0.00D+00
 Coeff-Com: -0.150D-04 0.356D-04-0.123D-03-0.435D-03-0.888D-03-0.337D-02
 Coeff-Com: -0.438D-03 0.130D-01 0.665D-01 0.402D+00 0.524D+00
 Coeff:     -0.150D-04 0.356D-04-0.123D-03-0.435D-03-0.888D-03-0.337D-02
 Coeff:     -0.438D-03 0.130D-01 0.665D-01 0.402D+00 0.524D+00
 Gap=     0.092 Goal=   None    Shift=    0.000
 Gap=     0.092 Goal=   None    Shift=    0.000
 RMSDP=1.44D-06 MaxDP=1.04D-04 DE=-5.43D-09 OVMax= 1.31D-05

 Cycle  12  Pass 1  IDiag  1:
 RMSU=  4.67D-07    CP:  8.10D-01  2.04D-01  8.62D-01  5.90D-01  1.33D+00
                    CP:  9.69D-01  1.03D+00  9.81D-01  1.01D+00  9.69D-01
                    CP:  8.16D-01
 E= -914.948676004662     Delta-E=       -0.000000003075 Rises=F Damp=F
 DIIS: error= 3.37D-07 at cycle  12 NSaved=  12.
 NSaved=12 IEnMin=12 EnMin= -914.948676004662     IErMin=12 ErrMin= 3.37D-07
 ErrMax= 3.37D-07  0.00D+00 EMaxC= 1.00D-01 BMatC= 4.39D-10 BMatP= 1.31D-08
 IDIUse=1 WtCom= 1.00D+00 WtEn= 0.00D+00
 Coeff-Com: -0.184D-04 0.280D-04-0.511D-05-0.442D-04-0.318D-03-0.128D-02
 Coeff-Com: -0.157D-02-0.102D-01-0.346D-02 0.850D-01 0.169D+00 0.763D+00
 Coeff:     -0.184D-04 0.280D-04-0.511D-05-0.442D-04-0.318D-03-0.128D-02
 Coeff:     -0.157D-02-0.102D-01-0.346D-02 0.850D-01 0.169D+00 0.763D+00
 Gap=     0.092 Goal=   None    Shift=    0.000
 Gap=     0.092 Goal=   None    Shift=    0.000
 RMSDP=5.67D-07 MaxDP=3.64D-05 DE=-3.08D-09 OVMax= 1.19D-05

 Cycle  13  Pass 1  IDiag  1:
 RMSU=  1.77D-07    CP:  8.10D-01  2.04D-01  8.62D-01  5.90D-01  1.33D+00
                    CP:  9.69D-01  1.03D+00  9.81D-01  1.02D+00  9.93D-01
                    CP:  9.05D-01  9.88D-01
 E= -914.948676004738     Delta-E=       -0.000000000075 Rises=F Damp=F
 DIIS: error= 2.49D-07 at cycle  13 NSaved=  13.
 NSaved=13 IEnMin=13 EnMin= -914.948676004738     IErMin=13 ErrMin= 2.49D-07
 ErrMax= 2.49D-07  0.00D+00 EMaxC= 1.00D-01 BMatC= 1.64D-10 BMatP= 4.39D-10
 IDIUse=1 WtCom= 1.00D+00 WtEn= 0.00D+00
 Coeff-Com: -0.101D-04 0.145D-04 0.759D-05 0.786D-05-0.112D-03-0.510D-03
 Coeff-Com: -0.811D-03-0.748D-02-0.804D-02 0.157D-01 0.459D-01 0.463D+00
 Coeff-Com:  0.492D+00
 Coeff:     -0.101D-04 0.145D-04 0.759D-05 0.786D-05-0.112D-03-0.510D-03
 Coeff:     -0.811D-03-0.748D-02-0.804D-02 0.157D-01 0.459D-01 0.463D+00
 Coeff:      0.492D+00
 Gap=     0.092 Goal=   None    Shift=    0.000
 Gap=     0.092 Goal=   None    Shift=    0.000
 RMSDP=1.09D-07 MaxDP=6.49D-06 DE=-7.53D-11 OVMax= 2.66D-06

 Cycle  14  Pass 1  IDiag  1:
 RMSU=  5.55D-08    CP:  8.10D-01  2.04D-01  8.62D-01  5.90D-01  1.33D+00
                    CP:  9.69D-01  1.03D+00  9.82D-01  1.02D+00  9.99D-01
                    CP:  9.24D-01  9.96D-01  8.28D-01
 E= -914.948676004771     Delta-E=       -0.000000000033 Rises=F Damp=F
 DIIS: error= 7.27D-08 at cycle  14 NSaved=  14.
 NSaved=14 IEnMin=14 EnMin= -914.948676004771     IErMin=14 ErrMin= 7.27D-08
 ErrMax= 7.27D-08  0.00D+00 EMaxC= 1.00D-01 BMatC= 1.11D-11 BMatP= 1.64D-10
 IDIUse=1 WtCom= 1.00D+00 WtEn= 0.00D+00
 Coeff-Com: -0.548D-06 0.612D-06 0.440D-05 0.768D-05 0.104D-04-0.411D-04
 Coeff-Com: -0.476D-05-0.143D-02-0.212D-02-0.509D-02-0.106D-01 0.613D-01
 Coeff-Com:  0.164D+00 0.794D+00
 Coeff:     -0.548D-06 0.612D-06 0.440D-05 0.768D-05 0.104D-04-0.411D-04
 Coeff:     -0.476D-05-0.143D-02-0.212D-02-0.509D-02-0.106D-01 0.613D-01
 Coeff:      0.164D+00 0.794D+00
 Gap=     0.092 Goal=   None    Shift=    0.000
 Gap=     0.092 Goal=   None    Shift=    0.000
 RMSDP=3.10D-08 MaxDP=1.26D-06 DE=-3.34D-11 OVMax= 1.61D-06

 Cycle  15  Pass 1  IDiag  1:
 RMSU=  2.01D-08    CP:  8.10D-01  2.04D-01  8.62D-01  5.90D-01  1.33D+00
                    CP:  9.69D-01  1.03D+00  9.82D-01  1.02D+00  9.99D-01
                    CP:  9.29D-01  1.02D+00  8.79D-01  1.08D+00
 E= -914.948676004772     Delta-E=       -0.000000000001 Rises=F Damp=F
 DIIS: error= 4.23D-08 at cycle  15 NSaved=  15.
 NSaved=15 IEnMin=15 EnMin= -914.948676004772     IErMin=15 ErrMin= 4.23D-08
 ErrMax= 4.23D-08  0.00D+00 EMaxC= 1.00D-01 BMatC= 2.68D-12 BMatP= 1.11D-11
 IDIUse=1 WtCom= 1.00D+00 WtEn= 0.00D+00
 Coeff-Com:  0.803D-06-0.113D-05 0.231D-05 0.378D-05 0.183D-04 0.223D-04
 Coeff-Com:  0.833D-04-0.164D-03-0.519D-03-0.511D-02-0.125D-01-0.137D-01
 Coeff-Com:  0.422D-01 0.474D+00 0.516D+00
 Coeff:      0.803D-06-0.113D-05 0.231D-05 0.378D-05 0.183D-04 0.223D-04
 Coeff:      0.833D-04-0.164D-03-0.519D-03-0.511D-02-0.125D-01-0.137D-01
 Coeff:      0.422D-01 0.474D+00 0.516D+00
 Gap=     0.092 Goal=   None    Shift=    0.000
 Gap=     0.092 Goal=   None    Shift=    0.000
 RMSDP=1.44D-08 MaxDP=9.79D-07 DE=-1.36D-12 OVMax= 4.18D-07

 Cycle  16  Pass 1  IDiag  1:
 RMSU=  7.38D-09    CP:  8.10D-01  2.04D-01  8.62D-01  5.90D-01  1.33D+00
                    CP:  9.69D-01  1.03D+00  9.82D-01  1.02D+00  9.99D-01
                    CP:  9.32D-01  1.02D+00  8.88D-01  1.13D+00  1.17D+00
 E= -914.948676004790     Delta-E=       -0.000000000017 Rises=F Damp=F
 DIIS: error= 8.96D-09 at cycle  16 NSaved=  16.
 NSaved=16 IEnMin=16 EnMin= -914.948676004790     IErMin=16 ErrMin= 8.96D-09
 ErrMax= 8.96D-09  0.00D+00 EMaxC= 1.00D-01 BMatC= 2.15D-13 BMatP= 2.68D-12
 IDIUse=1 WtCom= 1.00D+00 WtEn= 0.00D+00
 Coeff-Com:  0.485D-06-0.665D-06 0.621D-06 0.785D-06 0.810D-05 0.145D-04
 Coeff-Com:  0.411D-04 0.789D-04 0.760D-04-0.141D-02-0.376D-02-0.131D-01
 Coeff-Com: -0.677D-02 0.851D-01 0.198D+00 0.742D+00
 Coeff:      0.485D-06-0.665D-06 0.621D-06 0.785D-06 0.810D-05 0.145D-04
 Coeff:      0.411D-04 0.789D-04 0.760D-04-0.141D-02-0.376D-02-0.131D-01
 Coeff:     -0.677D-02 0.851D-01 0.198D+00 0.742D+00
 Gap=     0.092 Goal=   None    Shift=    0.000
 Gap=     0.092 Goal=   None    Shift=    0.000
 RMSDP=6.94D-09 MaxDP=5.28D-07 DE=-1.73D-11 OVMax= 1.62D-07

 Error on total polarization charges =  0.02730
 SCF Done:  E(UB3LYP) =  -914.948676005     A.U. after   16 cycles
            NFock= 16  Conv=0.69D-08     -V/T= 2.0040
 <Sx>= 0.0000 <Sy>= 0.0000 <Sz>= 0.0000 <S**2>=-0.0000 S=-0.0000
 <L.S>=  0.00000000000    
 KE= 9.113077265306D+02 PE=-4.876220395449D+03 EE= 1.701670982723D+03
 Annihilation of the first spin contaminant:
 S**2 before annihilation    -0.0000,   after    -0.0000
 Leave Link  502 at Tue Jan 16 06:22:46 2024, MaxMem=  4026531840 cpu:            1309.1 elap:             164.1
 (Enter /sysapps/ubuntu-applications/gaussian/Gaussian/AVX2/g16/l601.exe)
 Copying SCF densities to generalized density rwf, IOpCl= 1 IROHF=0.

 **********************************************************************

            Population analysis using the SCF density.

 **********************************************************************

 Orbital symmetries:
 Alpha Orbitals:
       Occupied  (A) (A) (A) (A) (A) (A) (A) (A) (A) (A) (A) (A)
                 (A) (A) (A) (A) (A) (A) (A) (A) (A) (A) (A) (A)
                 (A) (A) (A) (A) (A) (A) (A) (A) (A) (A) (A) (A)
                 (A) (A) (A) (A) (A) (A) (A) (A) (A) (A) (A) (A)
                 (A) (A) (A) (A) (A) (A) (A) (A) (A) (A) (A) (A)
                 (A) (A) (A) (A) (A) (A) (A)
       Virtual   (A) (A) (A) (A) (A) (A) (A) (A) (A) (A) (A) (A)
                 (A) (A) (A) (A) (A) (A) (A) (A) (A) (A) (A) (A)
                 (A) (A) (A) (A) (A) (A) (A) (A) (A) (A) (A) (A)
                 (A) (A) (A) (A) (A) (A) (A) (A) (A) (A) (A) (A)
                 (A) (A) (A) (A) (A) (A) (A) (A) (A) (A) (A) (A)
                 (A) (A) (A) (A) (A) (A) (A) (A) (A) (A) (A) (A)
                 (A) (A) (A) (A) (A) (A) (A) (A) (A) (A) (A) (A)
                 (A) (A) (A) (A) (A) (A) (A) (A) (A) (A) (A) (A)
                 (A) (A) (A) (A) (A) (A) (A) (A) (A) (A) (A) (A)
                 (A) (A) (A) (A) (A) (A) (A) (A) (A) (A) (A) (A)
                 (A) (A) (A) (A) (A) (A) (A) (A) (A) (A) (A) (A)
                 (A) (A) (A) (A) (A) (A) (A) (A) (A) (A) (A) (A)
                 (A) (A) (A) (A) (A) (A) (A) (A) (A) (A) (A) (A)
                 (A) (A) (A) (A) (A) (A) (A) (A) (A) (A) (A) (A)
                 (A) (A) (A) (A) (A) (A) (A) (A) (A) (A) (A) (A)
                 (A) (A) (A) (A) (A) (A) (A) (A) (A) (A) (A) (A)
                 (A) (A) (A) (A) (A) (A) (A) (A) (A) (A) (A) (A)
                 (A) (A) (A) (A) (A) (A) (A) (A) (A) (A) (A) (A)
                 (A) (A) (A) (A) (A) (A) (A) (A) (A) (A) (A) (A)
                 (A) (A) (A) (A) (A) (A) (A) (A) (A) (A) (A) (A)
                 (A) (A) (A) (A) (A) (A) (A) (A) (A) (A) (A) (A)
                 (A) (A) (A) (A) (A) (A) (A) (A) (A) (A) (A) (A)
                 (A) (A) (A) (A) (A) (A) (A) (A) (A) (A) (A) (A)
                 (A) (A) (A) (A) (A) (A) (A) (A) (A) (A) (A) (A)
                 (A) (A) (A) (A) (A) (A) (A) (A) (A) (A) (A) (A)
                 (A) (A) (A) (A) (A) (A) (A) (A) (A) (A) (A) (A)
                 (A) (A) (A) (A) (A) (A) (A) (A) (A) (A) (A) (A)
                 (A) (A) (A) (A) (A) (A) (A) (A) (A) (A) (A) (A)
                 (A) (A) (A) (A) (A) (A) (A) (A) (A) (A) (A) (A)
                 (A) (A) (A) (A) (A) (A) (A) (A) (A) (A) (A) (A)
                 (A) (A) (A) (A) (A) (A) (A) (A) (A) (A) (A) (A)
                 (A) (A) (A) (A) (A) (A) (A) (A) (A) (A) (A) (A)
                 (A) (A) (A) (A) (A) (A) (A) (A) (A) (A) (A) (A)
                 (A) (A) (A) (A)
 Beta  Orbitals:
       Occupied  (A) (A) (A) (A) (A) (A) (A) (A) (A) (A) (A) (A)
                 (A) (A) (A) (A) (A) (A) (A) (A) (A) (A) (A) (A)
                 (A) (A) (A) (A) (A) (A) (A) (A) (A) (A) (A) (A)
                 (A) (A) (A) (A) (A) (A) (A) (A) (A) (A) (A) (A)
                 (A) (A) (A) (A) (A) (A) (A) (A) (A) (A) (A) (A)
                 (A) (A) (A) (A) (A) (A) (A)
       Virtual   (A) (A) (A) (A) (A) (A) (A) (A) (A) (A) (A) (A)
                 (A) (A) (A) (A) (A) (A) (A) (A) (A) (A) (A) (A)
                 (A) (A) (A) (A) (A) (A) (A) (A) (A) (A) (A) (A)
                 (A) (A) (A) (A) (A) (A) (A) (A) (A) (A) (A) (A)
                 (A) (A) (A) (A) (A) (A) (A) (A) (A) (A) (A) (A)
                 (A) (A) (A) (A) (A) (A) (A) (A) (A) (A) (A) (A)
                 (A) (A) (A) (A) (A) (A) (A) (A) (A) (A) (A) (A)
                 (A) (A) (A) (A) (A) (A) (A) (A) (A) (A) (A) (A)
                 (A) (A) (A) (A) (A) (A) (A) (A) (A) (A) (A) (A)
                 (A) (A) (A) (A) (A) (A) (A) (A) (A) (A) (A) (A)
                 (A) (A) (A) (A) (A) (A) (A) (A) (A) (A) (A) (A)
                 (A) (A) (A) (A) (A) (A) (A) (A) (A) (A) (A) (A)
                 (A) (A) (A) (A) (A) (A) (A) (A) (A) (A) (A) (A)
                 (A) (A) (A) (A) (A) (A) (A) (A) (A) (A) (A) (A)
                 (A) (A) (A) (A) (A) (A) (A) (A) (A) (A) (A) (A)
                 (A) (A) (A) (A) (A) (A) (A) (A) (A) (A) (A) (A)
                 (A) (A) (A) (A) (A) (A) (A) (A) (A) (A) (A) (A)
                 (A) (A) (A) (A) (A) (A) (A) (A) (A) (A) (A) (A)
                 (A) (A) (A) (A) (A) (A) (A) (A) (A) (A) (A) (A)
                 (A) (A) (A) (A) (A) (A) (A) (A) (A) (A) (A) (A)
                 (A) (A) (A) (A) (A) (A) (A) (A) (A) (A) (A) (A)
                 (A) (A) (A) (A) (A) (A) (A) (A) (A) (A) (A) (A)
                 (A) (A) (A) (A) (A) (A) (A) (A) (A) (A) (A) (A)
                 (A) (A) (A) (A) (A) (A) (A) (A) (A) (A) (A) (A)
                 (A) (A) (A) (A) (A) (A) (A) (A) (A) (A) (A) (A)
                 (A) (A) (A) (A) (A) (A) (A) (A) (A) (A) (A) (A)
                 (A) (A) (A) (A) (A) (A) (A) (A) (A) (A) (A) (A)
                 (A) (A) (A) (A) (A) (A) (A) (A) (A) (A) (A) (A)
                 (A) (A) (A) (A) (A) (A) (A) (A) (A) (A) (A) (A)
                 (A) (A) (A) (A) (A) (A) (A) (A) (A) (A) (A) (A)
                 (A) (A) (A) (A) (A) (A) (A) (A) (A) (A) (A) (A)
                 (A) (A) (A) (A) (A) (A) (A) (A) (A) (A) (A) (A)
                 (A) (A) (A) (A) (A) (A) (A) (A) (A) (A) (A) (A)
                 (A) (A) (A) (A)
 The electronic state is 1-A.
 Alpha  occ. eigenvalues --  -19.14220 -19.12434 -19.08727 -19.04215 -19.03003
 Alpha  occ. eigenvalues --  -10.21738 -10.19812 -10.19512 -10.18979 -10.18153
 Alpha  occ. eigenvalues --  -10.15717 -10.15477 -10.15183 -10.15082 -10.14809
 Alpha  occ. eigenvalues --  -10.14676 -10.14065 -10.14043 -10.12784  -1.04286
 Alpha  occ. eigenvalues --   -1.02938  -1.00542  -0.95717  -0.94858  -0.83581
 Alpha  occ. eigenvalues --   -0.80781  -0.75954  -0.73518  -0.71064  -0.69492
 Alpha  occ. eigenvalues --   -0.64921  -0.61227  -0.60820  -0.56454  -0.56045
 Alpha  occ. eigenvalues --   -0.52302  -0.52102  -0.49692  -0.47156  -0.46136
 Alpha  occ. eigenvalues --   -0.44369  -0.43127  -0.42609  -0.41364  -0.40840
 Alpha  occ. eigenvalues --   -0.40059  -0.39300  -0.38805  -0.37005  -0.36913
 Alpha  occ. eigenvalues --   -0.36643  -0.36087  -0.35302  -0.34750  -0.33225
 Alpha  occ. eigenvalues --   -0.32933  -0.32310  -0.31562  -0.30127  -0.26842
 Alpha  occ. eigenvalues --   -0.24700  -0.22970  -0.22059  -0.21300  -0.19940
 Alpha  occ. eigenvalues --   -0.17458  -0.11534
 Alpha virt. eigenvalues --   -0.02361  -0.00156   0.00255   0.00448   0.01392
 Alpha virt. eigenvalues --    0.01976   0.02425   0.03387   0.04288   0.04394
 Alpha virt. eigenvalues --    0.05050   0.05361   0.06190   0.06654   0.06894
 Alpha virt. eigenvalues --    0.07045   0.07551   0.08378   0.09016   0.09321
 Alpha virt. eigenvalues --    0.09828   0.10528   0.10553   0.10691   0.11125
 Alpha virt. eigenvalues --    0.11670   0.12477   0.12608   0.12902   0.13197
 Alpha virt. eigenvalues --    0.13452   0.13863   0.13999   0.14106   0.14974
 Alpha virt. eigenvalues --    0.15144   0.15313   0.16166   0.16695   0.17260
 Alpha virt. eigenvalues --    0.17585   0.17770   0.18214   0.18646   0.19127
 Alpha virt. eigenvalues --    0.19632   0.19824   0.20357   0.20693   0.21372
 Alpha virt. eigenvalues --    0.21788   0.21872   0.22807   0.23291   0.23844
 Alpha virt. eigenvalues --    0.24417   0.24853   0.24915   0.25193   0.26175
 Alpha virt. eigenvalues --    0.26453   0.26718   0.26886   0.27388   0.27575
 Alpha virt. eigenvalues --    0.27932   0.28223   0.28407   0.29197   0.29640
 Alpha virt. eigenvalues --    0.29774   0.29837   0.29950   0.30960   0.31314
 Alpha virt. eigenvalues --    0.31548   0.31749   0.32455   0.32677   0.33397
 Alpha virt. eigenvalues --    0.33579   0.33673   0.34125   0.34441   0.34565
 Alpha virt. eigenvalues --    0.35256   0.35450   0.36009   0.36243   0.36853
 Alpha virt. eigenvalues --    0.37771   0.38030   0.38516   0.39005   0.39800
 Alpha virt. eigenvalues --    0.40741   0.41197   0.42042   0.42468   0.43627
 Alpha virt. eigenvalues --    0.44480   0.45794   0.46864   0.49411   0.50332
 Alpha virt. eigenvalues --    0.52067   0.53052   0.53281   0.54215   0.55422
 Alpha virt. eigenvalues --    0.56039   0.57298   0.57743   0.58349   0.58749
 Alpha virt. eigenvalues --    0.59520   0.60385   0.60715   0.61607   0.62607
 Alpha virt. eigenvalues --    0.63195   0.63501   0.63829   0.64356   0.65219
 Alpha virt. eigenvalues --    0.66042   0.66395   0.66808   0.68065   0.68197
 Alpha virt. eigenvalues --    0.69038   0.69560   0.69617   0.70018   0.72212
 Alpha virt. eigenvalues --    0.72698   0.73412   0.75125   0.76209   0.76692
 Alpha virt. eigenvalues --    0.77058   0.78295   0.79156   0.81067   0.81941
 Alpha virt. eigenvalues --    0.82360   0.84719   0.85573   0.87412   0.87714
 Alpha virt. eigenvalues --    0.88601   0.89944   0.91190   0.92289   0.92351
 Alpha virt. eigenvalues --    0.93383   0.95336   0.96168   0.96578   0.96774
 Alpha virt. eigenvalues --    0.97834   0.98726   0.99035   1.00760   1.01295
 Alpha virt. eigenvalues --    1.01820   1.03626   1.03904   1.05558   1.06185
 Alpha virt. eigenvalues --    1.06668   1.07706   1.09062   1.09472   1.09566
 Alpha virt. eigenvalues --    1.10612   1.11144   1.13568   1.14171   1.14546
 Alpha virt. eigenvalues --    1.14762   1.16022   1.16800   1.17549   1.20399
 Alpha virt. eigenvalues --    1.21003   1.22392   1.22913   1.24522   1.25147
 Alpha virt. eigenvalues --    1.25526   1.26226   1.26559   1.27727   1.28563
 Alpha virt. eigenvalues --    1.29210   1.29751   1.31971   1.34482   1.35054
 Alpha virt. eigenvalues --    1.36616   1.40120   1.42285   1.43492   1.45184
 Alpha virt. eigenvalues --    1.46338   1.47247   1.48644   1.51616   1.52247
 Alpha virt. eigenvalues --    1.53135   1.53811   1.54519   1.55129   1.55498
 Alpha virt. eigenvalues --    1.55779   1.58072   1.60839   1.61427   1.62589
 Alpha virt. eigenvalues --    1.62730   1.63769   1.64923   1.65968   1.66950
 Alpha virt. eigenvalues --    1.70072   1.73138   1.74072   1.75064   1.76038
 Alpha virt. eigenvalues --    1.77517   1.78286   1.78512   1.79968   1.82451
 Alpha virt. eigenvalues --    1.83991   1.84103   1.86267   1.89253   1.90324
 Alpha virt. eigenvalues --    1.91344   1.91890   1.92783   1.93409   1.93659
 Alpha virt. eigenvalues --    1.96100   1.97008   1.98352   1.98830   1.98942
 Alpha virt. eigenvalues --    1.99689   2.00845   2.02513   2.03196   2.05220
 Alpha virt. eigenvalues --    2.06371   2.08378   2.09035   2.10017   2.11415
 Alpha virt. eigenvalues --    2.12667   2.13491   2.15520   2.17712   2.17950
 Alpha virt. eigenvalues --    2.19479   2.21208   2.25462   2.26709   2.32457
 Alpha virt. eigenvalues --    2.33584   2.34454   2.38520   2.39944   2.41064
 Alpha virt. eigenvalues --    2.41643   2.43479   2.48445   2.50157   2.53743
 Alpha virt. eigenvalues --    2.58948   2.61000   2.63652   2.65508   2.66169
 Alpha virt. eigenvalues --    2.66664   2.66720   2.69299   2.70384   2.72605
 Alpha virt. eigenvalues --    2.75281   2.75490   2.76670   2.77924   2.78826
 Alpha virt. eigenvalues --    2.79661   2.79677   2.80959   2.81421   2.82541
 Alpha virt. eigenvalues --    2.84091   2.87509   2.88305   2.88850   2.90893
 Alpha virt. eigenvalues --    2.91754   2.94072   2.95301   2.97341   3.00526
 Alpha virt. eigenvalues --    3.01453   3.03970   3.05903   3.09738   3.11079
 Alpha virt. eigenvalues --    3.12374   3.12842   3.14845   3.15517   3.16499
 Alpha virt. eigenvalues --    3.17048   3.17811   3.18438   3.21808   3.22599
 Alpha virt. eigenvalues --    3.23654   3.24419   3.28560   3.30044   3.32281
 Alpha virt. eigenvalues --    3.34031   3.35193   3.38127   3.40456   3.41797
 Alpha virt. eigenvalues --    3.42970   3.44720   3.47452   3.47912   3.53873
 Alpha virt. eigenvalues --    3.55550   3.55942   3.58472   3.62195   3.66559
 Alpha virt. eigenvalues --    3.67970   3.68409   3.74805   3.84052   3.84650
 Alpha virt. eigenvalues --    3.88226   3.92439   3.94538   3.97272   4.09810
 Alpha virt. eigenvalues --    4.11220   4.12117   4.17168   4.23004   4.28322
 Alpha virt. eigenvalues --    4.32222   4.33992   4.53268   4.83807   4.86027
 Alpha virt. eigenvalues --    4.88300   5.03315   5.03704   5.06785   5.12364
 Alpha virt. eigenvalues --    5.13769   5.29157   5.32163   5.44268   5.53919
 Alpha virt. eigenvalues --    5.58995   5.70498   5.73083   5.79767   5.83627
 Alpha virt. eigenvalues --    5.87915  23.53452  23.71239  23.85485  23.89792
 Alpha virt. eigenvalues --   23.92222  23.95629  23.98207  23.99230  24.02940
 Alpha virt. eigenvalues --   24.08905  24.10033  24.14103  24.18536  24.19683
 Alpha virt. eigenvalues --   49.93605  49.97371  50.04083  50.11377  50.14547
  Beta  occ. eigenvalues --  -19.14220 -19.12434 -19.08727 -19.04215 -19.03003
  Beta  occ. eigenvalues --  -10.21738 -10.19812 -10.19512 -10.18979 -10.18153
  Beta  occ. eigenvalues --  -10.15717 -10.15477 -10.15183 -10.15082 -10.14809
  Beta  occ. eigenvalues --  -10.14676 -10.14065 -10.14043 -10.12784  -1.04286
  Beta  occ. eigenvalues --   -1.02938  -1.00542  -0.95717  -0.94858  -0.83581
  Beta  occ. eigenvalues --   -0.80781  -0.75954  -0.73518  -0.71064  -0.69492
  Beta  occ. eigenvalues --   -0.64921  -0.61227  -0.60820  -0.56454  -0.56045
  Beta  occ. eigenvalues --   -0.52302  -0.52102  -0.49692  -0.47156  -0.46136
  Beta  occ. eigenvalues --   -0.44369  -0.43127  -0.42609  -0.41364  -0.40840
  Beta  occ. eigenvalues --   -0.40059  -0.39300  -0.38805  -0.37005  -0.36913
  Beta  occ. eigenvalues --   -0.36643  -0.36087  -0.35302  -0.34750  -0.33225
  Beta  occ. eigenvalues --   -0.32933  -0.32310  -0.31562  -0.30127  -0.26842
  Beta  occ. eigenvalues --   -0.24700  -0.22970  -0.22059  -0.21300  -0.19940
  Beta  occ. eigenvalues --   -0.17458  -0.11534
  Beta virt. eigenvalues --   -0.02361  -0.00156   0.00255   0.00448   0.01392
  Beta virt. eigenvalues --    0.01976   0.02425   0.03387   0.04288   0.04394
  Beta virt. eigenvalues --    0.05050   0.05361   0.06190   0.06654   0.06894
  Beta virt. eigenvalues --    0.07045   0.07551   0.08378   0.09016   0.09321
  Beta virt. eigenvalues --    0.09828   0.10528   0.10553   0.10691   0.11125
  Beta virt. eigenvalues --    0.11670   0.12477   0.12608   0.12902   0.13197
  Beta virt. eigenvalues --    0.13452   0.13863   0.13999   0.14106   0.14974
  Beta virt. eigenvalues --    0.15144   0.15313   0.16166   0.16695   0.17260
  Beta virt. eigenvalues --    0.17585   0.17770   0.18214   0.18646   0.19127
  Beta virt. eigenvalues --    0.19632   0.19824   0.20357   0.20693   0.21372
  Beta virt. eigenvalues --    0.21788   0.21872   0.22807   0.23291   0.23844
  Beta virt. eigenvalues --    0.24417   0.24853   0.24915   0.25193   0.26175
  Beta virt. eigenvalues --    0.26453   0.26718   0.26886   0.27388   0.27575
  Beta virt. eigenvalues --    0.27932   0.28223   0.28407   0.29197   0.29640
  Beta virt. eigenvalues --    0.29774   0.29837   0.29950   0.30960   0.31314
  Beta virt. eigenvalues --    0.31548   0.31749   0.32455   0.32677   0.33397
  Beta virt. eigenvalues --    0.33579   0.33673   0.34125   0.34441   0.34565
  Beta virt. eigenvalues --    0.35256   0.35450   0.36009   0.36243   0.36853
  Beta virt. eigenvalues --    0.37771   0.38030   0.38516   0.39005   0.39800
  Beta virt. eigenvalues --    0.40741   0.41197   0.42042   0.42468   0.43627
  Beta virt. eigenvalues --    0.44480   0.45794   0.46864   0.49411   0.50332
  Beta virt. eigenvalues --    0.52067   0.53052   0.53281   0.54215   0.55422
  Beta virt. eigenvalues --    0.56039   0.57298   0.57743   0.58349   0.58749
  Beta virt. eigenvalues --    0.59520   0.60385   0.60715   0.61607   0.62607
  Beta virt. eigenvalues --    0.63195   0.63501   0.63829   0.64356   0.65219
  Beta virt. eigenvalues --    0.66042   0.66395   0.66808   0.68065   0.68197
  Beta virt. eigenvalues --    0.69038   0.69560   0.69617   0.70018   0.72212
  Beta virt. eigenvalues --    0.72698   0.73412   0.75125   0.76209   0.76692
  Beta virt. eigenvalues --    0.77058   0.78295   0.79156   0.81067   0.81941
  Beta virt. eigenvalues --    0.82360   0.84719   0.85573   0.87412   0.87714
  Beta virt. eigenvalues --    0.88601   0.89944   0.91190   0.92289   0.92351
  Beta virt. eigenvalues --    0.93383   0.95336   0.96168   0.96578   0.96774
  Beta virt. eigenvalues --    0.97834   0.98726   0.99035   1.00760   1.01295
  Beta virt. eigenvalues --    1.01820   1.03626   1.03904   1.05558   1.06185
  Beta virt. eigenvalues --    1.06668   1.07706   1.09062   1.09472   1.09566
  Beta virt. eigenvalues --    1.10612   1.11144   1.13568   1.14171   1.14546
  Beta virt. eigenvalues --    1.14762   1.16022   1.16800   1.17549   1.20399
  Beta virt. eigenvalues --    1.21003   1.22392   1.22913   1.24522   1.25147
  Beta virt. eigenvalues --    1.25526   1.26226   1.26559   1.27727   1.28563
  Beta virt. eigenvalues --    1.29210   1.29751   1.31971   1.34482   1.35054
  Beta virt. eigenvalues --    1.36616   1.40120   1.42285   1.43492   1.45184
  Beta virt. eigenvalues --    1.46338   1.47247   1.48644   1.51616   1.52247
  Beta virt. eigenvalues --    1.53135   1.53811   1.54519   1.55129   1.55498
  Beta virt. eigenvalues --    1.55779   1.58072   1.60839   1.61427   1.62589
  Beta virt. eigenvalues --    1.62730   1.63769   1.64923   1.65968   1.66950
  Beta virt. eigenvalues --    1.70072   1.73138   1.74072   1.75064   1.76038
  Beta virt. eigenvalues --    1.77517   1.78286   1.78512   1.79968   1.82451
  Beta virt. eigenvalues --    1.83991   1.84103   1.86267   1.89253   1.90324
  Beta virt. eigenvalues --    1.91344   1.91890   1.92783   1.93409   1.93659
  Beta virt. eigenvalues --    1.96100   1.97008   1.98352   1.98830   1.98942
  Beta virt. eigenvalues --    1.99689   2.00845   2.02513   2.03196   2.05220
  Beta virt. eigenvalues --    2.06371   2.08378   2.09035   2.10017   2.11415
  Beta virt. eigenvalues --    2.12667   2.13491   2.15520   2.17712   2.17950
  Beta virt. eigenvalues --    2.19479   2.21208   2.25462   2.26709   2.32457
  Beta virt. eigenvalues --    2.33584   2.34454   2.38520   2.39944   2.41064
  Beta virt. eigenvalues --    2.41643   2.43479   2.48445   2.50157   2.53743
  Beta virt. eigenvalues --    2.58948   2.61000   2.63652   2.65508   2.66169
  Beta virt. eigenvalues --    2.66664   2.66720   2.69299   2.70384   2.72605
  Beta virt. eigenvalues --    2.75281   2.75490   2.76670   2.77924   2.78826
  Beta virt. eigenvalues --    2.79661   2.79677   2.80959   2.81421   2.82541
  Beta virt. eigenvalues --    2.84091   2.87509   2.88305   2.88850   2.90893
  Beta virt. eigenvalues --    2.91754   2.94072   2.95301   2.97341   3.00526
  Beta virt. eigenvalues --    3.01453   3.03970   3.05903   3.09738   3.11079
  Beta virt. eigenvalues --    3.12374   3.12842   3.14845   3.15517   3.16499
  Beta virt. eigenvalues --    3.17048   3.17811   3.18438   3.21808   3.22599
  Beta virt. eigenvalues --    3.23654   3.24419   3.28560   3.30044   3.32281
  Beta virt. eigenvalues --    3.34031   3.35193   3.38127   3.40456   3.41797
  Beta virt. eigenvalues --    3.42970   3.44720   3.47452   3.47912   3.53873
  Beta virt. eigenvalues --    3.55550   3.55942   3.58472   3.62195   3.66559
  Beta virt. eigenvalues --    3.67970   3.68409   3.74805   3.84052   3.84650
  Beta virt. eigenvalues --    3.88226   3.92439   3.94538   3.97272   4.09810
  Beta virt. eigenvalues --    4.11220   4.12117   4.17168   4.23004   4.28322
  Beta virt. eigenvalues --    4.32222   4.33992   4.53268   4.83807   4.86027
  Beta virt. eigenvalues --    4.88300   5.03315   5.03704   5.06785   5.12364
  Beta virt. eigenvalues --    5.13769   5.29157   5.32163   5.44268   5.53919
  Beta virt. eigenvalues --    5.58995   5.70498   5.73083   5.79767   5.83627
  Beta virt. eigenvalues --    5.87915  23.53452  23.71239  23.85485  23.89792
  Beta virt. eigenvalues --   23.92222  23.95629  23.98207  23.99230  24.02940
  Beta virt. eigenvalues --   24.08905  24.10033  24.14103  24.18536  24.19683
  Beta virt. eigenvalues --   49.93605  49.97371  50.04083  50.11377  50.14547
          Condensed to atoms (all electrons):
               1          2          3          4          5          6
     1  O    8.115106   0.177575  -0.090157   0.023896  -0.034273  -0.001331
     2  C    0.177575  13.400141   1.535729  -1.797520  -0.609201   0.187431
     3  C   -0.090157   1.535729  12.816385  -3.266432  -2.667212  -0.387545
     4  C    0.023896  -1.797520  -3.266432  12.676194   1.389445  -1.757757
     5  C   -0.034273  -0.609201  -2.667212   1.389445  14.540611   0.454468
     6  C   -0.001331   0.187431  -0.387545  -1.757757   0.454468  11.097651
     7  O    0.000007  -0.014839   0.068867   0.118313  -0.501862   0.745633
     8  C   -0.000462  -0.554106  -0.073751  -0.428615  -1.559336  -0.125033
     9  C    0.000194  -0.139826   0.252205  -0.326979  -0.003095  -2.602432
    10  O    0.000000  -0.001004  -0.000380   0.021164   0.073951   0.042956
    11  C    0.000003   0.017405   0.091668  -0.118430   0.212870  -0.204338
    12  C    0.000049   0.081852  -0.035951  -0.122032  -0.356549  -0.611951
    13  C    0.000091   0.210307  -0.097268  -0.523883  -1.383077  -0.226907
    14  O    0.000005   0.013510  -0.000776  -0.008437  -0.024779   0.007577
    15  C    0.003505   0.445279   0.146330  -1.714779  -2.535267   0.886204
    16  C    0.037744   0.433808   0.857064  -1.378515  -0.625793   0.389416
    17  O   -0.000679   0.135980   0.000787  -0.039623  -0.122195   0.014497
    18  C    0.084363  -3.574626   1.339002  -1.496920  -0.919849  -0.887315
    19  C   -0.195636  -3.023646  -4.658039   4.429601   0.778708  -0.738101
    20  H    0.235230   0.209851  -0.070867  -0.055660  -0.008533  -0.002418
    21  H   -0.002703  -0.260678   0.551405  -0.037921   0.001906   0.027196
    22  H   -0.000624   0.032855  -0.134397   0.402861  -0.013572   0.038437
    23  H    0.000000  -0.000292   0.000357  -0.006984  -0.027861  -0.071327
    24  H   -0.000000   0.000224   0.000397   0.001488   0.014929   0.059328
    25  H    0.000000   0.000226  -0.000594  -0.002136  -0.010784  -0.033339
    26  H   -0.000057  -0.034765   0.002910  -0.001121   0.031976  -0.003576
    27  H   -0.025654  -0.261164  -0.152808   0.126835   0.156448  -0.001745
               7          8          9         10         11         12
     1  O    0.000007  -0.000462   0.000194   0.000000   0.000003   0.000049
     2  C   -0.014839  -0.554106  -0.139826  -0.001004   0.017405   0.081852
     3  C    0.068867  -0.073751   0.252205  -0.000380   0.091668  -0.035951
     4  C    0.118313  -0.428615  -0.326979   0.021164  -0.118430  -0.122032
     5  C   -0.501862  -1.559336  -0.003095   0.073951   0.212870  -0.356549
     6  C    0.745633  -0.125033  -2.602432   0.042956  -0.204338  -0.611951
     7  O    8.589397  -0.153647   0.046304  -0.019095   0.058553  -0.002234
     8  C   -0.153647  13.540786   1.213516  -0.558695  -2.797445  -0.632116
     9  C    0.046304   1.213516  11.826806   0.123431  -0.438217  -1.419776
    10  O   -0.019095  -0.558695   0.123431   8.239109   0.292512   0.073079
    11  C    0.058553  -2.797445  -0.438217   0.292512  10.997202   0.617975
    12  C   -0.002234  -0.632116  -1.419776   0.073079   0.617975  12.205601
    13  C   -0.008419  -0.381281   1.431485   0.023247   0.132231  -1.341365
    14  O   -0.000017  -0.054779  -0.029634   0.000064   0.039598  -0.267888
    15  C   -0.068405   2.326982  -0.658366  -0.126825  -1.186341  -3.027311
    16  C   -0.047032   0.384211  -0.507098  -0.007002  -0.787110  -0.285214
    17  O   -0.000186   0.006894   0.000307   0.000032   0.010410  -0.054443
    18  C   -0.237094  -3.824728  -1.837273  -0.025391  -0.555781   0.580766
    19  C    0.002583  -0.923519  -0.642992  -0.001317  -0.239614   0.207914
    20  H   -0.000051  -0.003278  -0.000222  -0.000004   0.000110   0.000105
    21  H    0.003205   0.016162   0.006062   0.000032   0.000528  -0.000102
    22  H   -0.001215  -0.001697  -0.020761   0.000186  -0.006665   0.002214
    23  H   -0.001184   0.195591   0.263066   0.164398  -0.343882  -0.024726
    24  H    0.002443  -0.019872  -0.258164  -0.020760   0.483109  -0.004906
    25  H   -0.000338   0.000477   0.070948  -0.001280  -0.046086   0.589528
    26  H   -0.000093   0.018285   0.020435   0.000309   0.013127  -0.020425
    27  H    0.000635  -0.014062  -0.013552   0.000023  -0.007174   0.015597
              13         14         15         16         17         18
     1  O    0.000091   0.000005   0.003505   0.037744  -0.000679   0.084363
     2  C    0.210307   0.013510   0.445279   0.433808   0.135980  -3.574626
     3  C   -0.097268  -0.000776   0.146330   0.857064   0.000787   1.339002
     4  C   -0.523883  -0.008437  -1.714779  -1.378515  -0.039623  -1.496920
     5  C   -1.383077  -0.024779  -2.535267  -0.625793  -0.122195  -0.919849
     6  C   -0.226907   0.007577   0.886204   0.389416   0.014497  -0.887315
     7  O   -0.008419  -0.000017  -0.068405  -0.047032  -0.000186  -0.237094
     8  C   -0.381281  -0.054779   2.326982   0.384211   0.006894  -3.824728
     9  C    1.431485  -0.029634  -0.658366  -0.507098   0.000307  -1.837273
    10  O    0.023247   0.000064  -0.126825  -0.007002   0.000032  -0.025391
    11  C    0.132231   0.039598  -1.186341  -0.787110   0.010410  -0.555781
    12  C   -1.341365  -0.267888  -3.027311  -0.285214  -0.054443   0.580766
    13  C   14.198166   0.385202  -1.380657  -3.044590  -0.087179  -0.937558
    14  O    0.385202   8.721175  -0.115414  -0.102597  -0.023225   0.038171
    15  C   -1.380657  -0.115414  13.400063   1.604611   0.163560  -0.892666
    16  C   -3.044590  -0.102597   1.604611   9.754630   0.376404   2.351437
    17  O   -0.087179  -0.023225   0.163560   0.376404   8.538476  -0.642123
    18  C   -0.937558   0.038171  -0.892666   2.351437  -0.642123  17.138155
    19  C   -0.188492   0.042109  -1.823609  -3.231623   0.075645  -0.409213
    20  H    0.000179  -0.000001  -0.000309  -0.002671  -0.000046  -0.029415
    21  H    0.001001   0.000001   0.005353   0.010236  -0.000083   0.046028
    22  H   -0.001328  -0.000014  -0.014786  -0.008436  -0.000010  -0.011513
    23  H    0.018974  -0.000181   0.042750  -0.001525   0.000032  -0.009047
    24  H   -0.018062   0.001619   0.040414   0.004190   0.000067   0.003945
    25  H   -0.187662  -0.016954  -0.061251  -0.002659  -0.000299   0.003994
    26  H   -0.027180   0.062542  -0.077560   0.082822   0.196455   0.049220
    27  H   -0.003429   0.001475  -0.141429  -0.172482  -0.015864   0.043791
              19         20         21         22         23         24
     1  O   -0.195636   0.235230  -0.002703  -0.000624   0.000000  -0.000000
     2  C   -3.023646   0.209851  -0.260678   0.032855  -0.000292   0.000224
     3  C   -4.658039  -0.070867   0.551405  -0.134397   0.000357   0.000397
     4  C    4.429601  -0.055660  -0.037921   0.402861  -0.006984   0.001488
     5  C    0.778708  -0.008533   0.001906  -0.013572  -0.027861   0.014929
     6  C   -0.738101  -0.002418   0.027196   0.038437  -0.071327   0.059328
     7  O    0.002583  -0.000051   0.003205  -0.001215  -0.001184   0.002443
     8  C   -0.923519  -0.003278   0.016162  -0.001697   0.195591  -0.019872
     9  C   -0.642992  -0.000222   0.006062  -0.020761   0.263066  -0.258164
    10  O   -0.001317  -0.000004   0.000032   0.000186   0.164398  -0.020760
    11  C   -0.239614   0.000110   0.000528  -0.006665  -0.343882   0.483109
    12  C    0.207914   0.000105  -0.000102   0.002214  -0.024726  -0.004906
    13  C   -0.188492   0.000179   0.001001  -0.001328   0.018974  -0.018062
    14  O    0.042109  -0.000001   0.000001  -0.000014  -0.000181   0.001619
    15  C   -1.823609  -0.000309   0.005353  -0.014786   0.042750   0.040414
    16  C   -3.231623  -0.002671   0.010236  -0.008436  -0.001525   0.004190
    17  O    0.075645  -0.000046  -0.000083  -0.000010   0.000032   0.000067
    18  C   -0.409213  -0.029415   0.046028  -0.011513  -0.009047   0.003945
    19  C   16.307200  -0.029461  -0.068529   0.068359  -0.001565  -0.000096
    20  H   -0.029461   0.476704  -0.009527   0.000905  -0.000001   0.000001
    21  H   -0.068529  -0.009527   0.551375  -0.016465   0.000021  -0.000008
    22  H    0.068359   0.000905  -0.016465   0.528913  -0.000164  -0.000115
    23  H   -0.001565  -0.000001   0.000021  -0.000164   0.527491  -0.001324
    24  H   -0.000096   0.000001  -0.000008  -0.000115  -0.001324   0.602302
    25  H    0.001911  -0.000001   0.000003   0.000004   0.001054  -0.023836
    26  H   -0.056135  -0.000127   0.000108  -0.000112   0.000088   0.000304
    27  H    0.744747   0.002269  -0.003521   0.003655  -0.000036  -0.000058
              25         26         27
     1  O    0.000000  -0.000057  -0.025654
     2  C    0.000226  -0.034765  -0.261164
     3  C   -0.000594   0.002910  -0.152808
     4  C   -0.002136  -0.001121   0.126835
     5  C   -0.010784   0.031976   0.156448
     6  C   -0.033339  -0.003576  -0.001745
     7  O   -0.000338  -0.000093   0.000635
     8  C    0.000477   0.018285  -0.014062
     9  C    0.070948   0.020435  -0.013552
    10  O   -0.001280   0.000309   0.000023
    11  C   -0.046086   0.013127  -0.007174
    12  C    0.589528  -0.020425   0.015597
    13  C   -0.187662  -0.027180  -0.003429
    14  O   -0.016954   0.062542   0.001475
    15  C   -0.061251  -0.077560  -0.141429
    16  C   -0.002659   0.082822  -0.172482
    17  O   -0.000299   0.196455  -0.015864
    18  C    0.003994   0.049220   0.043791
    19  C    0.001911  -0.056135   0.744747
    20  H   -0.000001  -0.000127   0.002269
    21  H    0.000003   0.000108  -0.003521
    22  H    0.000004  -0.000112   0.003655
    23  H    0.001054   0.000088  -0.000036
    24  H   -0.023836   0.000304  -0.000058
    25  H    0.576548  -0.001686   0.000095
    26  H   -0.001686   0.328635  -0.000282
    27  H    0.000095  -0.000282   0.556568
          Atomic-Atomic Spin Densities.
               1          2          3          4          5          6
     1  O    0.000000  -0.000000  -0.000000   0.000000   0.000000   0.000000
     2  C   -0.000000  -0.000000  -0.000000   0.000000   0.000000  -0.000000
     3  C   -0.000000  -0.000000  -0.000000   0.000000   0.000000   0.000000
     4  C    0.000000   0.000000   0.000000  -0.000000  -0.000000  -0.000000
     5  C    0.000000   0.000000   0.000000  -0.000000  -0.000000   0.000000
     6  C    0.000000  -0.000000   0.000000  -0.000000   0.000000  -0.000000
     7  O   -0.000000   0.000000  -0.000000  -0.000000   0.000000   0.000000
     8  C    0.000000   0.000000   0.000000  -0.000000   0.000000   0.000000
     9  C   -0.000000   0.000000  -0.000000  -0.000000  -0.000000   0.000000
    10  O    0.000000  -0.000000   0.000000  -0.000000  -0.000000  -0.000000
    11  C   -0.000000   0.000000  -0.000000  -0.000000  -0.000000  -0.000000
    12  C    0.000000  -0.000000   0.000000   0.000000   0.000000   0.000000
    13  C    0.000000  -0.000000  -0.000000   0.000000   0.000000  -0.000000
    14  O   -0.000000  -0.000000   0.000000  -0.000000   0.000000  -0.000000
    15  C   -0.000000  -0.000000  -0.000000   0.000000   0.000000  -0.000000
    16  C   -0.000000  -0.000000  -0.000000   0.000000   0.000000   0.000000
    17  O    0.000000  -0.000000  -0.000000   0.000000   0.000000  -0.000000
    18  C   -0.000000   0.000000  -0.000000   0.000000   0.000000   0.000000
    19  C    0.000000   0.000000   0.000000  -0.000000  -0.000000  -0.000000
    20  H   -0.000000   0.000000  -0.000000   0.000000   0.000000   0.000000
    21  H    0.000000  -0.000000  -0.000000   0.000000   0.000000   0.000000
    22  H   -0.000000   0.000000  -0.000000   0.000000   0.000000   0.000000
    23  H   -0.000000  -0.000000  -0.000000   0.000000   0.000000   0.000000
    24  H   -0.000000   0.000000  -0.000000  -0.000000  -0.000000  -0.000000
    25  H    0.000000  -0.000000   0.000000   0.000000   0.000000   0.000000
    26  H   -0.000000   0.000000  -0.000000  -0.000000  -0.000000   0.000000
    27  H    0.000000   0.000000   0.000000  -0.000000  -0.000000  -0.000000
               7          8          9         10         11         12
     1  O   -0.000000   0.000000  -0.000000   0.000000  -0.000000   0.000000
     2  C    0.000000   0.000000   0.000000  -0.000000   0.000000  -0.000000
     3  C   -0.000000   0.000000  -0.000000   0.000000  -0.000000   0.000000
     4  C   -0.000000  -0.000000  -0.000000  -0.000000  -0.000000   0.000000
     5  C    0.000000   0.000000  -0.000000  -0.000000  -0.000000   0.000000
     6  C    0.000000   0.000000   0.000000  -0.000000  -0.000000   0.000000
     7  O   -0.000000  -0.000000  -0.000000   0.000000  -0.000000   0.000000
     8  C   -0.000000  -0.000000   0.000000   0.000000   0.000000  -0.000000
     9  C   -0.000000   0.000000   0.000000   0.000000  -0.000000  -0.000000
    10  O    0.000000   0.000000   0.000000  -0.000000  -0.000000   0.000000
    11  C   -0.000000   0.000000  -0.000000  -0.000000   0.000000   0.000000
    12  C    0.000000  -0.000000  -0.000000   0.000000   0.000000   0.000000
    13  C    0.000000   0.000000   0.000000  -0.000000  -0.000000  -0.000000
    14  O   -0.000000   0.000000   0.000000  -0.000000   0.000000   0.000000
    15  C    0.000000  -0.000000  -0.000000   0.000000   0.000000   0.000000
    16  C   -0.000000   0.000000  -0.000000   0.000000   0.000000  -0.000000
    17  O    0.000000   0.000000   0.000000   0.000000   0.000000  -0.000000
    18  C    0.000000   0.000000  -0.000000   0.000000  -0.000000  -0.000000
    19  C   -0.000000  -0.000000  -0.000000  -0.000000  -0.000000  -0.000000
    20  H    0.000000   0.000000   0.000000  -0.000000   0.000000   0.000000
    21  H   -0.000000   0.000000  -0.000000   0.000000   0.000000   0.000000
    22  H    0.000000   0.000000  -0.000000  -0.000000  -0.000000   0.000000
    23  H   -0.000000  -0.000000   0.000000   0.000000   0.000000  -0.000000
    24  H   -0.000000   0.000000   0.000000  -0.000000   0.000000   0.000000
    25  H    0.000000   0.000000  -0.000000   0.000000  -0.000000  -0.000000
    26  H   -0.000000  -0.000000   0.000000  -0.000000   0.000000   0.000000
    27  H   -0.000000  -0.000000   0.000000  -0.000000   0.000000  -0.000000
              13         14         15         16         17         18
     1  O    0.000000  -0.000000  -0.000000  -0.000000   0.000000  -0.000000
     2  C   -0.000000  -0.000000  -0.000000  -0.000000  -0.000000   0.000000
     3  C   -0.000000   0.000000  -0.000000  -0.000000  -0.000000  -0.000000
     4  C    0.000000  -0.000000   0.000000   0.000000   0.000000   0.000000
     5  C    0.000000   0.000000   0.000000   0.000000   0.000000   0.000000
     6  C   -0.000000  -0.000000  -0.000000   0.000000  -0.000000   0.000000
     7  O    0.000000  -0.000000   0.000000  -0.000000   0.000000   0.000000
     8  C    0.000000   0.000000  -0.000000   0.000000   0.000000   0.000000
     9  C    0.000000   0.000000  -0.000000  -0.000000   0.000000  -0.000000
    10  O   -0.000000  -0.000000   0.000000   0.000000   0.000000   0.000000
    11  C   -0.000000   0.000000   0.000000   0.000000   0.000000  -0.000000
    12  C   -0.000000   0.000000   0.000000  -0.000000  -0.000000  -0.000000
    13  C   -0.000000  -0.000000  -0.000000   0.000000  -0.000000   0.000000
    14  O   -0.000000   0.000000   0.000000  -0.000000  -0.000000  -0.000000
    15  C   -0.000000   0.000000  -0.000000  -0.000000  -0.000000  -0.000000
    16  C    0.000000  -0.000000  -0.000000  -0.000000  -0.000000  -0.000000
    17  O   -0.000000  -0.000000  -0.000000  -0.000000  -0.000000   0.000000
    18  C    0.000000  -0.000000  -0.000000  -0.000000   0.000000  -0.000000
    19  C    0.000000  -0.000000   0.000000   0.000000  -0.000000   0.000000
    20  H   -0.000000   0.000000  -0.000000  -0.000000  -0.000000  -0.000000
    21  H    0.000000   0.000000  -0.000000  -0.000000  -0.000000  -0.000000
    22  H    0.000000  -0.000000   0.000000  -0.000000  -0.000000  -0.000000
    23  H    0.000000   0.000000  -0.000000   0.000000  -0.000000  -0.000000
    24  H   -0.000000   0.000000   0.000000  -0.000000   0.000000  -0.000000
    25  H    0.000000  -0.000000  -0.000000   0.000000  -0.000000   0.000000
    26  H    0.000000  -0.000000   0.000000  -0.000000   0.000000  -0.000000
    27  H    0.000000  -0.000000   0.000000   0.000000   0.000000   0.000000
              19         20         21         22         23         24
     1  O    0.000000  -0.000000   0.000000  -0.000000  -0.000000  -0.000000
     2  C    0.000000   0.000000  -0.000000   0.000000  -0.000000   0.000000
     3  C    0.000000  -0.000000  -0.000000  -0.000000  -0.000000  -0.000000
     4  C   -0.000000   0.000000   0.000000   0.000000   0.000000  -0.000000
     5  C   -0.000000   0.000000   0.000000   0.000000   0.000000  -0.000000
     6  C   -0.000000   0.000000   0.000000   0.000000   0.000000  -0.000000
     7  O   -0.000000   0.000000  -0.000000   0.000000  -0.000000  -0.000000
     8  C   -0.000000   0.000000   0.000000   0.000000  -0.000000   0.000000
     9  C   -0.000000   0.000000  -0.000000  -0.000000   0.000000   0.000000
    10  O   -0.000000  -0.000000   0.000000  -0.000000   0.000000  -0.000000
    11  C   -0.000000   0.000000   0.000000  -0.000000   0.000000   0.000000
    12  C   -0.000000   0.000000   0.000000   0.000000  -0.000000   0.000000
    13  C    0.000000  -0.000000   0.000000   0.000000   0.000000  -0.000000
    14  O   -0.000000   0.000000   0.000000  -0.000000   0.000000   0.000000
    15  C    0.000000  -0.000000  -0.000000   0.000000  -0.000000   0.000000
    16  C    0.000000  -0.000000  -0.000000  -0.000000   0.000000  -0.000000
    17  O   -0.000000  -0.000000  -0.000000  -0.000000  -0.000000   0.000000
    18  C    0.000000  -0.000000  -0.000000  -0.000000  -0.000000  -0.000000
    19  C   -0.000000   0.000000   0.000000   0.000000  -0.000000  -0.000000
    20  H    0.000000   0.000000  -0.000000   0.000000  -0.000000  -0.000000
    21  H    0.000000  -0.000000   0.000000  -0.000000  -0.000000   0.000000
    22  H    0.000000   0.000000  -0.000000  -0.000000   0.000000  -0.000000
    23  H   -0.000000  -0.000000  -0.000000   0.000000  -0.000000   0.000000
    24  H   -0.000000  -0.000000   0.000000  -0.000000   0.000000  -0.000000
    25  H   -0.000000   0.000000  -0.000000   0.000000  -0.000000   0.000000
    26  H    0.000000  -0.000000  -0.000000  -0.000000   0.000000  -0.000000
    27  H   -0.000000   0.000000   0.000000   0.000000   0.000000  -0.000000
              25         26         27
     1  O    0.000000  -0.000000   0.000000
     2  C   -0.000000   0.000000   0.000000
     3  C    0.000000  -0.000000   0.000000
     4  C    0.000000  -0.000000  -0.000000
     5  C    0.000000  -0.000000  -0.000000
     6  C    0.000000   0.000000  -0.000000
     7  O    0.000000  -0.000000  -0.000000
     8  C    0.000000  -0.000000  -0.000000
     9  C   -0.000000   0.000000   0.000000
    10  O    0.000000  -0.000000  -0.000000
    11  C   -0.000000   0.000000   0.000000
    12  C   -0.000000   0.000000  -0.000000
    13  C    0.000000   0.000000   0.000000
    14  O   -0.000000  -0.000000  -0.000000
    15  C   -0.000000   0.000000   0.000000
    16  C    0.000000  -0.000000   0.000000
    17  O   -0.000000   0.000000   0.000000
    18  C    0.000000  -0.000000   0.000000
    19  C   -0.000000   0.000000  -0.000000
    20  H    0.000000  -0.000000   0.000000
    21  H   -0.000000  -0.000000   0.000000
    22  H    0.000000  -0.000000   0.000000
    23  H   -0.000000   0.000000   0.000000
    24  H    0.000000  -0.000000  -0.000000
    25  H   -0.000000   0.000000   0.000000
    26  H    0.000000  -0.000000  -0.000000
    27  H    0.000000  -0.000000  -0.000000
 Mulliken charges and spin densities:
               1          2
     1  O   -0.326193   0.000000
     2  C   -0.610506  -0.000000
     3  C   -0.026928  -0.000000
     4  C   -0.106054  -0.000000
     5  C   -0.252076  -0.000000
     6  C   -0.295680   0.000000
     7  O   -0.580226   0.000000
     8  C    0.403519   0.000000
     9  C   -0.356370  -0.000000
    10  O   -0.292740   0.000000
    11  C   -0.236216   0.000000
    12  C   -0.167690  -0.000000
    13  C   -0.562548  -0.000000
    14  O   -0.668352  -0.000000
    15  C    0.759925   0.000000
    16  C   -0.082227   0.000000
    17  O   -0.533592  -0.000000
    18  C    0.611640   0.000000
    19  C   -0.427189  -0.000000
    20  H    0.287240  -0.000000
    21  H    0.178917   0.000000
    22  H    0.153487  -0.000000
    23  H    0.276276  -0.000000
    24  H    0.132442  -0.000000
    25  H    0.144119  -0.000000
    26  H    0.415901   0.000000
    27  H    0.161121   0.000000
 Sum of Mulliken charges =  -2.00000  -0.00000
 Mulliken charges and spin densities with hydrogens summed into heavy atoms:
               1          2
     1  O   -0.038954   0.000000
     2  C   -0.610506  -0.000000
     3  C    0.151989  -0.000000
     4  C    0.047433  -0.000000
     5  C   -0.252076  -0.000000
     6  C   -0.295680   0.000000
     7  O   -0.580226   0.000000
     8  C    0.403519   0.000000
     9  C   -0.356370  -0.000000
    10  O   -0.016464   0.000000
    11  C   -0.103774   0.000000
    12  C   -0.023571  -0.000000
    13  C   -0.562548  -0.000000
    14  O   -0.668352  -0.000000
    15  C    0.759925   0.000000
    16  C   -0.082227   0.000000
    17  O   -0.117692  -0.000000
    18  C    0.611640   0.000000
    19  C   -0.266068  -0.000000
 Electronic spatial extent (au):  <R**2>=           5045.1809
 Charge=             -2.0000 electrons
 Dipole moment (field-independent basis, Debye):
    X=              5.0931    Y=             -3.5187    Z=              0.5717  Tot=              6.2168
 Quadrupole moment (field-independent basis, Debye-Ang):
   XX=           -137.3157   YY=           -181.0295   ZZ=           -120.9471
   XY=              4.4642   XZ=              4.7105   YZ=              0.6937
 Traceless Quadrupole moment (field-independent basis, Debye-Ang):
   XX=              9.1151   YY=            -34.5987   ZZ=             25.4837
   XY=              4.4642   XZ=              4.7105   YZ=              0.6937
 Octapole moment (field-independent basis, Debye-Ang**2):
  XXX=             26.1656  YYY=            -14.5033  ZZZ=              0.4836  XYY=             57.8444
  XXY=           -115.1003  XXZ=             22.4777  XZZ=              6.2540  YZZ=              0.3454
  YYZ=             -1.4236  XYZ=             -0.5692
 Hexadecapole moment (field-independent basis, Debye-Ang**3):
 XXXX=          -4397.6123 YYYY=          -2642.2242 ZZZZ=           -146.4215 XXXY=             17.4952
 XXXZ=            151.8926 YYYX=            157.5021 YYYZ=              5.0823 ZZZX=              3.9994
 ZZZY=              0.2092 XXYY=          -1268.8392 XXZZ=           -881.0051 YYZZ=           -384.4375
 XXYZ=             10.1007 YYXZ=              3.3687 ZZXY=             22.0257
 N-N= 1.348293010190D+03 E-N=-4.876220395112D+03  KE= 9.113077265306D+02
                          Isotropic Fermi Contact Couplings
        Atom                 a.u.       MegaHertz       Gauss      10(-4) cm-1
     1  O(17)             -0.00000       0.00000       0.00000       0.00000
     2  C(13)              0.00000       0.00000       0.00000       0.00000
     3  C(13)              0.00000       0.00000       0.00000       0.00000
     4  C(13)              0.00000       0.00000       0.00000       0.00000
     5  C(13)              0.00000       0.00000       0.00000       0.00000
     6  C(13)              0.00000       0.00000       0.00000       0.00000
     7  O(17)              0.00000      -0.00000      -0.00000      -0.00000
     8  C(13)             -0.00000      -0.00000      -0.00000      -0.00000
     9  C(13)             -0.00000      -0.00000      -0.00000      -0.00000
    10  O(17)              0.00000      -0.00000      -0.00000      -0.00000
    11  C(13)             -0.00000      -0.00000      -0.00000      -0.00000
    12  C(13)              0.00000       0.00000       0.00000       0.00000
    13  C(13)             -0.00000      -0.00000      -0.00000      -0.00000
    14  O(17)             -0.00000       0.00000       0.00000       0.00000
    15  C(13)              0.00000       0.00000       0.00000       0.00000
    16  C(13)              0.00000       0.00000       0.00000       0.00000
    17  O(17)              0.00000      -0.00000      -0.00000      -0.00000
    18  C(13)             -0.00000      -0.00000      -0.00000      -0.00000
    19  C(13)             -0.00000      -0.00000      -0.00000      -0.00000
    20  H(1)               0.00000       0.00000       0.00000       0.00000
    21  H(1)              -0.00000      -0.00000      -0.00000      -0.00000
    22  H(1)               0.00000       0.00000       0.00000       0.00000
    23  H(1)              -0.00000      -0.00000      -0.00000      -0.00000
    24  H(1)              -0.00000      -0.00000      -0.00000      -0.00000
    25  H(1)              -0.00000      -0.00000      -0.00000      -0.00000
    26  H(1)               0.00000       0.00000       0.00000       0.00000
    27  H(1)               0.00000       0.00000       0.00000       0.00000
 --------------------------------------------------------
       Center         ----  Spin Dipole Couplings  ----
                      3XX-RR        3YY-RR        3ZZ-RR
 --------------------------------------------------------
     1   Atom        0.000000     -0.000000      0.000000
     2   Atom       -0.000000      0.000000     -0.000000
     3   Atom        0.000000     -0.000000      0.000000
     4   Atom       -0.000000      0.000000      0.000000
     5   Atom       -0.000000      0.000000      0.000000
     6   Atom       -0.000000     -0.000000      0.000000
     7   Atom       -0.000000      0.000000      0.000000
     8   Atom        0.000000     -0.000000     -0.000000
     9   Atom       -0.000000      0.000000      0.000000
    10   Atom        0.000000     -0.000000     -0.000000
    11   Atom       -0.000000     -0.000000      0.000000
    12   Atom       -0.000000     -0.000000      0.000000
    13   Atom        0.000000     -0.000000     -0.000000
    14   Atom        0.000000     -0.000000     -0.000000
    15   Atom        0.000000     -0.000000      0.000000
    16   Atom       -0.000000      0.000000      0.000000
    17   Atom       -0.000000      0.000000      0.000000
    18   Atom        0.000000     -0.000000      0.000000
    19   Atom        0.000000     -0.000000      0.000000
    20   Atom       -0.000000      0.000000     -0.000000
    21   Atom       -0.000000      0.000000     -0.000000
    22   Atom        0.000000     -0.000000      0.000000
    23   Atom       -0.000000     -0.000000      0.000000
    24   Atom       -0.000000     -0.000000      0.000000
    25   Atom        0.000000     -0.000000     -0.000000
    26   Atom        0.000000     -0.000000      0.000000
    27   Atom       -0.000000      0.000000      0.000000
 --------------------------------------------------------
                        XY            XZ            YZ
 --------------------------------------------------------
     1   Atom        0.000000     -0.000000     -0.000000
     2   Atom       -0.000000      0.000000     -0.000000
     3   Atom       -0.000000      0.000000      0.000000
     4   Atom       -0.000000      0.000000     -0.000000
     5   Atom       -0.000000      0.000000      0.000000
     6   Atom       -0.000000      0.000000      0.000000
     7   Atom        0.000000     -0.000000      0.000000
     8   Atom       -0.000000     -0.000000      0.000000
     9   Atom       -0.000000     -0.000000      0.000000
    10   Atom       -0.000000      0.000000     -0.000000
    11   Atom        0.000000      0.000000     -0.000000
    12   Atom        0.000000      0.000000     -0.000000
    13   Atom        0.000000     -0.000000      0.000000
    14   Atom        0.000000     -0.000000     -0.000000
    15   Atom        0.000000      0.000000      0.000000
    16   Atom        0.000000     -0.000000     -0.000000
    17   Atom        0.000000     -0.000000      0.000000
    18   Atom       -0.000000      0.000000     -0.000000
    19   Atom       -0.000000     -0.000000      0.000000
    20   Atom       -0.000000     -0.000000     -0.000000
    21   Atom       -0.000000      0.000000      0.000000
    22   Atom       -0.000000      0.000000      0.000000
    23   Atom       -0.000000     -0.000000     -0.000000
    24   Atom        0.000000      0.000000     -0.000000
    25   Atom       -0.000000     -0.000000      0.000000
    26   Atom        0.000000      0.000000      0.000000
    27   Atom        0.000000     -0.000000      0.000000
 --------------------------------------------------------


 ---------------------------------------------------------------------------------
              Anisotropic Spin Dipole Couplings in Principal Axis System
 ---------------------------------------------------------------------------------

       Atom             a.u.   MegaHertz   Gauss  10(-4) cm-1        Axes

              Baa    -0.0000     0.000     0.000     0.000  0.0281  0.9488  0.3148
     1 O(17)  Bbb     0.0000    -0.000    -0.000    -0.000  0.9382 -0.1336  0.3192
              Bcc     0.0000    -0.000    -0.000    -0.000 -0.3449 -0.2863  0.8939
 
              Baa    -0.0000    -0.000    -0.000    -0.000 -0.1488 -0.0392  0.9881
     2 C(13)  Bbb    -0.0000    -0.000    -0.000    -0.000  0.9064  0.3940  0.1521
              Bcc     0.0000     0.000     0.000     0.000 -0.3953  0.9183 -0.0231
 
              Baa    -0.0000    -0.000    -0.000    -0.000  0.5699  0.8134 -0.1169
     3 C(13)  Bbb     0.0000     0.000     0.000     0.000  0.1746  0.0191  0.9844
              Bcc     0.0000     0.000     0.000     0.000  0.8030 -0.5814 -0.1311
 
              Baa    -0.0000    -0.000    -0.000    -0.000  0.9762  0.1745 -0.1288
     4 C(13)  Bbb     0.0000     0.000     0.000     0.000  0.0955  0.1874  0.9776
              Bcc     0.0000     0.000     0.000     0.000 -0.1947  0.9667 -0.1663
 
              Baa    -0.0000    -0.000    -0.000    -0.000  0.7249  0.6697 -0.1613
     5 C(13)  Bbb     0.0000     0.000     0.000     0.000  0.0019  0.2322  0.9727
              Bcc     0.0000     0.000     0.000     0.000 -0.6888  0.7054 -0.1671
 
              Baa    -0.0000    -0.000    -0.000    -0.000  0.7109  0.6579 -0.2486
     6 C(13)  Bbb     0.0000     0.000     0.000     0.000  0.3160  0.0171  0.9486
              Bcc     0.0000     0.000     0.000     0.000 -0.6283  0.7529  0.1957
 
              Baa    -0.0000     0.000     0.000     0.000  0.7983 -0.5782  0.1689
     7 O(17)  Bbb     0.0000    -0.000    -0.000    -0.000 -0.3092 -0.1526  0.9387
              Bcc     0.0000    -0.000    -0.000    -0.000  0.5169  0.8015  0.3006
 
              Baa    -0.0000    -0.000    -0.000    -0.000 -0.1064  0.8953 -0.4325
     8 C(13)  Bbb    -0.0000    -0.000    -0.000    -0.000  0.4598  0.4300  0.7770
              Bcc     0.0000     0.000     0.000     0.000  0.8816 -0.1162 -0.4574
 
              Baa    -0.0000    -0.000    -0.000    -0.000  0.8384  0.5266  0.1406
     9 C(13)  Bbb     0.0000     0.000     0.000     0.000 -0.0258 -0.2193  0.9753
              Bcc     0.0000     0.000     0.000     0.000 -0.5444  0.8214  0.1703
 
              Baa    -0.0000     0.000     0.000     0.000 -0.3903  0.5535  0.7357
    10 O(17)  Bbb    -0.0000     0.000     0.000     0.000  0.4405  0.8140 -0.3787
              Bcc     0.0000    -0.000    -0.000    -0.000  0.8085 -0.1763  0.5615
 
              Baa    -0.0000    -0.000    -0.000    -0.000 -0.5683  0.8103  0.1429
    11 C(13)  Bbb     0.0000     0.000     0.000     0.000  0.8220  0.5668  0.0548
              Bcc     0.0000     0.000     0.000     0.000  0.0366 -0.1486  0.9882
 
              Baa    -0.0000    -0.000    -0.000    -0.000  0.7343 -0.6329 -0.2455
    12 C(13)  Bbb     0.0000     0.000     0.000     0.000  0.5986  0.7742 -0.2054
              Bcc     0.0000     0.000     0.000     0.000  0.3201  0.0039  0.9474
 
              Baa    -0.0000    -0.000    -0.000    -0.000 -0.5710  0.6170 -0.5416
    13 C(13)  Bbb    -0.0000    -0.000    -0.000    -0.000 -0.2187  0.5216  0.8247
              Bcc     0.0000     0.000     0.000     0.000  0.7913  0.5893 -0.1629
 
              Baa    -0.0000     0.000     0.000     0.000  0.3568  0.2232  0.9071
    14 O(17)  Bbb    -0.0000     0.000     0.000     0.000 -0.1040  0.9745 -0.1989
              Bcc     0.0000    -0.000    -0.000    -0.000  0.9284  0.0234 -0.3709
 
              Baa    -0.0000    -0.000    -0.000    -0.000 -0.3017  0.9530  0.0275
    15 C(13)  Bbb     0.0000     0.000     0.000     0.000  0.9232  0.2993 -0.2412
              Bcc     0.0000     0.000     0.000     0.000  0.2381  0.0474  0.9701
 
              Baa    -0.0000    -0.000    -0.000    -0.000  0.8262 -0.5619  0.0409
    16 C(13)  Bbb     0.0000     0.000     0.000     0.000  0.2818  0.4750  0.8336
              Bcc     0.0000     0.000     0.000     0.000  0.4879  0.6772 -0.5508
 
              Baa    -0.0000     0.000     0.000     0.000  0.9059 -0.1948  0.3761
    17 O(17)  Bbb     0.0000    -0.000    -0.000    -0.000  0.3283  0.8840 -0.3328
              Bcc     0.0000    -0.000    -0.000    -0.000 -0.2676  0.4249  0.8648
 
              Baa    -0.0000    -0.000    -0.000    -0.000  0.0430  0.9889  0.1425
    18 C(13)  Bbb     0.0000     0.000     0.000     0.000  0.7586  0.0605 -0.6487
              Bcc     0.0000     0.000     0.000     0.000  0.6501 -0.1360  0.7475
 
              Baa    -0.0000    -0.000    -0.000    -0.000  0.5744  0.8114  0.1080
    19 C(13)  Bbb     0.0000     0.000     0.000     0.000  0.4750 -0.4378  0.7634
              Bcc     0.0000     0.000     0.000     0.000  0.6667 -0.3872 -0.6369
 
              Baa    -0.0000    -0.000    -0.000    -0.000  0.4700  0.4915  0.7331
    20 H(1)   Bbb    -0.0000    -0.000    -0.000    -0.000  0.7699  0.1779 -0.6129
              Bcc     0.0000     0.000     0.000     0.000 -0.4317  0.8525 -0.2948
 
              Baa    -0.0000    -0.000    -0.000    -0.000  0.8579  0.3808 -0.3450
    21 H(1)   Bbb    -0.0000    -0.000    -0.000    -0.000  0.3227  0.1232  0.9384
              Bcc     0.0000     0.000     0.000     0.000 -0.3999  0.9164  0.0172
 
              Baa    -0.0000    -0.000    -0.000    -0.000  0.3654  0.9284 -0.0678
    22 H(1)   Bbb     0.0000     0.000     0.000     0.000  0.9170 -0.3715 -0.1450
              Bcc     0.0000     0.000     0.000     0.000  0.1598  0.0092  0.9871
 
              Baa    -0.0000    -0.000    -0.000    -0.000  0.3802  0.9244  0.0318
    23 H(1)   Bbb    -0.0000    -0.000    -0.000    -0.000  0.9150 -0.3809  0.1326
              Bcc     0.0000     0.000     0.000     0.000 -0.1347  0.0214  0.9907
 
              Baa    -0.0000    -0.000    -0.000    -0.000  0.7158 -0.6555 -0.2410
    24 H(1)   Bbb     0.0000     0.000     0.000     0.000  0.6939  0.7064  0.1396
              Bcc     0.0000     0.000     0.000     0.000  0.0787 -0.2671  0.9604
 
              Baa    -0.0000    -0.000    -0.000    -0.000  0.3800  0.9210 -0.0853
    25 H(1)   Bbb    -0.0000    -0.000    -0.000    -0.000  0.1757  0.0186  0.9843
              Bcc     0.0000     0.000     0.000     0.000  0.9081 -0.3890 -0.1547
 
              Baa    -0.0000    -0.000    -0.000    -0.000 -0.2893  0.9572  0.0006
    26 H(1)   Bbb     0.0000     0.000     0.000     0.000  0.9427  0.2850 -0.1734
              Bcc     0.0000     0.000     0.000     0.000  0.1661  0.0496  0.9849
 
              Baa    -0.0000    -0.000    -0.000    -0.000  0.9734 -0.1986  0.1143
    27 H(1)   Bbb    -0.0000    -0.000    -0.000    -0.000 -0.1459 -0.1525  0.9775
              Bcc     0.0000     0.000     0.000     0.000  0.1766  0.9681  0.1774
 

 ---------------------------------------------------------------------------------

 No NMR shielding tensors so no spin-rotation constants.
 Leave Link  601 at Tue Jan 16 06:22:47 2024, MaxMem=  4026531840 cpu:               2.1 elap:               0.3
 (Enter /sysapps/ubuntu-applications/gaussian/Gaussian/AVX2/g16/l9999.exe)
 1\1\GINC-ACIDSCN028\SP\UB3LYP\6-311++G(d,p)\C14H8O5(2-)\SELHAJJ1\16-Ja
 n-2024\0\\#P UB3LYP/6-311++G(d,p) SCRF=(PCM,Solvent=n,n-DiMethylFormam
 ide)\\Reduced\\-2,1\O,0,4.893003,0.888911,-0.72181\C,0,3.629789,0.3090
 65,-0.517108\C,0,3.520446,-1.105614,-0.437438\C,0,2.269834,-1.662487,-
 0.220147\C,0,1.105754,-0.884835,-0.106211\C,0,-0.178771,-1.555402,0.10
 7316\O,0,-0.235823,-2.81566,0.194554\C,0,-1.344361,-0.672622,0.210409\
 C,0,-2.665086,-1.182085,0.414913\O,0,-2.890051,-2.56046,0.519621\C,0,-
 3.745186,-0.330046,0.513153\C,0,-3.604159,1.072775,0.412188\C,0,-2.356
 019,1.668507,0.21108\O,0,-2.210659,2.967417,0.117383\C,0,-1.193887,0.7
 69476,0.107473\C,0,0.085742,1.351022,-0.101667\O,0,0.228213,2.715079,-
 0.202877\C,0,1.226306,0.549992,-0.208011\C,0,2.532504,1.115416,-0.3997
 41\H,0,5.54327,0.262913,-0.380188\H,0,4.400095,-1.730005,-0.583807\H,0
 ,2.141511,-2.737968,-0.148375\H,0,-3.847089,-2.64878,0.582447\H,0,-4.7
 37826,-0.757628,0.676153\H,0,-4.471214,1.723323,0.492527\H,0,-0.732675
 ,3.057108,-0.09022\H,0,2.63634,2.192589,-0.441618\\Version=ES64L-G16Re
 vA.03\State=1-A\HF=-914.948676\S2=0.\S2-1=0.\S2A=0.\RMSD=6.935e-09\Dip
 ole=2.0514212,-1.3315195,0.0309164\Quadrupole=7.6972671,-25.3824338,17
 .6851667,4.4863888,4.7282561,2.4928647\PG=C01 [X(C14H8O5)]\\@


 CONFIDENCE IS WHAT YOU FEEL BEFORE YOU FULLY
 COMPREHEND THE SITUATION.
 Job cpu time:       0 days  0 hours 22 minutes 15.6 seconds.
 Elapsed time:       0 days  0 hours  2 minutes 48.3 seconds.
 File lengths (MBytes):  RWF=    303 Int=      0 D2E=      0 Chk=     18 Scr=      1
 Normal termination of Gaussian 16 at Tue Jan 16 06:22:47 2024.
