 Entering Gaussian System, Link 0=g16
 Input=226.com
 Output=226.log
 Initial command:
 /sysapps/ubuntu-applications/gaussian/Gaussian/AVX2/g16/l1.exe "/scratch/selhajj1/4222735/Gau-3519347.inp" -scrdir="/scratch/selhajj1/4222735/"
 Entering Link 1 = /sysapps/ubuntu-applications/gaussian/Gaussian/AVX2/g16/l1.exe PID=   3519349.
  
 Copyright (c) 1988,1990,1992,1993,1995,1998,2003,2009,2016,
            Gaussian, Inc.  All Rights Reserved.
  
 This is part of the Gaussian(R) 16 program.  It is based on
 the Gaussian(R) 09 system (copyright 2009, Gaussian, Inc.),
 the Gaussian(R) 03 system (copyright 2003, Gaussian, Inc.),
 the Gaussian(R) 98 system (copyright 1998, Gaussian, Inc.),
 the Gaussian(R) 94 system (copyright 1995, Gaussian, Inc.),
 the Gaussian 92(TM) system (copyright 1992, Gaussian, Inc.),
 the Gaussian 90(TM) system (copyright 1990, Gaussian, Inc.),
 the Gaussian 88(TM) system (copyright 1988, Gaussian, Inc.),
 the Gaussian 86(TM) system (copyright 1986, Carnegie Mellon
 University), and the Gaussian 82(TM) system (copyright 1983,
 Carnegie Mellon University). Gaussian is a federally registered
 trademark of Gaussian, Inc.
  
 This software contains proprietary and confidential information,
 including trade secrets, belonging to Gaussian, Inc.
  
 This software is provided under written license and may be
 used, copied, transmitted, or stored only in accord with that
 written license.
  
 The following legend is applicable only to US Government
 contracts under FAR:
  
                    RESTRICTED RIGHTS LEGEND
  
 Use, reproduction and disclosure by the US Government is
 subject to restrictions as set forth in subparagraphs (a)
 and (c) of the Commercial Computer Software - Restricted
 Rights clause in FAR 52.227-19.
  
 Gaussian, Inc.
 340 Quinnipiac St., Bldg. 40, Wallingford CT 06492
  
  
 ---------------------------------------------------------------
 Warning -- This program may not be used in any manner that
 competes with the business of Gaussian, Inc. or will provide
 assistance to any competitor of Gaussian, Inc.  The licensee
 of this program is prohibited from giving any competitor of
 Gaussian, Inc. access to this program.  By using this program,
 the user acknowledges that Gaussian, Inc. is engaged in the
 business of creating and licensing software in the field of
 computational chemistry and represents and warrants to the
 licensee that it is not a competitor of Gaussian, Inc. and that
 it will not use this program in any manner prohibited above.
 ---------------------------------------------------------------
  

 Cite this work as:
 Gaussian 16, Revision A.03,
 M. J. Frisch, G. W. Trucks, H. B. Schlegel, G. E. Scuseria, 
 M. A. Robb, J. R. Cheeseman, G. Scalmani, V. Barone, 
 G. A. Petersson, H. Nakatsuji, X. Li, M. Caricato, A. V. Marenich, 
 J. Bloino, B. G. Janesko, R. Gomperts, B. Mennucci, H. P. Hratchian, 
 J. V. Ortiz, A. F. Izmaylov, J. L. Sonnenberg, D. Williams-Young, 
 F. Ding, F. Lipparini, F. Egidi, J. Goings, B. Peng, A. Petrone, 
 T. Henderson, D. Ranasinghe, V. G. Zakrzewski, J. Gao, N. Rega, 
 G. Zheng, W. Liang, M. Hada, M. Ehara, K. Toyota, R. Fukuda, 
 J. Hasegawa, M. Ishida, T. Nakajima, Y. Honda, O. Kitao, H. Nakai, 
 T. Vreven, K. Throssell, J. A. Montgomery, Jr., J. E. Peralta, 
 F. Ogliaro, M. J. Bearpark, J. J. Heyd, E. N. Brothers, K. N. Kudin, 
 V. N. Staroverov, T. A. Keith, R. Kobayashi, J. Normand, 
 K. Raghavachari, A. P. Rendell, J. C. Burant, S. S. Iyengar, 
 J. Tomasi, M. Cossi, J. M. Millam, M. Klene, C. Adamo, R. Cammi, 
 J. W. Ochterski, R. L. Martin, K. Morokuma, O. Farkas, 
 J. B. Foresman, and D. J. Fox, Gaussian, Inc., Wallingford CT, 2016.
 
 ******************************************
 Gaussian 16:  ES64L-G16RevA.03 25-Dec-2016
                21-Dec-2023 
 ******************************************
 %chk=226.chk
 %nproc=8
 Will use up to    8 processors via shared memory.
 %mem=30GB
 --------------------------------------
 #P UB3LYP/6-311++G(d,p) nosym opt freq
 --------------------------------------
 1/18=20,19=15,26=3,38=1/1,3;
 2/9=110,12=2,15=1,17=6,18=5,40=1/2;
 3/5=4,6=6,7=1111,11=2,25=1,30=1,71=1,74=-5,116=2/1,2,3;
 4//1;
 5/5=2,38=5/2;
 6/7=2,8=2,9=2,10=2,28=1/1;
 7/30=1/1,2,3,16;
 1/18=20,19=15,26=3/3(2);
 2/9=110,15=1/2;
 99//99;
 2/9=110,15=1/2;
 3/5=4,6=6,7=1111,11=2,25=1,30=1,71=1,74=-5,116=2/1,2,3;
 4/5=5,16=3,69=1/1;
 5/5=2,38=5/2;
 7/30=1/1,2,3,16;
 1/18=20,19=15,26=3/3(-5);
 2/9=110,15=1/2;
 6/7=2,8=2,9=2,10=2,19=2,28=1/1;
 99/9=1/99;
 Leave Link    1 at Thu Dec 21 23:06:16 2023, MaxMem=  4026531840 cpu:               0.6 elap:               0.1
 (Enter /sysapps/ubuntu-applications/gaussian/Gaussian/AVX2/g16/l101.exe)
 --------
 Oxidized
 --------
 Symbolic Z-matrix:
 Charge = -2 Multiplicity = 1
 O                    -5.74465   1.20446  -1.45477 
 S                    -5.24253   0.662     0.04851 
 O                    -5.09717   1.86848   0.94072 
 O                    -6.2082   -0.27406   0.67213 
 C                    -3.67314  -0.13344  -0.07007 
 C                    -3.55238  -1.48479  -0.30996 
 C                    -2.27922  -2.01934  -0.38635 
 C                    -1.14029  -1.26655  -0.23452 
 C                     0.20416  -1.81334  -0.31203 
 O                     0.32019  -3.04657  -0.53086 
 C                     1.38584  -0.96087  -0.14172 
 C                     2.66407  -1.48931  -0.21695 
 C                     3.73554  -0.63453  -0.0479 
 C                     3.56764   0.71986   0.19182 
 C                     2.30289   1.24208   0.26615 
 C                     1.23476   0.38154   0.09611 
 C                    -0.09602   0.95812   0.17916 
 O                    -0.27181   2.19782   0.39823 
 C                    -1.25533   0.08723   0.00588 
 C                    -2.5398    0.63752   0.08493 
 S                     4.97059   1.76261   0.39947 
 O                     5.4652    2.39146  -1.08774 
 O                     4.73213   2.83128   1.40337 
 O                     6.0993    0.88853   0.8872 
 H                    -4.45461  -2.07081  -0.42839 
 H                    -2.18696  -3.09647  -0.57763 
 H                     2.7894   -2.55166  -0.40507 
 H                     4.74935  -0.99672  -0.09738 
 H                     2.14356   2.30487   0.45383 
 H                    -2.62253   1.70061   0.27384 
 
 ITRead=  0  0  0  0  0  0  0  0  0  0  0  0  0  0  0  0  0  0  0  0
 ITRead=  0  0  0  0  0  0  0  0  0  0
 MicOpt= -1 -1 -1 -1 -1 -1 -1 -1 -1 -1 -1 -1 -1 -1 -1 -1 -1 -1 -1 -1
 MicOpt= -1 -1 -1 -1 -1 -1 -1 -1 -1 -1
 NAtoms=     30 NQM=       30 NQMF=       0 NMMI=      0 NMMIF=      0
                NMic=       0 NMicF=      0.
                    Isotopes and Nuclear Properties:
 (Nuclear quadrupole moments (NQMom) in fm**2, nuclear magnetic moments (NMagM)
  in nuclear magnetons)

  Atom         1           2           3           4           5           6           7           8           9          10
 IAtWgt=          16          32          16          16          12          12          12          12          12          16
 AtmWgt=  15.9949146  31.9720718  15.9949146  15.9949146  12.0000000  12.0000000  12.0000000  12.0000000  12.0000000  15.9949146
 NucSpn=           0           0           0           0           0           0           0           0           0           0
 AtZEff=  -0.0000000  -0.0000000  -0.0000000  -0.0000000  -0.0000000  -0.0000000  -0.0000000  -0.0000000  -0.0000000  -0.0000000
 NQMom=    0.0000000   0.0000000   0.0000000   0.0000000   0.0000000   0.0000000   0.0000000   0.0000000   0.0000000   0.0000000
 NMagM=    0.0000000   0.0000000   0.0000000   0.0000000   0.0000000   0.0000000   0.0000000   0.0000000   0.0000000   0.0000000
 AtZNuc=   8.0000000  16.0000000   8.0000000   8.0000000   6.0000000   6.0000000   6.0000000   6.0000000   6.0000000   8.0000000

  Atom        11          12          13          14          15          16          17          18          19          20
 IAtWgt=          12          12          12          12          12          12          12          16          12          12
 AtmWgt=  12.0000000  12.0000000  12.0000000  12.0000000  12.0000000  12.0000000  12.0000000  15.9949146  12.0000000  12.0000000
 NucSpn=           0           0           0           0           0           0           0           0           0           0
 AtZEff=  -0.0000000  -0.0000000  -0.0000000  -0.0000000  -0.0000000  -0.0000000  -0.0000000  -0.0000000  -0.0000000  -0.0000000
 NQMom=    0.0000000   0.0000000   0.0000000   0.0000000   0.0000000   0.0000000   0.0000000   0.0000000   0.0000000   0.0000000
 NMagM=    0.0000000   0.0000000   0.0000000   0.0000000   0.0000000   0.0000000   0.0000000   0.0000000   0.0000000   0.0000000
 AtZNuc=   6.0000000   6.0000000   6.0000000   6.0000000   6.0000000   6.0000000   6.0000000   8.0000000   6.0000000   6.0000000

  Atom        21          22          23          24          25          26          27          28          29          30
 IAtWgt=          32          16          16          16           1           1           1           1           1           1
 AtmWgt=  31.9720718  15.9949146  15.9949146  15.9949146   1.0078250   1.0078250   1.0078250   1.0078250   1.0078250   1.0078250
 NucSpn=           0           0           0           0           1           1           1           1           1           1
 AtZEff=  -0.0000000  -0.0000000  -0.0000000  -0.0000000  -0.0000000  -0.0000000  -0.0000000  -0.0000000  -0.0000000  -0.0000000
 NQMom=    0.0000000   0.0000000   0.0000000   0.0000000   0.0000000   0.0000000   0.0000000   0.0000000   0.0000000   0.0000000
 NMagM=    0.0000000   0.0000000   0.0000000   0.0000000   2.7928460   2.7928460   2.7928460   2.7928460   2.7928460   2.7928460
 AtZNuc=  16.0000000   8.0000000   8.0000000   8.0000000   1.0000000   1.0000000   1.0000000   1.0000000   1.0000000   1.0000000
 Leave Link  101 at Thu Dec 21 23:06:17 2023, MaxMem=  4026531840 cpu:               4.1 elap:               0.7
 (Enter /sysapps/ubuntu-applications/gaussian/Gaussian/AVX2/g16/l103.exe)

 GradGradGradGradGradGradGradGradGradGradGradGradGradGradGradGradGradGrad
 Berny optimization.
 Initialization pass.
                           ----------------------------
                           !    Initial Parameters    !
                           ! (Angstroms and Degrees)  !
 --------------------------                            --------------------------
 ! Name  Definition              Value          Derivative Info.                !
 --------------------------------------------------------------------------------
 ! R1    R(1,2)                  1.6752         estimate D2E/DX2                !
 ! R2    R(2,3)                  1.5076         estimate D2E/DX2                !
 ! R3    R(2,4)                  1.4824         estimate D2E/DX2                !
 ! R4    R(2,5)                  1.7635         estimate D2E/DX2                !
 ! R5    R(5,6)                  1.3778         estimate D2E/DX2                !
 ! R6    R(5,20)                 1.3794         estimate D2E/DX2                !
 ! R7    R(6,7)                  1.3829         estimate D2E/DX2                !
 ! R8    R(6,25)                 1.0823         estimate D2E/DX2                !
 ! R9    R(7,8)                  1.3737         estimate D2E/DX2                !
 ! R10   R(7,26)                 1.0979         estimate D2E/DX2                !
 ! R11   R(8,9)                  1.4535         estimate D2E/DX2                !
 ! R12   R(8,19)                 1.3798         estimate D2E/DX2                !
 ! R13   R(9,10)                 1.2578         estimate D2E/DX2                !
 ! R14   R(9,11)                 1.467          estimate D2E/DX2                !
 ! R15   R(11,12)                1.3852         estimate D2E/DX2                !
 ! R16   R(11,16)                1.3717         estimate D2E/DX2                !
 ! R17   R(12,13)                1.381          estimate D2E/DX2                !
 ! R18   R(12,27)                1.0861         estimate D2E/DX2                !
 ! R19   R(13,14)                1.3857         estimate D2E/DX2                !
 ! R20   R(13,28)                1.0777         estimate D2E/DX2                !
 ! R21   R(14,15)                1.3703         estimate D2E/DX2                !
 ! R22   R(14,21)                1.7603         estimate D2E/DX2                !
 ! R23   R(15,16)                1.3821         estimate D2E/DX2                !
 ! R24   R(15,29)                1.0909         estimate D2E/DX2                !
 ! R25   R(16,17)                1.4527         estimate D2E/DX2                !
 ! R26   R(17,18)                1.2711         estimate D2E/DX2                !
 ! R27   R(17,19)                1.4603         estimate D2E/DX2                !
 ! R28   R(19,20)                1.3996         estimate D2E/DX2                !
 ! R29   R(20,30)                1.0829         estimate D2E/DX2                !
 ! R30   R(21,22)                1.6888         estimate D2E/DX2                !
 ! R31   R(21,23)                1.4855         estimate D2E/DX2                !
 ! R32   R(21,24)                1.5086         estimate D2E/DX2                !
 ! A1    A(1,2,3)              107.5078         estimate D2E/DX2                !
 ! A2    A(1,2,4)              112.7509         estimate D2E/DX2                !
 ! A3    A(1,2,5)              110.6389         estimate D2E/DX2                !
 ! A4    A(3,2,4)              108.6132         estimate D2E/DX2                !
 ! A5    A(3,2,5)              108.3586         estimate D2E/DX2                !
 ! A6    A(4,2,5)              108.8559         estimate D2E/DX2                !
 ! A7    A(2,5,6)              122.1491         estimate D2E/DX2                !
 ! A8    A(2,5,20)             118.1336         estimate D2E/DX2                !
 ! A9    A(6,5,20)             119.7173         estimate D2E/DX2                !
 ! A10   A(5,6,7)              117.9973         estimate D2E/DX2                !
 ! A11   A(5,6,25)             118.4921         estimate D2E/DX2                !
 ! A12   A(7,6,25)             123.5106         estimate D2E/DX2                !
 ! A13   A(6,7,8)              123.0502         estimate D2E/DX2                !
 ! A14   A(6,7,26)             117.7899         estimate D2E/DX2                !
 ! A15   A(8,7,26)             119.1599         estimate D2E/DX2                !
 ! A16   A(7,8,9)              123.7025         estimate D2E/DX2                !
 ! A17   A(7,8,19)             119.1983         estimate D2E/DX2                !
 ! A18   A(9,8,19)             117.0993         estimate D2E/DX2                !
 ! A19   A(8,9,10)             117.6094         estimate D2E/DX2                !
 ! A20   A(8,9,11)             121.352          estimate D2E/DX2                !
 ! A21   A(10,9,11)            121.0387         estimate D2E/DX2                !
 ! A22   A(9,11,12)            121.0186         estimate D2E/DX2                !
 ! A23   A(9,11,16)            120.0076         estimate D2E/DX2                !
 ! A24   A(12,11,16)           118.9738         estimate D2E/DX2                !
 ! A25   A(11,12,13)           118.24           estimate D2E/DX2                !
 ! A26   A(11,12,27)           119.2767         estimate D2E/DX2                !
 ! A27   A(13,12,27)           122.4833         estimate D2E/DX2                !
 ! A28   A(12,13,14)           122.1499         estimate D2E/DX2                !
 ! A29   A(12,13,28)           121.0793         estimate D2E/DX2                !
 ! A30   A(14,13,28)           116.7708         estimate D2E/DX2                !
 ! A31   A(13,14,15)           119.585          estimate D2E/DX2                !
 ! A32   A(13,14,21)           120.1877         estimate D2E/DX2                !
 ! A33   A(15,14,21)           120.2272         estimate D2E/DX2                !
 ! A34   A(14,15,16)           117.9893         estimate D2E/DX2                !
 ! A35   A(14,15,29)           121.0231         estimate D2E/DX2                !
 ! A36   A(16,15,29)           120.9876         estimate D2E/DX2                !
 ! A37   A(11,16,15)           123.0619         estimate D2E/DX2                !
 ! A38   A(11,16,17)           119.9506         estimate D2E/DX2                !
 ! A39   A(15,16,17)           116.9875         estimate D2E/DX2                !
 ! A40   A(16,17,18)           121.5763         estimate D2E/DX2                !
 ! A41   A(16,17,19)           118.9319         estimate D2E/DX2                !
 ! A42   A(18,17,19)           119.4918         estimate D2E/DX2                !
 ! A43   A(8,19,17)            122.6587         estimate D2E/DX2                !
 ! A44   A(8,19,20)            118.1722         estimate D2E/DX2                !
 ! A45   A(17,19,20)           119.1691         estimate D2E/DX2                !
 ! A46   A(5,20,19)            121.8647         estimate D2E/DX2                !
 ! A47   A(5,20,30)            120.3643         estimate D2E/DX2                !
 ! A48   A(19,20,30)           117.771          estimate D2E/DX2                !
 ! A49   A(14,21,22)           110.4944         estimate D2E/DX2                !
 ! A50   A(14,21,23)           112.2053         estimate D2E/DX2                !
 ! A51   A(14,21,24)           106.9305         estimate D2E/DX2                !
 ! A52   A(22,21,23)           111.9796         estimate D2E/DX2                !
 ! A53   A(22,21,24)           106.3399         estimate D2E/DX2                !
 ! A54   A(23,21,24)           108.5688         estimate D2E/DX2                !
 ! D1    D(1,2,5,6)            -90.0058         estimate D2E/DX2                !
 ! D2    D(1,2,5,20)            89.9938         estimate D2E/DX2                !
 ! D3    D(3,2,5,6)            152.3682         estimate D2E/DX2                !
 ! D4    D(3,2,5,20)           -27.6323         estimate D2E/DX2                !
 ! D5    D(4,2,5,6)             34.4184         estimate D2E/DX2                !
 ! D6    D(4,2,5,20)          -145.582          estimate D2E/DX2                !
 ! D7    D(2,5,6,7)            179.9997         estimate D2E/DX2                !
 ! D8    D(2,5,6,25)            -0.0003         estimate D2E/DX2                !
 ! D9    D(20,5,6,7)             0.0001         estimate D2E/DX2                !
 ! D10   D(20,5,6,25)         -179.9999         estimate D2E/DX2                !
 ! D11   D(2,5,20,19)         -179.9995         estimate D2E/DX2                !
 ! D12   D(2,5,20,30)            0.0015         estimate D2E/DX2                !
 ! D13   D(6,5,20,19)            0.0001         estimate D2E/DX2                !
 ! D14   D(6,5,20,30)         -179.9989         estimate D2E/DX2                !
 ! D15   D(5,6,7,8)             -0.0003         estimate D2E/DX2                !
 ! D16   D(5,6,7,26)          -179.9997         estimate D2E/DX2                !
 ! D17   D(25,6,7,8)           179.9997         estimate D2E/DX2                !
 ! D18   D(25,6,7,26)            0.0003         estimate D2E/DX2                !
 ! D19   D(6,7,8,9)            179.9998         estimate D2E/DX2                !
 ! D20   D(6,7,8,19)             0.0002         estimate D2E/DX2                !
 ! D21   D(26,7,8,9)            -0.0008         estimate D2E/DX2                !
 ! D22   D(26,7,8,19)          179.9996         estimate D2E/DX2                !
 ! D23   D(7,8,9,10)             0.0005         estimate D2E/DX2                !
 ! D24   D(7,8,9,11)          -179.9995         estimate D2E/DX2                !
 ! D25   D(19,8,9,10)         -179.9999         estimate D2E/DX2                !
 ! D26   D(19,8,9,11)            0.0            estimate D2E/DX2                !
 ! D27   D(7,8,19,17)          179.9994         estimate D2E/DX2                !
 ! D28   D(7,8,19,20)            0.0            estimate D2E/DX2                !
 ! D29   D(9,8,19,17)           -0.0002         estimate D2E/DX2                !
 ! D30   D(9,8,19,20)         -179.9996         estimate D2E/DX2                !
 ! D31   D(8,9,11,12)         -179.9995         estimate D2E/DX2                !
 ! D32   D(8,9,11,16)            0.0002         estimate D2E/DX2                !
 ! D33   D(10,9,11,12)           0.0004         estimate D2E/DX2                !
 ! D34   D(10,9,11,16)        -179.9999         estimate D2E/DX2                !
 ! D35   D(9,11,12,13)         179.9994         estimate D2E/DX2                !
 ! D36   D(9,11,12,27)          -0.001          estimate D2E/DX2                !
 ! D37   D(16,11,12,13)         -0.0003         estimate D2E/DX2                !
 ! D38   D(16,11,12,27)        179.9993         estimate D2E/DX2                !
 ! D39   D(9,11,16,15)        -179.9994         estimate D2E/DX2                !
 ! D40   D(9,11,16,17)          -0.0002         estimate D2E/DX2                !
 ! D41   D(12,11,16,15)          0.0002         estimate D2E/DX2                !
 ! D42   D(12,11,16,17)        179.9995         estimate D2E/DX2                !
 ! D43   D(11,12,13,14)          0.0003         estimate D2E/DX2                !
 ! D44   D(11,12,13,28)        179.9995         estimate D2E/DX2                !
 ! D45   D(27,12,13,14)       -179.9993         estimate D2E/DX2                !
 ! D46   D(27,12,13,28)         -0.0001         estimate D2E/DX2                !
 ! D47   D(12,13,14,15)         -0.0002         estimate D2E/DX2                !
 ! D48   D(12,13,14,21)       -179.9995         estimate D2E/DX2                !
 ! D49   D(28,13,14,15)       -179.9995         estimate D2E/DX2                !
 ! D50   D(28,13,14,21)          0.0013         estimate D2E/DX2                !
 ! D51   D(13,14,15,16)          0.0001         estimate D2E/DX2                !
 ! D52   D(13,14,15,29)       -179.9996         estimate D2E/DX2                !
 ! D53   D(21,14,15,16)        179.9994         estimate D2E/DX2                !
 ! D54   D(21,14,15,29)         -0.0004         estimate D2E/DX2                !
 ! D55   D(13,14,21,22)         90.0053         estimate D2E/DX2                !
 ! D56   D(13,14,21,23)       -144.2518         estimate D2E/DX2                !
 ! D57   D(13,14,21,24)        -25.3184         estimate D2E/DX2                !
 ! D58   D(15,14,21,22)        -89.994          estimate D2E/DX2                !
 ! D59   D(15,14,21,23)         35.749          estimate D2E/DX2                !
 ! D60   D(15,14,21,24)        154.6824         estimate D2E/DX2                !
 ! D61   D(14,15,16,11)         -0.0001         estimate D2E/DX2                !
 ! D62   D(14,15,16,17)       -179.9994         estimate D2E/DX2                !
 ! D63   D(29,15,16,11)        179.9996         estimate D2E/DX2                !
 ! D64   D(29,15,16,17)          0.0003         estimate D2E/DX2                !
 ! D65   D(11,16,17,18)       -179.9997         estimate D2E/DX2                !
 ! D66   D(11,16,17,19)          0.0            estimate D2E/DX2                !
 ! D67   D(15,16,17,18)         -0.0004         estimate D2E/DX2                !
 ! D68   D(15,16,17,19)        179.9993         estimate D2E/DX2                !
 ! D69   D(16,17,19,8)           0.0002         estimate D2E/DX2                !
 ! D70   D(16,17,19,20)        179.9996         estimate D2E/DX2                !
 ! D71   D(18,17,19,8)         179.9999         estimate D2E/DX2                !
 ! D72   D(18,17,19,20)         -0.0007         estimate D2E/DX2                !
 ! D73   D(8,19,20,5)           -0.0001         estimate D2E/DX2                !
 ! D74   D(8,19,20,30)         179.9989         estimate D2E/DX2                !
 ! D75   D(17,19,20,5)        -179.9996         estimate D2E/DX2                !
 ! D76   D(17,19,20,30)         -0.0005         estimate D2E/DX2                !
 --------------------------------------------------------------------------------
 Trust Radius=3.00D-01 FncErr=1.00D-07 GrdErr=1.00D-06 EigMax=2.50D+02 EigMin=1.00D-04
 Number of steps in this run=    172 maximum allowed number of steps=    180.
 GradGradGradGradGradGradGradGradGradGradGradGradGradGradGradGradGradGrad

 Leave Link  103 at Thu Dec 21 23:06:17 2023, MaxMem=  4026531840 cpu:               0.3 elap:               0.1
 (Enter /sysapps/ubuntu-applications/gaussian/Gaussian/AVX2/g16/l202.exe)
                          Input orientation:                          
 ---------------------------------------------------------------------
 Center     Atomic      Atomic             Coordinates (Angstroms)
 Number     Number       Type             X           Y           Z
 ---------------------------------------------------------------------
      1          8           0       -5.744653    1.204462   -1.454768
      2         16           0       -5.242535    0.661997    0.048510
      3          8           0       -5.097167    1.868484    0.940716
      4          8           0       -6.208196   -0.274059    0.672128
      5          6           0       -3.673140   -0.133437   -0.070071
      6          6           0       -3.552378   -1.484793   -0.309956
      7          6           0       -2.279225   -2.019344   -0.386354
      8          6           0       -1.140288   -1.266547   -0.234523
      9          6           0        0.204161   -1.813344   -0.312031
     10          8           0        0.320189   -3.046566   -0.530859
     11          6           0        1.385844   -0.960871   -0.141717
     12          6           0        2.664068   -1.489307   -0.216951
     13          6           0        3.735540   -0.634534   -0.047903
     14          6           0        3.567635    0.719856    0.191817
     15          6           0        2.302886    1.242081    0.266145
     16          6           0        1.234762    0.381540    0.096114
     17          6           0       -0.096023    0.958123    0.179155
     18          8           0       -0.271810    2.197817    0.398234
     19          6           0       -1.255327    0.087232    0.005881
     20          6           0       -2.539797    0.637521    0.084927
     21         16           0        4.970595    1.762614    0.399473
     22          8           0        5.465200    2.391456   -1.087740
     23          8           0        4.732130    2.831279    1.403366
     24          8           0        6.099301    0.888531    0.887195
     25          1           0       -4.454611   -2.070812   -0.428390
     26          1           0       -2.186957   -3.096474   -0.577626
     27          1           0        2.789405   -2.551663   -0.405067
     28          1           0        4.749355   -0.996720   -0.097382
     29          1           0        2.143563    2.304868    0.453830
     30          1           0       -2.622528    1.700610    0.273844
 ---------------------------------------------------------------------
                    Distance matrix (angstroms):
                    1          2          3          4          5
     1  O    0.000000
     2  S    1.675182   0.000000
     3  O    2.568755   1.507572   0.000000
     4  O    2.631460   1.482431   2.428377   0.000000
     5  C    2.828167   1.763456   2.656545   2.645211   0.000000
     6  C    3.653595   2.755691   3.898079   3.079567   1.377785
     7  C    4.852178   4.019938   4.981678   4.427552   2.366364
     8  C    5.366103   4.541786   5.183290   5.243161   2.779626
     9  C    6.767673   5.993647   6.574900   6.667555   4.232505
    10  O    7.463723   6.710663   7.461300   7.194010   4.964405
    11  C    7.566820   6.826807   7.155861   7.668343   5.126704
    12  C    8.916007   8.198351   8.535323   8.999131   6.482297
    13  C    9.758855   9.071721   9.233591   9.976286   7.425641
    14  C    9.469150   8.811526   8.772628   9.837959   7.295583
    15  C    8.229571   7.570815   7.457091   8.654595   6.141497
    16  C    7.196852   6.483541   6.558787   7.493946   4.937644
    17  C    5.885356   5.156680   5.140056   6.254595   3.748251
    18  O    5.862796   5.214322   4.866910   6.436293   4.150072
    19  C    4.851366   4.028648   4.336648   5.010522   2.429051
    20  C    3.600443   2.703095   2.964420   3.825302   1.379445
    21  S   10.888815  10.278256  10.082856  11.366078   8.861695
    22  O   11.278497  10.905856  10.768089  12.102491   9.535198
    23  O   10.980822  10.297347   9.887169  11.395989   9.033777
    24  O   12.077411  11.375058  11.239398  12.364155   9.872253
    25  H    3.666754   2.883835   4.219643   2.741263   2.119554
    26  H    5.650188   4.884128   5.951932   5.069346   3.353496
    27  H    9.382990   8.662875   9.140397   9.343695   6.908294
    28  H   10.807956  10.129683  10.307329  11.008283   8.466666
    29  H    8.190091   7.577450   7.270190   8.743591   6.328810
    30  H    3.603045   2.827354   2.568412   4.112781   2.141447
                    6          7          8          9         10
     6  C    0.000000
     7  C    1.382932   0.000000
     8  C    2.423118   1.373657   0.000000
     9  C    3.770880   2.493023   1.453457   0.000000
    10  O    4.181472   2.798753   2.321481   1.257849   0.000000
    11  C    4.968786   3.822687   2.546250   1.467000   2.374273
    12  C    6.217144   4.974514   3.810913   2.482979   2.831495
    13  C    7.342028   6.181395   4.920160   3.732291   4.209011
    14  C    7.470398   6.482536   5.127582   4.240745   5.025346
    15  C    6.484740   5.662013   4.289444   3.751607   4.791534
    16  C    5.154106   4.283121   2.909704   2.458910   3.602978
    17  C    4.260688   3.735168   2.492143   2.830619   4.088384
    18  O    4.982497   4.736005   3.627182   4.101272   5.358846
    19  C    2.801332   2.374843   1.379763   2.417304   3.548384
    20  C    2.384422   2.710892   2.384564   3.700489   4.704381
    21  S    9.148224   8.214659   6.849865   6.001050   6.754258
    22  O    9.846166   8.939979   7.598779   6.779425   7.506886
    23  O    9.497212   8.711529   7.345757   6.709516   7.599705
    24  O   10.011031   8.959763   7.636377   6.594766   7.134003
    25  H    1.082344   2.176400   3.416016   4.667331   4.874557
    26  H    2.129210   1.097865   2.135853   2.726611   2.508079
    27  H    6.431599   5.096540   4.138006   2.690215   2.521464
    28  H    8.318784   7.108460   5.897415   4.622957   4.899723
    29  H    6.883941   6.242257   4.900256   4.616004   5.738654
    30  H    3.369308   3.793650   3.355517   4.547669   5.642943
                   11         12         13         14         15
    11  C    0.000000
    12  C    1.385194   0.000000
    13  C    2.374105   1.381038   0.000000
    14  C    2.774221   2.421554   1.385651   0.000000
    15  C    2.420810   2.797199   2.381767   1.370341   0.000000
    16  C    1.371662   2.375078   2.703153   2.359218   1.382147
    17  C    2.445696   3.710111   4.155597   3.671420   2.417222
    18  O    3.607863   4.753180   4.927485   4.119262   2.749534
    19  C    2.845362   4.230460   5.043074   4.867828   3.749972
    20  C    4.244629   5.629808   6.404344   6.108922   4.883637
    21  S    4.534391   4.034233   2.733463   1.760330   2.721287
    22  O    5.364160   4.864662   3.637252   2.834125   3.626886
    23  O    5.288224   5.056656   3.887317   2.698519   3.117699
    24  O    5.166781   4.321351   2.963359   2.630842   3.863090
    25  H    5.951895   7.145519   8.323836   8.516391   7.557870
    26  H    4.185178   5.123038   6.435661   6.947787   6.300294
    27  H    2.137745   1.086138   2.167515   3.415369   3.883262
    28  H    3.363994   2.146010   1.077704   2.103979   3.336104
    29  H    3.404977   3.888013   3.380269   2.146834   1.090929
    30  H    4.829412   6.193913   6.780962   6.267912   4.946717
                   16         17         18         19         20
    16  C    0.000000
    17  C    1.452699   0.000000
    18  O    2.379054   1.271117   0.000000
    19  C    2.509044   1.460295   2.361316   0.000000
    20  C    3.783246   2.466515   2.770640   1.399618   0.000000
    21  S    3.994475   5.134818   5.260439   6.459405   7.600707
    22  O    4.830929   5.881043   5.929495   7.188250   8.278370
    23  O    4.465614   5.321510   5.143052   6.732934   7.709201
    24  O    4.954450   6.236040   6.522604   7.450459   8.679899
    25  H    6.217564   5.342364   6.033268   3.883448   3.356349
    26  H    4.925309   4.624336   5.713983   3.368145   3.808699
    27  H    3.357347   4.581005   5.707354   4.846906   6.229878
    28  H    3.780132   5.232167   5.971834   6.102607   7.472329
    29  H    2.157098   2.627720   2.418383   4.083016   4.984977
    30  H    4.080468   2.635048   2.405942   2.131673   1.082909
                   21         22         23         24         25
    21  S    0.000000
    22  O    1.688751   0.000000
    23  O    1.485500   2.633713   0.000000
    24  O    1.508599   2.561491   2.431019   0.000000
    25  H   10.208575  10.897212  10.572702  11.039634   0.000000
    26  H    8.706090   9.430435   9.323966   9.310641   2.493292
    27  H    4.900802   5.662186   6.001723   4.945734   7.259995
    28  H    2.812425   3.601802   4.111704   2.519110   9.272336
    29  H    2.879081   3.662951   2.807028   4.223941   7.966228
    30  H    7.594415   8.230585   7.526302   8.781000   4.251269
                   26         27         28         29         30
    26  H    0.000000
    27  H    5.009069   0.000000
    28  H    7.263059   2.520699   0.000000
    29  H    6.999414   4.974004   4.241989   0.000000
    30  H    4.891496   6.916051   7.858629   4.807613   0.000000
 Symmetry turned off by external request.
 Stoichiometry    C14H6O8S2(2-)
 Framework group  C1[X(C14H6O8S2)]
 Deg. of freedom    84
 Full point group                 C1      NOp   1
 Rotational constants (GHZ):           0.5439556           0.0856364           0.0765135
 Leave Link  202 at Thu Dec 21 23:06:17 2023, MaxMem=  4026531840 cpu:               0.4 elap:               0.1
 (Enter /sysapps/ubuntu-applications/gaussian/Gaussian/AVX2/g16/l301.exe)
 Standard basis: 6-311++G(d,p) (5D, 7F)
 Ernie: Thresh=  0.10000D-02 Tol=  0.10000D-05 Strict=F.
   586 basis functions,   946 primitive gaussians,   610 cartesian basis functions
    94 alpha electrons       94 beta electrons
       nuclear repulsion energy      2251.4049823712 Hartrees.
 IExCor=  402 DFT=T Ex+Corr=B3LYP ExCW=0 ScaHFX=  0.200000
 ScaDFX=  0.800000  0.720000  1.000000  0.810000 ScalE2=  1.000000  1.000000
 IRadAn=      5 IRanWt=     -1 IRanGd=            0 ICorTp=0 IEmpDi=  4
 NAtoms=   30 NActive=   30 NUniq=   30 SFac= 1.00D+00 NAtFMM=   60 NAOKFM=F Big=F
 Integral buffers will be    131072 words long.
 Raffenetti 2 integral format.
 Two-electron integral symmetry is turned off.
 Leave Link  301 at Thu Dec 21 23:06:17 2023, MaxMem=  4026531840 cpu:               0.5 elap:               0.1
 (Enter /sysapps/ubuntu-applications/gaussian/Gaussian/AVX2/g16/l302.exe)
 NPDir=0 NMtPBC=     1 NCelOv=     1 NCel=       1 NClECP=     1 NCelD=      1
         NCelK=      1 NCelE2=     1 NClLst=     1 CellRange=     0.0.
 One-electron integrals computed using PRISM.
 NBasis=   586 RedAO= T EigKep=  1.13D-06  NBF=   586
 NBsUse=   577 1.00D-06 EigRej=  9.62D-07 NBFU=   577
 Precomputing XC quadrature grid using
 IXCGrd= 4 IRadAn=           5 IRanWt=          -1 IRanGd=           0 AccXCQ= 0.00D+00.
 Generated NRdTot=       0 NPtTot=           0 NUsed=           0 NTot=          32
 NSgBfM=   594   594   594   594   594 MxSgAt=    30 MxSgA2=    30.
 Leave Link  302 at Thu Dec 21 23:06:18 2023, MaxMem=  4026531840 cpu:               5.9 elap:               0.8
 (Enter /sysapps/ubuntu-applications/gaussian/Gaussian/AVX2/g16/l303.exe)
 DipDrv:  MaxL=1.
 Leave Link  303 at Thu Dec 21 23:06:18 2023, MaxMem=  4026531840 cpu:               1.3 elap:               0.3
 (Enter /sysapps/ubuntu-applications/gaussian/Gaussian/AVX2/g16/l401.exe)
 ExpMin= 3.60D-02 ExpMax= 9.34D+04 ExpMxC= 3.17D+03 IAcc=3 IRadAn=         5 AccDes= 0.00D+00
 Harris functional with IExCor=  402 and IRadAn=       5 diagonalized for initial guess.
 HarFok:  IExCor=  402 AccDes= 0.00D+00 IRadAn=         5 IDoV= 1 UseB2=F ITyADJ=14
 ICtDFT=  3500011 ScaDFX=  1.000000  1.000000  1.000000  1.000000
 FoFCou: FMM=F IPFlag=           0 FMFlag=      100000 FMFlg1=           0
         NFxFlg=           0 DoJE=T BraDBF=F KetDBF=T FulRan=T
         wScrn=  0.000000 ICntrl=       500 IOpCl=  0 I1Cent=   200000004 NGrid=           0
         NMat0=    1 NMatS0=      1 NMatT0=    0 NMatD0=    1 NMtDS0=    0 NMtDT0=    0
 Symmetry not used in FoFCou.
 Harris En= -1936.06473386033    
 JPrj=0 DoOrth=F DoCkMO=F.
 Initial guess <Sx>= 0.0000 <Sy>= 0.0000 <Sz>= 0.0000 <S**2>=-0.0000 S=-0.0000
 Leave Link  401 at Thu Dec 21 23:06:23 2023, MaxMem=  4026531840 cpu:              35.2 elap:               4.5
 (Enter /sysapps/ubuntu-applications/gaussian/Gaussian/AVX2/g16/l502.exe)
 Two-electron integral symmetry not used.
 UHF open shell SCF:
 Using DIIS extrapolation, IDIIS=  1040.
 NGot=  4026531840 LenX=  4025778608 LenY=  4025405898
 Requested convergence on RMS density matrix=1.00D-08 within 128 cycles.
 Requested convergence on MAX density matrix=1.00D-06.
 Requested convergence on             energy=1.00D-06.
 No special actions if energy rises.
 Fock matrices will be formed incrementally for  20 cycles.

 Cycle   1  Pass 1  IDiag  1:
 FoFJK:  IHMeth= 1 ICntrl=       0 DoSepK=F KAlg= 0 I1Cent=           0 FoldK=F
 IRaf= 770000000 NMat=       1 IRICut=       1 DoRegI=T DoRafI=F ISym2E= 0 IDoP0=0 IntGTp=1.
 FoFCou: FMM=F IPFlag=           0 FMFlag=      100000 FMFlg1=           0
         NFxFlg=           0 DoJE=F BraDBF=F KetDBF=F FulRan=T
         wScrn=  0.000000 ICntrl=         0 IOpCl=  1 I1Cent=           0 NGrid=           0
         NMat0=    1 NMatS0=      1 NMatT0=    0 NMatD0=    1 NMtDS0=    0 NMtDT0=    0
 Symmetry not used in FoFCou.
 E= -1934.50602069384    
 DIIS: error= 4.51D-02 at cycle   1 NSaved=   1.
 NSaved= 1 IEnMin= 1 EnMin= -1934.50602069384     IErMin= 1 ErrMin= 4.51D-02
 ErrMax= 4.51D-02  0.00D+00 EMaxC= 1.00D-01 BMatC= 6.21D+00 BMatP= 6.21D+00
 IDIUse=3 WtCom= 5.49D-01 WtEn= 4.51D-01
 Coeff-Com:  0.100D+01
 Coeff-En:   0.100D+01
 Coeff:      0.100D+01
 Gap=    -0.118 Goal=   None    Shift=    0.000
 Gap=    -0.118 Goal=   None    Shift=    0.000
 GapD=   -0.118 DampG=0.250 DampE=0.500 DampFc=0.2500 IDamp=-1.
 Damping current iteration by 2.50D-01
 RMSDP=1.56D-01 MaxDP=1.55D+01              OVMax= 8.56D-01

 Cycle   2  Pass 1  IDiag  1:
 RMSU=  2.76D-02    CP:  1.33D+00
 E= -1934.65229258865     Delta-E=       -0.146271894812 Rises=F Damp=T
 DIIS: error= 1.47D-02 at cycle   2 NSaved=   2.
 NSaved= 2 IEnMin= 2 EnMin= -1934.65229258865     IErMin= 2 ErrMin= 1.47D-02
 ErrMax= 1.47D-02  0.00D+00 EMaxC= 1.00D-01 BMatC= 9.66D-01 BMatP= 6.21D+00
 IDIUse=3 WtCom= 8.53D-01 WtEn= 1.47D-01
 Coeff-Com: -0.174D+00 0.117D+01
 Coeff-En:   0.391D+00 0.609D+00
 Coeff:     -0.912D-01 0.109D+01
 Gap=     0.131 Goal=   None    Shift=    0.000
 Gap=     0.131 Goal=   None    Shift=    0.000
 RMSDP=2.22D-02 MaxDP=1.23D+00 DE=-1.46D-01 OVMax= 6.71D-01

 Cycle   3  Pass 1  IDiag  1:
 RMSU=  2.02D-02    CP:  1.39D+00  7.38D-01
 E= -1934.70401033726     Delta-E=       -0.051717748610 Rises=F Damp=F
 DIIS: error= 3.13D-02 at cycle   3 NSaved=   3.
 NSaved= 3 IEnMin= 3 EnMin= -1934.70401033726     IErMin= 2 ErrMin= 1.47D-02
 ErrMax= 3.13D-02  0.00D+00 EMaxC= 1.00D-01 BMatC= 3.33D+00 BMatP= 9.66D-01
 IDIUse=2 WtCom= 0.00D+00 WtEn= 1.00D+00
 EnCoef did     3 forward-backward iterations
 Coeff-En:   0.787D-01 0.427D+00 0.494D+00
 Coeff:      0.787D-01 0.427D+00 0.494D+00
 Gap=     0.397 Goal=   None    Shift=    0.000
 Gap=     0.397 Goal=   None    Shift=    0.000
 RMSDP=3.09D-02 MaxDP=2.70D+00 DE=-5.17D-02 OVMax= 9.44D-01

 Cycle   4  Pass 1  IDiag  1:
 RMSU=  1.82D-02    CP:  1.45D+00  8.69D-01 -2.05D-01
 E= -1930.54841025773     Delta-E=        4.155600079533 Rises=F Damp=F
 DIIS: error= 1.58D-01 at cycle   4 NSaved=   4.
 NSaved= 4 IEnMin= 3 EnMin= -1934.70401033726     IErMin= 2 ErrMin= 1.47D-02
 ErrMax= 1.58D-01  0.00D+00 EMaxC= 1.00D-01 BMatC= 1.40D+01 BMatP= 9.66D-01
 IDIUse=2 WtCom= 0.00D+00 WtEn= 1.00D+00
 EnCoef did     1 forward-backward iterations
 Coeff-En:   0.142D+00 0.000D+00 0.644D+00 0.214D+00
 Coeff:      0.142D+00 0.000D+00 0.644D+00 0.214D+00
 Gap=     0.024 Goal=   None    Shift=    0.000
 Gap=     0.024 Goal=   None    Shift=    0.000
 RMSDP=2.06D-02 MaxDP=1.24D+00 DE= 4.16D+00 OVMax= 9.04D-01

 Cycle   5  Pass 1  IDiag  1:
 RMSU=  1.62D-02    CP:  1.44D+00  6.43D-01  2.11D-01  6.02D-01
 E= -1935.36881318239     Delta-E=       -4.820402924658 Rises=F Damp=F
 DIIS: error= 2.57D-02 at cycle   5 NSaved=   5.
 NSaved= 5 IEnMin= 5 EnMin= -1935.36881318239     IErMin= 2 ErrMin= 1.47D-02
 ErrMax= 2.57D-02  0.00D+00 EMaxC= 1.00D-01 BMatC= 8.03D-01 BMatP= 9.66D-01
 IDIUse=3 WtCom= 7.43D-01 WtEn= 2.57D-01
 Coeff-Com: -0.963D-01 0.526D+00 0.292D+00 0.467D-02 0.274D+00
 Coeff-En:   0.000D+00 0.000D+00 0.211D+00 0.000D+00 0.789D+00
 Coeff:     -0.716D-01 0.391D+00 0.271D+00 0.347D-02 0.406D+00
 Gap=     0.093 Goal=   None    Shift=    0.000
 Gap=     0.093 Goal=   None    Shift=    0.000
 RMSDP=1.64D-02 MaxDP=1.68D+00 DE=-4.82D+00 OVMax= 4.19D-01

 Cycle   6  Pass 1  IDiag  1:
 RMSU=  1.02D-02    CP:  1.34D+00  4.50D-01  2.86D-01  2.58D-01  6.83D-01
 E= -1935.46327057834     Delta-E=       -0.094457395950 Rises=F Damp=F
 DIIS: error= 1.24D-02 at cycle   6 NSaved=   6.
 NSaved= 6 IEnMin= 6 EnMin= -1935.46327057834     IErMin= 6 ErrMin= 1.24D-02
 ErrMax= 1.24D-02  0.00D+00 EMaxC= 1.00D-01 BMatC= 5.51D-01 BMatP= 8.03D-01
 IDIUse=3 WtCom= 8.76D-01 WtEn= 1.24D-01
 Coeff-Com: -0.919D-01 0.283D+00 0.134D+00-0.130D-01 0.324D+00 0.364D+00
 Coeff-En:   0.000D+00 0.000D+00 0.000D+00 0.000D+00 0.394D+00 0.606D+00
 Coeff:     -0.805D-01 0.248D+00 0.117D+00-0.113D-01 0.333D+00 0.394D+00
 Gap=     0.084 Goal=   None    Shift=    0.000
 Gap=     0.084 Goal=   None    Shift=    0.000
 RMSDP=1.07D-02 MaxDP=9.20D-01 DE=-9.45D-02 OVMax= 7.30D-02

 Cycle   7  Pass 1  IDiag  1:
 RMSU=  5.20D-03    CP:  1.40D+00  5.21D-01  2.79D-01  4.95D-01  8.35D-01
                    CP:  4.22D-01
 E= -1935.57139802882     Delta-E=       -0.108127450484 Rises=F Damp=F
 DIIS: error= 4.86D-03 at cycle   7 NSaved=   7.
 NSaved= 7 IEnMin= 7 EnMin= -1935.57139802882     IErMin= 7 ErrMin= 4.86D-03
 ErrMax= 4.86D-03  0.00D+00 EMaxC= 1.00D-01 BMatC= 6.08D-02 BMatP= 5.51D-01
 IDIUse=3 WtCom= 9.51D-01 WtEn= 4.86D-02
 Coeff-Com: -0.759D-01 0.147D+00-0.168D-01-0.479D-02 0.103D+00 0.181D+00
 Coeff-Com:  0.666D+00
 Coeff-En:   0.000D+00 0.000D+00 0.000D+00 0.000D+00 0.349D-01 0.000D+00
 Coeff-En:   0.965D+00
 Coeff:     -0.722D-01 0.140D+00-0.160D-01-0.456D-02 0.999D-01 0.173D+00
 Coeff:      0.681D+00
 Gap=     0.081 Goal=   None    Shift=    0.000
 Gap=     0.081 Goal=   None    Shift=    0.000
 RMSDP=5.72D-03 MaxDP=6.00D-01 DE=-1.08D-01 OVMax= 3.04D-02

 Cycle   8  Pass 1  IDiag  1:
 RMSU=  3.08D-03    CP:  1.44D+00  5.32D-01  2.68D-01  5.85D-01  9.72D-01
                    CP:  6.86D-01  9.00D-01
 E= -1935.58383676116     Delta-E=       -0.012438732345 Rises=F Damp=F
 DIIS: error= 1.91D-03 at cycle   8 NSaved=   8.
 NSaved= 8 IEnMin= 8 EnMin= -1935.58383676116     IErMin= 8 ErrMin= 1.91D-03
 ErrMax= 1.91D-03  0.00D+00 EMaxC= 1.00D-01 BMatC= 1.67D-02 BMatP= 6.08D-02
 IDIUse=3 WtCom= 9.81D-01 WtEn= 1.91D-02
 Coeff-Com: -0.454D-01 0.749D-01-0.333D-01 0.569D-03 0.200D-01 0.421D-01
 Coeff-Com:  0.452D+00 0.489D+00
 Coeff-En:   0.000D+00 0.000D+00 0.000D+00 0.000D+00 0.000D+00 0.000D+00
 Coeff-En:   0.000D+00 0.100D+01
 Coeff:     -0.446D-01 0.735D-01-0.327D-01 0.558D-03 0.197D-01 0.413D-01
 Coeff:      0.443D+00 0.499D+00
 Gap=     0.070 Goal=   None    Shift=    0.000
 Gap=     0.070 Goal=   None    Shift=    0.000
 RMSDP=1.78D-03 MaxDP=1.27D-01 DE=-1.24D-02 OVMax= 1.47D-02

 Cycle   9  Pass 1  IDiag  1:
 RMSU=  1.25D-03    CP:  1.44D+00  5.39D-01  2.57D-01  6.16D-01  9.86D-01
                    CP:  6.39D-01  9.99D-01  9.04D-01
 E= -1935.58708334326     Delta-E=       -0.003246582094 Rises=F Damp=F
 DIIS: error= 9.84D-04 at cycle   9 NSaved=   9.
 NSaved= 9 IEnMin= 9 EnMin= -1935.58708334326     IErMin= 9 ErrMin= 9.84D-04
 ErrMax= 9.84D-04  0.00D+00 EMaxC= 1.00D-01 BMatC= 2.88D-03 BMatP= 1.67D-02
 IDIUse=3 WtCom= 9.90D-01 WtEn= 9.84D-03
 Coeff-Com: -0.256D-01 0.421D-01-0.190D-01 0.417D-03 0.416D-02 0.179D-01
 Coeff-Com:  0.145D+00 0.268D+00 0.567D+00
 Coeff-En:   0.000D+00 0.000D+00 0.000D+00 0.000D+00 0.000D+00 0.000D+00
 Coeff-En:   0.000D+00 0.000D+00 0.100D+01
 Coeff:     -0.253D-01 0.417D-01-0.188D-01 0.413D-03 0.412D-02 0.177D-01
 Coeff:      0.144D+00 0.265D+00 0.571D+00
 Gap=     0.071 Goal=   None    Shift=    0.000
 Gap=     0.071 Goal=   None    Shift=    0.000
 RMSDP=8.99D-04 MaxDP=8.79D-02 DE=-3.25D-03 OVMax= 6.74D-03

 Cycle  10  Pass 1  IDiag  1:
 RMSU=  3.54D-04    CP:  1.45D+00  5.41D-01  2.49D-01  6.29D-01  1.01D+00
                    CP:  6.46D-01  1.03D+00  9.66D-01  5.40D-01
 E= -1935.58758606408     Delta-E=       -0.000502720825 Rises=F Damp=F
 DIIS: error= 5.52D-04 at cycle  10 NSaved=  10.
 NSaved=10 IEnMin=10 EnMin= -1935.58758606408     IErMin=10 ErrMin= 5.52D-04
 ErrMax= 5.52D-04  0.00D+00 EMaxC= 1.00D-01 BMatC= 9.78D-04 BMatP= 2.88D-03
 IDIUse=3 WtCom= 9.94D-01 WtEn= 5.52D-03
 Coeff-Com: -0.857D-02 0.134D-01-0.542D-02 0.489D-03-0.110D-02 0.638D-02
 Coeff-Com: -0.477D-01 0.128D-01 0.400D+00 0.630D+00
 Coeff-En:   0.000D+00 0.000D+00 0.000D+00 0.000D+00 0.000D+00 0.000D+00
 Coeff-En:   0.000D+00 0.000D+00 0.000D+00 0.100D+01
 Coeff:     -0.852D-02 0.133D-01-0.539D-02 0.487D-03-0.110D-02 0.635D-02
 Coeff:     -0.475D-01 0.127D-01 0.397D+00 0.632D+00
 Gap=     0.069 Goal=   None    Shift=    0.000
 Gap=     0.069 Goal=   None    Shift=    0.000
 RMSDP=5.85D-04 MaxDP=7.03D-02 DE=-5.03D-04 OVMax= 4.81D-03

 Cycle  11  Pass 1  IDiag  1:
 RMSU=  1.75D-04    CP:  1.45D+00  5.42D-01  2.48D-01  6.33D-01  1.01D+00
                    CP:  6.79D-01  1.03D+00  9.88D-01  7.33D-01  8.62D-01
 E= -1935.58779865457     Delta-E=       -0.000212590487 Rises=F Damp=F
 DIIS: error= 1.83D-04 at cycle  11 NSaved=  11.
 NSaved=11 IEnMin=11 EnMin= -1935.58779865457     IErMin=11 ErrMin= 1.83D-04
 ErrMax= 1.83D-04  0.00D+00 EMaxC= 1.00D-01 BMatC= 1.26D-04 BMatP= 9.78D-04
 IDIUse=3 WtCom= 9.98D-01 WtEn= 1.83D-03
 Coeff-Com: -0.234D-02 0.310D-02-0.118D-02 0.266D-03-0.147D-03 0.784D-03
 Coeff-Com: -0.537D-01-0.317D-01 0.169D+00 0.391D+00 0.525D+00
 Coeff-En:   0.000D+00 0.000D+00 0.000D+00 0.000D+00 0.000D+00 0.000D+00
 Coeff-En:   0.000D+00 0.000D+00 0.000D+00 0.000D+00 0.100D+01
 Coeff:     -0.234D-02 0.309D-02-0.118D-02 0.266D-03-0.147D-03 0.783D-03
 Coeff:     -0.536D-01-0.316D-01 0.169D+00 0.391D+00 0.525D+00
 Gap=     0.068 Goal=   None    Shift=    0.000
 Gap=     0.068 Goal=   None    Shift=    0.000
 RMSDP=2.63D-04 MaxDP=1.95D-02 DE=-2.13D-04 OVMax= 2.00D-03

 Cycle  12  Pass 1  IDiag  1:
 RMSU=  1.09D-04    CP:  1.45D+00  5.44D-01  2.44D-01  6.36D-01  1.02D+00
                    CP:  6.74D-01  1.03D+00  9.73D-01  7.37D-01  1.02D+00
                    CP:  5.99D-01
 E= -1935.58782539774     Delta-E=       -0.000026743174 Rises=F Damp=F
 DIIS: error= 6.92D-05 at cycle  12 NSaved=  12.
 NSaved=12 IEnMin=12 EnMin= -1935.58782539774     IErMin=12 ErrMin= 6.92D-05
 ErrMax= 6.92D-05  0.00D+00 EMaxC= 1.00D-01 BMatC= 1.50D-05 BMatP= 1.26D-04
 IDIUse=1 WtCom= 1.00D+00 WtEn= 0.00D+00
 Coeff-Com: -0.153D-04 0.479D-05 0.436D-03 0.339D-04 0.251D-03-0.270D-02
 Coeff-Com: -0.159D-01-0.122D-01 0.140D-01 0.564D-01 0.287D+00 0.673D+00
 Coeff:     -0.153D-04 0.479D-05 0.436D-03 0.339D-04 0.251D-03-0.270D-02
 Coeff:     -0.159D-01-0.122D-01 0.140D-01 0.564D-01 0.287D+00 0.673D+00
 Gap=     0.068 Goal=   None    Shift=    0.000
 Gap=     0.068 Goal=   None    Shift=    0.000
 RMSDP=7.13D-05 MaxDP=8.07D-03 DE=-2.67D-05 OVMax= 1.06D-03

 Cycle  13  Pass 1  IDiag  1:
 RMSU=  2.14D-05    CP:  1.45D+00  5.44D-01  2.45D-01  6.37D-01  1.02D+00
                    CP:  6.74D-01  1.03D+00  9.86D-01  7.46D-01  1.01D+00
                    CP:  6.68D-01  8.50D-01
 E= -1935.58782882843     Delta-E=       -0.000003430683 Rises=F Damp=F
 DIIS: error= 3.09D-05 at cycle  13 NSaved=  13.
 NSaved=13 IEnMin=13 EnMin= -1935.58782882843     IErMin=13 ErrMin= 3.09D-05
 ErrMax= 3.09D-05  0.00D+00 EMaxC= 1.00D-01 BMatC= 1.48D-06 BMatP= 1.50D-05
 IDIUse=1 WtCom= 1.00D+00 WtEn= 0.00D+00
 Coeff-Com:  0.924D-04-0.126D-03 0.337D-03 0.856D-05 0.191D-03-0.181D-02
 Coeff-Com: -0.676D-02-0.504D-02 0.984D-03 0.145D-01 0.151D+00 0.406D+00
 Coeff-Com:  0.440D+00
 Coeff:      0.924D-04-0.126D-03 0.337D-03 0.856D-05 0.191D-03-0.181D-02
 Coeff:     -0.676D-02-0.504D-02 0.984D-03 0.145D-01 0.151D+00 0.406D+00
 Coeff:      0.440D+00
 Gap=     0.068 Goal=   None    Shift=    0.000
 Gap=     0.068 Goal=   None    Shift=    0.000
 RMSDP=2.11D-05 MaxDP=1.64D-03 DE=-3.43D-06 OVMax= 1.85D-04

 Cycle  14  Pass 1  IDiag  1:
 RMSU=  1.15D-05    CP:  1.45D+00  5.44D-01  2.45D-01  6.37D-01  1.02D+00
                    CP:  6.75D-01  1.03D+00  9.87D-01  7.52D-01  1.00D+00
                    CP:  6.83D-01  8.29D-01  6.74D-01
 E= -1935.58782913824     Delta-E=       -0.000000309809 Rises=F Damp=F
 DIIS: error= 1.12D-05 at cycle  14 NSaved=  14.
 NSaved=14 IEnMin=14 EnMin= -1935.58782913824     IErMin=14 ErrMin= 1.12D-05
 ErrMax= 1.12D-05  0.00D+00 EMaxC= 1.00D-01 BMatC= 2.88D-07 BMatP= 1.48D-06
 IDIUse=1 WtCom= 1.00D+00 WtEn= 0.00D+00
 Coeff-Com:  0.273D-04-0.114D-04 0.159D-03 0.688D-06 0.651D-04-0.605D-03
 Coeff-Com: -0.169D-02-0.745D-03 0.560D-03 0.317D-02 0.457D-01 0.122D+00
 Coeff-Com:  0.281D+00 0.550D+00
 Coeff:      0.273D-04-0.114D-04 0.159D-03 0.688D-06 0.651D-04-0.605D-03
 Coeff:     -0.169D-02-0.745D-03 0.560D-03 0.317D-02 0.457D-01 0.122D+00
 Coeff:      0.281D+00 0.550D+00
 Gap=     0.068 Goal=   None    Shift=    0.000
 Gap=     0.068 Goal=   None    Shift=    0.000
 RMSDP=1.23D-05 MaxDP=1.28D-03 DE=-3.10D-07 OVMax= 6.13D-05

 Cycle  15  Pass 1  IDiag  1:
 RMSU=  4.08D-06    CP:  1.45D+00  5.44D-01  2.45D-01  6.37D-01  1.02D+00
                    CP:  6.75D-01  1.03D+00  9.86D-01  7.48D-01  1.00D+00
                    CP:  6.80D-01  8.28D-01  6.96D-01  8.27D-01
 E= -1935.58782919403     Delta-E=       -0.000000055789 Rises=F Damp=F
 DIIS: error= 4.65D-06 at cycle  15 NSaved=  15.
 NSaved=15 IEnMin=15 EnMin= -1935.58782919403     IErMin=15 ErrMin= 4.65D-06
 ErrMax= 4.65D-06  0.00D+00 EMaxC= 1.00D-01 BMatC= 4.91D-08 BMatP= 2.88D-07
 IDIUse=1 WtCom= 1.00D+00 WtEn= 0.00D+00
 Coeff-Com:  0.274D-05 0.130D-04 0.504D-04-0.248D-05 0.294D-05-0.708D-04
 Coeff-Com:  0.819D-04 0.417D-03 0.353D-03 0.117D-03 0.412D-02 0.846D-02
 Coeff-Com:  0.105D+00 0.355D+00 0.526D+00
 Coeff:      0.274D-05 0.130D-04 0.504D-04-0.248D-05 0.294D-05-0.708D-04
 Coeff:      0.819D-04 0.417D-03 0.353D-03 0.117D-03 0.412D-02 0.846D-02
 Coeff:      0.105D+00 0.355D+00 0.526D+00
 Gap=     0.068 Goal=   None    Shift=    0.000
 Gap=     0.068 Goal=   None    Shift=    0.000
 RMSDP=3.67D-06 MaxDP=3.41D-04 DE=-5.58D-08 OVMax= 2.87D-05

 Cycle  16  Pass 1  IDiag  1:
 RMSU=  1.13D-06    CP:  1.45D+00  5.44D-01  2.45D-01  6.37D-01  1.02D+00
                    CP:  6.75D-01  1.03D+00  9.87D-01  7.49D-01  1.00D+00
                    CP:  6.82D-01  8.22D-01  6.97D-01  8.80D-01  9.00D-01
 E= -1935.58782920567     Delta-E=       -0.000000011639 Rises=F Damp=F
 DIIS: error= 8.66D-07 at cycle  16 NSaved=  16.
 NSaved=16 IEnMin=16 EnMin= -1935.58782920567     IErMin=16 ErrMin= 8.66D-07
 ErrMax= 8.66D-07  0.00D+00 EMaxC= 1.00D-01 BMatC= 3.63D-09 BMatP= 4.91D-08
 IDIUse=1 WtCom= 1.00D+00 WtEn= 0.00D+00
 Coeff-Com: -0.186D-05 0.420D-05 0.547D-05-0.754D-06-0.614D-05 0.573D-04
 Coeff-Com:  0.232D-03 0.223D-03 0.190D-03 0.929D-04-0.358D-02-0.102D-01
 Coeff-Com:  0.116D-01 0.850D-01 0.238D+00 0.678D+00
 Coeff:     -0.186D-05 0.420D-05 0.547D-05-0.754D-06-0.614D-05 0.573D-04
 Coeff:      0.232D-03 0.223D-03 0.190D-03 0.929D-04-0.358D-02-0.102D-01
 Coeff:      0.116D-01 0.850D-01 0.238D+00 0.678D+00
 Gap=     0.068 Goal=   None    Shift=    0.000
 Gap=     0.068 Goal=   None    Shift=    0.000
 RMSDP=2.14D-06 MaxDP=2.21D-04 DE=-1.16D-08 OVMax= 1.40D-05

 Cycle  17  Pass 1  IDiag  1:
 RMSU=  5.37D-07    CP:  1.45D+00  5.44D-01  2.45D-01  6.37D-01  1.02D+00
                    CP:  6.75D-01  1.03D+00  9.87D-01  7.49D-01  1.00D+00
                    CP:  6.81D-01  8.24D-01  7.08D-01  9.25D-01  9.67D-01
                    CP:  7.03D-01
 E= -1935.58782920635     Delta-E=       -0.000000000682 Rises=F Damp=F
 DIIS: error= 8.41D-07 at cycle  17 NSaved=  17.
 NSaved=17 IEnMin=17 EnMin= -1935.58782920635     IErMin=17 ErrMin= 8.41D-07
 ErrMax= 8.41D-07  0.00D+00 EMaxC= 1.00D-01 BMatC= 1.13D-09 BMatP= 3.63D-09
 IDIUse=1 WtCom= 1.00D+00 WtEn= 0.00D+00
 Coeff-Com: -0.129D-05 0.867D-06-0.199D-05-0.241D-06-0.434D-05 0.466D-04
 Coeff-Com:  0.139D-03 0.843D-04 0.832D-04 0.875D-04-0.270D-02-0.719D-02
 Coeff-Com: -0.533D-02 0.659D-02 0.849D-01 0.443D+00 0.480D+00
 Coeff:     -0.129D-05 0.867D-06-0.199D-05-0.241D-06-0.434D-05 0.466D-04
 Coeff:      0.139D-03 0.843D-04 0.832D-04 0.875D-04-0.270D-02-0.719D-02
 Coeff:     -0.533D-02 0.659D-02 0.849D-01 0.443D+00 0.480D+00
 Gap=     0.068 Goal=   None    Shift=    0.000
 Gap=     0.068 Goal=   None    Shift=    0.000
 RMSDP=5.48D-07 MaxDP=4.11D-05 DE=-6.82D-10 OVMax= 5.75D-06

 Cycle  18  Pass 1  IDiag  1:
 RMSU=  2.15D-07    CP:  1.45D+00  5.44D-01  2.45D-01  6.37D-01  1.02D+00
                    CP:  6.75D-01  1.03D+00  9.86D-01  7.49D-01  1.00D+00
                    CP:  6.81D-01  8.23D-01  7.10D-01  9.20D-01  9.73D-01
                    CP:  8.53D-01  8.11D-01
 E= -1935.58782920666     Delta-E=       -0.000000000316 Rises=F Damp=F
 DIIS: error= 2.04D-07 at cycle  18 NSaved=  18.
 NSaved=18 IEnMin=18 EnMin= -1935.58782920666     IErMin=18 ErrMin= 2.04D-07
 ErrMax= 2.04D-07  0.00D+00 EMaxC= 1.00D-01 BMatC= 1.03D-10 BMatP= 1.13D-09
 IDIUse=1 WtCom= 1.00D+00 WtEn= 0.00D+00
 Coeff-Com: -0.432D-06 0.256D-06-0.140D-05-0.125D-07-0.156D-05 0.149D-04
 Coeff-Com:  0.441D-04 0.157D-04 0.425D-05 0.125D-04-0.850D-03-0.210D-02
 Coeff-Com: -0.441D-02-0.107D-01 0.619D-02 0.129D+00 0.268D+00 0.615D+00
 Coeff:     -0.432D-06 0.256D-06-0.140D-05-0.125D-07-0.156D-05 0.149D-04
 Coeff:      0.441D-04 0.157D-04 0.425D-05 0.125D-04-0.850D-03-0.210D-02
 Coeff:     -0.441D-02-0.107D-01 0.619D-02 0.129D+00 0.268D+00 0.615D+00
 Gap=     0.068 Goal=   None    Shift=    0.000
 Gap=     0.068 Goal=   None    Shift=    0.000
 RMSDP=2.23D-07 MaxDP=1.91D-05 DE=-3.16D-10 OVMax= 1.96D-06

 Cycle  19  Pass 1  IDiag  1:
 RMSU=  7.99D-08    CP:  1.45D+00  5.44D-01  2.45D-01  6.37D-01  1.02D+00
                    CP:  6.75D-01  1.03D+00  9.86D-01  7.49D-01  1.00D+00
                    CP:  6.81D-01  8.24D-01  7.10D-01  9.23D-01  9.78D-01
                    CP:  8.65D-01  8.65D-01  7.94D-01
 E= -1935.58782920667     Delta-E=       -0.000000000008 Rises=F Damp=F
 DIIS: error= 1.29D-07 at cycle  19 NSaved=  19.
 NSaved=19 IEnMin=19 EnMin= -1935.58782920667     IErMin=19 ErrMin= 1.29D-07
 ErrMax= 1.29D-07  0.00D+00 EMaxC= 1.00D-01 BMatC= 2.51D-11 BMatP= 1.03D-10
 IDIUse=1 WtCom= 1.00D+00 WtEn= 0.00D+00
 Coeff-Com:  0.178D-06-0.444D-06-0.642D-06 0.423D-07-0.899D-06 0.299D-05
 Coeff-Com:  0.147D-04 0.426D-05-0.148D-04-0.163D-04-0.229D-03-0.479D-03
 Coeff-Com: -0.204D-02-0.703D-02-0.510D-02 0.307D-01 0.113D+00 0.399D+00
 Coeff-Com:  0.472D+00
 Coeff:      0.178D-06-0.444D-06-0.642D-06 0.423D-07-0.899D-06 0.299D-05
 Coeff:      0.147D-04 0.426D-05-0.148D-04-0.163D-04-0.229D-03-0.479D-03
 Coeff:     -0.204D-02-0.703D-02-0.510D-02 0.307D-01 0.113D+00 0.399D+00
 Coeff:      0.472D+00
 Gap=     0.068 Goal=   None    Shift=    0.000
 Gap=     0.068 Goal=   None    Shift=    0.000
 RMSDP=6.34D-08 MaxDP=5.94D-06 DE=-8.19D-12 OVMax= 8.63D-07

 Cycle  20  Pass 1  IDiag  1:
 RMSU=  2.83D-08    CP:  1.45D+00  5.44D-01  2.45D-01  6.37D-01  1.02D+00
                    CP:  6.75D-01  1.03D+00  9.86D-01  7.49D-01  1.00D+00
                    CP:  6.81D-01  8.24D-01  7.10D-01  9.23D-01  9.84D-01
                    CP:  8.68D-01  8.70D-01  8.57D-01  6.66D-01
 E= -1935.58782920669     Delta-E=       -0.000000000015 Rises=F Damp=F
 DIIS: error= 5.40D-08 at cycle  20 NSaved=  20.
 NSaved=20 IEnMin=20 EnMin= -1935.58782920669     IErMin=20 ErrMin= 5.40D-08
 ErrMax= 5.40D-08  0.00D+00 EMaxC= 1.00D-01 BMatC= 4.49D-12 BMatP= 2.51D-11
 IDIUse=1 WtCom= 1.00D+00 WtEn= 0.00D+00
 Coeff-Com:  0.138D-06-0.253D-06-0.184D-06 0.247D-07-0.337D-06-0.414D-06
 Coeff-Com:  0.171D-05 0.507D-06-0.879D-05-0.646D-05-0.524D-05 0.232D-04
 Coeff-Com: -0.630D-03-0.281D-02-0.435D-02-0.135D-02 0.297D-01 0.163D+00
 Coeff-Com:  0.329D+00 0.488D+00
 Coeff:      0.138D-06-0.253D-06-0.184D-06 0.247D-07-0.337D-06-0.414D-06
 Coeff:      0.171D-05 0.507D-06-0.879D-05-0.646D-05-0.524D-05 0.232D-04
 Coeff:     -0.630D-03-0.281D-02-0.435D-02-0.135D-02 0.297D-01 0.163D+00
 Coeff:      0.329D+00 0.488D+00
 Gap=     0.068 Goal=   None    Shift=    0.000
 Gap=     0.068 Goal=   None    Shift=    0.000
 RMSDP=2.77D-08 MaxDP=1.99D-06 DE=-1.46D-11 OVMax= 3.47D-07

 Cycle  21  Pass 1  IDiag  1:
 Restarting incremental Fock formation.
 E= -1935.58782920672     Delta-E=       -0.000000000029 Rises=F Damp=F
 DIIS: error= 1.43D-08 at cycle  21 NSaved=  20.
 NSaved=20 IEnMin=20 EnMin= -1935.58782920672     IErMin=20 ErrMin= 1.43D-08
 ErrMax= 1.43D-08  0.00D+00 EMaxC= 1.00D-01 BMatC= 3.12D-13 BMatP= 4.49D-12
 IDIUse=1 WtCom= 1.00D+00 WtEn= 0.00D+00
 Coeff-Com:  0.285D-07-0.503D-07-0.662D-07-0.924D-07-0.477D-06-0.431D-06
 Coeff-Com:  0.194D-06-0.389D-05-0.254D-05 0.164D-04 0.492D-04-0.172D-03
 Coeff-Com: -0.869D-03-0.203D-02-0.485D-02 0.405D-02 0.482D-01 0.141D+00
 Coeff-Com:  0.278D+00 0.536D+00
 Coeff:      0.285D-07-0.503D-07-0.662D-07-0.924D-07-0.477D-06-0.431D-06
 Coeff:      0.194D-06-0.389D-05-0.254D-05 0.164D-04 0.492D-04-0.172D-03
 Coeff:     -0.869D-03-0.203D-02-0.485D-02 0.405D-02 0.482D-01 0.141D+00
 Coeff:      0.278D+00 0.536D+00
 Gap=     0.068 Goal=   None    Shift=    0.000
 Gap=     0.068 Goal=   None    Shift=    0.000
 RMSDP=2.39D-08 MaxDP=3.76D-06 DE=-2.91D-11 OVMax= 1.75D-07

 Cycle  22  Pass 1  IDiag  1:
 RMSU=  2.15D-08    CP:  1.00D+00
 E= -1935.58782920673     Delta-E=       -0.000000000018 Rises=F Damp=F
 DIIS: error= 8.34D-09 at cycle  22 NSaved=  20.
 NSaved=20 IEnMin=20 EnMin= -1935.58782920673     IErMin=20 ErrMin= 8.34D-09
 ErrMax= 8.34D-09  0.00D+00 EMaxC= 1.00D-01 BMatC= 7.10D-14 BMatP= 3.12D-13
 IDIUse=1 WtCom= 1.00D+00 WtEn= 0.00D+00
 Coeff-Com:  0.192D-08 0.743D-09-0.273D-07-0.296D-06-0.843D-06-0.115D-06
 Coeff-Com: -0.801D-06 0.724D-06 0.150D-04 0.367D-04-0.517D-05-0.107D-03
 Coeff-Com: -0.579D-03-0.261D-02-0.142D-02 0.651D-02 0.419D-01 0.102D+00
 Coeff-Com:  0.353D+00 0.502D+00
 Coeff:      0.192D-08 0.743D-09-0.273D-07-0.296D-06-0.843D-06-0.115D-06
 Coeff:     -0.801D-06 0.724D-06 0.150D-04 0.367D-04-0.517D-05-0.107D-03
 Coeff:     -0.579D-03-0.261D-02-0.142D-02 0.651D-02 0.419D-01 0.102D+00
 Coeff:      0.353D+00 0.502D+00
 Gap=     0.068 Goal=   None    Shift=    0.000
 Gap=     0.068 Goal=   None    Shift=    0.000
 RMSDP=1.63D-08 MaxDP=3.17D-06 DE=-1.82D-11 OVMax= 7.97D-08

 Cycle  23  Pass 1  IDiag  1:
 RMSU=  6.83D-09    CP:  1.00D+00  1.49D+00
 E= -1935.58782920673     Delta-E=        0.000000000005 Rises=F Damp=F
 DIIS: error= 2.79D-09 at cycle  23 NSaved=  20.
 NSaved=20 IEnMin=19 EnMin= -1935.58782920673     IErMin=20 ErrMin= 2.79D-09
 ErrMax= 2.79D-09  0.00D+00 EMaxC= 1.00D-01 BMatC= 9.64D-15 BMatP= 7.10D-14
 IDIUse=1 WtCom= 1.00D+00 WtEn= 0.00D+00
 Coeff-Com:  0.107D-07-0.124D-07-0.101D-06-0.431D-06-0.122D-06 0.735D-07
 Coeff-Com:  0.593D-06 0.409D-05 0.989D-05 0.246D-04 0.931D-04 0.175D-04
 Coeff-Com: -0.702D-03-0.155D-02-0.493D-02-0.113D-02 0.999D-02 0.113D+00
 Coeff-Com:  0.295D+00 0.590D+00
 Coeff:      0.107D-07-0.124D-07-0.101D-06-0.431D-06-0.122D-06 0.735D-07
 Coeff:      0.593D-06 0.409D-05 0.989D-05 0.246D-04 0.931D-04 0.175D-04
 Coeff:     -0.702D-03-0.155D-02-0.493D-02-0.113D-02 0.999D-02 0.113D+00
 Coeff:      0.295D+00 0.590D+00
 Gap=     0.068 Goal=   None    Shift=    0.000
 Gap=     0.068 Goal=   None    Shift=    0.000
 RMSDP=7.39D-09 MaxDP=1.36D-06 DE= 5.46D-12 OVMax= 4.71D-08

 Cycle  24  Pass 1  IDiag  1:
 RMSU=  1.43D-09    CP:  1.00D+00  1.76D+00  1.22D+00
 E= -1935.58782920669     Delta-E=        0.000000000036 Rises=F Damp=F
 DIIS: error= 9.07D-10 at cycle  24 NSaved=  20.
 NSaved=20 IEnMin=18 EnMin= -1935.58782920673     IErMin=20 ErrMin= 9.07D-10
 ErrMax= 9.07D-10  0.00D+00 EMaxC= 1.00D-01 BMatC= 1.09D-15 BMatP= 9.64D-15
 IDIUse=1 WtCom= 1.00D+00 WtEn= 0.00D+00
 Large coefficients: NSaved= 20 BigCof=    0.00 CofMax=   10.00 Det=-8.48D-15
 Inversion failed.  Reducing to 19 matrices.
 Large coefficients: NSaved= 19 BigCof=    0.00 CofMax=   10.00 Det=-8.67D-15
 Inversion failed.  Reducing to 18 matrices.
 Large coefficients: NSaved= 18 BigCof=    0.00 CofMax=   10.00 Det=-8.67D-15
 Inversion failed.  Reducing to 17 matrices.
 Large coefficients: NSaved= 17 BigCof=    0.00 CofMax=   10.00 Det=-8.72D-15
 Inversion failed.  Reducing to 16 matrices.
 Large coefficients: NSaved= 16 BigCof=    0.00 CofMax=   10.00 Det=-8.77D-15
 Inversion failed.  Reducing to 15 matrices.
 Coeff-Com: -0.107D-06-0.117D-05-0.163D-05 0.891D-05 0.487D-04 0.781D-04
 Coeff-Com:  0.499D-04-0.409D-03-0.289D-02-0.590D-02-0.901D-02 0.616D-02
 Coeff-Com:  0.736D-01 0.310D+00 0.628D+00
 Coeff:     -0.107D-06-0.117D-05-0.163D-05 0.891D-05 0.487D-04 0.781D-04
 Coeff:      0.499D-04-0.409D-03-0.289D-02-0.590D-02-0.901D-02 0.616D-02
 Coeff:      0.736D-01 0.310D+00 0.628D+00
 Gap=     0.068 Goal=   None    Shift=    0.000
 Gap=     0.068 Goal=   None    Shift=    0.000
 RMSDP=1.69D-09 MaxDP=2.77D-07 DE= 3.64D-11 OVMax= 1.76D-08

 SCF Done:  E(UB3LYP) =  -1935.58782921     A.U. after   24 cycles
            NFock= 24  Conv=0.17D-08     -V/T= 2.0027
 <Sx>= 0.0000 <Sy>= 0.0000 <Sz>= 0.0000 <S**2>=-0.0000 S=-0.0000
 <L.S>=  0.00000000000    
 KE= 1.930422384359D+03 PE=-9.103668053830D+03 EE= 2.986252857894D+03
 Annihilation of the first spin contaminant:
 S**2 before annihilation    -0.0000,   after     0.0000
 Leave Link  502 at Thu Dec 21 23:21:51 2023, MaxMem=  4026531840 cpu:            5861.5 elap:             928.3
 (Enter /sysapps/ubuntu-applications/gaussian/Gaussian/AVX2/g16/l601.exe)
 Copying SCF densities to generalized density rwf, IOpCl= 1 IROHF=0.

 **********************************************************************

            Population analysis using the SCF density.

 **********************************************************************

 Alpha  occ. eigenvalues --  -88.84862 -88.84735 -18.96724 -18.96081 -18.89898
 Alpha  occ. eigenvalues --  -18.89622 -18.88451 -18.88334 -18.87851 -18.87739
 Alpha  occ. eigenvalues --  -10.12183 -10.11523 -10.05307 -10.05037 -10.05014
 Alpha  occ. eigenvalues --  -10.04544 -10.04511 -10.04356 -10.04351 -10.04220
 Alpha  occ. eigenvalues --  -10.04131 -10.04046 -10.03794 -10.03292  -7.90767
 Alpha  occ. eigenvalues --   -7.90630  -5.87025  -5.87012  -5.86941  -5.86894
 Alpha  occ. eigenvalues --   -5.86868  -5.86810  -0.88721  -0.88614  -0.88575
 Alpha  occ. eigenvalues --   -0.87185  -0.76341  -0.76235  -0.74940  -0.73700
 Alpha  occ. eigenvalues --   -0.70090  -0.69610  -0.67102  -0.63394  -0.62788
 Alpha  occ. eigenvalues --   -0.62002  -0.54692  -0.52776  -0.50904  -0.47110
 Alpha  occ. eigenvalues --   -0.45304  -0.43517  -0.43005  -0.38795  -0.37258
 Alpha  occ. eigenvalues --   -0.35049  -0.33325  -0.32273  -0.30726  -0.30100
 Alpha  occ. eigenvalues --   -0.29957  -0.29445  -0.28537  -0.28258  -0.27576
 Alpha  occ. eigenvalues --   -0.25822  -0.25462  -0.24935  -0.24433  -0.23695
 Alpha  occ. eigenvalues --   -0.23573  -0.23247  -0.23026  -0.21304  -0.20438
 Alpha  occ. eigenvalues --   -0.20377  -0.13739  -0.13515  -0.12534  -0.12351
 Alpha  occ. eigenvalues --   -0.12195  -0.11914  -0.11785  -0.11318  -0.10794
 Alpha  occ. eigenvalues --   -0.10697  -0.09521  -0.09356  -0.08176  -0.08128
 Alpha  occ. eigenvalues --   -0.05408  -0.05139  -0.03430  -0.03324
 Alpha virt. eigenvalues --    0.03497   0.07957   0.11543   0.13113   0.13494
 Alpha virt. eigenvalues --    0.14556   0.17005   0.17142   0.17815   0.18551
 Alpha virt. eigenvalues --    0.18654   0.19557   0.20219   0.20357   0.21202
 Alpha virt. eigenvalues --    0.21769   0.21953   0.22130   0.23247   0.23563
 Alpha virt. eigenvalues --    0.23651   0.23995   0.24291   0.24455   0.24699
 Alpha virt. eigenvalues --    0.25255   0.25399   0.25956   0.26545   0.26607
 Alpha virt. eigenvalues --    0.27386   0.27624   0.27877   0.27964   0.28070
 Alpha virt. eigenvalues --    0.28286   0.28807   0.29152   0.29350   0.29559
 Alpha virt. eigenvalues --    0.30165   0.30303   0.30664   0.31169   0.31235
 Alpha virt. eigenvalues --    0.31439   0.32348   0.32352   0.32858   0.33385
 Alpha virt. eigenvalues --    0.33870   0.34114   0.34257   0.34996   0.35043
 Alpha virt. eigenvalues --    0.35273   0.35442   0.35539   0.36136   0.36620
 Alpha virt. eigenvalues --    0.37145   0.37632   0.37795   0.38648   0.38944
 Alpha virt. eigenvalues --    0.39113   0.39347   0.39505   0.39917   0.40039
 Alpha virt. eigenvalues --    0.40747   0.41209   0.41574   0.41901   0.42546
 Alpha virt. eigenvalues --    0.42843   0.43165   0.43524   0.44057   0.44719
 Alpha virt. eigenvalues --    0.45025   0.45287   0.45501   0.45737   0.46321
 Alpha virt. eigenvalues --    0.46573   0.46645   0.47081   0.47333   0.47567
 Alpha virt. eigenvalues --    0.48232   0.48667   0.48720   0.49114   0.49163
 Alpha virt. eigenvalues --    0.49229   0.49521   0.49846   0.50430   0.50508
 Alpha virt. eigenvalues --    0.51217   0.51403   0.51674   0.51914   0.52049
 Alpha virt. eigenvalues --    0.52515   0.53317   0.53651   0.53777   0.54175
 Alpha virt. eigenvalues --    0.54648   0.54758   0.55120   0.55745   0.56306
 Alpha virt. eigenvalues --    0.57067   0.57265   0.57860   0.58149   0.58336
 Alpha virt. eigenvalues --    0.58620   0.59076   0.59212   0.60487   0.60794
 Alpha virt. eigenvalues --    0.62299   0.62778   0.64204   0.64718   0.65405
 Alpha virt. eigenvalues --    0.65729   0.66417   0.66745   0.66885   0.68387
 Alpha virt. eigenvalues --    0.69641   0.69863   0.70336   0.71109   0.72336
 Alpha virt. eigenvalues --    0.73328   0.73810   0.74298   0.75227   0.75679
 Alpha virt. eigenvalues --    0.76876   0.77017   0.77591   0.78281   0.79339
 Alpha virt. eigenvalues --    0.79675   0.79897   0.80750   0.81087   0.81298
 Alpha virt. eigenvalues --    0.81990   0.82564   0.83207   0.84427   0.85284
 Alpha virt. eigenvalues --    0.87540   0.88548   0.88586   0.88967   0.89892
 Alpha virt. eigenvalues --    0.90533   0.90920   0.92140   0.92689   0.93993
 Alpha virt. eigenvalues --    0.94569   0.94634   0.96829   0.97345   0.99412
 Alpha virt. eigenvalues --    1.00892   1.02090   1.02641   1.03585   1.05696
 Alpha virt. eigenvalues --    1.06209   1.06296   1.06438   1.06991   1.07863
 Alpha virt. eigenvalues --    1.08574   1.08958   1.10362   1.10620   1.11699
 Alpha virt. eigenvalues --    1.11966   1.12080   1.13073   1.13526   1.14266
 Alpha virt. eigenvalues --    1.15046   1.15465   1.15828   1.16230   1.16977
 Alpha virt. eigenvalues --    1.17354   1.18440   1.19703   1.19857   1.20504
 Alpha virt. eigenvalues --    1.21550   1.21976   1.23105   1.23856   1.25050
 Alpha virt. eigenvalues --    1.25773   1.27027   1.27885   1.28968   1.30261
 Alpha virt. eigenvalues --    1.30997   1.32493   1.33074   1.33624   1.35503
 Alpha virt. eigenvalues --    1.35614   1.35938   1.36852   1.37143   1.37942
 Alpha virt. eigenvalues --    1.38143   1.38309   1.39124   1.39758   1.40084
 Alpha virt. eigenvalues --    1.40699   1.41012   1.41996   1.42692   1.43522
 Alpha virt. eigenvalues --    1.43897   1.44420   1.44677   1.44926   1.46141
 Alpha virt. eigenvalues --    1.46346   1.47366   1.49025   1.49435   1.50432
 Alpha virt. eigenvalues --    1.52569   1.53110   1.53792   1.54911   1.59272
 Alpha virt. eigenvalues --    1.62512   1.64121   1.64904   1.65781   1.66154
 Alpha virt. eigenvalues --    1.67224   1.67798   1.70268   1.70942   1.72062
 Alpha virt. eigenvalues --    1.75838   1.76537   1.78397   1.78642   1.79138
 Alpha virt. eigenvalues --    1.80356   1.81063   1.81813   1.82442   1.83491
 Alpha virt. eigenvalues --    1.84949   1.87796   1.88140   1.88773   1.89741
 Alpha virt. eigenvalues --    1.91056   1.91413   1.92023   1.93985   1.94201
 Alpha virt. eigenvalues --    1.97813   1.98765   1.99858   2.00884   2.02297
 Alpha virt. eigenvalues --    2.03192   2.05184   2.05565   2.06557   2.07529
 Alpha virt. eigenvalues --    2.08472   2.08847   2.09071   2.10134   2.10456
 Alpha virt. eigenvalues --    2.11945   2.13494   2.13576   2.14940   2.15174
 Alpha virt. eigenvalues --    2.17829   2.19187   2.19655   2.20654   2.21155
 Alpha virt. eigenvalues --    2.21552   2.23697   2.24441   2.25635   2.28173
 Alpha virt. eigenvalues --    2.33242   2.34308   2.35260   2.36954   2.37883
 Alpha virt. eigenvalues --    2.42201   2.43286   2.47220   2.51782   2.52622
 Alpha virt. eigenvalues --    2.54219   2.55921   2.57294   2.57576   2.62948
 Alpha virt. eigenvalues --    2.68412   2.72863   2.73287   2.77166   2.79054
 Alpha virt. eigenvalues --    2.81032   2.83436   2.84630   2.85480   2.86281
 Alpha virt. eigenvalues --    2.87907   2.89319   2.89602   2.91031   2.92635
 Alpha virt. eigenvalues --    2.92844   2.94038   2.94472   2.94754   2.96091
 Alpha virt. eigenvalues --    2.96820   2.99180   3.00791   3.02166   3.02302
 Alpha virt. eigenvalues --    3.02906   3.03795   3.03950   3.04159   3.05342
 Alpha virt. eigenvalues --    3.05596   3.05761   3.06302   3.06583   3.06834
 Alpha virt. eigenvalues --    3.08484   3.09333   3.09630   3.09749   3.10338
 Alpha virt. eigenvalues --    3.10674   3.10762   3.11450   3.11498   3.12235
 Alpha virt. eigenvalues --    3.13741   3.14447   3.15940   3.17705   3.17848
 Alpha virt. eigenvalues --    3.20012   3.25678   3.25893   3.26464   3.27143
 Alpha virt. eigenvalues --    3.28244   3.28813   3.29542   3.29839   3.30898
 Alpha virt. eigenvalues --    3.32097   3.34540   3.37699   3.40486   3.41347
 Alpha virt. eigenvalues --    3.43191   3.43428   3.45122   3.47636   3.49996
 Alpha virt. eigenvalues --    3.54277   3.55645   3.56336   3.57794   3.59618
 Alpha virt. eigenvalues --    3.62840   3.66860   3.69616   3.70858   3.71448
 Alpha virt. eigenvalues --    3.72009   3.73952   3.75361   3.78065   3.79562
 Alpha virt. eigenvalues --    3.79877   3.83557   3.93527   3.96945   4.00939
 Alpha virt. eigenvalues --    4.01224   4.04453   4.21400   4.24630   4.32908
 Alpha virt. eigenvalues --    4.37060   4.40453   4.44376   4.62427   4.96315
 Alpha virt. eigenvalues --    5.01794   5.02792   5.20506   5.21866   5.23249
 Alpha virt. eigenvalues --    5.23387   5.24397   5.25112   5.25425   5.26261
 Alpha virt. eigenvalues --    5.29267   5.29646   5.30502   5.31171   5.31969
 Alpha virt. eigenvalues --    5.32315   5.33152   5.33594   5.39836   5.42325
 Alpha virt. eigenvalues --    5.43035   5.43394   5.47187   5.47534   5.88011
 Alpha virt. eigenvalues --    5.96314   8.34118   8.34707  17.54316  17.54846
 Alpha virt. eigenvalues --   17.62690  17.63241  17.67595  17.67627  23.62827
 Alpha virt. eigenvalues --   23.78759  24.02867  24.07689  24.09071  24.10824
 Alpha virt. eigenvalues --   24.14013  24.15114  24.25626  24.27414  24.28309
 Alpha virt. eigenvalues --   24.30206  24.37267  24.37920  50.08892  50.09265
 Alpha virt. eigenvalues --   50.10710  50.10869  50.16600  50.16790  50.17226
 Alpha virt. eigenvalues --   50.21848 189.43879 189.44358
  Beta  occ. eigenvalues --  -88.84862 -88.84735 -18.96724 -18.96081 -18.89898
  Beta  occ. eigenvalues --  -18.89622 -18.88451 -18.88334 -18.87851 -18.87739
  Beta  occ. eigenvalues --  -10.12183 -10.11523 -10.05307 -10.05037 -10.05014
  Beta  occ. eigenvalues --  -10.04544 -10.04511 -10.04356 -10.04351 -10.04220
  Beta  occ. eigenvalues --  -10.04131 -10.04046 -10.03794 -10.03292  -7.90767
  Beta  occ. eigenvalues --   -7.90630  -5.87025  -5.87012  -5.86941  -5.86894
  Beta  occ. eigenvalues --   -5.86868  -5.86810  -0.88721  -0.88614  -0.88575
  Beta  occ. eigenvalues --   -0.87185  -0.76341  -0.76235  -0.74940  -0.73700
  Beta  occ. eigenvalues --   -0.70090  -0.69610  -0.67102  -0.63394  -0.62788
  Beta  occ. eigenvalues --   -0.62002  -0.54692  -0.52776  -0.50904  -0.47110
  Beta  occ. eigenvalues --   -0.45304  -0.43517  -0.43005  -0.38795  -0.37258
  Beta  occ. eigenvalues --   -0.35049  -0.33325  -0.32273  -0.30726  -0.30100
  Beta  occ. eigenvalues --   -0.29957  -0.29445  -0.28537  -0.28258  -0.27576
  Beta  occ. eigenvalues --   -0.25822  -0.25462  -0.24935  -0.24433  -0.23695
  Beta  occ. eigenvalues --   -0.23573  -0.23247  -0.23026  -0.21304  -0.20438
  Beta  occ. eigenvalues --   -0.20377  -0.13739  -0.13515  -0.12534  -0.12351
  Beta  occ. eigenvalues --   -0.12195  -0.11914  -0.11785  -0.11318  -0.10794
  Beta  occ. eigenvalues --   -0.10697  -0.09521  -0.09356  -0.08176  -0.08128
  Beta  occ. eigenvalues --   -0.05408  -0.05139  -0.03430  -0.03324
  Beta virt. eigenvalues --    0.03497   0.07957   0.11543   0.13113   0.13494
  Beta virt. eigenvalues --    0.14556   0.17005   0.17142   0.17815   0.18551
  Beta virt. eigenvalues --    0.18654   0.19557   0.20219   0.20357   0.21202
  Beta virt. eigenvalues --    0.21769   0.21953   0.22130   0.23247   0.23563
  Beta virt. eigenvalues --    0.23651   0.23995   0.24291   0.24455   0.24699
  Beta virt. eigenvalues --    0.25255   0.25399   0.25956   0.26545   0.26607
  Beta virt. eigenvalues --    0.27386   0.27624   0.27877   0.27964   0.28070
  Beta virt. eigenvalues --    0.28286   0.28807   0.29152   0.29350   0.29559
  Beta virt. eigenvalues --    0.30165   0.30303   0.30664   0.31169   0.31235
  Beta virt. eigenvalues --    0.31439   0.32348   0.32352   0.32858   0.33385
  Beta virt. eigenvalues --    0.33870   0.34114   0.34257   0.34996   0.35043
  Beta virt. eigenvalues --    0.35273   0.35442   0.35539   0.36136   0.36620
  Beta virt. eigenvalues --    0.37145   0.37632   0.37795   0.38648   0.38944
  Beta virt. eigenvalues --    0.39113   0.39347   0.39505   0.39917   0.40039
  Beta virt. eigenvalues --    0.40747   0.41209   0.41574   0.41901   0.42546
  Beta virt. eigenvalues --    0.42843   0.43165   0.43524   0.44057   0.44719
  Beta virt. eigenvalues --    0.45025   0.45287   0.45501   0.45737   0.46321
  Beta virt. eigenvalues --    0.46573   0.46645   0.47081   0.47333   0.47567
  Beta virt. eigenvalues --    0.48232   0.48667   0.48720   0.49114   0.49163
  Beta virt. eigenvalues --    0.49229   0.49521   0.49846   0.50430   0.50508
  Beta virt. eigenvalues --    0.51217   0.51403   0.51674   0.51914   0.52049
  Beta virt. eigenvalues --    0.52515   0.53317   0.53651   0.53777   0.54175
  Beta virt. eigenvalues --    0.54648   0.54758   0.55120   0.55745   0.56306
  Beta virt. eigenvalues --    0.57067   0.57265   0.57860   0.58149   0.58336
  Beta virt. eigenvalues --    0.58620   0.59076   0.59212   0.60487   0.60794
  Beta virt. eigenvalues --    0.62299   0.62778   0.64204   0.64718   0.65405
  Beta virt. eigenvalues --    0.65729   0.66417   0.66745   0.66885   0.68387
  Beta virt. eigenvalues --    0.69641   0.69863   0.70336   0.71109   0.72336
  Beta virt. eigenvalues --    0.73328   0.73810   0.74298   0.75227   0.75679
  Beta virt. eigenvalues --    0.76876   0.77017   0.77591   0.78281   0.79339
  Beta virt. eigenvalues --    0.79675   0.79897   0.80750   0.81087   0.81298
  Beta virt. eigenvalues --    0.81990   0.82564   0.83207   0.84427   0.85284
  Beta virt. eigenvalues --    0.87540   0.88548   0.88586   0.88967   0.89892
  Beta virt. eigenvalues --    0.90533   0.90920   0.92140   0.92689   0.93993
  Beta virt. eigenvalues --    0.94569   0.94634   0.96829   0.97345   0.99412
  Beta virt. eigenvalues --    1.00892   1.02090   1.02641   1.03585   1.05696
  Beta virt. eigenvalues --    1.06209   1.06296   1.06438   1.06991   1.07863
  Beta virt. eigenvalues --    1.08574   1.08958   1.10362   1.10620   1.11699
  Beta virt. eigenvalues --    1.11966   1.12080   1.13073   1.13526   1.14266
  Beta virt. eigenvalues --    1.15046   1.15465   1.15828   1.16230   1.16977
  Beta virt. eigenvalues --    1.17354   1.18440   1.19703   1.19857   1.20504
  Beta virt. eigenvalues --    1.21550   1.21976   1.23105   1.23856   1.25050
  Beta virt. eigenvalues --    1.25773   1.27027   1.27885   1.28968   1.30261
  Beta virt. eigenvalues --    1.30997   1.32493   1.33074   1.33624   1.35503
  Beta virt. eigenvalues --    1.35614   1.35938   1.36852   1.37143   1.37942
  Beta virt. eigenvalues --    1.38143   1.38309   1.39124   1.39758   1.40084
  Beta virt. eigenvalues --    1.40699   1.41012   1.41996   1.42692   1.43522
  Beta virt. eigenvalues --    1.43897   1.44420   1.44677   1.44926   1.46141
  Beta virt. eigenvalues --    1.46346   1.47366   1.49025   1.49435   1.50432
  Beta virt. eigenvalues --    1.52569   1.53110   1.53792   1.54911   1.59272
  Beta virt. eigenvalues --    1.62512   1.64121   1.64904   1.65781   1.66154
  Beta virt. eigenvalues --    1.67224   1.67798   1.70268   1.70942   1.72062
  Beta virt. eigenvalues --    1.75838   1.76537   1.78397   1.78642   1.79138
  Beta virt. eigenvalues --    1.80356   1.81063   1.81813   1.82442   1.83491
  Beta virt. eigenvalues --    1.84949   1.87796   1.88140   1.88773   1.89741
  Beta virt. eigenvalues --    1.91056   1.91413   1.92023   1.93985   1.94201
  Beta virt. eigenvalues --    1.97813   1.98765   1.99858   2.00884   2.02297
  Beta virt. eigenvalues --    2.03192   2.05184   2.05565   2.06557   2.07529
  Beta virt. eigenvalues --    2.08472   2.08847   2.09071   2.10134   2.10456
  Beta virt. eigenvalues --    2.11945   2.13494   2.13576   2.14940   2.15174
  Beta virt. eigenvalues --    2.17829   2.19187   2.19655   2.20654   2.21155
  Beta virt. eigenvalues --    2.21552   2.23697   2.24441   2.25635   2.28173
  Beta virt. eigenvalues --    2.33242   2.34308   2.35260   2.36954   2.37883
  Beta virt. eigenvalues --    2.42201   2.43286   2.47220   2.51782   2.52622
  Beta virt. eigenvalues --    2.54219   2.55921   2.57294   2.57576   2.62948
  Beta virt. eigenvalues --    2.68412   2.72863   2.73287   2.77166   2.79054
  Beta virt. eigenvalues --    2.81032   2.83436   2.84630   2.85480   2.86281
  Beta virt. eigenvalues --    2.87907   2.89319   2.89602   2.91031   2.92635
  Beta virt. eigenvalues --    2.92844   2.94038   2.94472   2.94754   2.96091
  Beta virt. eigenvalues --    2.96820   2.99180   3.00791   3.02166   3.02302
  Beta virt. eigenvalues --    3.02906   3.03795   3.03950   3.04159   3.05342
  Beta virt. eigenvalues --    3.05596   3.05761   3.06302   3.06583   3.06834
  Beta virt. eigenvalues --    3.08484   3.09333   3.09630   3.09749   3.10338
  Beta virt. eigenvalues --    3.10674   3.10762   3.11450   3.11498   3.12235
  Beta virt. eigenvalues --    3.13741   3.14447   3.15940   3.17705   3.17848
  Beta virt. eigenvalues --    3.20012   3.25678   3.25893   3.26464   3.27143
  Beta virt. eigenvalues --    3.28244   3.28813   3.29542   3.29839   3.30898
  Beta virt. eigenvalues --    3.32097   3.34540   3.37699   3.40486   3.41347
  Beta virt. eigenvalues --    3.43191   3.43428   3.45122   3.47636   3.49996
  Beta virt. eigenvalues --    3.54277   3.55645   3.56336   3.57794   3.59618
  Beta virt. eigenvalues --    3.62840   3.66860   3.69616   3.70858   3.71448
  Beta virt. eigenvalues --    3.72009   3.73952   3.75361   3.78065   3.79562
[...]
 029106,0.00056916,-0.00098293,-0.00012429,-0.00000841,0.00084273,0.000
 13130,-0.00004313,0.00001135,-0.00002449,0.00007561,-0.00000010,-0.000
 01259,0.16186563,-0.22642205,0.05581042,0.02007804,-0.00229542,0.01284
 799,0.02942154,-0.01331724,0.00228915,-0.20111158,0.23641659,-0.000110
 68,0.00004052,0.00000749,0.00030114,-0.00008850,-0.00015446,-0.0000828
 9,0.00009081,0.00011008,-0.00013912,-0.00004527,0.00005873,-0.00001348
 ,0.00001213,0.00002098,-0.00003944,0.00001851,0.00000625,0.00001309,0.
 00004952,0.00002843,-0.00018527,0.00006222,-0.00001046,0.00079862,0.00
 058088,0.00010967,-0.00020734,-0.00048542,-0.00003950,-0.00052722,-0.0
 0069995,-0.00013168,-0.00016924,0.00015556,-0.00028034,-0.00038647,-0.
 00041025,0.00010061,-0.00304211,0.00550385,0.00772044,-0.00210393,-0.0
 0222883,0.00005112,-0.00033735,0.00126314,-0.00036782,0.00040550,-0.00
 035156,-0.00015692,-0.00022517,0.00022507,0.00013714,-0.00015032,-0.00
 001248,-0.00002836,-0.00008727,-0.00006484,0.00003041,-0.06658435,0.05
 734732,-0.10608560,-0.02613568,0.02963230,-0.00885457,0.01880444,-0.02
 096082,0.01257479,0.08063394,-0.06973807,0.09582940,-0.00031862,-0.000
 34633,0.00031524,0.00106325,0.00289222,-0.00039248,-0.00022014,-0.0006
 5925,-0.00002476,-0.00198743,-0.00048748,0.00011071,0.00673442,0.00040
 343,0.00018861,-0.24269376,-0.13225303,-0.02120386,-0.01639785,-0.0163
 3766,-0.00278038,-0.00305532,0.00323468,0.00068993,-0.00026273,-0.0015
 0516,-0.00022470,0.00007074,0.00040521,0.00007318,-0.00031128,0.000313
 20,0.00003599,-0.00002985,-0.00012330,-0.00003589,-0.00003189,0.000009
 48,0.00001166,0.00001250,-0.00001369,-0.00001412,-0.00004436,-0.000030
 22,-0.00000035,0.00009974,0.00003201,0.00002126,-0.00044849,-0.0001672
 3,-0.00005108,0.00012454,0.00009094,0.00002262,0.00046013,0.00072888,0
 .00005350,0.00030310,0.00177044,0.00044101,0.00002349,0.00001274,0.000
 00491,-0.00000906,-0.00000744,0.00000629,-0.00000382,-0.00000937,-0.00
 000581,-0.00001154,0.00000158,-0.00000326,0.25550740,0.00079943,0.0003
 3957,-0.00003395,-0.00463836,-0.00418736,0.00040184,0.00079090,0.00088
 470,0.00035679,0.00000271,0.00321852,0.00039103,-0.02513337,-0.0143158
 9,-0.00277816,-0.12998562,-0.14894213,-0.01736882,0.01251226,0.0113515
 9,0.00139184,0.00293804,-0.00016709,-0.00124895,0.00052051,0.00071651,
 0.00010433,-0.00014242,-0.00007161,-0.00003422,0.00022048,-0.00017487,
 0.00001165,0.00000393,0.00005989,0.00001975,0.00002207,0.00001198,0.00
 000608,0.00001166,-0.00001543,0.00000320,-0.00003442,0.00002419,-0.000
 00007,-0.00007569,-0.00002655,-0.00004600,0.00014937,-0.00013449,0.000
 15897,-0.00023515,0.00007054,-0.00002061,0.00094988,-0.00059807,0.0001
 2696,0.00178342,-0.00552638,-0.00209319,0.00003788,0.00001741,-0.00000
 127,-0.00001280,-0.00001020,0.00001009,-0.00001255,-0.00001019,-0.0000
 0477,-0.00001825,0.00000224,-0.00000309,0.14153225,0.15732669,-0.00045
 907,0.00055519,-0.00093730,-0.00124442,-0.00100953,-0.00142410,0.00052
 193,-0.00036773,0.00000709,0.00032901,0.00145490,-0.00061012,-0.003699
 99,-0.00283594,0.00302066,-0.02036127,-0.01624942,-0.04188592,0.001589
 91,0.00087577,0.00401510,0.00030960,-0.00117408,0.00776675,0.00007618,
 0.00005576,0.00015834,-0.00002740,-0.00003239,0.00012545,0.00002657,0.
 00002435,-0.00024820,-0.00000686,0.00002907,-0.00010965,0.00000647,-0.
 00000071,0.00001780,0.00000691,-0.00000048,-0.00004806,-0.00000936,-0.
 00000096,0.00003956,-0.00000259,-0.00003225,0.00020846,0.00004262,0.00
 015951,-0.00118599,-0.00004316,-0.00002088,0.00019419,0.00020045,0.000
 09544,-0.00108028,0.00023312,-0.00225191,0.00670138,0.00000937,0.00000
 066,0.00001990,-0.00000393,0.00000233,-0.00001102,-0.00000041,-0.00000
 421,-0.00000976,-0.00000724,0.00000216,-0.00000662,0.02282413,0.019925
 57,0.02974265,-0.00035299,0.00006438,-0.00041197,0.00157698,0.00075121
 ,0.00025308,-0.00048476,0.00040851,0.00033760,-0.00026093,-0.00047505,
 0.00003276,-0.00491848,0.00200694,0.00012212,0.00097219,0.02828838,0.0
 0453194,-0.06168428,0.03433050,0.00556255,0.00854803,-0.02467603,-0.00
 406018,0.00005324,-0.00238425,-0.00035999,-0.00059023,0.00190957,0.000
 30739,0.00050441,0.00046001,0.00009460,-0.00008015,0.00013093,0.000022
 63,-0.00003476,0.00006480,0.00000906,-0.00006721,0.00009052,0.00002597
 ,0.00020365,0.00014699,0.00003785,-0.00015108,-0.00013860,-0.00003009,
 0.00178452,-0.00074913,-0.00013446,-0.00073515,-0.00070643,-0.00012188
 ,-0.00470900,-0.00238681,-0.00048034,-0.00120805,-0.00023286,-0.000053
 29,-0.00013327,-0.00008571,-0.00003914,0.00005190,0.00005209,-0.000028
 16,0.00002284,0.00006895,0.00004423,0.00005305,0.00000401,0.00001535,0
 .00104513,-0.00066331,-0.00006664,0.06055567,0.00021567,-0.00009220,0.
 00020903,-0.00107781,-0.00002706,-0.00006140,0.00023213,-0.00017992,-0
 .00012579,0.00022877,0.00021136,-0.00003397,0.00212497,0.00097229,-0.0
 0101775,-0.00105372,-0.00617466,-0.00171154,0.03255128,-0.32365222,-0.
 04639304,0.00167785,-0.01591956,-0.00306101,0.00181504,-0.00325445,0.0
 0006516,0.00235735,0.00230293,0.00044702,-0.00015343,0.00005646,-0.000
 01497,-0.00000103,-0.00003682,0.00000167,-0.00005371,0.00002679,-0.000
 00281,-0.00003389,0.00003468,0.00000286,0.00006286,0.00006160,0.000011
 54,-0.00017663,-0.00001666,0.00001110,0.00114750,-0.00018841,-0.000212
 34,-0.00039912,-0.00052274,0.00000106,-0.00348372,0.00031276,-0.001108
 23,0.00003119,0.00056330,0.00029705,0.00006983,0.00003876,-0.00000295,
 -0.00002188,-0.00001623,0.00002001,-0.00002029,-0.00001059,-0.00000596
 ,-0.00003935,0.00000144,-0.00000564,0.00027732,0.00061144,0.00079728,-
 0.03632316,0.34497079,-0.00000225,0.00006877,0.00006547,-0.00027662,-0
 .00005396,-0.00030723,0.00002493,0.00000964,-0.00000877,0.00011017,-0.
 00000161,0.00001819,0.00028728,-0.00124964,0.00734346,-0.00017063,-0.0
 0123371,0.00400562,0.00528138,-0.04625781,-0.04567773,0.00024224,-0.00
 344708,0.00250735,0.00028762,0.00009221,-0.00383833,0.00040189,0.00038
 411,-0.00012202,-0.00002555,-0.00001019,0.00014205,0.00000139,-0.00001
 263,0.00003117,-0.00001008,0.00000448,-0.00001946,-0.00000870,0.000006
 14,0.00001353,0.00001399,0.00000668,0.00000989,-0.00002988,0.00000347,
 -0.00007098,0.00016604,-0.00022611,0.00108555,-0.00006116,0.00001732,-
 0.00055694,-0.00070529,-0.00102202,0.00663927,0.00013476,0.00025244,-0
 .00123920,0.00000407,-0.00000286,0.00002462,0.00000092,0.00000459,-0.0
 0001760,0.00000045,-0.00000228,-0.00001416,-0.00000551,0.00000725,-0.0
 0001127,-0.00005152,0.00074649,-0.00413983,-0.00563770,0.05178829,0.03
 484502,0.00005351,-0.00003706,0.00002765,-0.00013071,0.00005020,0.0000
 2947,0.00003371,-0.00005973,-0.00003922,0.00004412,0.00000444,-0.00001
 044,-0.00004974,-0.00010917,-0.00003089,-0.00002974,-0.00007707,-0.000
 00944,-0.00004981,-0.00013284,-0.00002851,0.00054995,-0.00035389,-0.00
 006593,-0.00023246,0.00302750,0.00059767,0.00047904,-0.00234074,-0.000
 37629,0.00245705,0.02879996,0.00480780,-0.05996431,0.02504634,0.003514
 02,0.00645155,-0.02548140,-0.00409298,-0.00377477,-0.00293828,-0.00064
 262,-0.00115998,-0.00015166,-0.00000598,-0.00574176,0.00115702,-0.0000
 8766,0.00177310,0.00118224,0.00022807,-0.00096146,0.00061060,0.0000970
 1,-0.00021272,0.00009655,0.00001884,0.00024291,-0.00010862,-0.00002526
 ,0.00142985,-0.00043582,-0.00012534,-0.00030545,-0.00011488,0.00033456
 ,-0.00031814,-0.00043759,-0.00032815,-0.00028081,0.00036947,-0.0000404
 4,0.00000945,-0.00000152,0.00000082,-0.00008602,-0.00002195,-0.0000046
 6,0.05870257,0.00003544,-0.00001954,0.00002784,-0.00010569,0.00003447,
 -0.00000149,0.00003011,-0.00001898,-0.00001307,0.00004872,0.00001089,-
 0.00000561,0.00001564,0.00001861,-0.00000172,0.00004172,0.00002184,-0.
 00000141,-0.00000213,-0.00006505,-0.00000416,0.00025952,0.00001390,-0.
 00001781,-0.00116748,-0.00299393,0.00006695,-0.00278724,0.00130189,0.0
 0020403,0.00244602,-0.01013037,-0.00208247,0.02683236,-0.32526208,-0.0
 4681476,0.00385800,-0.01139115,-0.00248284,-0.00307102,-0.00011093,-0.
 00127092,-0.00041889,0.00052346,0.00028710,0.00225971,0.00130535,-0.00
 087707,-0.00071310,-0.00018074,-0.00023441,0.00030480,-0.00030677,0.00
 004787,0.00013413,0.00004143,0.00002646,-0.00002478,0.00002489,0.00000
 198,0.00139250,0.00011088,-0.00001949,-0.00027428,-0.00016506,0.000270
 87,-0.00025303,-0.00032131,-0.00021371,-0.00033204,0.00024148,-0.00005
 873,0.00000634,-0.00000142,-0.00000010,-0.00000339,0.00003269,-0.00000
 135,-0.02822604,0.34670696,0.00000294,0.00000187,-0.00001573,-0.000014
 09,-0.00000038,0.00002618,0.00000331,-0.00000620,-0.00001672,0.0000078
 1,0.00000874,-0.00001166,0.00000321,0.00000073,0.00001249,0.00000852,0
 .00000191,-0.00002021,-0.00000400,-0.00002194,0.00003025,0.00005494,-0
 .00002785,0.00013913,-0.00008003,0.00023037,-0.00381699,-0.00044299,0.
 00014269,-0.00017097,0.00049705,-0.00165869,0.00281485,0.00377229,-0.0
 4673888,-0.04580143,0.00060870,-0.00291936,0.00374842,-0.00075639,-0.0
 0152171,0.00728074,-0.00018178,0.00022139,-0.00124761,0.00012177,-0.00
 081661,0.00668025,-0.00007615,-0.00018867,0.00108918,0.00003237,0.0000
 7067,-0.00054660,0.00002015,0.00001665,-0.00006745,-0.00000019,-0.0000
 0316,0.00000691,0.00040202,-0.00001978,-0.00029884,-0.00003817,0.00005
 843,0.00008936,-0.00004821,-0.00002680,-0.00003184,-0.00012806,0.00000
 130,0.00000842,0.00000109,-0.00000011,-0.00000222,-0.00000338,-0.00000
 180,0.00004066,-0.00397767,0.05225455,0.03495009,-0.00001274,0.0000064
 9,-0.00000824,0.00003385,-0.00000902,-0.00000369,-0.00000891,0.0000098
 0,0.00000665,-0.00001475,-0.00000531,0.00000328,0.00001023,0.00001935,
 0.00001721,-0.00002203,-0.00001678,-0.00001547,-0.00005254,0.00009714,
 0.00003526,-0.00019144,-0.00031761,-0.00003665,-0.00042619,0.00125431,
 0.00016946,0.00012069,-0.00036134,-0.00006711,-0.00159536,-0.00346166,
 -0.00103839,-0.01591438,0.01042540,0.00121725,-0.29424039,0.10210771,0
 .00885379,0.00047140,0.00294423,0.00025922,0.00077956,-0.00027690,-0.0
 0037608,0.00076836,-0.00044151,0.00003734,-0.00043930,0.00009255,0.000
 06489,0.00009180,-0.00008575,-0.00002501,0.00008616,-0.00000573,-0.000
 01891,-0.00005480,0.00001338,-0.00000565,0.00037226,-0.00185338,0.0003
 9765,-0.00020452,0.00019164,-0.00025009,-0.00011760,0.00046874,-0.0000
 5246,-0.00181090,-0.00067673,-0.00027294,-0.00001097,0.00000559,-0.000
 00140,0.00000997,-0.00000387,-0.00000030,0.00093866,-0.00025748,0.0002
 1742,0.31132754,0.00001157,-0.00000609,0.00000940,-0.00003422,0.000007
 41,-0.00000459,0.00001312,-0.00000542,-0.00000257,0.00001480,0.0000050
 2,-0.00000135,-0.00000646,-0.00001386,0.00000608,-0.00002973,0.0000036
 5,0.00000135,-0.00002915,0.00007991,0.00002637,-0.00022465,-0.00028971
 ,-0.00001090,-0.00077062,0.00087360,0.00010457,0.00018569,-0.00011869,
 -0.00003859,-0.00316054,-0.00153335,-0.00163610,-0.01841659,0.01090622
 ,0.00081028,0.09989166,-0.09932321,-0.00656634,0.02844870,-0.00834318,
 -0.00101645,-0.00029679,-0.00596840,-0.00225037,-0.00066440,-0.0008950
 6,0.00007300,-0.00022501,-0.00014670,0.00015907,0.00024093,0.00010235,
 -0.00001007,0.00010258,-0.00001156,-0.00004425,0.00001754,0.00003443,0
 .00000088,0.00559585,-0.00360299,0.00081231,-0.00091005,0.00021223,-0.
 00015334,-0.00102978,0.00080972,0.00029923,-0.00110630,0.00310924,0.00
 031594,-0.00000914,0.00000709,-0.00000507,0.00000395,-0.00000193,-0.00
 000009,0.00068490,0.00069788,0.00081830,-0.10974557,0.10361430,0.00000
 333,0.00000354,-0.00001126,-0.00000866,-0.00000199,0.00001906,0.000001
 41,-0.00000337,-0.00000924,0.00000623,0.00000339,-0.00000603,-0.000002
 86,-0.00000034,-0.00004767,-0.00000897,-0.00000329,0.00001697,0.000004
 08,0.00003751,-0.00010756,-0.00002911,-0.00000248,-0.00025219,-0.00012
 934,0.00012410,0.00016428,0.00003456,-0.00005092,0.00012292,-0.0006807
 4,-0.00150305,0.00767770,-0.00315128,0.00124537,0.00398776,0.00778365,
 -0.00550305,-0.03994993,0.00424811,-0.00189642,0.00329385,-0.00014011,
 -0.00235892,0.00666333,-0.00010054,0.00002511,-0.00109335,-0.00002845,
 0.00016044,-0.00118371,0.00004165,-0.00001751,0.00019541,0.00000213,-0
 .00003289,0.00020699,0.00000326,0.00000177,0.00004009,0.00157761,-0.00
 085926,-0.00131784,0.00036940,0.00067000,-0.00092395,-0.00044787,-0.00
 044149,-0.00002798,-0.00070267,0.00132263,-0.00065674,-0.00000083,-0.0
 0000452,0.00003882,0.00000004,-0.00000052,-0.00000226,0.00023075,0.000
 81159,-0.00411970,-0.00915036,0.00822311,0.02762093,0.00005735,-0.0000
 1452,0.00004209,-0.00017892,0.00001140,-0.00002274,0.00006554,-0.00000
 692,-0.00000826,0.00008769,0.00003640,-0.00001091,-0.00005938,-0.00004
 454,-0.00000461,-0.00006667,0.00017502,0.00003445,0.00021839,0.0001408
 9,0.00002565,-0.00015384,-0.00008984,-0.00002110,0.00165798,-0.0008637
 4,-0.00014609,-0.00068447,-0.00058264,-0.00009691,-0.00466667,-0.00207
 573,-0.00061090,-0.00097284,-0.00027364,-0.00001365,-0.00533778,0.0016
 9953,0.00007162,0.00100107,0.02737609,0.00464188,-0.05960344,0.0294874
 6,0.00531480,0.00786628,-0.02467681,-0.00417104,0.00007633,-0.00214712
 ,-0.00026456,-0.00029117,0.00174784,0.00032452,0.00044409,0.00039211,0
 .00004371,0.00001329,0.00013637,0.00002021,-0.00141216,0.00422195,0.00
 180250,0.00017971,-0.00064367,-0.00027542,0.00165673,-0.00151802,-0.00
 048794,0.00065904,-0.00106600,-0.00014553,-0.00001280,0.00001513,0.000
 00149,0.00004562,0.00002398,0.00000431,0.00008167,-0.00001621,-0.00000
 147,0.00011606,0.00146587,0.00027787,0.05930281,0.00001488,-0.00001118
 ,0.00001132,-0.00004279,0.00002201,-0.00000550,0.00001524,-0.00001609,
 -0.00000412,0.00001516,-0.00000276,-0.00000049,-0.00002607,-0.00000210
 ,-0.00000175,-0.00002471,0.00003967,0.00001638,0.00007024,0.00003513,-
 0.00001223,-0.00009989,-0.00004118,0.00000671,0.00057122,-0.00022218,-
 0.00021143,-0.00017734,-0.00024479,0.00006854,-0.00257603,0.00071806,-
 0.00137629,0.00022338,0.00058003,0.00035713,0.00118746,0.00064154,-0.0
 0127338,0.00208657,-0.00627960,-0.00185567,0.02940947,-0.32836902,-0.0
 5157152,0.00057059,-0.01330376,-0.00292081,0.00115176,-0.00244777,0.00
 039513,0.00215512,0.00152828,0.00028149,-0.00007424,-0.00004756,-0.000
 03124,0.00003442,0.00001261,-0.00000136,-0.00028743,-0.00082314,0.0002
 1081,-0.00015561,-0.00020227,0.00004593,-0.00107199,-0.00024629,0.0001
 4721,0.00006743,0.00024970,-0.00014645,-0.00000402,0.00000392,0.000001
 09,0.00001060,-0.00000433,-0.00000060,-0.00000215,-0.00011011,0.000125
 79,-0.00011870,-0.00020379,0.00005060,-0.03290442,0.34872173,0.0000097
 0,0.00000870,-0.00003324,-0.00001753,0.00000294,0.00006122,0.00000237,
 -0.00001089,-0.00003113,0.00000996,0.00000531,-0.00001507,-0.00000341,
 -0.00000114,0.00000185,-0.00000740,0.00001233,-0.00003436,0.00002014,0
 .00000283,0.00007889,-0.00001531,0.00000888,-0.00010413,0.00010744,-0.
 00019879,0.00086815,-0.00002434,0.00004829,-0.00054237,-0.00059295,-0.
 00122312,0.00715186,0.00002561,0.00032119,-0.00124640,-0.00012727,-0.0
 0105122,0.00723338,0.00013230,-0.00165206,0.00315879,0.00574496,-0.052
 17639,-0.04892350,0.00021515,-0.00311068,0.00284661,0.00029498,0.00017
 120,-0.00395465,0.00039712,0.00035019,-0.00002600,0.00000443,-0.000021
 85,0.00017496,0.00000602,0.00000389,0.00002281,-0.00041077,0.00070049,
 -0.00087903,0.00025465,0.00091599,-0.00099925,0.00059198,-0.00091089,-
 0.00086111,-0.00033505,-0.00007384,0.00000498,-0.00000154,0.00000170,-
 0.00000276,0.00000231,0.,0.00000135,0.00000388,0.00010320,-0.00075005,
 0.00004261,0.00007937,-0.00033586,-0.00632299,0.05769734,0.03709234,0.
 00000614,0.00062620,0.00033471,-0.00047320,-0.00421229,-0.00182211,0.0
 0101674,0.00184487,0.00057816,0.00040178,0.00110649,0.00020487,0.00693
 832,-0.02440507,-0.00407870,-0.00447536,-0.00272166,-0.00057386,-0.000
 90611,-0.00006547,-0.00004107,-0.00544048,0.00083881,0.00008144,0.0015
 0464,0.00124450,0.00023656,-0.00082505,0.00045438,0.00006510,-0.000189
 44,0.00005780,0.00001438,0.00025565,-0.00009384,-0.00001184,-0.0000292
 2,-0.00019045,-0.00003802,-0.00007161,0.00002988,0.00000028,0.00004991
 ,-0.00012865,-0.00001855,0.00048885,-0.00027542,-0.00001806,-0.0002529
 0,0.00260828,0.00043744,0.00065653,-0.00197486,-0.00034934,0.00169489,
 0.02805361,0.00480470,-0.05995742,0.03131548,0.00509811,-0.00017820,-0
 .00005460,0.00000738,0.00005759,0.00002849,-0.00003731,0.00006267,0.00
 002471,0.00001542,0.00009403,-0.00001595,0.00001745,0.00039604,-0.0013
 4206,-0.00024485,0.00006915,0.00004783,0.00002842,0.00005072,-0.000012
 22,-0.00000101,-0.00000975,-0.00001814,-0.00000226,-0.00008951,-0.0000
 1817,-0.00000706,0.05915461,0.00019145,-0.00002968,0.00012533,0.000351
 33,-0.00165729,-0.00015346,0.00133633,0.00036527,0.00033763,-0.0000235
 1,0.00047071,-0.00011403,0.00085432,-0.01194454,-0.00284440,-0.0021922
 5,-0.00019437,-0.00145555,-0.00056454,0.00051836,0.00032875,0.00134667
 ,0.00145015,-0.00117416,-0.00018678,-0.00007751,-0.00019533,0.00004802
 ,-0.00010943,0.00009369,0.00006757,-0.00000768,0.00001596,-0.00002229,
 0.00000004,-0.00001923,0.00000885,0.00000424,0.00000958,0.00001137,0.0
 0000986,0.00000017,-0.00002647,-0.00002213,-0.00000774,0.00019000,-0.0
 0009070,-0.00002870,-0.00070436,-0.00213720,0.00040812,-0.00236875,0.0
 0064933,0.00006041,0.00282140,-0.00742426,-0.00188012,0.03133638,-0.32
 796637,-0.05155416,0.00000061,0.00001976,-0.00000088,-0.00000104,-0.00
 000845,0.00000249,0.00000184,-0.00001420,-0.00000212,0.00000537,-0.000
 00937,0.00000213,0.00024259,-0.00046460,0.00000656,0.00003239,-0.00009
 952,0.00013007,0.00000120,-0.00000918,-0.00000147,0.00000101,0.0000009
 1,0.00000085,-0.00000623,0.00002523,-0.00000295,-0.03275250,0.34875262
 ,-0.00038156,0.00088105,-0.00099991,0.00028516,0.00050624,-0.00098918,
 -0.00026426,-0.00088907,-0.00085302,0.00037457,0.00007244,0.00004035,0
 .00046602,-0.00332387,0.00289235,-0.00042348,-0.00122639,0.00719811,-0
 .00007446,0.00031699,-0.00125110,0.00003276,-0.00106027,0.00719283,-0.
 00002365,-0.00014358,0.00087722,-0.00000430,0.00008476,-0.00053640,0.0
 0000794,0.00001623,-0.00010181,-0.00000903,-0.00000784,0.00007607,0.00
 000502,0.00000147,-0.00003603,-0.00000117,0.00000169,0.00000186,-0.000
 00520,-0.00000600,0.00002142,0.00002148,-0.00004157,0.00017317,-0.0000
 9137,0.00028539,-0.00393860,-0.00043010,0.00013449,-0.00007268,0.00038
 782,-0.00135413,0.00315330,0.00479140,-0.05225043,-0.04898122,0.000001
 23,0.00000281,0.00006293,-0.00000555,0.00000852,-0.00003629,0.00000602
 ,-0.00000951,-0.00003036,-0.00000380,0.00000208,-0.00001459,-0.0000095
 5,-0.00001856,-0.00035429,0.00002775,0.00010766,-0.00074742,0.00000093
 ,-0.00000135,0.00000111,0.00000071,0.00000085,-0.00000284,-0.00000097,
 -0.00000266,0.00004172,-0.00468036,0.05791256,0.03721329\\-0.00000579,
 -0.00000261,0.00001340,0.00000893,0.00000089,-0.00002090,-0.00000117,0
 .00000518,0.00000496,0.00000249,0.00000400,-0.00000055,-0.00000563,-0.
 00001872,0.00000646,-0.00000803,0.00001581,-0.00000055,0.00000852,0.00
 000967,0.00000349,-0.00000524,0.00000365,0.00000041,0.00000551,-0.0000
 0026,-0.00000851,-0.00000223,0.00000453,0.00000344,-0.00000157,0.00000
 867,0.00000057,-0.00000404,0.00000335,0.00000197,0.00000269,0.00000616
 ,-0.00000172,-0.00000008,0.00000170,0.00000867,-0.00000660,-0.00000903
 ,-0.00000416,0.00001059,-0.00001548,-0.00000009,0.00000086,0.00000964,
 0.00000663,0.00000088,-0.00000367,-0.00000704,-0.00000734,-0.00001125,
 0.00000024,0.00001125,-0.00000184,-0.00000170,-0.00000505,-0.00001062,
 -0.00002618,0.00000119,0.00000250,0.00000786,-0.00000060,0.00000325,0.
 00000413,0.00000370,-0.00000110,0.00000467,0.00000191,-0.00000274,0.00
 000170,-0.00000127,-0.00000312,-0.00000065,0.00000029,-0.00000173,-0.0
 0000107,-0.00000268,-0.00000013,0.00000100,0.00000028,0.00000256,0.000
 00146,-0.00000177,0.00000073,0.00000208\\\@


 A politician is a person who can make waves and then
 make you think he's the only one who can save the ship.
 -- Ivern Ball
 Job cpu time:       1 days  0 hours 34 minutes 53.6 seconds.
 Elapsed time:       0 days  3 hours  9 minutes 49.2 seconds.
 File lengths (MBytes):  RWF=   3237 Int=      0 D2E=      0 Chk=     41 Scr=      1
 Normal termination of Gaussian 16 at Fri Dec 22 05:19:47 2023.
