
Running Job 1 of 1 105-an-COSMO.in
qchem 105-an-COSMO.in_3932558.0 /expanse/lustre/scratch/selhajj/temp_project/qcscratch/28869428/qchem3932558/ 0
/cm/shared/apps/spack/cpu/opt/spack/linux-centos8-zen2/gcc-10.2.0/qchem-5.4-akfmr7b3t57bfs6qan3padb2wnb2i7cl/exe/qcprog.exe_s 105-an-COSMO.in_3932558.0 /expanse/lustre/scratch/selhajj/temp_project/qcscratch/28869428/qchem3932558/
                  Welcome to Q-Chem
     A Quantum Leap Into The Future Of Chemistry


 Q-Chem 5.4, Q-Chem, Inc., Pleasanton, CA (2021)

 License issued to: University of California, San Diego (site)

 E. Epifanovsky,  A. T. B. Gilbert,  Xintian Feng,  Joonho Lee,  Yuezhi Mao,  
 N. Mardirossian,  P. Pokhilko,  A. White,  M. Wormit,  M. P. Coons,  
 A. L. Dempwolff,  Zhengting Gan,  D. Hait,  P. R. Horn,  L. D. Jacobson,  
 I. Kaliman,  J. Kussmann,  A. W. Lange,  Ka Un Lao,  D. S. Levine,  Jie Liu,  
 S. C. McKenzie,  A. F. Morrison,  K. Nanda,  F. Plasser,  D. R. Rehn,  
 M. L. Vidal,  Zhi-Qiang You,  Ying Zhu,  B. Alam,  B. Albrecht,  
 A. Aldossary,  E. Alguire,  J. H. Andersen,  D. Barton,  K. Begam,  A. Behn,  
 Y. A. Bernard,  E. J. Berquist,  H. Burton,  A. Carreras,  K. Carter-Fenk,  
 R. Chakraborty,  A. D. Chien,  K. D. Closser,  V. Cofer-Shabica,  
 S. Dasgupta,  Jia Deng,  M. de Wergifosse,  M. Diedenhofen,  Hainam Do,  
 S. Ehlert,  Po-Tung Fang,  S. Fatehi,  Qingguo Feng,  J. Gayvert,  
 Qinghui Ge,  G. Gidofalvi,  M. Goldey,  J. Gomes,  C. Gonzalez-Espinoza,  
 S. Gulania,  A. Gunina,  M. W. D. Hanson-Heine,  P. H. P. Harbach,  
 A. W. Hauser,  M. F. Herbst,  M. Hernandez Vera,  M. Hodecker,  
 Z. C. Holden,  S. Houck,  Xunkun Huang,  Kerwin Hui,  B. C. Huynh,  
 M. Ivanov,  Hyunjun Ji,  Hanjie Jiang,  B. Kaduk,  S. Kaehler,  
 K. Khistyaev,  Jaehoon Kim,  P. Klunzinger,  Z. Koczor-Benda,  
 Joong Hoon Koh,  D. Kosenkov,  L. Koulias,  T. Kowalczyk,  C. M. Krauter,  
 K. Kue,  A. Kunitsa,  T. Kus,  A. Landau,  K. V. Lawler,  D. Lefrancois,  
 S. Lehtola,  Rain Li,  Yi-Pei Li,  Jiashu Liang,  M. Liebenthal,  
 Hung-Hsuan Lin,  You-Sheng Lin,  Fenglai Liu,  Kuan-Yu Liu,  
 M. Loipersberger,  A. Luenser,  A. Manjanath,  P. Manohar,  E. Mansoor,  
 S. F. Manzer,  Shan-Ping Mao,  A. V. Marenich,  T. Markovich,  S. Mason,  
 S. A. Maurer,  P. F. McLaughlin,  M. F. S. J. Menger,  J.-M. Mewes,  
 S. A. Mewes,  P. Morgante,  J. W. Mullinax,  T. S. Nguyen-Beck,  
 K. J. Oosterbaan,  G. Paran,  Alexander C. Paul,  Suranjan K. Paul,  
 F. Pavosevic,  Zheng Pei,  S. Prager,  E. I. Proynov,  E. Ramos,  B. Rana,  
 A. E. Rask,  A. Rettig,  R. M. Richard,  F. Rob,  E. Rossomme,  T. Scheele,  
 M. Scheurer,  M. Schneider,  N. Sergueev,  S. M. Sharada,  W. Skomorowski,  
 D. W. Small,  C. J. Stein,  Yu-Chuan Su,  E. J. Sundstrom,  Zhen Tao,  
 J. Thirman,  T. Tsuchimochi,  N. M. Tubman,  S. P. Veccham,  O. Vydrov,  
 J. Wenzel,  J. Witte,  A. Yamada,  Kun Yao,  S. Yeganeh,  S. R. Yost,  
 A. Zech,  Igor Ying Zhang,  Xing Zhang,  Yu Zhang,  D. Zuev,  
 A. Aspuru-Guzik,  A. T. Bell,  N. A. Besley,  K. B. Bravaya,  B. R. Brooks,  
 D. Casanova,  Jeng-Da Chai,  S. Coriani,  C. J. Cramer,  
 A. E. DePrince, III,  R. A. DiStasio Jr.,  A. Dreuw,  B. D. Dunietz,  
 T. R. Furlani,  W. A. Goddard III,  S. Grimme,  S. Hammes-Schiffer,  
 T. Head-Gordon,  W. J. Hehre,  Chao-Ping Hsu,  T.-C. Jagau,  Yousung Jung,  
 A. Klamt,  Jing Kong,  D. S. Lambrecht,  WanZhen Liang,  N. J. Mayhall,  
 C. W. McCurdy,  J. B. Neaton,  C. Ochsenfeld,  J. A. Parkhill,  R. Peverati,  
 V. A. Rassolov,  Yihan Shao,  L. V. Slipchenko,  T. Stauch,  R. P. Steele,  
 J. E. Subotnik,  A. J. W. Thom,  A. Tkatchenko,  D. G. Truhlar,  
 T. Van Voorhis,  T. A. Wesolowski,  K. B. Whaley,  H. L. Woodcock III,  
 P. M. Zimmerman,  S. Faraji,  P. M. W. Gill,  M. Head-Gordon,  
 J. M. Herbert,  A. I. Krylov

 Contributors to earlier versions of Q-Chem not listed above: 
 R. D. Adamson,  B. Austin,  R. Baer,  J. Baker,  G. J. O. Beran,  
 K. Brandhorst,  S. T. Brown,  E. F. C. Byrd,  A. K. Chakraborty,  
 G. K. L. Chan,  Chun-Min Chang,  Yunqing Chen,  C.-L. Cheng,  
 Siu Hung Chien,  D. M. Chipman,  D. L. Crittenden,  H. Dachsel,  
 R. J. Doerksen,  A. D. Dutoi,  R. G. Edgar,  J. Fosso-Tande,  
 L. Fusti-Molnar,  D. Ghosh,  A. Ghysels,  A. Golubeva-Zadorozhnaya,  
 J. Gonthier,  M. S. Gordon,  S. R. Gwaltney,  G. Hawkins,  J. E. Herr,  
 A. Heyden,  S. Hirata,  E. G. Hohenstein,  G. Kedziora,  F. J. Keil,  
 C. Kelley,  Jihan Kim,  R. A. King,  R. Z. Khaliullin,  P. P. Korambath,  
 W. Kurlancheek,  A. Laurent,  A. M. Lee,  M. S. Lee,  S. V. Levchenko,  
 Ching Yeh Lin,  D. Liotard,  E. Livshits,  R. C. Lochan,  I. Lotan,  
 L. A. Martinez-Martinez,  P. E. Maslen,  N. Nair,  D. P. O'Neill,  
 D. Neuhauser,  E. Neuscamman,  C. M. Oana,  R. Olivares-Amaya,  R. Olson,  
 T. M. Perrine,  B. Peters,  P. A. Pieniazek,  A. Prociuk,  Y. M. Rhee,  
 J. Ritchie,  M. A. Rohrdanz,  E. Rosta,  N. J. Russ,  H. F. Schaefer III,  
 M. W. Schmidt,  N. E. Schultz,  S. Sharma,  N. Shenvi,  C. D. Sherrill,  
 A. C. Simmonett,  A. Sodt,  T. Stein,  D. Stuck,  K. S. Thanthiriwatte,  
 V. Vanovschi,  L. Vogt,  Tao Wang,  A. Warshel,  M. A. Watson,  
 C. F. Williams,  Q. Wu,  X. Xu,  Jun Yang,  W. Zhang,  Yan Zhao

 Please cite Q-Chem as follows:
 Y. Shao et al., Mol. Phys. 113, 184-215 (2015)
 DOI: 10.1080/00268976.2014.952696

 Q-Chem 5.4.0 for Intel X86 EM64T Linux

 Parts of Q-Chem use Armadillo 9.800.1 (Horizon Scraper).
 http://arma.sourceforge.net/

 Q-Chem begins on Thu Feb 22 03:57:26 2024  

 Host: 
0

     Scratch files written to /expanse/lustre/scratch/selhajj/temp_project/qcscratch/28869428/qchem3932558//
 May1621 |scratch|qcdevops|jenkins|workspace|build_RNUM    
 Processing $rem in /cm/shared/apps/spack/cpu/opt/spack/linux-centos8-zen2/gcc-10.2.0/qchem-5.4-akfmr7b3t57bfs6qan3padb2wnb2i7cl/config/preferences:
 Processing $rem in /home/selhajj/.qchemrc:

 Checking the input file for inconsistencies... 
 Q-Chem warning in module libgen/CheckREMs.C, line 172:

 Found a $solvent section, which is only used for PCM and Kirkwood-Onsager solvation models

	...done.

--------------------------------------------------------------
User input:
--------------------------------------------------------------
$molecule
-2 1
C                 -1.1018510000     -1.5223130000      3.5681680000
C                  0.2315990000     -1.7634400000      3.1331260000
C                  0.7245990000     -1.4703940000      1.8534700000
C                 -0.1590810000     -0.8971860000      0.8563240000
C                 -1.5050410000     -0.6621990000      1.2940210000
C                 -1.9666960000     -0.9328290000      2.5768180000
O                 -1.5430930000     -1.8033940000      4.7620100000
O                  0.2114320000     -0.6277620000     -0.3594270000
N                 -3.3213440000     -0.7264160000      3.0046710000
C                 -3.8292770000      0.6618810000      3.2034220000
C                 -5.1127150000      0.5337810000      4.0429810000
C                 -4.1831910000      1.3086640000      1.8540820000
C                 -2.8194860000      1.5579740000      3.9552750000
C                  2.1885650000     -1.7589840000      1.4674850000
C                  3.0176750000     -2.3529660000      2.6228100000
C                  2.2272900000     -2.7684110000      0.2921890000
C                  2.8785940000     -0.4452060000      1.0210320000
H                  0.8825350000     -2.1926920000      3.8895700000
H                 -2.1859300000     -0.2898510000      0.5339580000
H                 -3.3206520000     -1.1726100000      3.9276680000
H                 -4.8919840000      0.0911150000      5.0203590000
H                 -5.8375550000     -0.1091040000      3.5325590000
H                 -5.5774630000      1.5121650000      4.2136730000
H                 -4.8738890000      0.6663320000      1.2982380000
H                 -3.2885150000      1.4526470000      1.2458530000
H                 -4.6573500000      2.2866450000      2.0074310000
H                 -2.5486840000      1.0991700000      4.9105020000
H                 -3.2400230000      2.5554530000      4.1431250000
H                 -1.9033350000      1.6672810000      3.3692790000
H                  3.0559880000     -1.6762890000      3.4823940000
H                  4.0472620000     -2.5293010000      2.2820360000
H                  2.6066690000     -3.3071020000      2.9674400000
H                  1.8041880000     -3.7291950000      0.6077020000
H                  3.2618810000     -2.9424920000     -0.0452320000
H                  1.6323060000     -2.3726590000     -0.5336280000
H                  2.9237460000      0.2595990000      1.8592300000
H                  2.2984640000      0.0026710000      0.2116500000
H                  3.9080230000     -0.6373730000      0.6777540000
$end
$rem
MAX_SCF_CYCLES=200
BASIS  =  6-311++G(d,p)
GUI  =  2
JOB_TYPE  =  SP
METHOD  =  B3LYP
SOLVENT_METHOD = COSMO
$end
$solvent
dielectric 37.219
opticaldielectric 1.43
$end





--------------------------------------------------------------
 ----------------------------------------------------------------
             Standard Nuclear Orientation (Angstroms)
    I     Atom           X                Y                Z
 ----------------------------------------------------------------
    1      C       0.3670470677    -1.4064343723     0.3415217240
    2      C      -1.0343211067    -1.3139676456     0.1110660482
    3      C      -1.7658711205    -0.1180714034     0.0777315062
    4      C      -1.0911027950     1.1443693963     0.3115879435
    5      C       0.3201346538     1.0487069141     0.5517200492
    6      C       1.0323333820    -0.1449040137     0.5516606239
    7      O       1.0303019785    -2.5281230878     0.3709682999
    8      O      -1.7020703008     2.2908014005     0.3298097882
    9      N       2.4386252338    -0.2427783349     0.8227686556
   10      C       3.4209153621     0.2480965184    -0.1866937930
   11      C       4.7768287080    -0.3706143692     0.1969438749
   12      C       3.5412709342     1.7798314369    -0.1266564731
   13      C       3.0556111121    -0.1840994507    -1.6246447348
   14      C      -3.2844044038    -0.1085166171    -0.1857650423
   15      C      -3.8691899056    -1.5130806019    -0.4312030046
   16      C      -4.0201522608     0.5016414721     1.0341306002
   17      C      -3.5909498148     0.7532086827    -1.4367376055
   18      H      -1.5270251789    -2.2664703161    -0.0626113555
   19      H       0.8191434974     1.9843708778     0.7872444609
   20      H       2.5698341593    -1.2573542725     0.8893487669
   21      H       4.7300813204    -1.4639062802     0.1472387868
   22      H       5.0481277524    -0.0863375441     1.2191025133
   23      H       5.5734922824    -0.0365971885    -0.4784237184
   24      H       3.7684632980     2.0999373365     0.8953672647
   25      H       2.6075258643     2.2550601743    -0.4322649764
   26      H       4.3408609388     2.1305018198    -0.7918448799
   27      H       2.9520661130    -1.2717679240    -1.6751341465
   28      H       3.8246446010     0.1364225396    -2.3408545455
   29      H       2.0978407348     0.2533428710    -1.9178888421
   30      H      -3.4112046756    -1.9953375196    -1.3006408090
   31      H      -4.9493803436    -1.4331240432    -0.6157725263
   32      H      -3.7205181568    -2.1700941646     0.4315259012
   33      H      -3.8718825628    -0.1305061022     1.9173492544
   34      H      -5.1030064813     0.5788517992     0.8443913962
   35      H      -3.6098128955     1.4935994219     1.2347305862
   36      H      -3.1360895794     0.3010947300    -2.3255906970
   37      H      -3.1711697720     1.7507029291    -1.2917072982
   38      H      -4.6771198514     0.8286370185    -1.6071407303
 ----------------------------------------------------------------
 Molecular Point Group                 C1    NOp =  1
 Largest Abelian Subgroup              C1    NOp =  1
 Nuclear Repulsion Energy =        1248.66829286 hartrees
 There are       65 alpha and       65 beta electrons
 Requested basis set is 6-311++G(d,p)
 There are 207 shells and 521 basis functions

 Total QAlloc Memory Limit   8000 MB
 Mega-Array Size       188 MB
 MEM_STATIC part       192 MB
 A cutoff of  1.0D-08 yielded  14965 shell pairs
 There are     95878 function pairs (    101608 Cartesian)
 Smallest overlap matrix eigenvalue = 4.00E-07

 Q-Chem warning in module stvman/mkSTV.C, line 323:

 Overlap eigenvalue is smaller than square root of threshold
 Use THRESH >= 12 to get rid of this warning

 Linear dependence detected in AO basis
 Tighter screening thresholds may be required for diffuse basis sets
 Use S2THRESH > 14 and THRESH = 14 in case of SCF convergence issues
 Number of orthogonalized atomic orbitals = 519
 Maximum deviation from orthogonality = 2.763E-10

 Scale SEOQF with 1.000000e-02/1.000000e-01/1.000000e-01

 Standard Electronic Orientation quadrupole field applied
 Nucleus-field energy     =     0.0000000104 hartrees
 Guess from superposition of atomic densities
 Warning:  Energy on first SCF cycle will be non-variational
 SAD guess density has 128.000000 electrons

 -----------------------------------------------------------------------
  General SCF calculation program by
  Eric Jon Sundstrom, Paul Horn, Yuezhi Mao, Dmitri Zuev, Alec White,
  David Stuck, Shaama M.S., Shane Yost, Joonho Lee, David Small,
  Daniel Levine, Susi Lehtola, Hugh Burton, Evgeny Epifanovsky,
  Bang C. Huynh
 -----------------------------------------------------------------------
 Exchange:     0.2000 Hartree-Fock + 0.0800 Slater + 0.7200 B88
 Correlation:  0.1900 VWN1RPA + 0.8100 LYP
 Using SG-1 standard quadrature grid
 using 8 threads for integral computing
 -------------------------------------------------------
 OpenMP Integral computing Module                
 Release: version 1.0, May 2013, Q-Chem Inc. Pittsburgh 
 -------------------------------------------------------
 A restricted SCF calculation will be
 performed using DIIS
 SCF converges when DIIS error is below 1.0e-05
 ---------------------------------------
  Cycle       Energy         DIIS error
 ---------------------------------------
    1    -754.6673123338      2.66e-02  
    2    -750.8728178021      4.22e-03  
    3    -738.7395092466      1.25e-02  
    4    -751.0419398252      3.55e-03  
    5    -751.4378634415      1.12e-03  
    6    -751.4840962948      8.72e-04  
    7    -751.3321428993      1.56e-03  
    8    -751.5014963857      3.51e-04  
    9    -751.5091357848      1.27e-04  
   10    -751.4854694917      6.13e-04  
   11    -751.4933233502      5.07e-04  
   12    -751.4993315650      4.11e-04  
   13    -751.5092421261      1.50e-04  
   14    -751.5100591050      9.61e-05  
   15    -751.5105040382      4.46e-05  
   16    -751.5105932960      2.38e-05  
   17    -751.5106331224      3.39e-06  Convergence criterion met
 ---------------------------------------
 SCF time:   CPU 747.49s  wall 94.00s 
 SCF   energy in the final basis set =     -751.5106331224
 Total energy in the final basis set =     -751.5106331224
 Exchange:     0.2000 Hartree-Fock + 0.0800 Slater + 0.7200 B88
 Correlation:  0.1900 VWN1RPA + 0.8100 LYP
 Using SG-1 standard quadrature grid
 in get_qchem_info
 IBasis=      401111
 IBasis=      401111
 USING 1082 GRID
 MICHARGE=          -2
 Set epsilon to    37.2190017700195     
==== cosmo data ====
outfile: 105-an-COSMO.out.cosmo.0
phsran:    0.00000D+00
ampran:    0.10000D-04
volume:   2110.6427467
area:    974.8465500
routf:      0.8500000
rsolv [a.u]:      2.4566438
disex:     10.0000000
disex2:   3944.7512319
fepsi:      0.9731320
eps :    37.2190018
lcavity:     1
nppa:  1082
nspa:    92
nsph:    32
maxnps:  2236
natoms:    38
Atom   Radius [a.u.] nuc. charge
    1      3.7794520    6
    2      3.7794520    6
    3      3.7794520    6
    4      3.7794520    6
    5      3.7794520    6
    6      3.7794520    6
    7      3.2503287    8
    8      3.2503287    8
    9      3.4581986    7
   10      3.7794520    6
   11      3.7794520    6
   12      3.7794520    6
   13      3.7794520    6
   14      3.7794520    6
   15      3.7794520    6
   16      3.7794520    6
   17      3.7794520    6
   18      2.4566438    1
   19      2.4566438    1
   20      2.4566438    1
   21      2.4566438    1
   22      2.4566438    1
   23      2.4566438    1
   24      2.4566438    1
   25      2.4566438    1
   26      2.4566438    1
   27      2.4566438    1
   28      2.4566438    1
   29      2.4566438    1
   30      2.4566438    1
   31      2.4566438    1
   32      2.4566438    1
   33      2.4566438    1
   34      2.4566438    1
   35      2.4566438    1
   36      2.4566438    1
   37      2.4566438    1
   38      2.4566438    1
=== end cosmo data ===
 number of segments:         1159
 f_epsilon=  0.973132003749614     
Ediel:   -0.2374544
 A restricted SCF calculation will be
 performed using Roothaan-Hall, DIIS
 SCF converges when DIIS error is below 1.0e-05
 ---------------------------------------
  Cycle       Energy         DIIS error
 ---------------------------------------
 number of segments:         1159
 f_epsilon=  0.973132003749614     
Ediel:   -0.3105502
    1    -751.7480749960      3.94e-04  Roothaan Step
 ---------------------------------------
  Cycle       Energy         DIIS error
 ---------------------------------------
 number of segments:         1159
 f_epsilon=  0.973132003749614     
Ediel:   -0.2945039
    1    -751.7823277601      4.46e-04  
 number of segments:         1159
 f_epsilon=  0.973132003749614     
Ediel:   -0.3031769
    2    -751.7738076601      7.67e-04  
 number of segments:         1159
 f_epsilon=  0.973132003749614     
Ediel:   -0.3042628
    3    -751.7895390052      1.19e-04  
 number of segments:         1159
 f_epsilon=  0.973132003749614     
Ediel:   -0.3046428
    4    -751.7899852123      2.39e-05  
    5    -751.7900058414      6.60e-06  Convergence criterion met
 ---------------------------------------
 SCF time:   CPU 285.45s  wall 36.00s 
before final oc correction, ETot:      -751.7900058414
 number of outlayer segments:          470
SCF energy after oc correction:      -751.8059080551
 SCF   energy in the final basis set =     -751.8059080551
 Total energy in the final basis set =     -751.7900058414
 
 --------------------------------------------------------------
 
                    Orbital Energies (a.u.)
 --------------------------------------------------------------
 
 Alpha MOs
 -- Occupied --
-19.0165 -19.0090 -14.2729 -10.1927 -10.1621 -10.1580 -10.1575 -10.1457
-10.1443 -10.1402 -10.1385 -10.1362 -10.1289 -10.1289 -10.1201 -10.1126
-10.1102  -0.9327  -0.9232  -0.8806  -0.7960  -0.7734  -0.7430  -0.6813
 -0.6706  -0.6689  -0.6617  -0.6573  -0.6306  -0.5697  -0.5350  -0.5245
 -0.4930  -0.4583  -0.4460  -0.4360  -0.4298  -0.4254  -0.4129  -0.4055
 -0.3970  -0.3926  -0.3784  -0.3742  -0.3737  -0.3614  -0.3562  -0.3519
 -0.3484  -0.3475  -0.3433  -0.3349  -0.3225  -0.3135  -0.3098  -0.3069
 -0.3009  -0.2984  -0.2941  -0.2492  -0.2161  -0.2001  -0.1867  -0.1813
 -0.1106
 -- Virtual --
  0.0001   0.0074   0.0177   0.0186   0.0254   0.0284   0.0293   0.0348
  0.0414   0.0415   0.0441   0.0479   0.0529   0.0545   0.0599   0.0632
  0.0696   0.0738   0.0753   0.0808   0.0830   0.0879   0.0901   0.0918
  0.0950   0.0990   0.1065   0.1107   0.1176   0.1202   0.1216   0.1248
  0.1278   0.1308   0.1343   0.1365   0.1416   0.1434   0.1447   0.1475
  0.1489   0.1513   0.1535   0.1545   0.1551   0.1617   0.1620   0.1638
  0.1661   0.1669   0.1724   0.1738   0.1756   0.1774   0.1807   0.1877
  0.1913   0.1920   0.1971   0.2008   0.2056   0.2062   0.2066   0.2099
  0.2105   0.2120   0.2187   0.2194   0.2236   0.2242   0.2297   0.2332
  0.2385   0.2436   0.2469   0.2540   0.2558   0.2593   0.2614   0.2699
  0.2718   0.2773   0.2793   0.2837   0.2843   0.2856   0.2919   0.2954
  0.3011   0.3044   0.3069   0.3119   0.3177   0.3208   0.3239   0.3305
  0.3331   0.3348   0.3404   0.3425   0.3453   0.3503   0.3537   0.3554
  0.3591   0.3604   0.3640   0.3665   0.3715   0.3753   0.3810   0.3834
  0.3951   0.4009   0.4054   0.4183   0.4216   0.4336   0.4394   0.4466
  0.4509   0.4629   0.4680   0.4785   0.4829   0.4928   0.5010   0.5114
  0.5240   0.5265   0.5405   0.5480   0.5602   0.5711   0.5754   0.5844
  0.5914   0.5958   0.5996   0.6056   0.6171   0.6189   0.6254   0.6293
  0.6393   0.6499   0.6535   0.6599   0.6638   0.6683   0.6745   0.6770
  0.6812   0.6817   0.6876   0.6929   0.6983   0.7023   0.7095   0.7188
  0.7222   0.7240   0.7295   0.7417   0.7459   0.7512   0.7542   0.7657
  0.7686   0.7795   0.7878   0.7910   0.7945   0.8001   0.8066   0.8122
  0.8172   0.8266   0.8305   0.8324   0.8418   0.8516   0.8612   0.8705
  0.8845   0.9081   0.9166   0.9310   0.9413   0.9554   0.9734   0.9792
  0.9857   0.9892   0.9990   1.0081   1.0240   1.0375   1.0449   1.0535
  1.0636   1.0745   1.0922   1.1054   1.1063   1.1220   1.1418   1.1601
  1.1635   1.1767   1.1946   1.2153   1.2186   1.2276   1.2394   1.2534
  1.2659   1.2858   1.2892   1.3058   1.3173   1.3272   1.3445   1.3515
  1.3574   1.3835   1.4205   1.4511   1.4600   1.4679   1.4754   1.4801
  1.4852   1.4928   1.4934   1.5066   1.5129   1.5227   1.5261   1.5303
  1.5330   1.5527   1.5709   1.5775   1.5810   1.5876   1.6020   1.6114
  1.6136   1.6193   1.6311   1.6391   1.6541   1.6621   1.6706   1.6745
  1.6793   1.6859   1.6924   1.6970   1.7080   1.7153   1.7183   1.7316
  1.7358   1.7443   1.7473   1.7535   1.7677   1.7764   1.7802   1.7960
  1.8008   1.8081   1.8227   1.8327   1.8381   1.8455   1.8576   1.8695
  1.8741   1.8812   1.9100   1.9204   1.9322   1.9552   1.9636   1.9751
  1.9875   1.9929   2.0089   2.0097   2.0149   2.0314   2.0380   2.0498
  2.0635   2.0715   2.0981   2.1241   2.1410   2.1445   2.1493   2.1541
  2.1609   2.1727   2.1838   2.2191   2.2247   2.2352   2.2400   2.2721
  2.2832   2.2862   2.2954   2.3099   2.3176   2.3427   2.3658   2.3727
  2.4080   2.4434   2.4695   2.4723   2.4769   2.4881   2.5193   2.5228
  2.5293   2.5390   2.5452   2.5486   2.5561   2.5581   2.5647   2.5694
  2.5763   2.5829   2.5930   2.5978   2.6000   2.6160   2.6272   2.6326
  2.6453   2.6500   2.6612   2.6812   2.7039   2.7157   2.7260   2.7436
  2.7499   2.7727   2.7829   2.7873   2.7919   2.8057   2.8098   2.8186
  2.8217   2.8314   2.8528   2.8588   2.8684   2.9032   2.9182   2.9276
  2.9468   2.9521   2.9728   2.9818   2.9912   3.0237   3.0373   3.0455
  3.0612   3.0761   3.1017   3.1170   3.1274   3.1434   3.1511   3.1888
  3.2042   3.2305   3.2360   3.2439   3.2511   3.2896   3.3006   3.3052
  3.3391   3.3532   3.3728   3.3804   3.3966   3.4706   3.4859   3.5425
  3.6145   3.6535   3.6875   3.7649   3.7865   3.7888   3.8001   3.8045
  3.8088   3.8238   3.8297   3.8448   3.8516   3.8538   3.8630   3.8746
  3.8953   3.9171   3.9867   4.2117   4.2303   4.2427   4.2877   4.2945
  4.3031   4.3287   4.3684   4.4632   4.8183   4.8758   5.0264   5.1746
  5.1905   5.3446   5.3686   5.7997   5.8818  23.6940  23.7827  23.8481
 23.9418  23.9785  23.9889  23.9937  24.0003  24.0051  24.0140  24.0217
 24.0300  24.1339  24.1873  35.6588  50.0916  50.1224
 --------------------------------------------------------------
 
          Ground-State Mulliken Net Atomic Charges

     Atom                 Charge (a.u.)
  ----------------------------------------
      1 C                    -0.526547
      2 C                    -0.480406
      3 C                     0.906939
      4 C                    -0.678166
      5 C                    -0.174085
      6 C                     0.173453
      7 O                    -0.766720
      8 O                    -0.725589
      9 N                     0.029167
     10 C                     0.025658
     11 C                    -0.480308
     12 C                    -0.596175
     13 C                    -0.520351
     14 C                     0.591488
     15 C                    -0.526592
     16 C                    -0.706791
     17 C                    -0.703045
     18 H                     0.145119
     19 H                     0.140679
     20 H                     0.231047
     21 H                     0.150968
     22 H                     0.149103
     23 H                     0.147477
     24 H                     0.153652
     25 H                     0.140937
     26 H                     0.142996
     27 H                     0.153277
     28 H                     0.154803
     29 H                     0.150569
     30 H                     0.130616
     31 H                     0.164322
     32 H                     0.129778
     33 H                     0.122695
     34 H                     0.134709
     35 H                     0.178865
     36 H                     0.122124
     37 H                     0.180484
     38 H                     0.133853
  ----------------------------------------
  Sum of atomic charges =    -2.000000

 -----------------------------------------------------------------
                    Cartesian Multipole Moments
 -----------------------------------------------------------------
    Charge (ESU x 10^10)
                -9.6064
    Dipole Moment (Debye)
         X       3.5060      Y       0.6025      Z      -4.7018
       Tot       5.8959
    Quadrupole Moments (Debye-Ang)
        XX    -139.6828     XY      23.1260     YY    -164.4311
        XZ      -3.7813     YZ      -0.0045     ZZ    -122.9178
    Octopole Moments (Debye-Ang^2)
       XXX      56.9266    XXY     -17.1166    XYY      19.8106
       YYY      17.0425    XXZ     -20.9123    XYZ       6.6630
       YYZ     -17.6327    XZZ       4.6135    YZZ      -0.7338
       ZZZ      -8.4867
    Hexadecapole Moments (Debye-Ang^3)
      XXXX   -5967.0130   XXXY      59.2438   XXYY   -1292.7734
      XYYY     155.9551   YYYY   -1656.4710   XXXZ     -41.2273
      XXYZ     -15.4421   XYYZ       1.6690   YYYZ       8.5844
      XXZZ   -1116.0871   XYZZ      17.5050   YYZZ    -327.3305
      XZZZ     -15.5364   YZZZ      -0.8382   ZZZZ    -608.9009
 -----------------------------------------------------------------
 Total job time:  185.72s(wall), 1042.71s(cpu) 
 Thu Feb 22 04:00:32 2024

        *************************************************************
        *                                                           *
        *  Thank you very much for using Q-Chem.  Have a nice day.  *
        *                                                           *
        *************************************************************


