 Entering Gaussian System, Link 0=g16
 Input=291-an-PCM.com
 Output=291-an-PCM.log
 Initial command:
 /sysapps/ubuntu-applications/gaussian/Gaussian/AVX2/g16/l1.exe "/scratch/selhajj1/4304596/Gau-2991894.inp" -scrdir="/scratch/selhajj1/4304596/"
 Entering Link 1 = /sysapps/ubuntu-applications/gaussian/Gaussian/AVX2/g16/l1.exe PID=   2991900.
  
 Copyright (c) 1988,1990,1992,1993,1995,1998,2003,2009,2016,
            Gaussian, Inc.  All Rights Reserved.
  
 This is part of the Gaussian(R) 16 program.  It is based on
 the Gaussian(R) 09 system (copyright 2009, Gaussian, Inc.),
 the Gaussian(R) 03 system (copyright 2003, Gaussian, Inc.),
 the Gaussian(R) 98 system (copyright 1998, Gaussian, Inc.),
 the Gaussian(R) 94 system (copyright 1995, Gaussian, Inc.),
 the Gaussian 92(TM) system (copyright 1992, Gaussian, Inc.),
 the Gaussian 90(TM) system (copyright 1990, Gaussian, Inc.),
 the Gaussian 88(TM) system (copyright 1988, Gaussian, Inc.),
 the Gaussian 86(TM) system (copyright 1986, Carnegie Mellon
 University), and the Gaussian 82(TM) system (copyright 1983,
 Carnegie Mellon University). Gaussian is a federally registered
 trademark of Gaussian, Inc.
  
 This software contains proprietary and confidential information,
 including trade secrets, belonging to Gaussian, Inc.
  
 This software is provided under written license and may be
 used, copied, transmitted, or stored only in accord with that
 written license.
  
 The following legend is applicable only to US Government
 contracts under FAR:
  
                    RESTRICTED RIGHTS LEGEND
  
 Use, reproduction and disclosure by the US Government is
 subject to restrictions as set forth in subparagraphs (a)
 and (c) of the Commercial Computer Software - Restricted
 Rights clause in FAR 52.227-19.
  
 Gaussian, Inc.
 340 Quinnipiac St., Bldg. 40, Wallingford CT 06492
  
  
 ---------------------------------------------------------------
 Warning -- This program may not be used in any manner that
 competes with the business of Gaussian, Inc. or will provide
 assistance to any competitor of Gaussian, Inc.  The licensee
 of this program is prohibited from giving any competitor of
 Gaussian, Inc. access to this program.  By using this program,
 the user acknowledges that Gaussian, Inc. is engaged in the
 business of creating and licensing software in the field of
 computational chemistry and represents and warrants to the
 licensee that it is not a competitor of Gaussian, Inc. and that
 it will not use this program in any manner prohibited above.
 ---------------------------------------------------------------
  

 Cite this work as:
 Gaussian 16, Revision A.03,
 M. J. Frisch, G. W. Trucks, H. B. Schlegel, G. E. Scuseria, 
 M. A. Robb, J. R. Cheeseman, G. Scalmani, V. Barone, 
 G. A. Petersson, H. Nakatsuji, X. Li, M. Caricato, A. V. Marenich, 
 J. Bloino, B. G. Janesko, R. Gomperts, B. Mennucci, H. P. Hratchian, 
 J. V. Ortiz, A. F. Izmaylov, J. L. Sonnenberg, D. Williams-Young, 
 F. Ding, F. Lipparini, F. Egidi, J. Goings, B. Peng, A. Petrone, 
 T. Henderson, D. Ranasinghe, V. G. Zakrzewski, J. Gao, N. Rega, 
 G. Zheng, W. Liang, M. Hada, M. Ehara, K. Toyota, R. Fukuda, 
 J. Hasegawa, M. Ishida, T. Nakajima, Y. Honda, O. Kitao, H. Nakai, 
 T. Vreven, K. Throssell, J. A. Montgomery, Jr., J. E. Peralta, 
 F. Ogliaro, M. J. Bearpark, J. J. Heyd, E. N. Brothers, K. N. Kudin, 
 V. N. Staroverov, T. A. Keith, R. Kobayashi, J. Normand, 
 K. Raghavachari, A. P. Rendell, J. C. Burant, S. S. Iyengar, 
 J. Tomasi, M. Cossi, J. M. Millam, M. Klene, C. Adamo, R. Cammi, 
 J. W. Ochterski, R. L. Martin, K. Morokuma, O. Farkas, 
 J. B. Foresman, and D. J. Fox, Gaussian, Inc., Wallingford CT, 2016.
 
 ******************************************
 Gaussian 16:  ES64L-G16RevA.03 25-Dec-2016
                21-Jan-2024 
 ******************************************
 %chk=291-an-PCM.chk
 %nproc=8
 Will use up to    8 processors via shared memory.
 %mem=30GB
 ----------------------------------------------------------------
 #P UB3LYP/6-311++G(d,p) SCRF=(PCM,Solvent=n,n-DiMethylFormamide)
 ----------------------------------------------------------------
 1/38=1,172=1/1;
 2/12=2,17=6,18=5,40=1/2;
 3/5=4,6=6,7=1111,11=2,25=1,30=1,70=2201,72=148,74=-5,116=2/1,2,3;
 4//1;
 5/5=2,38=5,53=148/2;
 6/7=2,8=2,9=2,10=2,28=1/1;
 99/5=1,9=1/99;
 Leave Link    1 at Sun Jan 21 09:06:02 2024, MaxMem=  4026531840 cpu:               0.3 elap:               0.1
 (Enter /sysapps/ubuntu-applications/gaussian/Gaussian/AVX2/g16/l101.exe)
 -------
 Reduced
 -------
 Symbolic Z-matrix:
 Charge = -2 Multiplicity = 1
 C                     0.14615   3.7279   -0.05643 
 C                    -0.95701   3.67445  -0.88583 
 C                    -1.01971   2.70774  -1.91978 
 C                     1.23347   2.83094  -0.21112 
 C                     1.17157   1.84789  -1.26462 
 C                     0.03279   1.82127  -2.09058 
 C                     2.37174   2.89353   0.65813 
 C                     3.40629   1.93776   0.40382 
 C                     3.38416   0.97317  -0.59763 
 C                     2.25737   0.8848   -1.49116 
 O                     2.53995   3.72603   1.63848 
 O                     2.19787   0.01678  -2.42205 
 H                     0.21543   4.45992   0.74192 
 H                    -1.77796   4.37486  -0.74623 
 H                    -1.88679   2.6633   -2.57445 
 H                     0.01598   1.07061  -2.8744 
 O                     4.46541   2.05197   1.27406 
 H                     4.14933   2.8051    1.83049 
 C                     4.52233  -0.00248  -0.76703 
 C                     5.55458   0.43752  -1.82773 
 C                     6.67829  -0.58185  -2.11214 
 C                     7.49557  -0.15842  -3.3513 
 C                     8.51299  -1.18797  -3.8671 
 C                     9.24491  -0.72529  -5.13507 
 C                     10.21511  -1.74569  -5.7644 
 C                     10.6986  -1.25479  -7.13712 
 C                     7.57889  -0.79524  -0.88444 
 C                     11.41164  -2.06314  -4.85474 
 H                     4.09957  -0.96225  -1.08738 
 H                     5.01761  -0.14436   0.19806 
 H                     6.00258   1.39137  -1.51848 
 H                     5.00748   0.62788  -2.75653 
 H                     6.19556  -1.54202  -2.34893 
 H                     8.01746   0.7827   -3.12548 
 H                     6.7926    0.07406  -4.16064 
 H                     7.99142  -2.13186  -4.07802 
 H                     9.24414  -1.41162  -3.08391 
 H                     9.79841   0.19923  -4.91822 
 H                     8.49455  -0.45414  -5.8894 
 H                     9.65718  -2.67946  -5.92229 
 H                     9.85673  -1.07764  -7.81665 
 H                     11.36625  -1.979    -7.61638 
 H                     11.25315  -0.31301  -7.04373 
 H                     8.34026  -1.56265  -1.05775 
 H                     6.99394  -1.10127  -0.01437 
 H                     8.09387   0.13679  -0.62155 
 H                     11.09868  -2.49452  -3.89892 
 H                     11.98894  -1.1559   -4.63896 
 H                     12.09301  -2.77595  -5.33193 
 
 ITRead=  0  0  0  0  0  0  0  0  0  0  0  0  0  0  0  0  0  0  0  0
 ITRead=  0  0  0  0  0  0  0  0  0  0  0  0  0  0  0  0  0  0  0  0
 ITRead=  0  0  0  0  0  0  0  0  0
 MicOpt= -1 -1 -1 -1 -1 -1 -1 -1 -1 -1 -1 -1 -1 -1 -1 -1 -1 -1 -1 -1
 MicOpt= -1 -1 -1 -1 -1 -1 -1 -1 -1 -1 -1 -1 -1 -1 -1 -1 -1 -1 -1 -1
 MicOpt= -1 -1 -1 -1 -1 -1 -1 -1 -1
 NAtoms=     49 NQM=       49 NQMF=       0 NMMI=      0 NMMIF=      0
                NMic=       0 NMicF=      0.
                    Isotopes and Nuclear Properties:
 (Nuclear quadrupole moments (NQMom) in fm**2, nuclear magnetic moments (NMagM)
  in nuclear magnetons)

  Atom         1           2           3           4           5           6           7           8           9          10
 IAtWgt=          12          12          12          12          12          12          12          12          12          12
 AtmWgt=  12.0000000  12.0000000  12.0000000  12.0000000  12.0000000  12.0000000  12.0000000  12.0000000  12.0000000  12.0000000
 NucSpn=           0           0           0           0           0           0           0           0           0           0
 AtZEff=  -0.0000000  -0.0000000  -0.0000000  -0.0000000  -0.0000000  -0.0000000  -0.0000000  -0.0000000  -0.0000000  -0.0000000
 NQMom=    0.0000000   0.0000000   0.0000000   0.0000000   0.0000000   0.0000000   0.0000000   0.0000000   0.0000000   0.0000000
 NMagM=    0.0000000   0.0000000   0.0000000   0.0000000   0.0000000   0.0000000   0.0000000   0.0000000   0.0000000   0.0000000
 AtZNuc=   6.0000000   6.0000000   6.0000000   6.0000000   6.0000000   6.0000000   6.0000000   6.0000000   6.0000000   6.0000000

  Atom        11          12          13          14          15          16          17          18          19          20
 IAtWgt=          16          16           1           1           1           1          16           1          12          12
 AtmWgt=  15.9949146  15.9949146   1.0078250   1.0078250   1.0078250   1.0078250  15.9949146   1.0078250  12.0000000  12.0000000
 NucSpn=           0           0           1           1           1           1           0           1           0           0
 AtZEff=  -0.0000000  -0.0000000  -0.0000000  -0.0000000  -0.0000000  -0.0000000  -0.0000000  -0.0000000  -0.0000000  -0.0000000
 NQMom=    0.0000000   0.0000000   0.0000000   0.0000000   0.0000000   0.0000000   0.0000000   0.0000000   0.0000000   0.0000000
 NMagM=    0.0000000   0.0000000   2.7928460   2.7928460   2.7928460   2.7928460   0.0000000   2.7928460   0.0000000   0.0000000
 AtZNuc=   8.0000000   8.0000000   1.0000000   1.0000000   1.0000000   1.0000000   8.0000000   1.0000000   6.0000000   6.0000000

  Atom        21          22          23          24          25          26          27          28          29          30
 IAtWgt=          12          12          12          12          12          12          12          12           1           1
 AtmWgt=  12.0000000  12.0000000  12.0000000  12.0000000  12.0000000  12.0000000  12.0000000  12.0000000   1.0078250   1.0078250
 NucSpn=           0           0           0           0           0           0           0           0           1           1
 AtZEff=  -0.0000000  -0.0000000  -0.0000000  -0.0000000  -0.0000000  -0.0000000  -0.0000000  -0.0000000  -0.0000000  -0.0000000
 NQMom=    0.0000000   0.0000000   0.0000000   0.0000000   0.0000000   0.0000000   0.0000000   0.0000000   0.0000000   0.0000000
 NMagM=    0.0000000   0.0000000   0.0000000   0.0000000   0.0000000   0.0000000   0.0000000   0.0000000   2.7928460   2.7928460
 AtZNuc=   6.0000000   6.0000000   6.0000000   6.0000000   6.0000000   6.0000000   6.0000000   6.0000000   1.0000000   1.0000000

  Atom        31          32          33          34          35          36          37          38          39          40
 IAtWgt=           1           1           1           1           1           1           1           1           1           1
 AtmWgt=   1.0078250   1.0078250   1.0078250   1.0078250   1.0078250   1.0078250   1.0078250   1.0078250   1.0078250   1.0078250
 NucSpn=           1           1           1           1           1           1           1           1           1           1
 AtZEff=  -0.0000000  -0.0000000  -0.0000000  -0.0000000  -0.0000000  -0.0000000  -0.0000000  -0.0000000  -0.0000000  -0.0000000
 NQMom=    0.0000000   0.0000000   0.0000000   0.0000000   0.0000000   0.0000000   0.0000000   0.0000000   0.0000000   0.0000000
 NMagM=    2.7928460   2.7928460   2.7928460   2.7928460   2.7928460   2.7928460   2.7928460   2.7928460   2.7928460   2.7928460
 AtZNuc=   1.0000000   1.0000000   1.0000000   1.0000000   1.0000000   1.0000000   1.0000000   1.0000000   1.0000000   1.0000000

  Atom        41          42          43          44          45          46          47          48          49
 IAtWgt=           1           1           1           1           1           1           1           1           1
 AtmWgt=   1.0078250   1.0078250   1.0078250   1.0078250   1.0078250   1.0078250   1.0078250   1.0078250   1.0078250
 NucSpn=           1           1           1           1           1           1           1           1           1
 AtZEff=  -0.0000000  -0.0000000  -0.0000000  -0.0000000  -0.0000000  -0.0000000  -0.0000000  -0.0000000  -0.0000000
 NQMom=    0.0000000   0.0000000   0.0000000   0.0000000   0.0000000   0.0000000   0.0000000   0.0000000   0.0000000
 NMagM=    2.7928460   2.7928460   2.7928460   2.7928460   2.7928460   2.7928460   2.7928460   2.7928460   2.7928460
 AtZNuc=   1.0000000   1.0000000   1.0000000   1.0000000   1.0000000   1.0000000   1.0000000   1.0000000   1.0000000
 Leave Link  101 at Sun Jan 21 09:06:02 2024, MaxMem=  4026531840 cpu:               1.1 elap:               0.2
 (Enter /sysapps/ubuntu-applications/gaussian/Gaussian/AVX2/g16/l202.exe)
                          Input orientation:                          
 ---------------------------------------------------------------------
 Center     Atomic      Atomic             Coordinates (Angstroms)
 Number     Number       Type             X           Y           Z
 ---------------------------------------------------------------------
      1          6           0        0.146147    3.727903   -0.056429
      2          6           0       -0.957005    3.674445   -0.885828
      3          6           0       -1.019712    2.707736   -1.919776
      4          6           0        1.233468    2.830944   -0.211121
      5          6           0        1.171572    1.847888   -1.264618
      6          6           0        0.032789    1.821272   -2.090580
      7          6           0        2.371739    2.893529    0.658125
      8          6           0        3.406293    1.937763    0.403816
      9          6           0        3.384163    0.973170   -0.597633
     10          6           0        2.257366    0.884799   -1.491163
     11          8           0        2.539945    3.726029    1.638478
     12          8           0        2.197874    0.016779   -2.422050
     13          1           0        0.215431    4.459921    0.741923
     14          1           0       -1.777963    4.374865   -0.746230
     15          1           0       -1.886792    2.663300   -2.574453
     16          1           0        0.015978    1.070611   -2.874399
     17          8           0        4.465409    2.051972    1.274062
     18          1           0        4.149330    2.805100    1.830491
     19          6           0        4.522329   -0.002477   -0.767025
     20          6           0        5.554579    0.437524   -1.827728
     21          6           0        6.678287   -0.581850   -2.112140
     22          6           0        7.495573   -0.158419   -3.351296
     23          6           0        8.512992   -1.187966   -3.867101
     24          6           0        9.244908   -0.725293   -5.135072
     25          6           0       10.215106   -1.745692   -5.764401
     26          6           0       10.698598   -1.254794   -7.137119
     27          6           0        7.578886   -0.795243   -0.884437
     28          6           0       11.411641   -2.063137   -4.854743
     29          1           0        4.099565   -0.962247   -1.087376
     30          1           0        5.017609   -0.144355    0.198056
     31          1           0        6.002582    1.391370   -1.518483
     32          1           0        5.007483    0.627882   -2.756532
     33          1           0        6.195557   -1.542020   -2.348926
     34          1           0        8.017464    0.782704   -3.125475
     35          1           0        6.792595    0.074061   -4.160642
     36          1           0        7.991419   -2.131862   -4.078024
     37          1           0        9.244138   -1.411624   -3.083909
     38          1           0        9.798410    0.199227   -4.918217
     39          1           0        8.494549   -0.454135   -5.889398
     40          1           0        9.657177   -2.679455   -5.922288
     41          1           0        9.856731   -1.077639   -7.816654
     42          1           0       11.366247   -1.978998   -7.616379
     43          1           0       11.253148   -0.313014   -7.043725
     44          1           0        8.340260   -1.562646   -1.057750
     45          1           0        6.993938   -1.101270   -0.014367
     46          1           0        8.093872    0.136792   -0.621547
     47          1           0       11.098681   -2.494517   -3.898924
     48          1           0       11.988938   -1.155895   -4.638958
     49          1           0       12.093013   -2.775947   -5.331930
 ---------------------------------------------------------------------
                    Distance matrix (angstroms):
                    1          2          3          4          5
     1  C    0.000000
     2  C    1.381197   0.000000
     3  C    2.423227   1.416865   0.000000
     4  C    1.418003   2.442314   2.830460   0.000000
     5  C    2.458795   2.830306   2.443419   1.442250   0.000000
     6  C    2.790316   2.421853   1.386633   2.448149   1.407035
     7  C    2.481940   3.751554   4.264039   1.433585   2.496138
     8  C    3.747663   4.870073   5.057812   2.428392   2.790292
     9  C    4.285581   5.121102   4.914356   2.868136   2.470943
    10  C    3.820857   4.298923   3.774394   2.544475   1.468949
    11  O    2.933084   4.313171   5.135100   2.434969   3.718578
    12  O    4.855738   5.068704   4.224499   3.706455   2.397062
    13  H    1.085365   2.154333   3.417656   2.144355   3.429742
    14  H    2.143965   1.088140   2.175195   3.426186   3.918430
    15  H    3.406856   2.176780   1.087384   3.917839   3.425515
    16  H    3.875448   3.417757   2.159661   3.416739   2.128603
    17  O    4.820267   6.058062   6.381001   3.641155   4.163641
    18  H    4.520786   5.848830   6.386938   3.559649   4.400341
    19  C    5.794105   6.599770   6.276011   4.376518   3.859925
    20  C    6.573829   7.332500   6.955835   5.197488   4.638639
    21  C    8.091278   8.827093   8.373623   6.701275   6.078308
    22  C    8.942802   9.602888   9.098031   7.616492   6.955033
    23  C   10.425502  11.054948  10.480506   9.083463   8.359771
    24  C   11.331859  11.895075  11.290980  10.053621   9.315601
    25  C   12.803325  13.341455  12.682086  11.508881  10.721351
    26  C   13.649823  14.114855  13.425390  12.419798  11.613661
    27  C    8.740141   9.635328   9.342306   7.339408   6.941495
    28  C   13.545158  14.200547  13.635021  12.211079  11.534476
    29  H    6.220118   6.863558   6.353634   4.834318   4.062194
    30  H    6.228185   7.173148   7.004918   4.831103   4.571701
    31  H    6.472621   7.351771   7.155870   5.150341   4.859168
    32  H    6.366575   6.953862   6.430632   5.057251   4.292835
    33  H    8.344039   8.972809   8.384790   6.950925   6.156917
    34  H    8.947115   9.691196   9.318262   7.662333   7.173816
    35  H    8.623827   9.151146   8.543411   7.355475   6.567291
    36  H   10.585762  11.134523  10.453718   9.233216   8.382361
    37  H   10.879054  11.608746  11.120744   9.509108   8.893850
    38  H   11.369024  12.000677  11.502827  10.121310   9.512581
    39  H   11.009486  11.463540  10.783158   9.785595   8.961802
    40  H   12.881080  13.356603  12.611022  11.573280  10.686263
    41  H   13.327031  13.695092  12.938286  12.144209  11.265872
    42  H   14.683740  15.136852  14.416267  13.440484  12.606400
    43  H   13.730142  14.244555  13.638287  12.528485  11.819719
    44  H    9.804899  10.672198  10.324162   8.398030   7.941324
    45  H    8.379435   9.315814   9.075114   6.977394   6.645345
    46  H    8.739666   9.721276   9.557854   7.381873   7.159583
    47  H   13.169711  13.873515  13.335513  11.801816  11.150944
    48  H   13.605247  14.318366  13.840035  12.295559  11.722811
    49  H   14.589674  15.220984  14.617015  13.251024  12.537972
                    6          7          8          9         10
     6  C    0.000000
     7  C    3.765077   0.000000
     8  C    4.197155   1.431246   0.000000
     9  C    3.765618   2.507929   1.390622   0.000000
    10  C    2.486971   2.944065   2.453510   1.440790   0.000000
    11  O    4.880554   1.297090   2.339411   3.645700   4.236401
    12  O    2.837897   4.218222   3.624359   2.377070   1.274185
    13  H    3.875423   2.666509   4.081323   4.898235   4.683767
    14  H    3.406895   4.624564   5.842823   6.183943   5.386963
    15  H    2.151264   5.351416   6.116636   5.877697   4.637955
    16  H    1.085425   4.620754   4.795089   4.066673   2.640395
    17  O    5.569754   2.339028   1.375536   2.415812   3.726153
    18  H    5.769630   2.131218   1.827506   3.136437   4.277905
    19  C    5.023328   3.878523   2.526052   1.508643   2.538049
    20  C    5.698598   4.726722   3.441749   2.551618   3.344390
    21  C    7.066690   6.188617   4.835745   3.945006   4.699065
    22  C    7.823153   7.186342   5.934396   5.076105   5.655724
    23  C    9.171989   8.651662   7.354542   6.454829   7.005305
    24  C   10.030806   9.690070   8.477062   7.604042   8.043396
    25  C   11.397358  11.148525   9.898216   8.986072   9.407745
    26  C   12.193819  12.137174  10.965210  10.061295  10.378298
    27  C    8.077407   6.565129   5.151645   4.561276   5.613309
    28  C   12.337241  11.691026  10.380040   9.580321  10.188462
    29  H    5.029221   4.571560   3.333817   2.120728   2.639758
    30  H    5.826661   4.054754   2.640813   2.133103   3.395815
    31  H    6.012532   4.491895   3.276354   2.806951   3.779418
    32  H    5.158997   4.872390   3.777221   2.723093   3.038142
    33  H    7.025538   6.583163   5.240846   4.158984   4.704738
    34  H    8.118169   7.116560   5.920554   5.281453   5.988333
    35  H    7.282368   7.121368   5.981196   5.012069   5.324633
    36  H    9.105877   8.903172   7.594216   6.556001   6.976493
    37  H    9.812608   8.931239   7.580439   6.797655   7.524984
    38  H   10.295335   9.670072   8.497394   7.772323   8.311561
    39  H    9.550386   9.568998   8.438961   7.493732   7.748527
    40  H   11.294573  11.288826  10.020571   9.002462   9.332523
    41  H   11.734626  11.984038  10.875520   9.910309  10.080345
    42  H   13.169046  13.157132  11.959323  11.031399  11.344220
    43  H   12.449308  12.185230  11.050113  10.253160  10.639069
    44  H    9.029491   7.643623   6.223590   5.586141   6.571106
    45  H    7.830039   6.146169   4.720360   4.204043   5.344203
    46  H    8.365201   6.479195   5.125257   4.783457   5.948155
    47  H   12.014579  11.223068   9.865673   9.079491   9.766573
    48  H   12.582021  11.702454  10.424111   9.742042  10.429599
    49  H   13.307508  12.748603  11.427027  10.597807  11.175532
                   11         12         13         14         15
    11  O    0.000000
    12  O    5.510303   0.000000
    13  H    2.597263   5.803647   0.000000
    14  H    4.975153   6.132582   2.489067   0.000000
    15  H    6.202756   4.869476   4.318048   2.506731   0.000000
    16  H    5.812720   2.464924   4.960342   4.320350   2.499432
    17  O    2.577339   4.790091   4.913624   6.961114   7.452197
    18  H    1.864162   5.446744   4.404427   6.651049   7.473848
    19  C    4.859840   2.853519   6.382734   7.671717   7.172865
    20  C    5.649502   3.434780   7.161654   8.392763   7.802928
    21  C    7.053427   4.530839   8.679495   9.896610   9.170895
    22  C    8.033992   5.381432   9.543792  10.645915   9.828243
    23  C    9.494000   6.589408  11.044965  12.107381  11.165066
    24  C   10.519115   7.587611  11.956461  12.914226  11.914448
    25  C   11.985426   8.863048  13.447505  14.369306  13.269172
    26  C   12.976260   9.803626  14.305036  15.106326  13.948528
    27  C    7.224813   5.654991   9.191423  10.691106  10.218451
    28  C   12.425110   9.753848  14.114818  15.241175  14.296407
    29  H    5.642927   2.521165   6.916122   7.946476   7.154891
    30  H    4.815964   3.852509   6.675033   8.215523   7.952389
    31  H    5.235159   4.145086   6.929398   8.368662   8.060713
    32  H    5.916365   2.894690   7.063106   8.007713   7.190765
    33  H    7.550843   4.291465   9.018789  10.057593   9.113723
    34  H    7.833366   5.911774   9.452535  10.701160  10.096264
    35  H    8.065463   4.912987   9.302150  10.178880   9.195211
    36  H    9.834218   6.397192  11.276058  12.201605  11.083021
    37  H    9.676912   7.219988  11.429330  12.666290  11.864323
    38  H   10.397783   8.002018  11.917390  12.994377  12.169997
    39  H   10.469002   7.203636  11.690430  12.461778  11.334880
    40  H   12.200426   8.669634  13.584144  14.398522  13.153564
    41  H   12.884491   9.431733  14.030983  14.665838  13.393492
    42  H   14.003689  10.724889  15.351273  16.135079  14.920288
    43  H   12.946599  10.171855  14.325796  15.213300  14.194748
    44  H    8.299601   6.487280  10.272438  11.735822  11.169226
    45  H    6.772944   5.481715   8.800396  10.366770   9.979649
    46  H    6.988307   6.165955   9.089462  10.743832  10.479062
    47  H   11.941942   9.365475  13.723950  14.931036  14.034950
    48  H   12.350014  10.107165  14.110519  15.338520  14.539062
    49  H   13.495310  10.685527  15.176509  16.265507  15.252017
                   16         17         18         19         20
    16  H    0.000000
    17  O    6.161999   0.000000
    18  H    6.498388   0.988292   0.000000
    19  C    5.089179   2.896556   3.843007   0.000000
    20  C    5.672074   3.662490   4.578505   1.544096   0.000000
    21  C    6.906376   4.827029   5.780259   2.606370   1.543610
    22  C    7.594886   5.954969   6.843296   3.942455   2.538477
    23  C    8.847931   7.301485   8.212714   5.190496   3.943788
    24  C    9.670008   8.463676   9.324573   6.473411   5.090108
    25  C   10.968404   9.849935  10.732462   7.773048   6.479532
    26  C   11.734422  10.978858  11.823438   8.960619   7.583832
    27  C    8.039834   4.739144   5.665259   3.159874   2.550947
    28  C   11.983458  10.136395  11.006055   8.271540   7.051333
    29  H    4.899147   3.846524   4.765430   1.096591   2.150476
    30  H    5.994367   2.507303   3.481097   1.093989   2.175022
    31  H    6.146611   3.255396   4.080294   2.167636   1.098254
    32  H    5.012487   4.309010   5.149513   2.142630   1.094636
    33  H    6.729722   5.388528   6.368047   2.769891   2.145016
    34  H    8.010600   5.795176   6.604101   4.288912   2.805191
    35  H    6.969223   6.234094   7.095005   4.083700   2.665948
    36  H    8.678261   7.653890   8.604986   5.247054   4.195684
    37  H    9.558469   7.336529   8.239488   5.445101   4.313952
    38  H   10.031574   8.379611   9.178657   6.716406   5.255284
    39  H    9.126951   8.592421   9.439292   6.497787   5.092705
    40  H   10.784495  10.056257  10.978265   7.753039   6.581207
    41  H   11.219683  11.022792  11.862441   8.905565   7.528045
    42  H   12.673401  11.954506  12.814634   9.882282   8.551231
    43  H   12.065309  10.993277  11.787221   9.208546   7.761676
    44  H    8.917843   5.789411   6.706939   4.134640   3.514764
    45  H    7.847852   4.242222   5.172526   2.807613   2.779914
    46  H    8.437993   4.519623   5.356470   3.577217   2.827246
    47  H   11.687005   9.561937  10.450149   7.698536   6.604830
    48  H   12.305396  10.092458  10.908836   8.489552   7.200207
    49  H   12.910858  11.186075  12.064430   9.265298   8.084364
                   21         22         23         24         25
    21  C    0.000000
    22  C    1.543618   0.000000
    23  C    2.610250   1.536608   0.000000
    24  C    3.968153   2.561909   1.535421   0.000000
    25  C    5.215614   3.967162   2.609214   1.542256   0.000000
    26  C    6.470407   5.078766   3.933746   2.530174   1.535936
    27  C    1.537488   2.549094   3.150090   4.566007   5.627349
    28  C    5.667515   4.606940   3.184890   2.561863   1.536211
    29  H    2.800830   4.159849   5.220743   6.550919   7.738746
    30  H    2.878586   4.328788   5.461898   6.830066   8.070263
    31  H    2.168549   2.826671   4.297806   5.298364   6.753839
    32  H    2.161083   2.676304   4.101129   5.044235   6.465328
    33  H    1.100465   2.146891   2.792976   4.210486   5.278610
    34  H    2.163851   1.099581   2.163122   2.796275   4.264545
    35  H    2.153984   1.096935   2.153751   2.757230   4.194893
    36  H    2.826933   2.160665   1.098848   2.160329   2.817406
    37  H    2.866435   2.167833   1.094526   2.162943   2.870439
    38  H    4.268409   2.808240   2.163666   1.099149   2.161567
    39  H    4.193185   2.743604   2.151403   1.097986   2.155008
    40  H    5.271713   4.199780   2.785228   2.146724   1.099148
    41  H    6.549030   5.134146   4.173341   2.772969   2.187800
    42  H    7.363806   6.040493   4.777435   3.496962   2.193030
    43  H    6.732173   5.270418   4.285433   2.801064   2.183293
    44  H    2.199057   2.818812   2.839485   4.259590   5.069627
    45  H    2.184052   3.503670   4.142294   5.606233   6.622242
    46  H    2.177658   2.810096   3.530477   4.737086   5.873017
    47  H    5.137195   4.328930   2.897219   2.845117   2.195780
    48  H    5.909091   4.779473   3.560757   2.821568   2.181963
    49  H    6.670860   5.648966   4.181382   3.515059   2.185175
                   26         27         28         29         30
    26  C    0.000000
    27  C    7.002844   0.000000
    28  C    2.524102   5.662234   0.000000
    29  H    8.957243   3.489233   8.298884   0.000000
    30  H    9.344062   2.855799   8.372344   1.778788   0.000000
    31  H    7.786130   2.769120   7.233406   3.057260   2.505021
    32  H    7.424473   3.484557   7.256536   2.477682   3.053857
    33  H    6.579261   2.148489   5.810182   2.514126   3.134987
    34  H    5.237668   2.775701   4.754957   4.748540   4.572136
    35  H    5.087448   3.479578   5.136631   4.215603   4.711319
    36  H    4.178053   3.486507   3.507981   5.045642   5.574817
    37  H    4.309125   2.826777   2.873742   5.536670   5.499165
    38  H    2.801436   4.710269   2.779359   6.964280   7.010732
    39  H    2.656256   5.099454   3.488384   6.529432   7.017277
    40  H    2.142436   5.766237   2.144212   7.563877   8.087703
    41  H    1.096308   7.302326   3.487387   8.856718   9.408703
    42  H    1.095407   7.814373   2.763290   9.821727  10.234086
    43  H    1.096904   7.188155   2.807079   9.331310   9.557917
    44  H    6.528036   1.094822   4.909280   4.283089   3.824736
    45  H    8.030048   1.092171   6.623483   3.089995   2.206057
    46  H    7.153586   1.096819   5.810958   4.168857   3.195964
    47  H    3.490399   4.935952   1.094359   7.696771   7.699866
    48  H    2.813462   5.803021   1.096778   8.654100   8.545136
    49  H    2.741716   6.639332   1.095479   9.230436   9.357743
                   31         32         33         34         35
    31  H    0.000000
    32  H    1.762357   0.000000
    33  H    3.054775   2.507217   0.000000
    34  H    2.648140   3.036458   3.053967   0.000000
    35  H    3.056211   2.337706   2.500097   1.753297   0.000000
    36  H    4.787472   4.273921   2.561799   3.066386   2.511991
    37  H    4.562348   4.713386   3.138638   2.514266   3.062136
    38  H    5.233327   5.273482   4.755391   2.593480   3.102339
    39  H    5.359168   4.810950   4.359335   3.065396   2.482788
    40  H    7.022904   6.525346   5.103478   4.743139   4.346387
    41  H    7.785719   7.213102   6.596658   5.371307   4.907318
    42  H    8.792759   8.417114   7.394122   6.245764   6.088962
    43  H    7.810356   7.633717   7.009338   5.198359   5.325273
    44  H    3.795158   4.334937   2.503460   3.143302   3.834321
    45  H    3.075452   3.802031   2.506360   3.778354   4.314341
    46  H    2.598452   3.784855   3.066895   2.587025   3.771266
    47  H    6.836435   6.939534   5.229758   4.564241   5.020803
    48  H    7.215427   7.447557   6.241522   4.671338   5.361302
    49  H    8.306760   8.271848   6.723160   5.843162   6.130978
                   36         37         38         39         40
    36  H    0.000000
    37  H    1.753942   0.000000
    38  H    3.066776   2.503347   0.000000
    39  H    2.519719   3.057685   1.752178   0.000000
    40  H    2.544782   3.135983   3.052035   2.510943   0.000000
    41  H    4.309075   4.783899   3.167763   2.441027   2.488827
    42  H    4.892115   5.036720   3.805635   3.681619   2.506293
    43  H    4.768906   4.574189   2.626107   2.993702   3.066723
    44  H    3.093178   2.223763   4.487048   4.959579   5.161905
    45  H    4.309338   3.818613   5.796904   6.098082   6.669861
    46  H    4.135761   3.127928   4.622848   5.316013   6.202663
    47  H    3.133476   2.297006   3.160051   3.860913   2.491212
    48  H    4.152989   3.165044   2.590898   3.777145   3.066803
    49  H    4.337073   3.876992   3.779950   4.318625   2.508213
                   41         42         43         44         45
    41  H    0.000000
    42  H    1.769519   0.000000
    43  H    1.769760   1.765284   0.000000
    44  H    6.943897   7.235023   6.773359   0.000000
    45  H    8.310946   8.813517   8.256760   1.764681   0.000000
    46  H    7.506802   8.007039   7.171312   1.771742   1.763893
    47  H    4.347251   3.762555   3.830482   4.068113   5.820639
    48  H    3.827556   3.151234   2.652308   5.128679   6.807338
    49  H    3.749541   2.526267   3.114748   5.815829   7.555236
                   46         47         48         49
    46  H    0.000000
    47  H    5.166611   0.000000
    48  H    5.743011   1.769779   0.000000
    49  H    6.831170   1.766750   1.765109   0.000000
 Stoichiometry    C20H26O3(2-)
 Framework group  C1[X(C20H26O3)]
 Deg. of freedom   141
 Full point group                 C1      NOp   1
 Largest Abelian subgroup         C1      NOp   1
 Largest concise Abelian subgroup C1      NOp   1
                         Standard orientation:                         
 ---------------------------------------------------------------------
 Center     Atomic      Atomic             Coordinates (Angstroms)
 Number     Number       Type             X           Y           Z
 ---------------------------------------------------------------------
      1          6           0       -5.749464   -0.330630   -0.869435
      2          6           0       -6.291066   -1.589945   -0.700622
      3          6           0       -5.544375   -2.600176   -0.045341
      4          6           0       -4.449576   -0.014154   -0.399472
      5          6           0       -3.687844   -1.042368    0.265829
      6          6           0       -4.270397   -2.313684    0.421193
      7          6           0       -3.899180    1.297581   -0.577190
      8          6           0       -2.578830    1.496985   -0.062043
      9          6           0       -1.813112    0.534826    0.587383
     10          6           0       -2.334123   -0.794649    0.779528
     11          8           0       -4.485778    2.301052   -1.152855
     12          8           0       -1.665242   -1.705458    1.368234
     13          1           0       -6.303370    0.458297   -1.368233
     14          1           0       -7.290830   -1.807131   -1.071230
     15          1           0       -5.968002   -3.592610    0.088894
     16          1           0       -3.672280   -3.066160    0.925358
     17          8           0       -2.113607    2.775627   -0.263888
     18          1           0       -2.891783    3.169561   -0.728622
     19          6           0       -0.435487    0.856634    1.111400
     20          6           0        0.697826    0.463235    0.139253
     21          6           0        2.128357    0.674184    0.679454
     22          6           0        3.165530    0.020206   -0.258279
     23          6           0        4.609519   -0.022791    0.265370
     24          6           0        5.573590   -0.739871   -0.690601
     25          6           0        7.022937   -0.903949   -0.189575
     26          6           0        7.815386   -1.829793   -1.124421
     27          6           0        2.435373    2.162168    0.915070
     28          6           0        7.747243    0.440587   -0.023594
     29          1           0       -0.289011    0.296404    2.042635
     30          1           0       -0.379449    1.925999    1.335297
     31          1           0        0.579088    1.025449   -0.796684
     32          1           0        0.565521   -0.595523   -0.105189
     33          1           0        2.190304    0.157982    1.649361
     34          1           0        3.147687    0.544163   -1.224834
     35          1           0        2.838419   -1.005965   -0.466214
     36          1           0        4.622396   -0.533816    1.238075
     37          1           0        4.967578    0.994825    0.450408
     38          1           0        5.591859   -0.209852   -1.653344
     39          1           0        5.169669   -1.737729   -0.906702
     40          1           0        6.979667   -1.385376    0.797583
     41          1           0        7.339763   -2.813986   -1.208324
     42          1           0        8.840473   -1.984779   -0.770736
     43          1           0        7.879996   -1.405636   -2.133933
     44          1           0        3.425306    2.315860    1.356710
     45          1           0        1.701242    2.615316    1.584807
     46          1           0        2.399643    2.714424   -0.031898
     47          1           0        7.248685    1.089463    0.703057
     48          1           0        7.792100    0.979741   -0.977650
     49          1           0        8.778505    0.294932    0.316048
 ---------------------------------------------------------------------
 Rotational constants (GHZ):           0.5648222           0.0778629           0.0718352
 Leave Link  202 at Sun Jan 21 09:06:02 2024, MaxMem=  4026531840 cpu:               0.2 elap:               0.1
 (Enter /sysapps/ubuntu-applications/gaussian/Gaussian/AVX2/g16/l301.exe)
 Standard basis: 6-311++G(d,p) (5D, 7F)
 Ernie: Thresh=  0.10000D-02 Tol=  0.10000D-05 Strict=F.
 There are   711 symmetry adapted cartesian basis functions of A   symmetry.
 There are   688 symmetry adapted basis functions of A   symmetry.
   688 basis functions,  1062 primitive gaussians,   711 cartesian basis functions
    86 alpha electrons       86 beta electrons
       nuclear repulsion energy      1798.9861366608 Hartrees.
 IExCor=  402 DFT=T Ex+Corr=B3LYP ExCW=0 ScaHFX=  0.200000
 ScaDFX=  0.800000  0.720000  1.000000  0.810000 ScalE2=  1.000000  1.000000
 IRadAn=      5 IRanWt=     -1 IRanGd=            0 ICorTp=0 IEmpDi=  4
 NAtoms=   49 NActive=   49 NUniq=   49 SFac= 1.00D+00 NAtFMM=   60 NAOKFM=F Big=F
 Integral buffers will be    131072 words long.
 Raffenetti 2 integral format.
 Two-electron integral symmetry is turned on.
 ------------------------------------------------------------------------------
 Polarizable Continuum Model (PCM)
 =================================
 Model                : PCM.
 Atomic radii         : UFF (Universal Force Field).
 Polarization charges : Total charges.
 Charge compensation  : None.
 Solution method      : On-the-fly selection.
 Cavity type          : Scaled VdW (van der Waals Surface) (Alpha=1.100).
 Cavity algorithm     : GePol (No added spheres)
                        Default sphere list used, NSphG=   49.
                        Lebedev-Laikov grids with approx.  5.0 points / Ang**2.
                        Smoothing algorithm: York/Karplus (Gamma=1.0000).
                        Polarization charges: spherical gaussians, with
                                              point-specific exponents (IZeta= 3).
                        Self-potential: point-specific (ISelfS= 7).
                        Self-field    : sphere-specific E.n sum rule (ISelfD= 2).
 Solvent              : n,n-DiMethylFormamide, Eps=  37.219000 Eps(inf)=   2.046330
 ------------------------------------------------------------------------------
 GePol: Number of generator spheres                  =      49
 GePol: Total number of spheres                      =      49
 GePol: Number of exposed spheres                    =      49 (100.00%)
 GePol: Number of points                             =    3355
 GePol: Average weight of points                     =       0.13
 GePol: Minimum weight of points                     =   0.30D-11
 GePol: Maximum weight of points                     =    0.20577
 GePol: Number of points with low weight             =     219
 GePol: Fraction of low-weight points (<1% of avg)   =       6.53%
 GePol: Cavity surface area                          =    437.647 Ang**2
 GePol: Cavity volume                                =    476.877 Ang**3
 Leave Link  301 at Sun Jan 21 09:06:03 2024, MaxMem=  4026531840 cpu:               0.6 elap:               0.2
 (Enter /sysapps/ubuntu-applications/gaussian/Gaussian/AVX2/g16/l302.exe)
 NPDir=0 NMtPBC=     1 NCelOv=     1 NCel=       1 NClECP=     1 NCelD=      1
         NCelK=      1 NCelE2=     1 NClLst=     1 CellRange=     0.0.
 One-electron integrals computed using PRISM.
 One-electron integral symmetry used in STVInt
 NBasis=   688 RedAO= T EigKep=  1.04D-06  NBF=   688
 NBsUse=   684 1.00D-06 EigRej=  5.15D-07 NBFU=   684
 Precomputing XC quadrature grid using
 IXCGrd= 4 IRadAn=           5 IRanWt=          -1 IRanGd=           0 AccXCQ= 0.00D+00.
 Generated NRdTot=       0 NPtTot=           0 NUsed=           0 NTot=          32
 NSgBfM=   695   695   695   695   695 MxSgAt=    49 MxSgA2=    49.
 Leave Link  302 at Sun Jan 21 09:06:04 2024, MaxMem=  4026531840 cpu:              10.7 elap:               1.8
 (Enter /sysapps/ubuntu-applications/gaussian/Gaussian/AVX2/g16/l303.exe)
 DipDrv:  MaxL=1.
 Leave Link  303 at Sun Jan 21 09:06:05 2024, MaxMem=  4026531840 cpu:               0.9 elap:               0.2
 (Enter /sysapps/ubuntu-applications/gaussian/Gaussian/AVX2/g16/l401.exe)
 ExpMin= 3.60D-02 ExpMax= 8.59D+03 ExpMxC= 1.30D+03 IAcc=3 IRadAn=         5 AccDes= 0.00D+00
 Harris functional with IExCor=  402 and IRadAn=       5 diagonalized for initial guess.
 HarFok:  IExCor=  402 AccDes= 0.00D+00 IRadAn=         5 IDoV= 1 UseB2=F ITyADJ=14
 ICtDFT=  3500011 ScaDFX=  1.000000  1.000000  1.000000  1.000000
 FoFCou: FMM=F IPFlag=           0 FMFlag=      100000 FMFlg1=           0
         NFxFlg=           0 DoJE=T BraDBF=F KetDBF=T FulRan=T
         wScrn=  0.000000 ICntrl=       500 IOpCl=  0 I1Cent=   200000004 NGrid=           0
         NMat0=    1 NMatS0=      1 NMatT0=    0 NMatD0=    1 NMtDS0=    0 NMtDT0=    0
 Petite list used in FoFCou.
 Harris En= -1004.33969933110    
 JPrj=0 DoOrth=F DoCkMO=F.
 Initial guess <Sx>= 0.0000 <Sy>= 0.0000 <Sz>= 0.0000 <S**2>=-0.0000 S=-0.0000
 Leave Link  401 at Sun Jan 21 09:06:09 2024, MaxMem=  4026531840 cpu:              32.8 elap:               4.2
 (Enter /sysapps/ubuntu-applications/gaussian/Gaussian/AVX2/g16/l502.exe)
 Integral symmetry usage will be decided dynamically.
 UHF open shell SCF:
 Using DIIS extrapolation, IDIIS=  1040.
 NGot=  4026531840 LenX=  4025508197 LenY=  4025001965
 Requested convergence on RMS density matrix=1.00D-08 within 128 cycles.
 Requested convergence on MAX density matrix=1.00D-06.
 Requested convergence on             energy=1.00D-06.
 No special actions if energy rises.
 Fock matrices will be formed incrementally for  20 cycles.

 Cycle   1  Pass 1  IDiag  1:
 FoFJK:  IHMeth= 1 ICntrl=       0 DoSepK=F KAlg= 0 I1Cent=           0 FoldK=F
 IRaf= 750000000 NMat=       1 IRICut=       1 DoRegI=T DoRafI=F ISym2E= 0 IDoP0=0 IntGTp=1.
 FoFCou: FMM=F IPFlag=           0 FMFlag=      100000 FMFlg1=           0
         NFxFlg=           0 DoJE=F BraDBF=F KetDBF=F FulRan=T
         wScrn=  0.000000 ICntrl=         0 IOpCl=  1 I1Cent=           0 NGrid=           0
         NMat0=    1 NMatS0=      1 NMatT0=    0 NMatD0=    1 NMtDS0=    0 NMtDT0=    0
 Symmetry not used in FoFCou.
 Inv3:  Mode=1 IEnd=    33768075.
 Iteration    1 A*A^-1 deviation from unit magnitude is 3.33D-15 for   2606.
 Iteration    1 A*A^-1 deviation from orthogonality  is 2.33D-15 for   2772    705.
 Iteration    1 A^-1*A deviation from unit magnitude is 3.33D-15 for   2227.
 Iteration    1 A^-1*A deviation from orthogonality  is 3.33D-15 for   2322    420.
 E= -1003.12444635019    
 DIIS: error= 2.98D-02 at cycle   1 NSaved=   1.
 NSaved= 1 IEnMin= 1 EnMin= -1003.12444635019     IErMin= 1 ErrMin= 2.98D-02
 ErrMax= 2.98D-02  0.00D+00 EMaxC= 1.00D-01 BMatC= 3.78D+00 BMatP= 3.78D+00
 IDIUse=3 WtCom= 7.02D-01 WtEn= 2.98D-01
 Coeff-Com:  0.100D+01
 Coeff-En:   0.100D+01
 Coeff:      0.100D+01
 Gap=     0.093 Goal=   None    Shift=    0.000
 Gap=     0.093 Goal=   None    Shift=    0.000
 GapD=    0.093 DampG=0.500 DampE=0.500 DampFc=0.2500 IDamp=-1.
 Damping current iteration by 2.50D-01
 RMSDP=9.23D-01 MaxDP=1.33D+02              OVMax= 9.92D-01

 Cycle   2  Pass 1  IDiag  1:
 RMSU=  2.28D-01    CP:  1.73D+00
 E= -1003.39981463809     Delta-E=       -0.275368287898 Rises=F Damp=T
 DIIS: error= 1.47D-02 at cycle   2 NSaved=   2.
 NSaved= 2 IEnMin= 2 EnMin= -1003.39981463809     IErMin= 2 ErrMin= 1.47D-02
 ErrMax= 1.47D-02  0.00D+00 EMaxC= 1.00D-01 BMatC= 7.64D-01 BMatP= 3.78D+00
 IDIUse=3 WtCom= 8.53D-01 WtEn= 1.47D-01
 Coeff-Com: -0.563D+00 0.156D+01
 Coeff-En:   0.000D+00 0.100D+01
 Coeff:     -0.480D+00 0.148D+01
 Gap=     0.005 Goal=   None    Shift=    0.000
 Gap=     0.005 Goal=   None    Shift=    0.000
 RMSDP=2.33D-01 MaxDP=3.41D+01 DE=-2.75D-01 OVMax= 8.74D-01

 Cycle   3  Pass 1  IDiag  1:
 RMSU=  8.03D-03    CP:  9.30D-01 -5.40D-03
 E= -1003.83030173714     Delta-E=       -0.430487099047 Rises=F Damp=F
 DIIS: error= 2.36D-02 at cycle   3 NSaved=   3.
 NSaved= 3 IEnMin= 3 EnMin= -1003.83030173714     IErMin= 2 ErrMin= 1.47D-02
 ErrMax= 2.36D-02  0.00D+00 EMaxC= 1.00D-01 BMatC= 8.63D-01 BMatP= 7.64D-01
 IDIUse=2 WtCom= 0.00D+00 WtEn= 1.00D+00
 Coeff-En:   0.000D+00 0.000D+00 0.100D+01
 Coeff:      0.000D+00 0.000D+00 0.100D+01
 Gap=     0.053 Goal=   None    Shift=    0.000
 Gap=     0.053 Goal=   None    Shift=    0.000
 RMSDP=5.98D-02 MaxDP=1.57D+01 DE=-4.30D-01 OVMax= 6.32D-01

 Cycle   4  Pass 1  IDiag  1:
 RMSU=  5.67D-02    CP:  1.25D+00  3.01D-02  8.51D-01
 E= -1002.72077585437     Delta-E=        1.109525882768 Rises=F Damp=F
 DIIS: error= 5.68D-02 at cycle   4 NSaved=   4.
 NSaved= 4 IEnMin= 3 EnMin= -1003.83030173714     IErMin= 2 ErrMin= 1.47D-02
 ErrMax= 5.68D-02  0.00D+00 EMaxC= 1.00D-01 BMatC= 5.73D+00 BMatP= 7.64D-01
 IDIUse=2 WtCom= 0.00D+00 WtEn= 1.00D+00
 Coeff-En:   0.000D+00 0.000D+00 0.832D+00 0.168D+00
 Coeff:      0.000D+00 0.000D+00 0.832D+00 0.168D+00
 Gap=     0.047 Goal=   None    Shift=    0.000
 Gap=     0.047 Goal=   None    Shift=    0.000
 RMSDP=5.24D-02 MaxDP=1.51D+01 DE= 1.11D+00 OVMax= 4.84D-01

 Cycle   5  Pass 1  IDiag  1:
 RMSU=  1.01D-02    CP:  8.40D-01  2.59D-03  7.84D-01  1.88D-01
 E= -1003.90715238181     Delta-E=       -1.186376527443 Rises=F Damp=F
 DIIS: error= 1.76D-02 at cycle   5 NSaved=   5.
 NSaved= 5 IEnMin= 5 EnMin= -1003.90715238181     IErMin= 2 ErrMin= 1.47D-02
 ErrMax= 1.76D-02  0.00D+00 EMaxC= 1.00D-01 BMatC= 5.15D-01 BMatP= 7.64D-01
 IDIUse=3 WtCom= 8.24D-01 WtEn= 1.76D-01
 Coeff-Com: -0.576D-01 0.137D+00 0.400D+00-0.256D-01 0.547D+00
 Coeff-En:   0.000D+00 0.000D+00 0.392D+00 0.000D+00 0.608D+00
 Coeff:     -0.475D-01 0.112D+00 0.398D+00-0.211D-01 0.558D+00
 Gap=     0.100 Goal=   None    Shift=    0.000
 Gap=     0.100 Goal=   None    Shift=    0.000
 RMSDP=7.85D-03 MaxDP=1.15D+00 DE=-1.19D+00 OVMax= 8.23D-02

 Cycle   6  Pass 1  IDiag  1:
 RMSU=  2.52D-03    CP:  7.95D-01 -1.04D-03  7.48D-01  8.64D-02  6.07D-01
 E= -1004.00372600915     Delta-E=       -0.096573627341 Rises=F Damp=F
 DIIS: error= 2.39D-03 at cycle   6 NSaved=   6.
 NSaved= 6 IEnMin= 6 EnMin= -1004.00372600915     IErMin= 6 ErrMin= 2.39D-03
 ErrMax= 2.39D-03  0.00D+00 EMaxC= 1.00D-01 BMatC= 1.88D-02 BMatP= 5.15D-01
 IDIUse=3 WtCom= 9.76D-01 WtEn= 2.39D-02
 Coeff-Com: -0.316D-01 0.635D-01 0.222D+00-0.333D-01 0.385D+00 0.395D+00
 Coeff-En:   0.000D+00 0.000D+00 0.000D+00 0.000D+00 0.000D+00 0.100D+01
 Coeff:     -0.309D-01 0.620D-01 0.217D+00-0.325D-01 0.376D+00 0.409D+00
 Gap=     0.098 Goal=   None    Shift=    0.000
 Gap=     0.098 Goal=   None    Shift=    0.000
 RMSDP=1.21D-03 MaxDP=1.75D-01 DE=-9.66D-02 OVMax= 3.63D-02

 Cycle   7  Pass 1  IDiag  1:
 RMSU=  6.70D-04    CP:  7.95D-01 -1.21D-03  7.72D-01  8.38D-02  6.70D-01
                    CP:  7.05D-01
 E= -1004.00797326638     Delta-E=       -0.004247257232 Rises=F Damp=F
 DIIS: error= 5.12D-04 at cycle   7 NSaved=   7.
 NSaved= 7 IEnMin= 7 EnMin= -1004.00797326638     IErMin= 7 ErrMin= 5.12D-04
 ErrMax= 5.12D-04  0.00D+00 EMaxC= 1.00D-01 BMatC= 7.69D-04 BMatP= 1.88D-02
 IDIUse=3 WtCom= 9.95D-01 WtEn= 5.12D-03
 Coeff-Com: -0.507D-02 0.843D-02 0.530D-01-0.111D-01 0.938D-01 0.174D+00
 Coeff-Com:  0.687D+00
 Coeff-En:   0.000D+00 0.000D+00 0.000D+00 0.000D+00 0.000D+00 0.000D+00
 Coeff-En:   0.100D+01
 Coeff:     -0.504D-02 0.838D-02 0.527D-01-0.110D-01 0.934D-01 0.173D+00
 Coeff:      0.688D+00
 Gap=     0.098 Goal=   None    Shift=    0.000
 Gap=     0.098 Goal=   None    Shift=    0.000
 RMSDP=3.93D-04 MaxDP=5.97D-02 DE=-4.25D-03 OVMax= 6.97D-03

 Cycle   8  Pass 1  IDiag  1:
 RMSU=  2.17D-04    CP:  7.91D-01 -1.30D-03  7.70D-01  8.22D-02  6.73D-01
                    CP:  7.85D-01  9.27D-01
 E= -1004.00808541975     Delta-E=       -0.000112153366 Rises=F Damp=F
 DIIS: error= 2.67D-04 at cycle   8 NSaved=   8.
 NSaved= 8 IEnMin= 8 EnMin= -1004.00808541975     IErMin= 8 ErrMin= 2.67D-04
 ErrMax= 2.67D-04  0.00D+00 EMaxC= 1.00D-01 BMatC= 2.15D-04 BMatP= 7.69D-04
 IDIUse=3 WtCom= 9.97D-01 WtEn= 2.67D-03
 Coeff-Com:  0.188D-02-0.358D-02 0.379D-02-0.639D-03-0.200D-02 0.389D-01
 Coeff-Com:  0.415D+00 0.547D+00
 Coeff-En:   0.000D+00 0.000D+00 0.000D+00 0.000D+00 0.000D+00 0.000D+00
 Coeff-En:   0.210D+00 0.790D+00
 Coeff:      0.187D-02-0.357D-02 0.378D-02-0.638D-03-0.199D-02 0.388D-01
 Coeff:      0.415D+00 0.547D+00
 Gap=     0.098 Goal=   None    Shift=    0.000
 Gap=     0.098 Goal=   None    Shift=    0.000
 RMSDP=1.30D-04 MaxDP=2.17D-02 DE=-1.12D-04 OVMax= 3.98D-03

 Cycle   9  Pass 1  IDiag  1:
 RMSU=  9.34D-05    CP:  7.89D-01 -1.31D-03  7.69D-01  8.15D-02  6.73D-01
                    CP:  7.76D-01  9.52D-01  8.87D-01
 E= -1004.00813198385     Delta-E=       -0.000046564098 Rises=F Damp=F
 DIIS: error= 8.99D-05 at cycle   9 NSaved=   9.
 NSaved= 9 IEnMin= 9 EnMin= -1004.00813198385     IErMin= 9 ErrMin= 8.99D-05
 ErrMax= 8.99D-05  0.00D+00 EMaxC= 1.00D-01 BMatC= 2.46D-05 BMatP= 2.15D-04
 IDIUse=1 WtCom= 1.00D+00 WtEn= 0.00D+00
 Coeff-Com:  0.129D-02-0.210D-02 0.428D-03 0.109D-03-0.542D-02 0.189D-01
 Coeff-Com:  0.231D+00 0.353D+00 0.403D+00
 Coeff:      0.129D-02-0.210D-02 0.428D-03 0.109D-03-0.542D-02 0.189D-01
 Coeff:      0.231D+00 0.353D+00 0.403D+00
 Gap=     0.098 Goal=   None    Shift=    0.000
 Gap=     0.098 Goal=   None    Shift=    0.000
 RMSDP=6.65D-05 MaxDP=9.66D-03 DE=-4.66D-05 OVMax= 1.37D-03

 Cycle  10  Pass 1  IDiag  1:
 RMSU=  2.63D-05    CP:  7.90D-01 -1.33D-03  7.69D-01  8.10D-02  6.69D-01
                    CP:  7.78D-01  9.77D-01  8.94D-01  7.37D-01
 E= -1004.00813799751     Delta-E=       -0.000006013664 Rises=F Damp=F
 DIIS: error= 1.99D-05 at cycle  10 NSaved=  10.
 NSaved=10 IEnMin=10 EnMin= -1004.00813799751     IErMin=10 ErrMin= 1.99D-05
 ErrMax= 1.99D-05  0.00D+00 EMaxC= 1.00D-01 BMatC= 7.53D-07 BMatP= 2.46D-05
 IDIUse=1 WtCom= 1.00D+00 WtEn= 0.00D+00
 Coeff-Com:  0.461D-03-0.579D-03-0.487D-03 0.861D-04-0.230D-02 0.543D-02
 Coeff-Com:  0.513D-01 0.850D-01 0.145D+00 0.716D+00
 Coeff:      0.461D-03-0.579D-03-0.487D-03 0.861D-04-0.230D-02 0.543D-02
 Coeff:      0.513D-01 0.850D-01 0.145D+00 0.716D+00
 Gap=     0.098 Goal=   None    Shift=    0.000
 Gap=     0.098 Goal=   None    Shift=    0.000
 RMSDP=1.39D-05 MaxDP=2.40D-03 DE=-6.01D-06 OVMax= 2.84D-04

 Cycle  11  Pass 1  IDiag  1:
 RMSU=  7.98D-06    CP:  7.90D-01 -1.33D-03  7.69D-01  8.10D-02  6.68D-01
                    CP:  7.80D-01  9.77D-01  8.98D-01  7.98D-01  1.04D+00
 E= -1004.00813817613     Delta-E=       -0.000000178618 Rises=F Damp=F
 DIIS: error= 6.39D-06 at cycle  11 NSaved=  11.
 NSaved=11 IEnMin=11 EnMin= -1004.00813817613     IErMin=11 ErrMin= 6.39D-06
 ErrMax= 6.39D-06  0.00D+00 EMaxC= 1.00D-01 BMatC= 1.55D-07 BMatP= 7.53D-07
 IDIUse=1 WtCom= 1.00D+00 WtEn= 0.00D+00
 Coeff-Com:  0.207D-03-0.262D-03-0.314D-03 0.198D-04-0.799D-03 0.197D-02
 Coeff-Com:  0.134D-01 0.219D-01 0.420D-01 0.387D+00 0.534D+00
 Coeff:      0.207D-03-0.262D-03-0.314D-03 0.198D-04-0.799D-03 0.197D-02
 Coeff:      0.134D-01 0.219D-01 0.420D-01 0.387D+00 0.534D+00
 Gap=     0.098 Goal=   None    Shift=    0.000
 Gap=     0.098 Goal=   None    Shift=    0.000
 RMSDP=4.66D-06 MaxDP=3.97D-04 DE=-1.79D-07 OVMax= 5.72D-05

 Cycle  12  Pass 1  IDiag  1:
 RMSU=  2.31D-06    CP:  7.90D-01 -1.33D-03  7.68D-01  8.09D-02  6.68D-01
                    CP:  7.80D-01  9.77D-01  9.08D-01  8.09D-01  1.09D+00
                    CP:  1.06D+00
 E= -1004.00813821286     Delta-E=       -0.000000036732 Rises=F Damp=F
 DIIS: error= 2.05D-06 at cycle  12 NSaved=  12.
 NSaved=12 IEnMin=12 EnMin= -1004.00813821286     IErMin=12 ErrMin= 2.05D-06
 ErrMax= 2.05D-06  0.00D+00 EMaxC= 1.00D-01 BMatC= 8.56D-09 BMatP= 1.55D-07
 IDIUse=1 WtCom= 1.00D+00 WtEn= 0.00D+00
 Coeff-Com:  0.448D-04-0.626D-04-0.754D-04 0.190D-05-0.793D-04 0.255D-03
 Coeff-Com:  0.361D-03-0.205D-03 0.172D-03 0.899D-01 0.233D+00 0.677D+00
 Coeff:      0.448D-04-0.626D-04-0.754D-04 0.190D-05-0.793D-04 0.255D-03
 Coeff:      0.361D-03-0.205D-03 0.172D-03 0.899D-01 0.233D+00 0.677D+00
 Gap=     0.098 Goal=   None    Shift=    0.000
 Gap=     0.098 Goal=   None    Shift=    0.000
 RMSDP=1.73D-06 MaxDP=1.81D-04 DE=-3.67D-08 OVMax= 1.89D-05

 Cycle  13  Pass 1  IDiag  1:
 RMSU=  7.92D-07    CP:  7.90D-01 -1.33D-03  7.68D-01  8.09D-02  6.68D-01
                    CP:  7.80D-01  9.77D-01  9.09D-01  8.15D-01  1.11D+00
                    CP:  1.09D+00  1.05D+00
 E= -1004.00813821478     Delta-E=       -0.000000001917 Rises=F Damp=F
 DIIS: error= 6.41D-07 at cycle  13 NSaved=  13.
 NSaved=13 IEnMin=13 EnMin= -1004.00813821478     IErMin=13 ErrMin= 6.41D-07
 ErrMax= 6.41D-07  0.00D+00 EMaxC= 1.00D-01 BMatC= 1.51D-09 BMatP= 8.56D-09
 IDIUse=1 WtCom= 1.00D+00 WtEn= 0.00D+00
 Coeff-Com:  0.209D-05-0.407D-05-0.116D-04-0.229D-05 0.320D-04-0.536D-04
 Coeff-Com: -0.930D-03-0.216D-02-0.363D-02 0.150D-01 0.806D-01 0.364D+00
 Coeff-Com:  0.548D+00
 Coeff:      0.209D-05-0.407D-05-0.116D-04-0.229D-05 0.320D-04-0.536D-04
 Coeff:     -0.930D-03-0.216D-02-0.363D-02 0.150D-01 0.806D-01 0.364D+00
 Coeff:      0.548D+00
 Gap=     0.098 Goal=   None    Shift=    0.000
 Gap=     0.098 Goal=   None    Shift=    0.000
 RMSDP=4.92D-07 MaxDP=6.53D-05 DE=-1.92D-09 OVMax= 7.60D-06

 Cycle  14  Pass 1  IDiag  1:
 RMSU=  2.19D-07    CP:  7.90D-01 -1.33D-03  7.68D-01  8.09D-02  6.68D-01
                    CP:  7.81D-01  9.78D-01  9.10D-01  8.17D-01  1.11D+00
                    CP:  1.11D+00  1.11D+00  9.70D-01
 E= -1004.00813821514     Delta-E=       -0.000000000361 Rises=F Damp=F
 DIIS: error= 2.80D-07 at cycle  14 NSaved=  14.
 NSaved=14 IEnMin=14 EnMin= -1004.00813821514     IErMin=14 ErrMin= 2.80D-07
 ErrMax= 2.80D-07  0.00D+00 EMaxC= 1.00D-01 BMatC= 2.01D-10 BMatP= 1.51D-09
 IDIUse=1 WtCom= 1.00D+00 WtEn= 0.00D+00
 Coeff-Com: -0.406D-05 0.426D-05-0.107D-05-0.657D-06 0.105D-04-0.650D-04
 Coeff-Com: -0.265D-03-0.663D-03-0.116D-02-0.342D-02 0.801D-02 0.822D-01
 Coeff-Com:  0.290D+00 0.625D+00
 Coeff:     -0.406D-05 0.426D-05-0.107D-05-0.657D-06 0.105D-04-0.650D-04
 Coeff:     -0.265D-03-0.663D-03-0.116D-02-0.342D-02 0.801D-02 0.822D-01
 Coeff:      0.290D+00 0.625D+00
 Gap=     0.098 Goal=   None    Shift=    0.000
 Gap=     0.098 Goal=   None    Shift=    0.000
 RMSDP=2.58D-07 MaxDP=3.44D-05 DE=-3.61D-10 OVMax= 3.16D-06

 Cycle  15  Pass 1  IDiag  1:
 RMSU=  9.05D-08    CP:  7.90D-01 -1.33D-03  7.68D-01  8.09D-02  6.68D-01
                    CP:  7.81D-01  9.78D-01  9.10D-01  8.18D-01  1.11D+00
                    CP:  1.12D+00  1.14D+00  9.83D-01  8.76D-01
 E= -1004.00813821516     Delta-E=       -0.000000000025 Rises=F Damp=F
 DIIS: error= 7.36D-08 at cycle  15 NSaved=  15.
 NSaved=15 IEnMin=15 EnMin= -1004.00813821516     IErMin=15 ErrMin= 7.36D-08
 ErrMax= 7.36D-08  0.00D+00 EMaxC= 1.00D-01 BMatC= 1.89D-11 BMatP= 2.01D-10
 IDIUse=1 WtCom= 1.00D+00 WtEn= 0.00D+00
 Coeff-Com: -0.296D-05 0.363D-05-0.330D-06-0.220D-06 0.377D-05-0.325D-04
 Coeff-Com: -0.980D-04-0.229D-03-0.365D-03-0.243D-02-0.626D-03 0.209D-01
 Coeff-Com:  0.118D+00 0.331D+00 0.534D+00
 Coeff:     -0.296D-05 0.363D-05-0.330D-06-0.220D-06 0.377D-05-0.325D-04
 Coeff:     -0.980D-04-0.229D-03-0.365D-03-0.243D-02-0.626D-03 0.209D-01
 Coeff:      0.118D+00 0.331D+00 0.534D+00
 Gap=     0.098 Goal=   None    Shift=    0.000
 Gap=     0.098 Goal=   None    Shift=    0.000
 RMSDP=5.52D-08 MaxDP=6.28D-06 DE=-2.46D-11 OVMax= 8.03D-07

 Cycle  16  Pass 1  IDiag  1:
 RMSU=  2.37D-08    CP:  7.90D-01 -1.33D-03  7.68D-01  8.09D-02  6.68D-01
                    CP:  7.81D-01  9.78D-01  9.10D-01  8.18D-01  1.11D+00
                    CP:  1.12D+00  1.15D+00  9.82D-01  9.43D-01  1.07D+00
 E= -1004.00813821520     Delta-E=       -0.000000000036 Rises=F Damp=F
 DIIS: error= 2.75D-08 at cycle  16 NSaved=  16.
 NSaved=16 IEnMin=16 EnMin= -1004.00813821520     IErMin=16 ErrMin= 2.75D-08
 ErrMax= 2.75D-08  0.00D+00 EMaxC= 1.00D-01 BMatC= 1.93D-12 BMatP= 1.89D-11
 IDIUse=1 WtCom= 1.00D+00 WtEn= 0.00D+00
 Coeff-Com: -0.811D-06 0.113D-05-0.762D-06 0.125D-06-0.700D-06-0.387D-05
 Coeff-Com: -0.110D-04 0.918D-05 0.365D-04-0.188D-03-0.144D-02-0.389D-02
 Coeff-Com: -0.812D-04 0.368D-01 0.216D+00 0.752D+00
 Coeff:     -0.811D-06 0.113D-05-0.762D-06 0.125D-06-0.700D-06-0.387D-05
 Coeff:     -0.110D-04 0.918D-05 0.365D-04-0.188D-03-0.144D-02-0.389D-02
 Coeff:     -0.812D-04 0.368D-01 0.216D+00 0.752D+00
 Gap=     0.098 Goal=   None    Shift=    0.000
 Gap=     0.098 Goal=   None    Shift=    0.000
 RMSDP=3.02D-08 MaxDP=4.46D-06 DE=-3.64D-11 OVMax= 5.42D-07

 Cycle  17  Pass 1  IDiag  1:
 RMSU=  9.32D-09    CP:  7.90D-01 -1.33D-03  7.68D-01  8.09D-02  6.68D-01
                    CP:  7.81D-01  9.78D-01  9.10D-01  8.18D-01  1.11D+00
                    CP:  1.12D+00  1.15D+00  9.95D-01  9.64D-01  1.16D+00
                    CP:  1.09D+00
 E= -1004.00813821521     Delta-E=       -0.000000000007 Rises=F Damp=F
 DIIS: error= 8.23D-09 at cycle  17 NSaved=  17.
 NSaved=17 IEnMin=17 EnMin= -1004.00813821521     IErMin=17 ErrMin= 8.23D-09
 ErrMax= 8.23D-09  0.00D+00 EMaxC= 1.00D-01 BMatC= 1.40D-13 BMatP= 1.93D-12
 IDIUse=1 WtCom= 1.00D+00 WtEn= 0.00D+00
 Coeff-Com: -0.205D-06 0.304D-06-0.314D-06 0.622D-07-0.307D-06-0.349D-06
 Coeff-Com: -0.280D-05 0.104D-04 0.271D-04 0.800D-04-0.503D-03-0.204D-02
 Coeff-Com: -0.594D-02-0.198D-02 0.450D-01 0.271D+00 0.694D+00
 Coeff:     -0.205D-06 0.304D-06-0.314D-06 0.622D-07-0.307D-06-0.349D-06
 Coeff:     -0.280D-05 0.104D-04 0.271D-04 0.800D-04-0.503D-03-0.204D-02
 Coeff:     -0.594D-02-0.198D-02 0.450D-01 0.271D+00 0.694D+00
 Gap=     0.098 Goal=   None    Shift=    0.000
 Gap=     0.098 Goal=   None    Shift=    0.000
 RMSDP=1.00D-08 MaxDP=1.16D-06 DE=-7.28D-12 OVMax= 1.44D-07

 Cycle  18  Pass 1  IDiag  1:
 RMSU=  3.20D-09    CP:  7.90D-01 -1.33D-03  7.68D-01  8.09D-02  6.68D-01
                    CP:  7.81D-01  9.78D-01  9.10D-01  8.18D-01  1.11D+00
                    CP:  1.12D+00  1.15D+00  9.96D-01  9.66D-01  1.18D+00
                    CP:  1.19D+00  1.09D+00
 E= -1004.00813821520     Delta-E=        0.000000000012 Rises=F Damp=F
 DIIS: error= 3.83D-09 at cycle  18 NSaved=  18.
 NSaved=18 IEnMin=17 EnMin= -1004.00813821521     IErMin=18 ErrMin= 3.83D-09
 ErrMax= 3.83D-09  0.00D+00 EMaxC= 1.00D-01 BMatC= 4.10D-14 BMatP= 1.40D-13
 IDIUse=1 WtCom= 1.00D+00 WtEn= 0.00D+00
 Coeff-Com:  0.126D-07-0.722D-08-0.487D-07 0.130D-07-0.181D-07 0.147D-06
 Coeff-Com: -0.745D-06 0.266D-05 0.642D-05 0.788D-04-0.399D-04-0.331D-03
 Coeff-Com: -0.337D-02-0.694D-02-0.156D-01 0.175D-01 0.426D+00 0.583D+00
 Coeff:      0.126D-07-0.722D-08-0.487D-07 0.130D-07-0.181D-07 0.147D-06
 Coeff:     -0.745D-06 0.266D-05 0.642D-05 0.788D-04-0.399D-04-0.331D-03
 Coeff:     -0.337D-02-0.694D-02-0.156D-01 0.175D-01 0.426D+00 0.583D+00
 Gap=     0.098 Goal=   None    Shift=    0.000
 Gap=     0.098 Goal=   None    Shift=    0.000
 RMSDP=2.63D-09 MaxDP=3.44D-07 DE= 1.21D-11 OVMax= 5.86D-08

 Error on total polarization charges =  0.03281
 SCF Done:  E(UB3LYP) =  -1004.00813822     A.U. after   18 cycles
            NFock= 18  Conv=0.26D-08     -V/T= 2.0045
 <Sx>= 0.0000 <Sy>= 0.0000 <Sz>= 0.0000 <S**2>=-0.0000 S=-0.0000
 <L.S>=  0.00000000000    
 KE= 9.995234523089D+02 PE=-5.977893184019D+03 EE= 2.175375456834D+03
 Annihilation of the first spin contaminant:
 S**2 before annihilation    -0.0000,   after     0.0000
 Leave Link  502 at Sun Jan 21 09:15:50 2024, MaxMem=  4026531840 cpu:            4597.9 elap:             581.5
 (Enter /sysapps/ubuntu-applications/gaussian/Gaussian/AVX2/g16/l601.exe)
 Copying SCF densities to generalized density rwf, IOpCl= 1 IROHF=0.

 **********************************************************************

            Population analysis using the SCF density.

 **********************************************************************

 Orbital symmetries:
 Alpha Orbitals:
       Occupied  (A) (A) (A) (A) (A) (A) (A) (A) (A) (A) (A) (A)
                 (A) (A) (A) (A) (A) (A) (A) (A) (A) (A) (A) (A)
                 (A) (A) (A) (A) (A) (A) (A) (A) (A) (A) (A) (A)
                 (A) (A) (A) (A) (A) (A) (A) (A) (A) (A) (A) (A)
                 (A) (A) (A) (A) (A) (A) (A) (A) (A) (A) (A) (A)
                 (A) (A) (A) (A) (A) (A) (A) (A) (A) (A) (A) (A)
                 (A) (A) (A) (A) (A) (A) (A) (A) (A) (A) (A) (A)
                 (A) (A)
       Virtual   (A) (A) (A) (A) (A) (A) (A) (A) (A) (A) (A) (A)
                 (A) (A) (A) (A) (A) (A) (A) (A) (A) (A) (A) (A)
                 (A) (A) (A) (A) (A) (A) (A) (A) (A) (A) (A) (A)
                 (A) (A) (A) (A) (A) (A) (A) (A) (A) (A) (A) (A)
                 (A) (A) (A) (A) (A) (A) (A) (A) (A) (A) (A) (A)
                 (A) (A) (A) (A) (A) (A) (A) (A) (A) (A) (A) (A)
                 (A) (A) (A) (A) (A) (A) (A) (A) (A) (A) (A) (A)
                 (A) (A) (A) (A) (A) (A) (A) (A) (A) (A) (A) (A)
                 (A) (A) (A) (A) (A) (A) (A) (A) (A) (A) (A) (A)
                 (A) (A) (A) (A) (A) (A) (A) (A) (A) (A) (A) (A)
                 (A) (A) (A) (A) (A) (A) (A) (A) (A) (A) (A) (A)
                 (A) (A) (A) (A) (A) (A) (A) (A) (A) (A) (A) (A)
                 (A) (A) (A) (A) (A) (A) (A) (A) (A) (A) (A) (A)
                 (A) (A) (A) (A) (A) (A) (A) (A) (A) (A) (A) (A)
                 (A) (A) (A) (A) (A) (A) (A) (A) (A) (A) (A) (A)
                 (A) (A) (A) (A) (A) (A) (A) (A) (A) (A) (A) (A)
                 (A) (A) (A) (A) (A) (A) (A) (A) (A) (A) (A) (A)
                 (A) (A) (A) (A) (A) (A) (A) (A) (A) (A) (A) (A)
                 (A) (A) (A) (A) (A) (A) (A) (A) (A) (A) (A) (A)
                 (A) (A) (A) (A) (A) (A) (A) (A) (A) (A) (A) (A)
                 (A) (A) (A) (A) (A) (A) (A) (A) (A) (A) (A) (A)
                 (A) (A) (A) (A) (A) (A) (A) (A) (A) (A) (A) (A)
                 (A) (A) (A) (A) (A) (A) (A) (A) (A) (A) (A) (A)
                 (A) (A) (A) (A) (A) (A) (A) (A) (A) (A) (A) (A)
                 (A) (A) (A) (A) (A) (A) (A) (A) (A) (A) (A) (A)
                 (A) (A) (A) (A) (A) (A) (A) (A) (A) (A) (A) (A)
                 (A) (A) (A) (A) (A) (A) (A) (A) (A) (A) (A) (A)
                 (A) (A) (A) (A) (A) (A) (A) (A) (A) (A) (A) (A)
                 (A) (A) (A) (A) (A) (A) (A) (A) (A) (A) (A) (A)
                 (A) (A) (A) (A) (A) (A) (A) (A) (A) (A) (A) (A)
                 (A) (A) (A) (A) (A) (A) (A) (A) (A) (A) (A) (A)
                 (A) (A) (A) (A) (A) (A) (A) (A) (A) (A) (A) (A)
                 (A) (A) (A) (A) (A) (A) (A) (A) (A) (A) (A) (A)
                 (A) (A) (A) (A) (A) (A) (A) (A) (A) (A) (A) (A)
                 (A) (A) (A) (A) (A) (A) (A) (A) (A) (A) (A) (A)
                 (A) (A) (A) (A) (A) (A) (A) (A) (A) (A) (A) (A)
                 (A) (A) (A) (A) (A) (A) (A) (A) (A) (A) (A) (A)
                 (A) (A) (A) (A) (A) (A) (A) (A) (A) (A) (A) (A)
                 (A) (A) (A) (A) (A) (A) (A) (A) (A) (A) (A) (A)
                 (A) (A) (A) (A) (A) (A) (A) (A) (A) (A) (A) (A)
                 (A) (A) (A) (A) (A) (A) (A) (A) (A) (A) (A) (A)
                 (A) (A) (A) (A) (A) (A) (A) (A) (A) (A) (A) (A)
                 (A) (A) (A) (A) (A) (A) (A) (A) (A) (A) (A) (A)
                 (A) (A) (A) (A) (A) (A) (A) (A) (A) (A) (A) (A)
                 (A) (A) (A) (A) (A) (A) (A) (A) (A) (A) (A) (A)
                 (A) (A) (A) (A) (A) (A) (A) (A) (A) (A) (A) (A)
                 (A) (A) (A) (A) (A) (A) (A) (A) (A) (A) (A) (A)
                 (A) (A) (A) (A) (A) (A) (A) (A) (A) (A) (A) (A)
                 (A) (A) (A) (A) (A) (A) (A) (A) (A) (A) (A) (A)
                 (A) (A) (A) (A) (A) (A) (A) (A) (A) (A)
 Beta  Orbitals:
       Occupied  (A) (A) (A) (A) (A) (A) (A) (A) (A) (A) (A) (A)
                 (A) (A) (A) (A) (A) (A) (A) (A) (A) (A) (A) (A)
                 (A) (A) (A) (A) (A) (A) (A) (A) (A) (A) (A) (A)
                 (A) (A) (A) (A) (A) (A) (A) (A) (A) (A) (A) (A)
                 (A) (A) (A) (A) (A) (A) (A) (A) (A) (A) (A) (A)
                 (A) (A) (A) (A) (A) (A) (A) (A) (A) (A) (A) (A)
                 (A) (A) (A) (A) (A) (A) (A) (A) (A) (A) (A) (A)
                 (A) (A)
       Virtual   (A) (A) (A) (A) (A) (A) (A) (A) (A) (A) (A) (A)
                 (A) (A) (A) (A) (A) (A) (A) (A) (A) (A) (A) (A)
                 (A) (A) (A) (A) (A) (A) (A) (A) (A) (A) (A) (A)
                 (A) (A) (A) (A) (A) (A) (A) (A) (A) (A) (A) (A)
                 (A) (A) (A) (A) (A) (A) (A) (A) (A) (A) (A) (A)
                 (A) (A) (A) (A) (A) (A) (A) (A) (A) (A) (A) (A)
                 (A) (A) (A) (A) (A) (A) (A) (A) (A) (A) (A) (A)
                 (A) (A) (A) (A) (A) (A) (A) (A) (A) (A) (A) (A)
                 (A) (A) (A) (A) (A) (A) (A) (A) (A) (A) (A) (A)
                 (A) (A) (A) (A) (A) (A) (A) (A) (A) (A) (A) (A)
                 (A) (A) (A) (A) (A) (A) (A) (A) (A) (A) (A) (A)
                 (A) (A) (A) (A) (A) (A) (A) (A) (A) (A) (A) (A)
                 (A) (A) (A) (A) (A) (A) (A) (A) (A) (A) (A) (A)
                 (A) (A) (A) (A) (A) (A) (A) (A) (A) (A) (A) (A)
                 (A) (A) (A) (A) (A) (A) (A) (A) (A) (A) (A) (A)
                 (A) (A) (A) (A) (A) (A) (A) (A) (A) (A) (A) (A)
                 (A) (A) (A) (A) (A) (A) (A) (A) (A) (A) (A) (A)
                 (A) (A) (A) (A) (A) (A) (A) (A) (A) (A) (A) (A)
                 (A) (A) (A) (A) (A) (A) (A) (A) (A) (A) (A) (A)
                 (A) (A) (A) (A) (A) (A) (A) (A) (A) (A) (A) (A)
                 (A) (A) (A) (A) (A) (A) (A) (A) (A) (A) (A) (A)
                 (A) (A) (A) (A) (A) (A) (A) (A) (A) (A) (A) (A)
                 (A) (A) (A) (A) (A) (A) (A) (A) (A) (A) (A) (A)
                 (A) (A) (A) (A) (A) (A) (A) (A) (A) (A) (A) (A)
                 (A) (A) (A) (A) (A) (A) (A) (A) (A) (A) (A) (A)
                 (A) (A) (A) (A) (A) (A) (A) (A) (A) (A) (A) (A)
                 (A) (A) (A) (A) (A) (A) (A) (A) (A) (A) (A) (A)
                 (A) (A) (A) (A) (A) (A) (A) (A) (A) (A) (A) (A)
                 (A) (A) (A) (A) (A) (A) (A) (A) (A) (A) (A) (A)
                 (A) (A) (A) (A) (A) (A) (A) (A) (A) (A) (A) (A)
                 (A) (A) (A) (A) (A) (A) (A) (A) (A) (A) (A) (A)
                 (A) (A) (A) (A) (A) (A) (A) (A) (A) (A) (A) (A)
                 (A) (A) (A) (A) (A) (A) (A) (A) (A) (A) (A) (A)
                 (A) (A) (A) (A) (A) (A) (A) (A) (A) (A) (A) (A)
                 (A) (A) (A) (A) (A) (A) (A) (A) (A) (A) (A) (A)
                 (A) (A) (A) (A) (A) (A) (A) (A) (A) (A) (A) (A)
                 (A) (A) (A) (A) (A) (A) (A) (A) (A) (A) (A) (A)
                 (A) (A) (A) (A) (A) (A) (A) (A) (A) (A) (A) (A)
                 (A) (A) (A) (A) (A) (A) (A) (A) (A) (A) (A) (A)
                 (A) (A) (A) (A) (A) (A) (A) (A) (A) (A) (A) (A)
                 (A) (A) (A) (A) (A) (A) (A) (A) (A) (A) (A) (A)
                 (A) (A) (A) (A) (A) (A) (A) (A) (A) (A) (A) (A)
                 (A) (A) (A) (A) (A) (A) (A) (A) (A) (A) (A) (A)
                 (A) (A) (A) (A) (A) (A) (A) (A) (A) (A) (A) (A)
                 (A) (A) (A) (A) (A) (A) (A) (A) (A) (A) (A) (A)
                 (A) (A) (A) (A) (A) (A) (A) (A) (A) (A) (A) (A)
                 (A) (A) (A) (A) (A) (A) (A) (A) (A) (A) (A) (A)
                 (A) (A) (A) (A) (A) (A) (A) (A) (A) (A) (A) (A)
                 (A) (A) (A) (A) (A) (A) (A) (A) (A) (A) (A) (A)
                 (A) (A) (A) (A) (A) (A) (A) (A) (A) (A)
 The electronic state is 1-A.
 Alpha  occ. eigenvalues --  -19.10815 -19.02168 -19.01373 -10.17156 -10.16830
 Alpha  occ. eigenvalues --  -10.16771 -10.15910 -10.15672 -10.15532 -10.15444
 Alpha  occ. eigenvalues --  -10.15231 -10.15174 -10.15130 -10.14600 -10.14528
 Alpha  occ. eigenvalues --  -10.14314 -10.14145 -10.14111 -10.14042 -10.13777
 Alpha  occ. eigenvalues --  -10.13124 -10.12731 -10.11919  -1.02242  -0.93718
 Alpha  occ. eigenvalues --   -0.92819  -0.82040  -0.81300  -0.79684  -0.76786
 Alpha  occ. eigenvalues --   -0.74376  -0.72035  -0.71782  -0.68152  -0.67843
 Alpha  occ. eigenvalues --   -0.66753  -0.63538  -0.61551  -0.58750  -0.57622
 Alpha  occ. eigenvalues --   -0.55494  -0.55201  -0.54207  -0.53073  -0.49902
 Alpha  occ. eigenvalues --   -0.47211  -0.46663  -0.45480  -0.44455  -0.43642
 Alpha  occ. eigenvalues --   -0.43203  -0.42857  -0.41953  -0.41742  -0.40386
 Alpha  occ. eigenvalues --   -0.40010  -0.39670  -0.38691  -0.38024  -0.37682
 Alpha  occ. eigenvalues --   -0.37213  -0.36922  -0.35804  -0.35462  -0.35285
 Alpha  occ. eigenvalues --   -0.34687  -0.34545  -0.34113  -0.33600  -0.33518
 Alpha  occ. eigenvalues --   -0.32130  -0.31819  -0.31432  -0.31236  -0.30882
 Alpha  occ. eigenvalues --   -0.30451  -0.30091  -0.29760  -0.29368  -0.28693
 Alpha  occ. eigenvalues --   -0.22608  -0.22040  -0.21019  -0.19179  -0.18769
 Alpha  occ. eigenvalues --   -0.10205
 Alpha virt. eigenvalues --   -0.00366  -0.00151   0.00141   0.00770   0.00958
 Alpha virt. eigenvalues --    0.01315   0.01580   0.02222   0.02382   0.02558
 Alpha virt. eigenvalues --    0.02738   0.03699   0.03875   0.04095   0.04272
 Alpha virt. eigenvalues --    0.04614   0.05043   0.05237   0.05625   0.05779
 Alpha virt. eigenvalues --    0.06226   0.06756   0.06901   0.07164   0.07534
 Alpha virt. eigenvalues --    0.07967   0.08299   0.08743   0.09060   0.09284
 Alpha virt. eigenvalues --    0.09618   0.09727   0.09804   0.09975   0.10664
 Alpha virt. eigenvalues --    0.10890   0.11015   0.11404   0.11602   0.11853
 Alpha virt. eigenvalues --    0.11908   0.12152   0.12378   0.12741   0.12955
 Alpha virt. eigenvalues --    0.13175   0.13263   0.13601   0.13668   0.13881
 Alpha virt. eigenvalues --    0.14090   0.14163   0.14430   0.14544   0.14710
 Alpha virt. eigenvalues --    0.14945   0.15116   0.15461   0.15477   0.15520
 Alpha virt. eigenvalues --    0.15941   0.16099   0.16403   0.16580   0.16654
 Alpha virt. eigenvalues --    0.17033   0.17393   0.17478   0.17830   0.18105
 Alpha virt. eigenvalues --    0.18238   0.18311   0.18605   0.18800   0.19101
 Alpha virt. eigenvalues --    0.19324   0.19756   0.19857   0.19918   0.20495
 Alpha virt. eigenvalues --    0.20669   0.20994   0.21049   0.21282   0.21735
 Alpha virt. eigenvalues --    0.21919   0.22240   0.22482   0.22687   0.22713
 Alpha virt. eigenvalues --    0.23100   0.23372   0.23588   0.24044   0.24311
 Alpha virt. eigenvalues --    0.24397   0.24762   0.25020   0.25352   0.25395
 Alpha virt. eigenvalues --    0.25711   0.25796   0.26238   0.26326   0.26606
 Alpha virt. eigenvalues --    0.26877   0.27433   0.27554   0.27836   0.28116
 Alpha virt. eigenvalues --    0.28240   0.28579   0.28831   0.29118   0.29366
 Alpha virt. eigenvalues --    0.29876   0.29889   0.30335   0.30703   0.30895
 Alpha virt. eigenvalues --    0.31216   0.31480   0.31913   0.32036   0.32393
 Alpha virt. eigenvalues --    0.32567   0.33023   0.33230   0.33260   0.33721
 Alpha virt. eigenvalues --    0.34136   0.34219   0.34616   0.34968   0.34982
 Alpha virt. eigenvalues --    0.35512   0.35652   0.36064   0.36281   0.36486
 Alpha virt. eigenvalues --    0.36662   0.36951   0.37782   0.38049   0.38266
 Alpha virt. eigenvalues --    0.38537   0.38811   0.38968   0.39520   0.40199
 Alpha virt. eigenvalues --    0.40580   0.41550   0.41730   0.42393   0.42872
 Alpha virt. eigenvalues --    0.43452   0.44045   0.44411   0.44876   0.45402
 Alpha virt. eigenvalues --    0.45835   0.46025   0.46824   0.47686   0.48148
 Alpha virt. eigenvalues --    0.48632   0.49603   0.50459   0.51988   0.52374
 Alpha virt. eigenvalues --    0.53498   0.54329   0.54399   0.55163   0.55655
 Alpha virt. eigenvalues --    0.56105   0.56746   0.57021   0.57095   0.57439
 Alpha virt. eigenvalues --    0.57843   0.58449   0.59655   0.60493   0.60846
 Alpha virt. eigenvalues --    0.61080   0.61814   0.61928   0.62543   0.62804
 Alpha virt. eigenvalues --    0.63646   0.64109   0.64993   0.65402   0.66014
 Alpha virt. eigenvalues --    0.66359   0.66951   0.67451   0.67574   0.67837
 Alpha virt. eigenvalues --    0.68195   0.68391   0.68876   0.69382   0.69578
 Alpha virt. eigenvalues --    0.70057   0.70361   0.70479   0.70849   0.71209
 Alpha virt. eigenvalues --    0.72025   0.72128   0.72748   0.73032   0.73901
 Alpha virt. eigenvalues --    0.74525   0.74767   0.75551   0.75807   0.76164
 Alpha virt. eigenvalues --    0.76582   0.76906   0.77400   0.77591   0.77985
 Alpha virt. eigenvalues --    0.78212   0.78620   0.78970   0.79678   0.80206
 Alpha virt. eigenvalues --    0.80924   0.81176   0.81382   0.81808   0.82144
 Alpha virt. eigenvalues --    0.83020   0.83320   0.84618   0.84947   0.85242
 Alpha virt. eigenvalues --    0.86506   0.86754   0.88123   0.88388   0.89028
 Alpha virt. eigenvalues --    0.89896   0.92009   0.92394   0.92940   0.93852
 Alpha virt. eigenvalues --    0.95813   0.96462   0.97082   0.97465   0.97940
 Alpha virt. eigenvalues --    0.98694   1.00189   1.00773   1.01367   1.02029
 Alpha virt. eigenvalues --    1.02361   1.02945   1.04066   1.04244   1.06115
 Alpha virt. eigenvalues --    1.07157   1.07592   1.08105   1.09556   1.09902
 Alpha virt. eigenvalues --    1.10437   1.11658   1.12015   1.12638   1.13077
 Alpha virt. eigenvalues --    1.14125   1.14758   1.15717   1.16475   1.16949
 Alpha virt. eigenvalues --    1.18217   1.19093   1.19566   1.20458   1.21147
 Alpha virt. eigenvalues --    1.21281   1.23708   1.24210   1.25845   1.26830
 Alpha virt. eigenvalues --    1.27315   1.28094   1.29210   1.30647   1.30837
 Alpha virt. eigenvalues --    1.31325   1.32602   1.33005   1.33304   1.34833
 Alpha virt. eigenvalues --    1.36648   1.37769   1.39885   1.43575   1.45299
 Alpha virt. eigenvalues --    1.45844   1.46536   1.47072   1.47490   1.48185
 Alpha virt. eigenvalues --    1.48453   1.49189   1.49897   1.51019   1.51663
 Alpha virt. eigenvalues --    1.52572   1.52670   1.53002   1.53950   1.55097
 Alpha virt. eigenvalues --    1.55819   1.56224   1.57452   1.57729   1.58236
 Alpha virt. eigenvalues --    1.58975   1.59228   1.59563   1.60953   1.61320
 Alpha virt. eigenvalues --    1.62285   1.62513   1.63085   1.64527   1.65002
 Alpha virt. eigenvalues --    1.65623   1.65778   1.66194   1.66633   1.67723
 Alpha virt. eigenvalues --    1.68502   1.68532   1.69633   1.69889   1.70146
 Alpha virt. eigenvalues --    1.70447   1.70952   1.71209   1.72570   1.73300
 Alpha virt. eigenvalues --    1.73928   1.75122   1.75481   1.76117   1.76455
 Alpha virt. eigenvalues --    1.77819   1.77920   1.78223   1.78324   1.79783
 Alpha virt. eigenvalues --    1.80017   1.80497   1.80584   1.81388   1.82048
 Alpha virt. eigenvalues --    1.82813   1.83637   1.84287   1.85071   1.86288
 Alpha virt. eigenvalues --    1.86853   1.87978   1.89287   1.89896   1.90550
 Alpha virt. eigenvalues --    1.92536   1.93986   1.94883   1.96216   1.96340
 Alpha virt. eigenvalues --    1.97285   1.97560   1.98154   1.98990   2.00300
 Alpha virt. eigenvalues --    2.00436   2.01025   2.01694   2.03248   2.04175
 Alpha virt. eigenvalues --    2.04635   2.05379   2.07400   2.08577   2.09495
 Alpha virt. eigenvalues --    2.10828   2.11936   2.12330   2.13330   2.13929
 Alpha virt. eigenvalues --    2.15432   2.16193   2.16829   2.18332   2.18532
 Alpha virt. eigenvalues --    2.20696   2.20859   2.22092   2.23347   2.24258
 Alpha virt. eigenvalues --    2.25296   2.26992   2.28059   2.29492   2.30172
 Alpha virt. eigenvalues --    2.31567   2.33143   2.33690   2.34638   2.35055
 Alpha virt. eigenvalues --    2.36350   2.37783   2.38785   2.40295   2.40503
 Alpha virt. eigenvalues --    2.40957   2.41880   2.42684   2.45063   2.46428
 Alpha virt. eigenvalues --    2.47421   2.48715   2.49485   2.50162   2.50524
 Alpha virt. eigenvalues --    2.50814   2.51335   2.52761   2.53081   2.54186
 Alpha virt. eigenvalues --    2.55245   2.56048   2.56330   2.57062   2.58621
 Alpha virt. eigenvalues --    2.59172   2.60723   2.62752   2.63749   2.64694
 Alpha virt. eigenvalues --    2.65173   2.66017   2.66779   2.67872   2.68685
 Alpha virt. eigenvalues --    2.69171   2.69726   2.71597   2.72305   2.72711
 Alpha virt. eigenvalues --    2.73223   2.74467   2.74964   2.75671   2.76072
 Alpha virt. eigenvalues --    2.76632   2.77110   2.77366   2.78802   2.79033
 Alpha virt. eigenvalues --    2.79220   2.79729   2.80090   2.80972   2.81509
 Alpha virt. eigenvalues --    2.83003   2.84076   2.85287   2.86774   2.87243
 Alpha virt. eigenvalues --    2.87913   2.88417   2.90790   2.91589   2.92463
 Alpha virt. eigenvalues --    2.93323   2.93704   2.94607   2.95579   2.96695
 Alpha virt. eigenvalues --    2.97027   2.98748   2.99474   3.00037   3.00611
 Alpha virt. eigenvalues --    3.02167   3.03004   3.03599   3.05053   3.05117
 Alpha virt. eigenvalues --    3.07771   3.10210   3.11139   3.11341   3.12746
 Alpha virt. eigenvalues --    3.14261   3.16566   3.17857   3.19722   3.20490
 Alpha virt. eigenvalues --    3.20794   3.23118   3.24721   3.26210   3.28985
 Alpha virt. eigenvalues --    3.31932   3.33714   3.36323   3.36626   3.38602
 Alpha virt. eigenvalues --    3.39463   3.43982   3.46316   3.49638   3.51046
 Alpha virt. eigenvalues --    3.52663   3.54007   3.55227   3.56784   3.58356
 Alpha virt. eigenvalues --    3.60467   3.64550   3.68702   3.78020   3.78742
 Alpha virt. eigenvalues --    3.80370   3.81467   3.82443   3.83008   3.83452
 Alpha virt. eigenvalues --    3.83845   3.86133   3.86708   3.87884   3.90221
 Alpha virt. eigenvalues --    3.91269   3.93802   3.97406   3.99356   3.99762
 Alpha virt. eigenvalues --    4.07152   4.10375   4.11083   4.17781   4.23479
 Alpha virt. eigenvalues --    4.23843   4.25744   4.30672   4.31969   4.33840
 Alpha virt. eigenvalues --    4.36026   4.38466   4.42007   4.48625   4.86835
 Alpha virt. eigenvalues --    4.88951   5.05974   5.15483   5.18589   5.34628
 Alpha virt. eigenvalues --    5.37025   5.57458   5.72097   5.83260   5.88383
 Alpha virt. eigenvalues --   23.60061  23.82928  23.84105  23.86425  23.90618
[...]
    23   Atom       -0.000000      0.000000     -0.000000
    24   Atom       -0.000000      0.000000      0.000000
    25   Atom       -0.000000      0.000000     -0.000000
    26   Atom        0.000000     -0.000000     -0.000000
    27   Atom       -0.000000     -0.000000      0.000000
    28   Atom        0.000000      0.000000     -0.000000
    29   Atom       -0.000000     -0.000000      0.000000
    30   Atom        0.000000      0.000000     -0.000000
    31   Atom       -0.000000     -0.000000      0.000000
    32   Atom        0.000000      0.000000     -0.000000
    33   Atom       -0.000000      0.000000     -0.000000
    34   Atom        0.000000      0.000000     -0.000000
    35   Atom       -0.000000      0.000000     -0.000000
    36   Atom       -0.000000      0.000000     -0.000000
    37   Atom        0.000000     -0.000000      0.000000
    38   Atom       -0.000000      0.000000      0.000000
    39   Atom       -0.000000      0.000000     -0.000000
    40   Atom        0.000000      0.000000     -0.000000
    41   Atom       -0.000000      0.000000      0.000000
    42   Atom       -0.000000      0.000000      0.000000
    43   Atom        0.000000     -0.000000     -0.000000
    44   Atom       -0.000000      0.000000      0.000000
    45   Atom        0.000000     -0.000000      0.000000
    46   Atom        0.000000     -0.000000     -0.000000
    47   Atom       -0.000000      0.000000      0.000000
    48   Atom        0.000000     -0.000000     -0.000000
    49   Atom        0.000000     -0.000000      0.000000
 --------------------------------------------------------
                        XY            XZ            YZ
 --------------------------------------------------------
     1   Atom       -0.000000      0.000000     -0.000000
     2   Atom        0.000000      0.000000     -0.000000
     3   Atom        0.000000      0.000000      0.000000
     4   Atom        0.000000     -0.000000      0.000000
     5   Atom        0.000000      0.000000      0.000000
     6   Atom        0.000000     -0.000000      0.000000
     7   Atom        0.000000     -0.000000     -0.000000
     8   Atom        0.000000     -0.000000      0.000000
     9   Atom       -0.000000     -0.000000     -0.000000
    10   Atom        0.000000     -0.000000     -0.000000
    11   Atom       -0.000000     -0.000000     -0.000000
    12   Atom        0.000000      0.000000      0.000000
    13   Atom        0.000000     -0.000000      0.000000
    14   Atom       -0.000000      0.000000     -0.000000
    15   Atom        0.000000      0.000000      0.000000
    16   Atom       -0.000000      0.000000     -0.000000
    17   Atom        0.000000     -0.000000      0.000000
    18   Atom       -0.000000      0.000000     -0.000000
    19   Atom        0.000000      0.000000     -0.000000
    20   Atom       -0.000000     -0.000000     -0.000000
    21   Atom       -0.000000      0.000000      0.000000
    22   Atom       -0.000000     -0.000000     -0.000000
    23   Atom       -0.000000     -0.000000      0.000000
    24   Atom        0.000000      0.000000      0.000000
    25   Atom       -0.000000     -0.000000      0.000000
    26   Atom       -0.000000      0.000000      0.000000
    27   Atom        0.000000      0.000000      0.000000
    28   Atom       -0.000000     -0.000000      0.000000
    29   Atom       -0.000000      0.000000     -0.000000
    30   Atom       -0.000000      0.000000     -0.000000
    31   Atom        0.000000     -0.000000      0.000000
    32   Atom        0.000000      0.000000      0.000000
    33   Atom        0.000000      0.000000      0.000000
    34   Atom       -0.000000     -0.000000      0.000000
    35   Atom        0.000000     -0.000000      0.000000
    36   Atom       -0.000000      0.000000      0.000000
    37   Atom       -0.000000     -0.000000      0.000000
    38   Atom        0.000000     -0.000000     -0.000000
    39   Atom        0.000000      0.000000     -0.000000
    40   Atom        0.000000      0.000000      0.000000
    41   Atom       -0.000000     -0.000000     -0.000000
    42   Atom       -0.000000     -0.000000     -0.000000
    43   Atom        0.000000     -0.000000      0.000000
    44   Atom       -0.000000     -0.000000     -0.000000
    45   Atom        0.000000      0.000000     -0.000000
    46   Atom        0.000000     -0.000000     -0.000000
    47   Atom        0.000000      0.000000      0.000000
    48   Atom       -0.000000      0.000000     -0.000000
    49   Atom        0.000000      0.000000     -0.000000
 --------------------------------------------------------


 ---------------------------------------------------------------------------------
              Anisotropic Spin Dipole Couplings in Principal Axis System
 ---------------------------------------------------------------------------------

       Atom             a.u.   MegaHertz   Gauss  10(-4) cm-1        Axes

              Baa    -0.0000    -0.000    -0.000    -0.000  0.5995  0.7797 -0.1809
     1 C(13)  Bbb     0.0000     0.000     0.000     0.000 -0.1601  0.3383  0.9273
              Bcc     0.0000     0.000     0.000     0.000  0.7842 -0.5270  0.3276
 
              Baa    -0.0000    -0.000    -0.000    -0.000  0.7396 -0.6154 -0.2725
     2 C(13)  Bbb    -0.0000    -0.000    -0.000    -0.000  0.1696 -0.2214  0.9603
              Bcc     0.0000     0.000     0.000     0.000  0.6513  0.7565  0.0593
 
              Baa    -0.0000    -0.000    -0.000    -0.000 -0.0883  0.9926 -0.0833
     3 C(13)  Bbb    -0.0000    -0.000    -0.000    -0.000 -0.4561  0.0340  0.8893
              Bcc     0.0000     0.000     0.000     0.000  0.8855  0.1165  0.4498
 
              Baa    -0.0000    -0.000    -0.000    -0.000 -0.5423  0.5974 -0.5908
     4 C(13)  Bbb     0.0000     0.000     0.000     0.000  0.0562  0.7274  0.6839
              Bcc     0.0000     0.000     0.000     0.000  0.8383  0.3376 -0.4281
 
              Baa    -0.0000    -0.000    -0.000    -0.000 -0.6356  0.7144 -0.2926
     5 C(13)  Bbb    -0.0000    -0.000    -0.000    -0.000  0.7020  0.3771 -0.6041
              Bcc     0.0000     0.000     0.000     0.000  0.3213  0.5894  0.7412
 
              Baa    -0.0000    -0.000    -0.000    -0.000 -0.2588  0.9054 -0.3364
     6 C(13)  Bbb     0.0000     0.000     0.000     0.000 -0.4318  0.2031  0.8788
              Bcc     0.0000     0.000     0.000     0.000  0.8640  0.3727  0.3384
 
              Baa    -0.0000    -0.000    -0.000    -0.000  0.7099  0.1337  0.6915
     7 C(13)  Bbb    -0.0000    -0.000    -0.000    -0.000 -0.1838  0.9830 -0.0013
              Bcc     0.0000     0.000     0.000     0.000 -0.6799 -0.1261  0.7224
 
              Baa    -0.0000    -0.000    -0.000    -0.000  0.7912 -0.3506  0.5011
     8 C(13)  Bbb     0.0000     0.000     0.000     0.000 -0.6062 -0.3420  0.7180
              Bcc     0.0000     0.000     0.000     0.000  0.0804  0.8719  0.4831
 
              Baa    -0.0000    -0.000    -0.000    -0.000  0.5463  0.8212  0.1649
     9 C(13)  Bbb     0.0000     0.000     0.000     0.000  0.8376 -0.5352 -0.1098
              Bcc     0.0000     0.000     0.000     0.000  0.0019 -0.1981  0.9802
 
              Baa    -0.0000    -0.000    -0.000    -0.000  0.1281  0.2212  0.9668
    10 C(13)  Bbb     0.0000     0.000     0.000     0.000  0.8032 -0.5949  0.0297
              Bcc     0.0000     0.000     0.000     0.000  0.5817  0.7727 -0.2540
 
              Baa    -0.0000     0.000     0.000     0.000  0.5843  0.4351  0.6850
    11 O(17)  Bbb     0.0000    -0.000    -0.000    -0.000 -0.3380  0.8979 -0.2820
              Bcc     0.0000    -0.000    -0.000    -0.000  0.7378  0.0668 -0.6717
 
              Baa    -0.0000     0.000     0.000     0.000 -0.3155  0.2118  0.9250
    12 O(17)  Bbb    -0.0000     0.000     0.000     0.000 -0.3106  0.8980 -0.3116
              Bcc     0.0000    -0.000    -0.000    -0.000  0.8966  0.3856  0.2176
 
              Baa    -0.0000    -0.000    -0.000    -0.000 -0.4776  0.8130 -0.3331
    13 H(1)   Bbb    -0.0000    -0.000    -0.000    -0.000  0.8372  0.5361  0.1083
              Bcc     0.0000     0.000     0.000     0.000 -0.2666  0.2271  0.9367
 
              Baa    -0.0000    -0.000    -0.000    -0.000  0.9463  0.3034  0.1121
    14 H(1)   Bbb    -0.0000    -0.000    -0.000    -0.000 -0.2109  0.3160  0.9250
              Bcc     0.0000     0.000     0.000     0.000 -0.2452  0.8990 -0.3629
 
              Baa    -0.0000    -0.000    -0.000    -0.000 -0.2427  0.9058 -0.3474
    15 H(1)   Bbb    -0.0000    -0.000    -0.000    -0.000 -0.1672  0.3137  0.9347
              Bcc     0.0000     0.000     0.000     0.000  0.9556  0.2849  0.0753
 
              Baa    -0.0000    -0.000    -0.000    -0.000 -0.3769  0.2908  0.8794
    16 H(1)   Bbb    -0.0000    -0.000    -0.000    -0.000  0.6820  0.7295  0.0511
              Bcc     0.0000     0.000     0.000     0.000  0.6267 -0.6191  0.4733
 
              Baa    -0.0000     0.000     0.000     0.000  0.6352 -0.4094  0.6550
    17 O(17)  Bbb     0.0000    -0.000    -0.000    -0.000  0.7723  0.3239 -0.5465
              Bcc     0.0000    -0.000    -0.000    -0.000  0.0116  0.8530  0.5218
 
              Baa    -0.0000    -0.000    -0.000    -0.000  0.4190  0.9052  0.0710
    18 H(1)   Bbb    -0.0000    -0.000    -0.000    -0.000 -0.5110  0.1705  0.8425
              Bcc     0.0000     0.000     0.000     0.000  0.7505 -0.3893  0.5340
 
              Baa    -0.0000    -0.000    -0.000    -0.000 -0.6205  0.2437  0.7453
    19 C(13)  Bbb     0.0000     0.000     0.000     0.000  0.6524  0.6878  0.3182
              Bcc     0.0000     0.000     0.000     0.000 -0.4351  0.6837 -0.5858
 
              Baa    -0.0000    -0.000    -0.000    -0.000  0.2505  0.1655  0.9539
    20 C(13)  Bbb    -0.0000    -0.000    -0.000    -0.000  0.9670  0.0053 -0.2548
              Bcc     0.0000     0.000     0.000     0.000 -0.0472  0.9862 -0.1587
 
              Baa    -0.0000    -0.000    -0.000    -0.000  0.2597  0.7680 -0.5855
    21 C(13)  Bbb    -0.0000    -0.000    -0.000    -0.000 -0.2581  0.6394  0.7242
              Bcc     0.0000     0.000     0.000     0.000  0.9305 -0.0370  0.3643
 
              Baa    -0.0000    -0.000    -0.000    -0.000  0.0084  0.0363  0.9993
    22 C(13)  Bbb     0.0000     0.000     0.000     0.000  0.2271  0.9732 -0.0373
              Bcc     0.0000     0.000     0.000     0.000  0.9738 -0.2272  0.0001
 
              Baa    -0.0000    -0.000    -0.000    -0.000  0.5455 -0.0385  0.8372
    23 C(13)  Bbb     0.0000     0.000     0.000     0.000  0.7809  0.3862 -0.4910
              Bcc     0.0000     0.000     0.000     0.000 -0.3045  0.9216  0.2408
 
              Baa    -0.0000    -0.000    -0.000    -0.000  0.9558 -0.2134 -0.2023
    24 C(13)  Bbb     0.0000     0.000     0.000     0.000  0.1771 -0.1314  0.9754
              Bcc     0.0000     0.000     0.000     0.000  0.2347  0.9681  0.0878
 
              Baa    -0.0000    -0.000    -0.000    -0.000  0.2189 -0.6375  0.7387
    25 C(13)  Bbb    -0.0000    -0.000    -0.000    -0.000  0.9116  0.4035  0.0781
              Bcc     0.0000     0.000     0.000     0.000 -0.3479  0.6563  0.6695
 
              Baa    -0.0000    -0.000    -0.000    -0.000  0.2286  0.8037 -0.5494
    26 C(13)  Bbb    -0.0000    -0.000    -0.000    -0.000 -0.3838  0.5930  0.7078
              Bcc     0.0000     0.000     0.000     0.000  0.8946  0.0490  0.4441
 
              Baa    -0.0000    -0.000    -0.000    -0.000 -0.5761  0.8033 -0.1512
    27 C(13)  Bbb    -0.0000    -0.000    -0.000    -0.000 -0.6498 -0.3379  0.6809
              Bcc     0.0000     0.000     0.000     0.000  0.4959  0.4905  0.7166
 
              Baa    -0.0000    -0.000    -0.000    -0.000  0.5159  0.0527  0.8550
    28 C(13)  Bbb     0.0000     0.000     0.000     0.000  0.5332  0.7614 -0.3687
              Bcc     0.0000     0.000     0.000     0.000  0.6705 -0.6461 -0.3647
 
              Baa    -0.0000    -0.000    -0.000    -0.000  0.2177  0.9473  0.2351
    29 H(1)   Bbb    -0.0000    -0.000    -0.000    -0.000  0.9436 -0.1428 -0.2987
              Bcc     0.0000     0.000     0.000     0.000  0.2494 -0.2869  0.9249
 
              Baa    -0.0000    -0.000    -0.000    -0.000  0.7573  0.6507 -0.0551
    30 H(1)   Bbb    -0.0000    -0.000    -0.000    -0.000 -0.0826  0.1792  0.9803
              Bcc     0.0000     0.000     0.000     0.000 -0.6478  0.7379 -0.1895
 
              Baa    -0.0000    -0.000    -0.000    -0.000 -0.5596  0.6900 -0.4590
    31 H(1)   Bbb     0.0000     0.000     0.000     0.000  0.8268  0.5026 -0.2526
              Bcc     0.0000     0.000     0.000     0.000 -0.0564  0.5209  0.8518
 
              Baa    -0.0000    -0.000    -0.000    -0.000 -0.1691 -0.4576  0.8729
    32 H(1)   Bbb     0.0000     0.000     0.000     0.000  0.9417 -0.3363  0.0062
              Bcc     0.0000     0.000     0.000     0.000  0.2908  0.8231  0.4878
 
              Baa    -0.0000    -0.000    -0.000    -0.000 -0.2624 -0.4840  0.8348
    33 H(1)   Bbb    -0.0000    -0.000    -0.000    -0.000  0.8999 -0.4350  0.0306
              Bcc     0.0000     0.000     0.000     0.000  0.3483  0.7593  0.5497
 
              Baa    -0.0000    -0.000    -0.000    -0.000  0.5126  0.1580  0.8440
    34 H(1)   Bbb    -0.0000    -0.000    -0.000    -0.000  0.6194  0.6126 -0.4909
              Bcc     0.0000     0.000     0.000     0.000 -0.5946  0.7744  0.2161
 
              Baa    -0.0000    -0.000    -0.000    -0.000  0.4200 -0.5309  0.7360
    35 H(1)   Bbb     0.0000     0.000     0.000     0.000  0.8955  0.1108 -0.4311
              Bcc     0.0000     0.000     0.000     0.000  0.1473  0.8402  0.5220
 
              Baa    -0.0000    -0.000    -0.000    -0.000 -0.1674 -0.1901  0.9674
    36 H(1)   Bbb    -0.0000    -0.000    -0.000    -0.000  0.9591  0.1956  0.2045
              Bcc     0.0000     0.000     0.000     0.000 -0.2281  0.9621  0.1496
 
              Baa    -0.0000    -0.000    -0.000    -0.000  0.2099  0.9776  0.0147
    37 H(1)   Bbb     0.0000     0.000     0.000     0.000  0.5476 -0.1300  0.8266
              Bcc     0.0000     0.000     0.000     0.000  0.8100 -0.1654 -0.5626
 
              Baa    -0.0000    -0.000    -0.000    -0.000  0.6730  0.4289  0.6026
    38 H(1)   Bbb    -0.0000    -0.000    -0.000    -0.000  0.6872 -0.6637 -0.2952
              Bcc     0.0000     0.000     0.000     0.000 -0.2734 -0.6128  0.7415
 
              Baa    -0.0000    -0.000    -0.000    -0.000  0.7501 -0.2637 -0.6065
    39 H(1)   Bbb    -0.0000    -0.000    -0.000    -0.000  0.5678 -0.2132  0.7951
              Bcc     0.0000     0.000     0.000     0.000  0.3389  0.9408  0.0102
 
              Baa    -0.0000    -0.000    -0.000    -0.000 -0.1594 -0.3298  0.9305
    40 H(1)   Bbb     0.0000     0.000     0.000     0.000  0.7328 -0.6711 -0.1123
              Bcc     0.0000     0.000     0.000     0.000  0.6615  0.6640  0.3486
 
              Baa    -0.0000    -0.000    -0.000    -0.000  0.6999  0.6538  0.2877
    41 H(1)   Bbb     0.0000     0.000     0.000     0.000 -0.4923  0.1498  0.8574
              Bcc     0.0000     0.000     0.000     0.000 -0.5175  0.7417 -0.4267
 
              Baa    -0.0000    -0.000    -0.000    -0.000  0.8481  0.1428  0.5102
    42 H(1)   Bbb     0.0000     0.000     0.000     0.000 -0.3075 -0.6515  0.6936
              Bcc     0.0000     0.000     0.000     0.000 -0.4314  0.7451  0.5086
 
              Baa    -0.0000    -0.000    -0.000    -0.000  0.4877 -0.4781  0.7304
    43 H(1)   Bbb    -0.0000    -0.000    -0.000    -0.000 -0.0920  0.8039  0.5876
              Bcc     0.0000     0.000     0.000     0.000  0.8682  0.3538 -0.3480
 
              Baa    -0.0000    -0.000    -0.000    -0.000  0.8490  0.1401  0.5094
    44 H(1)   Bbb     0.0000     0.000     0.000     0.000 -0.4990  0.5295  0.6860
              Bcc     0.0000     0.000     0.000     0.000  0.1736  0.8367 -0.5195
 
              Baa    -0.0000    -0.000    -0.000    -0.000 -0.4004  0.7568  0.5166
    45 H(1)   Bbb    -0.0000    -0.000    -0.000    -0.000  0.7335  0.6026 -0.3144
              Bcc     0.0000     0.000     0.000     0.000  0.5493 -0.2530  0.7964
 
              Baa    -0.0000    -0.000    -0.000    -0.000 -0.4932  0.8654  0.0879
    46 H(1)   Bbb    -0.0000    -0.000    -0.000    -0.000  0.3157  0.0840  0.9451
              Bcc     0.0000     0.000     0.000     0.000  0.8106  0.4939 -0.3146
 
              Baa    -0.0000    -0.000    -0.000    -0.000  0.9321 -0.2372 -0.2738
    47 H(1)   Bbb    -0.0000    -0.000    -0.000    -0.000  0.0052  0.7644 -0.6447
              Bcc     0.0000     0.000     0.000     0.000  0.3623  0.5995  0.7137
 
              Baa    -0.0000    -0.000    -0.000    -0.000  0.1485  0.6749  0.7228
    48 H(1)   Bbb     0.0000     0.000     0.000     0.000  0.6800  0.4609 -0.5701
              Bcc     0.0000     0.000     0.000     0.000  0.7180 -0.5762  0.3905
 
              Baa    -0.0000    -0.000    -0.000    -0.000 -0.4371  0.8907  0.1252
    49 H(1)   Bbb     0.0000     0.000     0.000     0.000 -0.3367 -0.2911  0.8955
              Bcc     0.0000     0.000     0.000     0.000  0.8340  0.3493  0.4271
 

 ---------------------------------------------------------------------------------

 No NMR shielding tensors so no spin-rotation constants.
 Leave Link  601 at Sun Jan 21 09:15:51 2024, MaxMem=  4026531840 cpu:               5.2 elap:               0.9
 (Enter /sysapps/ubuntu-applications/gaussian/Gaussian/AVX2/g16/l9999.exe)
 1\1\GINC-ACIDSCN027\SP\UB3LYP\6-311++G(d,p)\C20H26O3(2-)\SELHAJJ1\21-J
 an-2024\0\\#P UB3LYP/6-311++G(d,p) SCRF=(PCM,Solvent=n,n-DiMethylForma
 mide)\\Reduced\\-2,1\C,0,0.146147,3.727903,-0.056429\C,0,-0.957005,3.6
 74445,-0.885828\C,0,-1.019712,2.707736,-1.919776\C,0,1.233468,2.830944
 ,-0.211121\C,0,1.171572,1.847888,-1.264618\C,0,0.032789,1.821272,-2.09
 058\C,0,2.371739,2.893529,0.658125\C,0,3.406293,1.937763,0.403816\C,0,
 3.384163,0.97317,-0.597633\C,0,2.257366,0.884799,-1.491163\O,0,2.53994
 5,3.726029,1.638478\O,0,2.197874,0.016779,-2.42205\H,0,0.215431,4.4599
 21,0.741923\H,0,-1.777963,4.374865,-0.74623\H,0,-1.886792,2.6633,-2.57
 4453\H,0,0.015978,1.070611,-2.874399\O,0,4.465409,2.051972,1.274062\H,
 0,4.14933,2.8051,1.830491\C,0,4.522329,-0.002477,-0.767025\C,0,5.55457
 9,0.437524,-1.827728\C,0,6.678287,-0.58185,-2.11214\C,0,7.495573,-0.15
 8419,-3.351296\C,0,8.512992,-1.187966,-3.867101\C,0,9.244908,-0.725293
 ,-5.135072\C,0,10.215106,-1.745692,-5.764401\C,0,10.698598,-1.254794,-
 7.137119\C,0,7.578886,-0.795243,-0.884437\C,0,11.411641,-2.063137,-4.8
 54743\H,0,4.099565,-0.962247,-1.087376\H,0,5.017609,-0.144355,0.198056
 \H,0,6.002582,1.39137,-1.518483\H,0,5.007483,0.627882,-2.756532\H,0,6.
 195557,-1.54202,-2.348926\H,0,8.017464,0.782704,-3.125475\H,0,6.792595
 ,0.074061,-4.160642\H,0,7.991419,-2.131862,-4.078024\H,0,9.244138,-1.4
 11624,-3.083909\H,0,9.79841,0.199227,-4.918217\H,0,8.494549,-0.454135,
 -5.889398\H,0,9.657177,-2.679455,-5.922288\H,0,9.856731,-1.077639,-7.8
 16654\H,0,11.366247,-1.978998,-7.616379\H,0,11.253148,-0.313014,-7.043
 725\H,0,8.34026,-1.562646,-1.05775\H,0,6.993938,-1.10127,-0.014367\H,0
 ,8.093872,0.136792,-0.621547\H,0,11.098681,-2.494517,-3.898924\H,0,11.
 988938,-1.155895,-4.638958\H,0,12.093013,-2.775947,-5.33193\\Version=E
 S64L-G16RevA.03\State=1-A\HF=-1004.0081382\S2=0.\S2-1=0.\S2A=0.\RMSD=2
 .628e-09\Dipole=9.6025067,-4.3402429,-5.7381761\Quadrupole=-18.6561296
 ,15.1451446,3.5109851,23.6137159,23.9166853,-28.7504455\PG=C01 [X(C20H
 26O3)]\\@


 Not by the face shall a man be known, but by the mask.
                               -- Karen Blixen
 Job cpu time:       0 days  1 hours 17 minutes 30.4 seconds.
 Elapsed time:       0 days  0 hours  9 minutes 49.2 seconds.
 File lengths (MBytes):  RWF=    638 Int=      0 D2E=      0 Chk=     35 Scr=      1
 Normal termination of Gaussian 16 at Sun Jan 21 09:15:51 2024.
