 Entering Gaussian System, Link 0=g16
 Input=215.com
 Output=215.log
 Initial command:
 /sysapps/ubuntu-applications/gaussian/Gaussian/AVX2/g16/l1.exe "/scratch/selhajj1/4407290/Gau-200961.inp" -scrdir="/scratch/selhajj1/4407290/"
 Entering Link 1 = /sysapps/ubuntu-applications/gaussian/Gaussian/AVX2/g16/l1.exe PID=    200964.
  
 Copyright (c) 1988,1990,1992,1993,1995,1998,2003,2009,2016,
            Gaussian, Inc.  All Rights Reserved.
  
 This is part of the Gaussian(R) 16 program.  It is based on
 the Gaussian(R) 09 system (copyright 2009, Gaussian, Inc.),
 the Gaussian(R) 03 system (copyright 2003, Gaussian, Inc.),
 the Gaussian(R) 98 system (copyright 1998, Gaussian, Inc.),
 the Gaussian(R) 94 system (copyright 1995, Gaussian, Inc.),
 the Gaussian 92(TM) system (copyright 1992, Gaussian, Inc.),
 the Gaussian 90(TM) system (copyright 1990, Gaussian, Inc.),
 the Gaussian 88(TM) system (copyright 1988, Gaussian, Inc.),
 the Gaussian 86(TM) system (copyright 1986, Carnegie Mellon
 University), and the Gaussian 82(TM) system (copyright 1983,
 Carnegie Mellon University). Gaussian is a federally registered
 trademark of Gaussian, Inc.
  
 This software contains proprietary and confidential information,
 including trade secrets, belonging to Gaussian, Inc.
  
 This software is provided under written license and may be
 used, copied, transmitted, or stored only in accord with that
 written license.
  
 The following legend is applicable only to US Government
 contracts under FAR:
  
                    RESTRICTED RIGHTS LEGEND
  
 Use, reproduction and disclosure by the US Government is
 subject to restrictions as set forth in subparagraphs (a)
 and (c) of the Commercial Computer Software - Restricted
 Rights clause in FAR 52.227-19.
  
 Gaussian, Inc.
 340 Quinnipiac St., Bldg. 40, Wallingford CT 06492
  
  
 ---------------------------------------------------------------
 Warning -- This program may not be used in any manner that
 competes with the business of Gaussian, Inc. or will provide
 assistance to any competitor of Gaussian, Inc.  The licensee
 of this program is prohibited from giving any competitor of
 Gaussian, Inc. access to this program.  By using this program,
 the user acknowledges that Gaussian, Inc. is engaged in the
 business of creating and licensing software in the field of
 computational chemistry and represents and warrants to the
 licensee that it is not a competitor of Gaussian, Inc. and that
 it will not use this program in any manner prohibited above.
 ---------------------------------------------------------------
  

 Cite this work as:
 Gaussian 16, Revision A.03,
 M. J. Frisch, G. W. Trucks, H. B. Schlegel, G. E. Scuseria, 
 M. A. Robb, J. R. Cheeseman, G. Scalmani, V. Barone, 
 G. A. Petersson, H. Nakatsuji, X. Li, M. Caricato, A. V. Marenich, 
 J. Bloino, B. G. Janesko, R. Gomperts, B. Mennucci, H. P. Hratchian, 
 J. V. Ortiz, A. F. Izmaylov, J. L. Sonnenberg, D. Williams-Young, 
 F. Ding, F. Lipparini, F. Egidi, J. Goings, B. Peng, A. Petrone, 
 T. Henderson, D. Ranasinghe, V. G. Zakrzewski, J. Gao, N. Rega, 
 G. Zheng, W. Liang, M. Hada, M. Ehara, K. Toyota, R. Fukuda, 
 J. Hasegawa, M. Ishida, T. Nakajima, Y. Honda, O. Kitao, H. Nakai, 
 T. Vreven, K. Throssell, J. A. Montgomery, Jr., J. E. Peralta, 
 F. Ogliaro, M. J. Bearpark, J. J. Heyd, E. N. Brothers, K. N. Kudin, 
 V. N. Staroverov, T. A. Keith, R. Kobayashi, J. Normand, 
 K. Raghavachari, A. P. Rendell, J. C. Burant, S. S. Iyengar, 
 J. Tomasi, M. Cossi, J. M. Millam, M. Klene, C. Adamo, R. Cammi, 
 J. W. Ochterski, R. L. Martin, K. Morokuma, O. Farkas, 
 J. B. Foresman, and D. J. Fox, Gaussian, Inc., Wallingford CT, 2016.
 
 ******************************************
 Gaussian 16:  ES64L-G16RevA.03 25-Dec-2016
                10-Feb-2024 
 ******************************************
 %chk=215.chk
 %nproc=8
 Will use up to    8 processors via shared memory.
 %mem=30GB
 ----------------------------------------------------------------------
 #P UB3LYP/6-311++G(d,p) nosym opt freq SCRF=(PCM,Solvent=n,n-DiMethylF
 ormamide)
 ----------------------------------------------------------------------
 1/18=20,19=15,26=3,38=1/1,3;
 2/9=110,12=2,15=1,17=6,18=5,40=1/2;
 3/5=4,6=6,7=1111,11=2,25=1,30=1,70=2201,71=1,72=148,74=-5,116=2/1,2,3;
 4//1;
 5/5=2,38=5,53=148/2;
 6/7=2,8=2,9=2,10=2,28=1/1;
 7/30=1/1,2,3,16;
 1/18=20,19=15,26=3/3(2);
 2/9=110,15=1/2;
 99//99;
 2/9=110,15=1/2;
 3/5=4,6=6,7=1111,11=2,25=1,30=1,70=2205,71=1,72=148,74=-5,116=2/1,2,3;
 4/5=5,16=3,69=1/1;
 5/5=2,38=5,53=148/2;
 7/30=1/1,2,3,16;
 1/18=20,19=15,26=3/3(-5);
 2/9=110,15=1/2;
 6/7=2,8=2,9=2,10=2,19=2,28=1/1;
 99/9=1/99;
 Leave Link    1 at Sat Feb 10 21:58:17 2024, MaxMem=  4026531840 cpu:               0.6 elap:               0.1
 (Enter /sysapps/ubuntu-applications/gaussian/Gaussian/AVX2/g16/l101.exe)
 --------
 Oxidized
 --------
 Symbolic Z-matrix:
 Charge =  0 Multiplicity = 1
 C                     5.01194  -2.44714   0.55242 
 C                     5.82791  -1.74211  -0.32411 
 C                     5.26244  -0.90511  -1.29043 
 C                     3.62158  -2.32189   0.47211 
 C                     3.05219  -1.479    -0.50027 
 C                     3.88187  -0.77416  -1.3783 
 C                     2.7719   -3.08981   1.42596 
 C                     1.28991  -2.92345   1.31381 
 C                     0.7189   -2.08212   0.34433 
 C                     1.57584  -1.31917  -0.61819 
 C                     0.46676  -3.62362   2.19945 
 C                    -0.67025  -1.94375   0.26645 
 C                    -1.49338  -2.63893   1.14205 
 O                     3.25802  -3.82662   2.26576 
 O                     1.07502  -0.59653  -1.46223 
 H                     5.42914  -3.10095   1.30818 
 H                     6.90521  -1.84203  -0.25755 
 H                     5.90147  -0.35641  -1.97273 
 H                    -2.57036  -2.53573   1.10269 
 H                     3.42327  -0.13131  -2.11933 
 H                     0.9123   -4.26133   2.95234 
 H                    -1.08511  -1.28528  -0.4862 
 C                    -0.9079   -3.47274   2.09611 
 S                    -1.97042  -4.37164   3.22771 
 O                    -1.25619  -4.6526    4.46463 
 O                    -3.28077  -3.73686   3.26788 
 O                    -2.07604  -5.75536   2.3528 
 C                    -2.82117  -6.83802   2.9666 
 H                    -2.35255  -7.13379   3.90641 
 H                    -2.77037  -7.65197   2.24716 
 H                    -3.85891  -6.54062   3.12682 
 
 ITRead=  0  0  0  0  0  0  0  0  0  0  0  0  0  0  0  0  0  0  0  0
 ITRead=  0  0  0  0  0  0  0  0  0  0  0
 MicOpt= -1 -1 -1 -1 -1 -1 -1 -1 -1 -1 -1 -1 -1 -1 -1 -1 -1 -1 -1 -1
 MicOpt= -1 -1 -1 -1 -1 -1 -1 -1 -1 -1 -1
 NAtoms=     31 NQM=       31 NQMF=       0 NMMI=      0 NMMIF=      0
                NMic=       0 NMicF=      0.
                    Isotopes and Nuclear Properties:
 (Nuclear quadrupole moments (NQMom) in fm**2, nuclear magnetic moments (NMagM)
  in nuclear magnetons)

  Atom         1           2           3           4           5           6           7           8           9          10
 IAtWgt=          12          12          12          12          12          12          12          12          12          12
 AtmWgt=  12.0000000  12.0000000  12.0000000  12.0000000  12.0000000  12.0000000  12.0000000  12.0000000  12.0000000  12.0000000
 NucSpn=           0           0           0           0           0           0           0           0           0           0
 AtZEff=  -0.0000000  -0.0000000  -0.0000000  -0.0000000  -0.0000000  -0.0000000  -0.0000000  -0.0000000  -0.0000000  -0.0000000
 NQMom=    0.0000000   0.0000000   0.0000000   0.0000000   0.0000000   0.0000000   0.0000000   0.0000000   0.0000000   0.0000000
 NMagM=    0.0000000   0.0000000   0.0000000   0.0000000   0.0000000   0.0000000   0.0000000   0.0000000   0.0000000   0.0000000
 AtZNuc=   6.0000000   6.0000000   6.0000000   6.0000000   6.0000000   6.0000000   6.0000000   6.0000000   6.0000000   6.0000000

  Atom        11          12          13          14          15          16          17          18          19          20
 IAtWgt=          12          12          12          16          16           1           1           1           1           1
 AtmWgt=  12.0000000  12.0000000  12.0000000  15.9949146  15.9949146   1.0078250   1.0078250   1.0078250   1.0078250   1.0078250
 NucSpn=           0           0           0           0           0           1           1           1           1           1
 AtZEff=  -0.0000000  -0.0000000  -0.0000000  -0.0000000  -0.0000000  -0.0000000  -0.0000000  -0.0000000  -0.0000000  -0.0000000
 NQMom=    0.0000000   0.0000000   0.0000000   0.0000000   0.0000000   0.0000000   0.0000000   0.0000000   0.0000000   0.0000000
 NMagM=    0.0000000   0.0000000   0.0000000   0.0000000   0.0000000   2.7928460   2.7928460   2.7928460   2.7928460   2.7928460
 AtZNuc=   6.0000000   6.0000000   6.0000000   8.0000000   8.0000000   1.0000000   1.0000000   1.0000000   1.0000000   1.0000000

  Atom        21          22          23          24          25          26          27          28          29          30
 IAtWgt=           1           1          12          32          16          16          16          12           1           1
 AtmWgt=   1.0078250   1.0078250  12.0000000  31.9720718  15.9949146  15.9949146  15.9949146  12.0000000   1.0078250   1.0078250
 NucSpn=           1           1           0           0           0           0           0           0           1           1
 AtZEff=  -0.0000000  -0.0000000  -0.0000000  -0.0000000  -0.0000000  -0.0000000  -0.0000000  -0.0000000  -0.0000000  -0.0000000
 NQMom=    0.0000000   0.0000000   0.0000000   0.0000000   0.0000000   0.0000000   0.0000000   0.0000000   0.0000000   0.0000000
 NMagM=    2.7928460   2.7928460   0.0000000   0.0000000   0.0000000   0.0000000   0.0000000   0.0000000   2.7928460   2.7928460
 AtZNuc=   1.0000000   1.0000000   6.0000000  16.0000000   8.0000000   8.0000000   8.0000000   6.0000000   1.0000000   1.0000000

  Atom        31
 IAtWgt=           1
 AtmWgt=   1.0078250
 NucSpn=           1
 AtZEff=  -0.0000000
 NQMom=    0.0000000
 NMagM=    2.7928460
 AtZNuc=   1.0000000
 Leave Link  101 at Sat Feb 10 21:58:18 2024, MaxMem=  4026531840 cpu:               6.2 elap:               0.8
 (Enter /sysapps/ubuntu-applications/gaussian/Gaussian/AVX2/g16/l103.exe)

 GradGradGradGradGradGradGradGradGradGradGradGradGradGradGradGradGradGrad
 Berny optimization.
 Initialization pass.
                           ----------------------------
                           !    Initial Parameters    !
                           ! (Angstroms and Degrees)  !
 --------------------------                            --------------------------
 ! Name  Definition              Value          Derivative Info.                !
 --------------------------------------------------------------------------------
 ! R1    R(1,2)                  1.3897         estimate D2E/DX2                !
 ! R2    R(1,4)                  1.3983         estimate D2E/DX2                !
 ! R3    R(1,16)                 1.0829         estimate D2E/DX2                !
 ! R4    R(2,3)                  1.3979         estimate D2E/DX2                !
 ! R5    R(2,17)                 1.084          estimate D2E/DX2                !
 ! R6    R(3,6)                  1.3895         estimate D2E/DX2                !
 ! R7    R(3,18)                 1.084          estimate D2E/DX2                !
 ! R8    R(4,5)                  1.4072         estimate D2E/DX2                !
 ! R9    R(4,7)                  1.4905         estimate D2E/DX2                !
 ! R10   R(5,6)                  1.3986         estimate D2E/DX2                !
 ! R11   R(5,10)                 1.4896         estimate D2E/DX2                !
 ! R12   R(6,20)                 1.0829         estimate D2E/DX2                !
 ! R13   R(7,8)                  1.4955         estimate D2E/DX2                !
 ! R14   R(7,14)                 1.2184         estimate D2E/DX2                !
 ! R15   R(8,9)                  1.4049         estimate D2E/DX2                !
 ! R16   R(8,11)                 1.3972         estimate D2E/DX2                !
 ! R17   R(9,10)                 1.4976         estimate D2E/DX2                !
 ! R18   R(9,12)                 1.3982         estimate D2E/DX2                !
 ! R19   R(10,15)                1.2188         estimate D2E/DX2                !
 ! R20   R(11,21)                1.0826         estimate D2E/DX2                !
 ! R21   R(11,23)                1.3868         estimate D2E/DX2                !
 ! R22   R(12,13)                1.3883         estimate D2E/DX2                !
 ! R23   R(12,22)                1.0827         estimate D2E/DX2                !
 ! R24   R(13,19)                1.0826         estimate D2E/DX2                !
 ! R25   R(13,23)                1.3958         estimate D2E/DX2                !
 ! R26   R(23,24)                1.7937         estimate D2E/DX2                !
 ! R27   R(24,25)                1.4557         estimate D2E/DX2                !
 ! R28   R(24,26)                1.4566         estimate D2E/DX2                !
 ! R29   R(24,27)                1.6405         estimate D2E/DX2                !
 ! R30   R(27,28)                1.4506         estimate D2E/DX2                !
 ! R31   R(28,29)                1.091          estimate D2E/DX2                !
 ! R32   R(28,30)                1.0875         estimate D2E/DX2                !
 ! R33   R(28,31)                1.0913         estimate D2E/DX2                !
 ! A1    A(2,1,4)              120.1432         estimate D2E/DX2                !
 ! A2    A(2,1,16)             121.3523         estimate D2E/DX2                !
 ! A3    A(4,1,16)             118.5045         estimate D2E/DX2                !
 ! A4    A(1,2,3)              120.1503         estimate D2E/DX2                !
 ! A5    A(1,2,17)             119.8714         estimate D2E/DX2                !
 ! A6    A(3,2,17)             119.9783         estimate D2E/DX2                !
 ! A7    A(2,3,6)              120.1356         estimate D2E/DX2                !
 ! A8    A(2,3,18)             119.9824         estimate D2E/DX2                !
 ! A9    A(6,3,18)             119.882          estimate D2E/DX2                !
 ! A10   A(1,4,5)              119.714          estimate D2E/DX2                !
 ! A11   A(1,4,7)              118.9426         estimate D2E/DX2                !
 ! A12   A(5,4,7)              121.3434         estimate D2E/DX2                !
 ! A13   A(4,5,6)              119.712          estimate D2E/DX2                !
 ! A14   A(4,5,10)             121.3308         estimate D2E/DX2                !
 ! A15   A(6,5,10)             118.9572         estimate D2E/DX2                !
 ! A16   A(3,6,5)              120.1449         estimate D2E/DX2                !
 ! A17   A(3,6,20)             121.3305         estimate D2E/DX2                !
 ! A18   A(5,6,20)             118.5245         estimate D2E/DX2                !
 ! A19   A(4,7,8)              117.3627         estimate D2E/DX2                !
 ! A20   A(4,7,14)             121.6841         estimate D2E/DX2                !
 ! A21   A(8,7,14)             120.9532         estimate D2E/DX2                !
 ! A22   A(7,8,9)              121.4076         estimate D2E/DX2                !
 ! A23   A(7,8,11)             118.7204         estimate D2E/DX2                !
 ! A24   A(9,8,11)             119.8719         estimate D2E/DX2                !
 ! A25   A(8,9,10)             121.0654         estimate D2E/DX2                !
 ! A26   A(8,9,12)             120.1001         estimate D2E/DX2                !
 ! A27   A(10,9,12)            118.8344         estimate D2E/DX2                !
 ! A28   A(5,10,9)             117.4877         estimate D2E/DX2                !
 ! A29   A(5,10,15)            121.7144         estimate D2E/DX2                !
 ! A30   A(9,10,15)            120.7979         estimate D2E/DX2                !
 ! A31   A(8,11,21)            119.5748         estimate D2E/DX2                !
 ! A32   A(8,11,23)            118.8312         estimate D2E/DX2                !
 ! A33   A(21,11,23)           121.5919         estimate D2E/DX2                !
 ! A34   A(9,12,13)            120.2891         estimate D2E/DX2                !
 ! A35   A(9,12,22)            118.6609         estimate D2E/DX2                !
 ! A36   A(13,12,22)           121.0499         estimate D2E/DX2                !
 ! A37   A(12,13,19)           121.2739         estimate D2E/DX2                !
 ! A38   A(12,13,23)           118.7841         estimate D2E/DX2                !
 ! A39   A(19,13,23)           119.9384         estimate D2E/DX2                !
 ! A40   A(11,23,13)           122.1225         estimate D2E/DX2                !
 ! A41   A(11,23,24)           119.0543         estimate D2E/DX2                !
 ! A42   A(13,23,24)           118.8227         estimate D2E/DX2                !
 ! A43   A(23,24,25)           110.0072         estimate D2E/DX2                !
 ! A44   A(23,24,26)           109.3835         estimate D2E/DX2                !
 ! A45   A(23,24,27)            97.1449         estimate D2E/DX2                !
 ! A46   A(25,24,26)           120.1371         estimate D2E/DX2                !
 ! A47   A(25,24,27)           108.7817         estimate D2E/DX2                !
 ! A48   A(26,24,27)           108.9279         estimate D2E/DX2                !
 ! A49   A(24,27,28)           115.9088         estimate D2E/DX2                !
 ! A50   A(27,28,29)           110.2547         estimate D2E/DX2                !
 ! A51   A(27,28,30)           104.7558         estimate D2E/DX2                !
 ! A52   A(27,28,31)           110.3155         estimate D2E/DX2                !
 ! A53   A(29,28,30)           110.2973         estimate D2E/DX2                !
 ! A54   A(29,28,31)           110.845          estimate D2E/DX2                !
 ! A55   A(30,28,31)           110.2123         estimate D2E/DX2                !
 ! D1    D(4,1,2,3)             -0.0329         estimate D2E/DX2                !
 ! D2    D(4,1,2,17)           179.9634         estimate D2E/DX2                !
 ! D3    D(16,1,2,3)           179.9897         estimate D2E/DX2                !
 ! D4    D(16,1,2,17)           -0.0139         estimate D2E/DX2                !
 ! D5    D(2,1,4,5)              0.0103         estimate D2E/DX2                !
 ! D6    D(2,1,4,7)           -179.9702         estimate D2E/DX2                !
 ! D7    D(16,1,4,5)           179.9883         estimate D2E/DX2                !
 ! D8    D(16,1,4,7)             0.0077         estimate D2E/DX2                !
 ! D9    D(1,2,3,6)              0.0231         estimate D2E/DX2                !
 ! D10   D(1,2,3,18)           179.9975         estimate D2E/DX2                !
 ! D11   D(17,2,3,6)          -179.9733         estimate D2E/DX2                !
 ! D12   D(17,2,3,18)            0.0011         estimate D2E/DX2                !
 ! D13   D(2,3,6,5)              0.0095         estimate D2E/DX2                !
 ! D14   D(2,3,6,20)          -179.9983         estimate D2E/DX2                !
 ! D15   D(18,3,6,5)          -179.9649         estimate D2E/DX2                !
 ! D16   D(18,3,6,20)            0.0273         estimate D2E/DX2                !
 ! D17   D(1,4,5,6)              0.022          estimate D2E/DX2                !
 ! D18   D(1,4,5,10)           179.9767         estimate D2E/DX2                !
 ! D19   D(7,4,5,6)           -179.9979         estimate D2E/DX2                !
 ! D20   D(7,4,5,10)            -0.0432         estimate D2E/DX2                !
 ! D21   D(1,4,7,8)            179.6538         estimate D2E/DX2                !
 ! D22   D(1,4,7,14)            -0.403          estimate D2E/DX2                !
 ! D23   D(5,4,7,8)             -0.3265         estimate D2E/DX2                !
 ! D24   D(5,4,7,14)           179.6168         estimate D2E/DX2                !
 ! D25   D(4,5,6,3)             -0.0319         estimate D2E/DX2                !
 ! D26   D(4,5,6,20)           179.9756         estimate D2E/DX2                !
 ! D27   D(10,5,6,3)          -179.9877         estimate D2E/DX2                !
 ! D28   D(10,5,6,20)            0.0199         estimate D2E/DX2                !
 ! D29   D(4,5,10,9)             0.4363         estimate D2E/DX2                !
 ! D30   D(4,5,10,15)         -179.6083         estimate D2E/DX2                !
 ! D31   D(6,5,10,9)          -179.6088         estimate D2E/DX2                !
 ! D32   D(6,5,10,15)            0.3467         estimate D2E/DX2                !
 ! D33   D(4,7,8,9)              0.2975         estimate D2E/DX2                !
 ! D34   D(4,7,8,11)          -179.601          estimate D2E/DX2                !
 ! D35   D(14,7,8,9)          -179.6463         estimate D2E/DX2                !
 ! D36   D(14,7,8,11)            0.4553         estimate D2E/DX2                !
 ! D37   D(7,8,9,10)             0.0996         estimate D2E/DX2                !
 ! D38   D(7,8,9,12)          -179.8082         estimate D2E/DX2                !
 ! D39   D(11,8,9,10)          179.9969         estimate D2E/DX2                !
 ! D40   D(11,8,9,12)            0.0891         estimate D2E/DX2                !
 ! D41   D(7,8,11,21)            0.6348         estimate D2E/DX2                !
 ! D42   D(7,8,11,23)         -179.8968         estimate D2E/DX2                !
 ! D43   D(9,8,11,21)         -179.2653         estimate D2E/DX2                !
 ! D44   D(9,8,11,23)            0.2031         estimate D2E/DX2                !
 ! D45   D(8,9,10,5)            -0.4642         estimate D2E/DX2                !
 ! D46   D(8,9,10,15)          179.58           estimate D2E/DX2                !
 ! D47   D(12,9,10,5)          179.4448         estimate D2E/DX2                !
 ! D48   D(12,9,10,15)          -0.511          estimate D2E/DX2                !
 ! D49   D(8,9,12,13)           -0.2148         estimate D2E/DX2                !
 ! D50   D(8,9,12,22)          179.6852         estimate D2E/DX2                !
 ! D51   D(10,9,12,13)         179.8753         estimate D2E/DX2                !
 ! D52   D(10,9,12,22)          -0.2247         estimate D2E/DX2                !
 ! D53   D(8,11,23,13)          -0.3826         estimate D2E/DX2                !
 ! D54   D(8,11,23,24)         179.8655         estimate D2E/DX2                !
 ! D55   D(21,11,23,13)        179.0746         estimate D2E/DX2                !
 ! D56   D(21,11,23,24)         -0.6773         estimate D2E/DX2                !
 ! D57   D(9,12,13,19)         179.3545         estimate D2E/DX2                !
 ! D58   D(9,12,13,23)           0.0445         estimate D2E/DX2                !
 ! D59   D(22,12,13,19)         -0.5431         estimate D2E/DX2                !
 ! D60   D(22,12,13,23)       -179.853          estimate D2E/DX2                !
 ! D61   D(12,13,23,11)          0.2593         estimate D2E/DX2                !
 ! D62   D(12,13,23,24)       -179.9883         estimate D2E/DX2                !
 ! D63   D(19,13,23,11)       -179.0601         estimate D2E/DX2                !
 ! D64   D(19,13,23,24)          0.6923         estimate D2E/DX2                !
 ! D65   D(11,23,24,25)         26.2276         estimate D2E/DX2                !
 ! D66   D(11,23,24,26)        160.2172         estimate D2E/DX2                !
 ! D67   D(11,23,24,27)        -86.787          estimate D2E/DX2                !
 ! D68   D(13,23,24,25)       -153.5325         estimate D2E/DX2                !
 ! D69   D(13,23,24,26)        -19.5429         estimate D2E/DX2                !
 ! D70   D(13,23,24,27)         93.4529         estimate D2E/DX2                !
 ! D71   D(23,24,27,28)        176.5805         estimate D2E/DX2                !
 ! D72   D(25,24,27,28)         62.5742         estimate D2E/DX2                !
 ! D73   D(26,24,27,28)        -70.0542         estimate D2E/DX2                !
 ! D74   D(24,27,28,29)        -60.9575         estimate D2E/DX2                !
 ! D75   D(24,27,28,30)       -179.6141         estimate D2E/DX2                !
 ! D76   D(24,27,28,31)         61.799          estimate D2E/DX2                !
 --------------------------------------------------------------------------------
 Trust Radius=3.00D-01 FncErr=1.00D-07 GrdErr=1.00D-06 EigMax=2.50D+02 EigMin=1.00D-04
 Number of steps in this run=    174 maximum allowed number of steps=    186.
 GradGradGradGradGradGradGradGradGradGradGradGradGradGradGradGradGradGrad

 Leave Link  103 at Sat Feb 10 21:58:18 2024, MaxMem=  4026531840 cpu:               0.3 elap:               0.1
 (Enter /sysapps/ubuntu-applications/gaussian/Gaussian/AVX2/g16/l202.exe)
                          Input orientation:                          
 ---------------------------------------------------------------------
 Center     Atomic      Atomic             Coordinates (Angstroms)
 Number     Number       Type             X           Y           Z
 ---------------------------------------------------------------------
      1          6           0        5.011944   -2.447141    0.552418
      2          6           0        5.827910   -1.742109   -0.324110
      3          6           0        5.262437   -0.905109   -1.290429
      4          6           0        3.621578   -2.321887    0.472110
      5          6           0        3.052190   -1.478996   -0.500269
      6          6           0        3.881869   -0.774157   -1.378304
      7          6           0        2.771899   -3.089809    1.425958
      8          6           0        1.289905   -2.923452    1.313813
      9          6           0        0.718898   -2.082123    0.344333
     10          6           0        1.575841   -1.319170   -0.618186
     11          6           0        0.466764   -3.623623    2.199455
     12          6           0       -0.670246   -1.943751    0.266447
     13          6           0       -1.493378   -2.638932    1.142054
     14          8           0        3.258020   -3.826616    2.265763
     15          8           0        1.075016   -0.596529   -1.462230
     16          1           0        5.429135   -3.100954    1.308176
     17          1           0        6.905209   -1.842031   -0.257547
     18          1           0        5.901471   -0.356407   -1.972729
     19          1           0       -2.570357   -2.535731    1.102691
     20          1           0        3.423268   -0.131309   -2.119327
     21          1           0        0.912299   -4.261335    2.952344
     22          1           0       -1.085114   -1.285280   -0.486199
     23          6           0       -0.907895   -3.472736    2.096112
     24         16           0       -1.970418   -4.371644    3.227711
     25          8           0       -1.256192   -4.652596    4.464631
     26          8           0       -3.280769   -3.736862    3.267883
     27          8           0       -2.076035   -5.755357    2.352801
     28          6           0       -2.821173   -6.838018    2.966599
     29          1           0       -2.352554   -7.133786    3.906412
     30          1           0       -2.770370   -7.651970    2.247163
     31          1           0       -3.858905   -6.540622    3.126815
 ---------------------------------------------------------------------
                    Distance matrix (angstroms):
                    1          2          3          4          5
     1  C    0.000000
     2  C    1.389666   0.000000
     3  C    2.415925   1.397892   0.000000
     4  C    1.398305   2.416197   2.793962   0.000000
     5  C    2.426127   2.793722   2.416380   1.407192   0.000000
     6  C    2.793498   2.415643   1.389546   2.426366   1.398610
     7  C    2.488754   3.770708   4.284210   1.490465   2.526585
     8  C    3.828860   4.967077   5.161085   2.550891   2.912558
     9  C    4.313558   5.163761   4.970066   2.915367   2.553697
    10  C    3.801241   4.283159   3.770192   2.525713   1.489649
    11  C    4.975490   6.216942   6.524422   3.825061   4.309566
    12  C    5.711608   6.528051   6.220882   4.313356   3.828888
    13  C    6.534804   7.520318   7.386755   5.168377   4.970399
    14  O    2.813317   4.202017   5.019900   2.369298   3.633816
    15  O    4.794056   5.019728   4.202289   3.633663   2.369248
    16  H    1.082908   2.160981   3.406211   2.138507   3.398689
    17  H    2.146312   1.083969   2.154848   3.397778   3.877688
    18  H    3.396880   2.154884   1.083961   3.877920   3.398050
    19  H    7.602759   8.555494   8.350965   6.227634   5.941313
    20  H    3.876234   3.405846   2.160644   3.399045   2.138997
    21  H    5.085080   6.422218   6.941835   4.153699   4.923523
    22  H    6.293073   6.929998   6.409580   4.913844   4.141860
    23  C    6.203171   7.363668   7.492287   4.947521   5.137944
    24  S    7.721029   8.963471   9.205685   6.562413   6.891432
    25  O    7.710964   9.032579   9.468733   6.720496   7.299598
    26  O    8.820783   9.992471  10.088776   7.580296   7.707354
    27  O    8.026526   9.259825   9.521092   6.912923   7.261265
    28  C    9.298698  10.564265  10.893413   8.253905   8.673793
    29  H    9.351457  10.671808  11.126170   8.404704   8.978126
    30  H    9.514558  10.745619  11.070713   8.509853   8.919428
    31  H   10.103270  11.347643  11.596117   8.989038   9.302636
                    6          7          8          9         10
     6  C    0.000000
     7  C    3.802389   0.000000
     8  C    4.311060   1.495512   0.000000
     9  C    3.831793   2.529853   1.404911   0.000000
    10  C    2.488490   2.957066   2.527469   1.497629   0.000000
    11  C    5.708131   2.489358   1.397198   2.425133   3.805214
    12  C    4.979448   3.808711   2.428782   1.398190   2.493508
    13  C    6.222770   4.298428   2.803055   2.416725   3.776284
    14  O    4.794363   1.218389   2.365458   3.630742   4.175425
    15  O    2.813720   4.175822   3.628659   2.365899   1.218789
    16  H    3.876234   2.659868   4.143038   4.914605   4.661920
    17  H    3.396621   4.634155   5.930454   6.220157   5.367086
    18  H    2.146310   5.368126   6.217525   5.933459   4.633872
    19  H    7.133702   5.380632   3.885424   3.405887   4.651064
    20  H    1.082905   4.663266   4.912611   4.145951   2.660343
    21  H    6.303433   2.675900   2.148791   3.404128   4.673896
    22  H    5.072279   4.667892   3.400642   2.139907   2.664442
    23  C    6.503517   3.759870   2.396670   2.765681   4.263121
    24  S    8.270825   5.232493   4.048453   4.559407   6.056771
    25  O    8.693782   5.282173   4.404566   5.242630   6.705756
    26  O    9.037038   6.359729   5.036972   5.223279   6.673337
    27  O    8.615690   5.609514   4.519816   5.033711   6.468595
    28  C   10.028926   6.906888   5.912401   6.482817   7.914676
    29  H   10.355730   6.983296   6.141335   6.902284   8.349493
    30  H   10.232331   7.225264   6.302052   6.842437   8.197813
    31  H   10.652126   7.666067   6.548369   6.969699   8.415762
                   11         12         13         14         15
    11  C    0.000000
    12  C    2.802014   0.000000
    13  C    2.435132   1.388348   0.000000
    14  O    2.799413   4.793091   5.024848   0.000000
    15  O    4.789698   2.801655   4.189314   5.394154   0.000000
    16  H    5.068795   6.294979   6.939903   2.481390   5.736344
    17  H    7.117900   7.594237   8.551620   4.858771   6.082244
    18  H    7.590643   7.121870   8.342397   6.082351   4.859314
    19  H    3.407419   2.158742   1.082628   6.081866   4.860871
    20  H    6.291983   5.072841   6.410787   5.736865   2.482437
    21  H    1.082599   3.884545   3.420033   2.482495   5.739838
    22  H    3.884445   1.082671   2.156446   5.735372   2.468436
    23  C    1.386771   2.396236   1.395796   4.184359   4.986612
    24  S    2.748946   4.044032   2.753148   5.344059   6.746978
    25  O    3.026282   5.030499   3.892379   5.088750   7.550754
    26  O    3.898508   4.363335   2.986531   6.615743   7.156013
    27  O    3.321691   4.566996   3.393745   5.672721   7.148223
    28  C    4.661692   5.989253   4.767004   6.820286   8.587840
    29  H    4.814925   6.558656   5.346361   6.716222   9.127228
    30  H    5.168065   6.396680   5.289851   7.139689   8.850189
    31  H    5.299084   6.283349   4.975759   7.665368   8.985274
                   16         17         18         19         20
    16  H    0.000000
    17  H    2.493024   0.000000
    18  H    4.303484   2.481213   0.000000
    19  H    8.022068   9.597803   9.272515   0.000000
    20  H    4.958838   4.303104   2.492719   7.217076   0.000000
    21  H    4.944854   7.216052   8.024752   4.304395   7.005992
    22  H    6.996563   8.012959   7.203121   2.508814   4.931964
    23  C    6.396641   8.321268   8.522584   2.151428   6.906087
    24  S    7.749365   9.865228  10.253455   2.871622   8.698454
    25  O    7.554098   9.839040  10.541773   4.184589   9.256775
    26  O    8.950266  10.944094  11.099776   2.575938   9.325565
    27  O    8.028990  10.138579  10.559331   3.489000   9.048325
    28  C    9.207801  11.399891  11.937033   4.695395  10.480440
    29  H    9.141622  11.447594  12.191230   5.389842  10.895152
    30  H    9.424719  11.560527  12.092707   5.246496  10.676504
    31  H   10.070077  12.222799  12.629917   4.668681  11.028660
                   21         22         23         24         25
    21  H    0.000000
    22  H    4.966904   0.000000
    23  C    2.160585   3.388908   0.000000
    24  S    2.897939   4.909433   1.793741   0.000000
    25  O    2.672536   5.989892   2.668944   1.455687   0.000000
    26  O    4.237506   4.992423   2.659575   1.456565   2.523824
    27  O    3.394362   5.387340   2.576975   1.640513   2.519534
    28  C    4.536332   6.765250   3.967808   2.622015   3.077228
    29  H    4.452020   7.423372   4.332149   2.869859   2.769462
    30  H    5.055268   7.130645   4.577950   3.515955   4.025685
    31  H    5.290555   6.954596   4.379810   2.877678   3.482601
                   26         27         28         29         30
    26  O    0.000000
    27  O    2.522515   0.000000
    28  C    3.149471   1.450563   0.000000
    29  H    3.578882   2.095289   1.091023   0.000000
    30  H    4.078045   2.022474   1.087514   1.787790   0.000000
    31  H    2.866219   2.096274   1.091330   1.796861   1.787118
                   31
    31  H    0.000000
 Symmetry turned off by external request.
 Stoichiometry    C15H10O5S
 Framework group  C1[X(C15H10O5S)]
 Deg. of freedom    87
 Full point group                 C1      NOp   1
 Rotational constants (GHZ):           0.7590405           0.1447021           0.1277952
 Leave Link  202 at Sat Feb 10 21:58:18 2024, MaxMem=  4026531840 cpu:               0.1 elap:               0.0
 (Enter /sysapps/ubuntu-applications/gaussian/Gaussian/AVX2/g16/l301.exe)
 Standard basis: 6-311++G(d,p) (5D, 7F)
 Ernie: Thresh=  0.10000D-02 Tol=  0.10000D-05 Strict=F.
   540 basis functions,   860 primitive gaussians,   561 cartesian basis functions
    78 alpha electrons       78 beta electrons
       nuclear repulsion energy      1735.5704560492 Hartrees.
 IExCor=  402 DFT=T Ex+Corr=B3LYP ExCW=0 ScaHFX=  0.200000
 ScaDFX=  0.800000  0.720000  1.000000  0.810000 ScalE2=  1.000000  1.000000
 IRadAn=      5 IRanWt=     -1 IRanGd=            0 ICorTp=0 IEmpDi=  4
 NAtoms=   31 NActive=   31 NUniq=   31 SFac= 1.00D+00 NAtFMM=   60 NAOKFM=F Big=F
 Integral buffers will be    131072 words long.
 Raffenetti 2 integral format.
 Two-electron integral symmetry is turned off.
 ------------------------------------------------------------------------------
 Polarizable Continuum Model (PCM)
 =================================
 Model                : PCM.
 Atomic radii         : UFF (Universal Force Field).
 Polarization charges : Total charges.
 Charge compensation  : None.
 Solution method      : On-the-fly selection.
 Cavity type          : Scaled VdW (van der Waals Surface) (Alpha=1.100).
 Cavity algorithm     : GePol (No added spheres)
                        Default sphere list used, NSphG=   31.
                        Lebedev-Laikov grids with approx.  5.0 points / Ang**2.
                        Smoothing algorithm: York/Karplus (Gamma=1.0000).
                        Polarization charges: spherical gaussians, with
                                              point-specific exponents (IZeta= 3).
                        Self-potential: point-specific (ISelfS= 7).
                        Self-field    : sphere-specific E.n sum rule (ISelfD= 2).
 1st derivatives      : Analytical E(r).r(x)/FMM algorithm (CHGder, D1EAlg=3).
                        Cavity 1st derivative terms included.
 Solvent              : n,n-DiMethylFormamide, Eps=  37.219000 Eps(inf)=   2.046330
 ------------------------------------------------------------------------------
 GePol: Number of generator spheres                  =      31
 GePol: Total number of spheres                      =      31
 GePol: Number of exposed spheres                    =      31 (100.00%)
 GePol: Number of points                             =    2570
 GePol: Average weight of points                     =       0.13
 GePol: Minimum weight of points                     =   0.72D-10
 GePol: Maximum weight of points                     =    0.20577
 GePol: Number of points with low weight             =     190
 GePol: Fraction of low-weight points (<1% of avg)   =       7.39%
 GePol: Cavity surface area                          =    336.149 Ang**2
 GePol: Cavity volume                                =    366.472 Ang**3
 Leave Link  301 at Sat Feb 10 21:58:18 2024, MaxMem=  4026531840 cpu:               1.0 elap:               0.2
 (Enter /sysapps/ubuntu-applications/gaussian/Gaussian/AVX2/g16/l302.exe)
 NPDir=0 NMtPBC=     1 NCelOv=     1 NCel=       1 NClECP=     1 NCelD=      1
         NCelK=      1 NCelE2=     1 NClLst=     1 CellRange=     0.0.
 One-electron integrals computed using PRISM.
 NBasis=   540 RedAO= T EigKep=  1.32D-06  NBF=   540
 NBsUse=   533 1.00D-06 EigRej=  7.98D-07 NBFU=   533
 Precomputing XC quadrature grid using
 IXCGrd= 4 IRadAn=           5 IRanWt=          -1 IRanGd=           0 AccXCQ= 0.00D+00.
 Generated NRdTot=       0 NPtTot=           0 NUsed=           0 NTot=          32
 NSgBfM=   555   555   555   555   555 MxSgAt=    31 MxSgA2=    31.
 Leave Link  302 at Sat Feb 10 21:58:19 2024, MaxMem=  4026531840 cpu:               4.1 elap:               0.5
 (Enter /sysapps/ubuntu-applications/gaussian/Gaussian/AVX2/g16/l303.exe)
 DipDrv:  MaxL=1.
 Leave Link  303 at Sat Feb 10 21:58:19 2024, MaxMem=  4026531840 cpu:               0.8 elap:               0.1
 (Enter /sysapps/ubuntu-applications/gaussian/Gaussian/AVX2/g16/l401.exe)
 ExpMin= 3.60D-02 ExpMax= 9.34D+04 ExpMxC= 3.17D+03 IAcc=3 IRadAn=         5 AccDes= 0.00D+00
 Harris functional with IExCor=  402 and IRadAn=       5 diagonalized for initial guess.
 HarFok:  IExCor=  402 AccDes= 0.00D+00 IRadAn=         5 IDoV= 1 UseB2=F ITyADJ=14
 ICtDFT=  3500011 ScaDFX=  1.000000  1.000000  1.000000  1.000000
 FoFCou: FMM=F IPFlag=           0 FMFlag=      100000 FMFlg1=           0
         NFxFlg=           0 DoJE=T BraDBF=F KetDBF=T FulRan=T
         wScrn=  0.000000 ICntrl=       500 IOpCl=  0 I1Cent=   200000004 NGrid=           0
         NMat0=    1 NMatS0=      1 NMatT0=    0 NMatD0=    1 NMtDS0=    0 NMtDT0=    0
 Symmetry not used in FoFCou.
 Harris En= -1352.22353292945    
 JPrj=0 DoOrth=F DoCkMO=F.
 Initial guess <Sx>= 0.0000 <Sy>= 0.0000 <Sz>= 0.0000 <S**2>= 0.0000 S= 0.0000
 Leave Link  401 at Sat Feb 10 21:58:21 2024, MaxMem=  4026531840 cpu:              19.7 elap:               2.5
 (Enter /sysapps/ubuntu-applications/gaussian/Gaussian/AVX2/g16/l502.exe)
 Two-electron integral symmetry not used.
 UHF open shell SCF:
 Using DIIS extrapolation, IDIIS=  1040.
 NGot=  4026531840 LenX=  4025893972 LenY=  4025578690
 Requested convergence on RMS density matrix=1.00D-08 within 128 cycles.
 Requested convergence on MAX density matrix=1.00D-06.
 Requested convergence on             energy=1.00D-06.
 No special actions if energy rises.
 Fock matrices will be formed incrementally for  20 cycles.

 Cycle   1  Pass 1  IDiag  1:
 FoFJK:  IHMeth= 1 ICntrl=       0 DoSepK=F KAlg= 0 I1Cent=           0 FoldK=F
 IRaf= 800000000 NMat=       1 IRICut=       1 DoRegI=T DoRafI=F ISym2E= 0 IDoP0=0 IntGTp=1.
 FoFCou: FMM=F IPFlag=           0 FMFlag=      100000 FMFlg1=           0
         NFxFlg=           0 DoJE=F BraDBF=F KetDBF=F FulRan=T
         wScrn=  0.000000 ICntrl=         0 IOpCl=  1 I1Cent=           0 NGrid=           0
         NMat0=    1 NMatS0=      1 NMatT0=    0 NMatD0=    1 NMtDS0=    0 NMtDT0=    0
 Symmetry not used in FoFCou.
 Inv3:  Mode=1 IEnd=    19814700.
 Iteration    1 A*A^-1 deviation from unit magnitude is 3.11D-15 for   2036.
 Iteration    1 A*A^-1 deviation from orthogonality  is 1.97D-15 for   1448   1341.
 Iteration    1 A^-1*A deviation from unit magnitude is 3.33D-15 for   1111.
 Iteration    1 A^-1*A deviation from orthogonality  is 2.50D-15 for   1810   1758.
 E= -1351.53432960614    
 DIIS: error= 3.04D-02 at cycle   1 NSaved=   1.
 NSaved= 1 IEnMin= 1 EnMin= -1351.53432960614     IErMin= 1 ErrMin= 3.04D-02
 ErrMax= 3.04D-02  0.00D+00 EMaxC= 1.00D-01 BMatC= 3.51D+00 BMatP= 3.51D+00
 IDIUse=3 WtCom= 6.96D-01 WtEn= 3.04D-01
 Coeff-Com:  0.100D+01
 Coeff-En:   0.100D+01
 Coeff:      0.100D+01
 Gap=     0.160 Goal=   None    Shift=    0.000
 Gap=     0.160 Goal=   None    Shift=    0.000
 GapD=    0.160 DampG=1.000 DampE=0.500 DampFc=0.5000 IDamp=-1.
 Damping current iteration by 5.00D-01
 RMSDP=2.30D-01 MaxDP=1.69D+01              OVMax= 2.69D-01

 Cycle   2  Pass 1  IDiag  1:
 RMSU=  5.77D-02    CP:  2.01D+00
 E= -1351.65463177524     Delta-E=       -0.120302169099 Rises=F Damp=T
 DIIS: error= 1.47D-02 at cycle   2 NSaved=   2.
 NSaved= 2 IEnMin= 2 EnMin= -1351.65463177524     IErMin= 2 ErrMin= 1.47D-02
 ErrMax= 1.47D-02  0.00D+00 EMaxC= 1.00D-01 BMatC= 6.14D-01 BMatP= 3.51D+00
 IDIUse=3 WtCom= 8.53D-01 WtEn= 1.47D-01
 Coeff-Com:  0.244D+00 0.756D+00
 Coeff-En:   0.407D+00 0.593D+00
 Coeff:      0.268D+00 0.732D+00
 Gap=     0.176 Goal=   None    Shift=    0.000
 Gap=     0.176 Goal=   None    Shift=    0.000
 RMSDP=8.00D-02 MaxDP=5.98D+00 DE=-1.20D-01 OVMax= 2.43D-01

 Cycle   3  Pass 1  IDiag  1:
 RMSU=  7.78D-03    CP:  1.30D+00  3.27D-01
 E= -1352.10571807909     Delta-E=       -0.451086303848 Rises=F Damp=F
 DIIS: error= 1.35D-02 at cycle   3 NSaved=   3.
 NSaved= 3 IEnMin= 3 EnMin= -1352.10571807909     IErMin= 3 ErrMin= 1.35D-02
 ErrMax= 1.35D-02  0.00D+00 EMaxC= 1.00D-01 BMatC= 2.75D-01 BMatP= 6.14D-01
 IDIUse=3 WtCom= 8.65D-01 WtEn= 1.35D-01
 Coeff-Com:  0.652D-01 0.405D+00 0.530D+00
 Coeff-En:   0.000D+00 0.000D+00 0.100D+01
 Coeff:      0.564D-01 0.350D+00 0.594D+00
 Gap=     0.166 Goal=   None    Shift=    0.000
 Gap=     0.166 Goal=   None    Shift=    0.000
 RMSDP=1.67D-02 MaxDP=1.29D+00 DE=-4.51D-01 OVMax= 6.86D-02

 Cycle   4  Pass 1  IDiag  1:
 RMSU=  3.59D-03    CP:  1.45D+00  4.50D-01  5.89D-01
 E= -1352.14854075004     Delta-E=       -0.042822670956 Rises=F Damp=F
 DIIS: error= 9.14D-03 at cycle   4 NSaved=   4.
 NSaved= 4 IEnMin= 4 EnMin= -1352.14854075004     IErMin= 4 ErrMin= 9.14D-03
 ErrMax= 9.14D-03  0.00D+00 EMaxC= 1.00D-01 BMatC= 9.12D-02 BMatP= 2.75D-01
 IDIUse=3 WtCom= 9.09D-01 WtEn= 9.14D-02
 Coeff-Com:  0.109D-01 0.119D+00 0.382D+00 0.488D+00
 Coeff-En:   0.000D+00 0.000D+00 0.261D+00 0.739D+00
 Coeff:      0.990D-02 0.108D+00 0.371D+00 0.511D+00
 Gap=     0.158 Goal=   None    Shift=    0.000
 Gap=     0.158 Goal=   None    Shift=    0.000
 RMSDP=3.27D-03 MaxDP=2.58D-01 DE=-4.28D-02 OVMax= 2.70D-02

 Cycle   5  Pass 1  IDiag  1:
 RMSU=  9.38D-04    CP:  1.42D+00  4.43D-01  7.01D-01  5.27D-01
 E= -1352.16603380375     Delta-E=       -0.017493053703 Rises=F Damp=F
 DIIS: error= 1.63D-03 at cycle   5 NSaved=   5.
 NSaved= 5 IEnMin= 5 EnMin= -1352.16603380375     IErMin= 5 ErrMin= 1.63D-03
 ErrMax= 1.63D-03  0.00D+00 EMaxC= 1.00D-01 BMatC= 5.44D-03 BMatP= 9.12D-02
 IDIUse=3 WtCom= 9.84D-01 WtEn= 1.63D-02
 Coeff-Com: -0.136D-02 0.223D-01 0.153D+00 0.287D+00 0.538D+00
 Coeff-En:   0.000D+00 0.000D+00 0.000D+00 0.000D+00 0.100D+01
 Coeff:     -0.134D-02 0.219D-01 0.151D+00 0.283D+00 0.546D+00
 Gap=     0.154 Goal=   None    Shift=    0.000
 Gap=     0.154 Goal=   None    Shift=    0.000
 RMSDP=2.03D-03 MaxDP=1.60D-01 DE=-1.75D-02 OVMax= 6.50D-03

 Cycle   6  Pass 1  IDiag  1:
 RMSU=  3.60D-04    CP:  1.41D+00  4.30D-01  6.78D-01  5.87D-01  8.31D-01
 E= -1352.16692607193     Delta-E=       -0.000892268183 Rises=F Damp=F
 DIIS: error= 4.56D-04 at cycle   6 NSaved=   6.
 NSaved= 6 IEnMin= 6 EnMin= -1352.16692607193     IErMin= 6 ErrMin= 4.56D-04
 ErrMax= 4.56D-04  0.00D+00 EMaxC= 1.00D-01 BMatC= 5.00D-04 BMatP= 5.44D-03
 IDIUse=3 WtCom= 9.95D-01 WtEn= 4.56D-03
 Coeff-Com: -0.167D-02 0.221D-02 0.527D-01 0.117D+00 0.312D+00 0.518D+00
 Coeff-En:   0.000D+00 0.000D+00 0.000D+00 0.000D+00 0.350D-02 0.997D+00
 Coeff:     -0.167D-02 0.220D-02 0.524D-01 0.116D+00 0.311D+00 0.520D+00
 Gap=     0.154 Goal=   None    Shift=    0.000
 Gap=     0.154 Goal=   None    Shift=    0.000
 RMSDP=4.17D-04 MaxDP=3.08D-02 DE=-8.92D-04 OVMax= 2.77D-03

 Cycle   7  Pass 1  IDiag  1:
 RMSU=  1.42D-04    CP:  1.41D+00  4.34D-01  6.87D-01  5.98D-01  8.10D-01
                    CP:  7.35D-01
 E= -1352.16700818082     Delta-E=       -0.000082108887 Rises=F Damp=F
 DIIS: error= 1.58D-04 at cycle   7 NSaved=   7.
 NSaved= 7 IEnMin= 7 EnMin= -1352.16700818082     IErMin= 7 ErrMin= 1.58D-04
 ErrMax= 1.58D-04  0.00D+00 EMaxC= 1.00D-01 BMatC= 5.76D-05 BMatP= 5.00D-04
 IDIUse=3 WtCom= 9.98D-01 WtEn= 1.58D-03
 Coeff-Com: -0.767D-03-0.147D-03 0.190D-01 0.450D-01 0.139D+00 0.321D+00
 Coeff-Com:  0.476D+00
 Coeff-En:   0.000D+00 0.000D+00 0.000D+00 0.000D+00 0.000D+00 0.783D-01
 Coeff-En:   0.922D+00
 Coeff:     -0.766D-03-0.147D-03 0.190D-01 0.449D-01 0.139D+00 0.321D+00
 Coeff:      0.477D+00
 Gap=     0.154 Goal=   None    Shift=    0.000
 Gap=     0.154 Goal=   None    Shift=    0.000
 RMSDP=1.38D-04 MaxDP=9.60D-03 DE=-8.21D-05 OVMax= 9.55D-04

 Cycle   8  Pass 1  IDiag  1:
 RMSU=  3.77D-05    CP:  1.41D+00  4.33D-01  6.90D-01  5.93D-01  7.83D-01
                    CP:  7.29D-01  7.23D-01
 E= -1352.16701964623     Delta-E=       -0.000011465414 Rises=F Damp=F
 DIIS: error= 6.60D-05 at cycle   8 NSaved=   8.
 NSaved= 8 IEnMin= 8 EnMin= -1352.16701964623     IErMin= 8 ErrMin= 6.60D-05
 ErrMax= 6.60D-05  0.00D+00 EMaxC= 1.00D-01 BMatC= 6.26D-06 BMatP= 5.76D-05
 IDIUse=1 WtCom= 1.00D+00 WtEn= 0.00D+00
 Coeff-Com: -0.207D-03-0.568D-03 0.448D-02 0.120D-01 0.463D-01 0.133D+00
 Coeff-Com:  0.289D+00 0.516D+00
 Coeff:     -0.207D-03-0.568D-03 0.448D-02 0.120D-01 0.463D-01 0.133D+00
 Coeff:      0.289D+00 0.516D+00
 Gap=     0.154 Goal=   None    Shift=    0.000
 Gap=     0.154 Goal=   None    Shift=    0.000
 RMSDP=4.89D-05 MaxDP=3.86D-03 DE=-1.15D-05 OVMax= 2.33D-04

 Cycle   9  Pass 1  IDiag  1:
 RMSU=  9.26D-06    CP:  1.41D+00  4.33D-01  6.89D-01  5.94D-01  7.87D-01
                    CP:  7.30D-01  7.50D-01  8.13D-01
 E= -1352.16702086945     Delta-E=       -0.000001223224 Rises=F Damp=F
 DIIS: error= 1.14D-05 at cycle   9 NSaved=   9.
 NSaved= 9 IEnMin= 9 EnMin= -1352.16702086945     IErMin= 9 ErrMin= 1.14D-05
 ErrMax= 1.14D-05  0.00D+00 EMaxC= 1.00D-01 BMatC= 2.97D-07 BMatP= 6.26D-06
 IDIUse=1 WtCom= 1.00D+00 WtEn= 0.00D+00
 Coeff-Com:  0.672D-05-0.210D-03-0.183D-03-0.137D-04 0.463D-02 0.220D-01
 Coeff-Com:  0.704D-01 0.226D+00 0.677D+00
 Coeff:      0.672D-05-0.210D-03-0.183D-03-0.137D-04 0.463D-02 0.220D-01
 Coeff:      0.704D-01 0.226D+00 0.677D+00
 Gap=     0.154 Goal=   None    Shift=    0.000
 Gap=     0.154 Goal=   None    Shift=    0.000
 RMSDP=1.81D-05 MaxDP=1.76D-03 DE=-1.22D-06 OVMax= 7.68D-05

 Cycle  10  Pass 1  IDiag  1:
 RMSU=  4.35D-06    CP:  1.41D+00  4.33D-01  6.90D-01  5.93D-01  7.91D-01
                    CP:  7.22D-01  7.39D-01  7.53D-01  7.37D-01
 E= -1352.16702092104     Delta-E=       -0.000000051591 Rises=F Damp=F
 DIIS: error= 5.08D-06 at cycle  10 NSaved=  10.
 NSaved=10 IEnMin=10 EnMin= -1352.16702092104     IErMin=10 ErrMin= 5.08D-06
 ErrMax= 5.08D-06  0.00D+00 EMaxC= 1.00D-01 BMatC= 5.14D-08 BMatP= 2.97D-07
 IDIUse=1 WtCom= 1.00D+00 WtEn= 0.00D+00
 Coeff-Com:  0.103D-04-0.939D-04-0.297D-03-0.559D-03 0.512D-03 0.595D-02
 Coeff-Com:  0.245D-01 0.973D-01 0.393D+00 0.480D+00
 Coeff:      0.103D-04-0.939D-04-0.297D-03-0.559D-03 0.512D-03 0.595D-02
 Coeff:      0.245D-01 0.973D-01 0.393D+00 0.480D+00
 Gap=     0.154 Goal=   None    Shift=    0.000
 Gap=     0.154 Goal=   None    Shift=    0.000
 RMSDP=2.63D-06 MaxDP=3.22D-04 DE=-5.16D-08 OVMax= 3.98D-05

 Cycle  11  Pass 1  IDiag  1:
 RMSU=  1.31D-06    CP:  1.41D+00  4.33D-01  6.90D-01  5.93D-01  7.90D-01
                    CP:  7.23D-01  7.42D-01  7.70D-01  7.98D-01  9.30D-01
 E= -1352.16702093317     Delta-E=       -0.000000012128 Rises=F Damp=F
 DIIS: error= 9.84D-07 at cycle  11 NSaved=  11.
 NSaved=11 IEnMin=11 EnMin= -1352.16702093317     IErMin=11 ErrMin= 9.84D-07
 ErrMax= 9.84D-07  0.00D+00 EMaxC= 1.00D-01 BMatC= 2.98D-09 BMatP= 5.14D-08
 IDIUse=1 WtCom= 1.00D+00 WtEn= 0.00D+00
 Coeff-Com:  0.322D-05-0.818D-05-0.125D-03-0.304D-03-0.535D-03-0.733D-03
 Coeff-Com:  0.104D-02 0.109D-01 0.887D-01 0.217D+00 0.684D+00
 Coeff:      0.322D-05-0.818D-05-0.125D-03-0.304D-03-0.535D-03-0.733D-03
 Coeff:      0.104D-02 0.109D-01 0.887D-01 0.217D+00 0.684D+00
 Gap=     0.154 Goal=   None    Shift=    0.000
 Gap=     0.154 Goal=   None    Shift=    0.000
 RMSDP=5.93D-07 MaxDP=3.80D-05 DE=-1.21D-08 OVMax= 1.37D-05

 Cycle  12  Pass 1  IDiag  1:
 RMSU=  3.19D-07    CP:  1.41D+00  4.33D-01  6.90D-01  5.93D-01  7.90D-01
                    CP:  7.24D-01  7.43D-01  7.75D-01  8.17D-01  9.12D-01
                    CP:  8.11D-01
 E= -1352.16702093389     Delta-E=       -0.000000000717 Rises=F Damp=F
 DIIS: error= 3.21D-07 at cycle  12 NSaved=  12.
 NSaved=12 IEnMin=12 EnMin= -1352.16702093389     IErMin=12 ErrMin= 3.21D-07
 ErrMax= 3.21D-07  0.00D+00 EMaxC= 1.00D-01 BMatC= 4.52D-10 BMatP= 2.98D-09
 IDIUse=1 WtCom= 1.00D+00 WtEn= 0.00D+00
 Coeff-Com:  0.909D-06 0.206D-05-0.515D-04-0.134D-03-0.352D-03-0.849D-03
 Coeff-Com: -0.113D-02-0.978D-03 0.193D-01 0.746D-01 0.366D+00 0.544D+00
 Coeff:      0.909D-06 0.206D-05-0.515D-04-0.134D-03-0.352D-03-0.849D-03
 Coeff:     -0.113D-02-0.978D-03 0.193D-01 0.746D-01 0.366D+00 0.544D+00
 Gap=     0.154 Goal=   None    Shift=    0.000
 Gap=     0.154 Goal=   None    Shift=    0.000
 RMSDP=3.39D-07 MaxDP=2.40D-05 DE=-7.17D-10 OVMax= 3.12D-06

 Cycle  13  Pass 1  IDiag  1:
 RMSU=  8.44D-08    CP:  1.41D+00  4.33D-01  6.90D-01  5.93D-01  7.90D-01
                    CP:  7.23D-01  7.43D-01  7.75D-01  8.20D-01  9.21D-01
                    CP:  8.33D-01  8.04D-01
 E= -1352.16702093397     Delta-E=       -0.000000000079 Rises=F Damp=F
 DIIS: error= 1.54D-07 at cycle  13 NSaved=  13.
 NSaved=13 IEnMin=13 EnMin= -1352.16702093397     IErMin=13 ErrMin= 1.54D-07
 ErrMax= 1.54D-07  0.00D+00 EMaxC= 1.00D-01 BMatC= 3.20D-11 BMatP= 4.52D-10
 IDIUse=1 WtCom= 1.00D+00 WtEn= 0.00D+00
 Coeff-Com: -0.131D-06 0.169D-05-0.869D-05-0.245D-04-0.979D-04-0.296D-03
 Coeff-Com: -0.595D-03-0.164D-02-0.182D-02 0.519D-02 0.864D-01 0.243D+00
 Coeff-Com:  0.670D+00
 Coeff:     -0.131D-06 0.169D-05-0.869D-05-0.245D-04-0.979D-04-0.296D-03
 Coeff:     -0.595D-03-0.164D-02-0.182D-02 0.519D-02 0.864D-01 0.243D+00
 Coeff:      0.670D+00
 Gap=     0.154 Goal=   None    Shift=    0.000
 Gap=     0.154 Goal=   None    Shift=    0.000
 RMSDP=6.54D-08 MaxDP=6.47D-06 DE=-7.89D-11 OVMax= 1.52D-06

 Cycle  14  Pass 1  IDiag  1:
 RMSU=  3.96D-08    CP:  1.41D+00  4.33D-01  6.90D-01  5.93D-01  7.90D-01
                    CP:  7.23D-01  7.43D-01  7.74D-01  8.19D-01  9.27D-01
                    CP:  8.32D-01  8.56D-01  9.40D-01
 E= -1352.16702093397     Delta-E=       -0.000000000003 Rises=F Damp=F
 DIIS: error= 7.82D-08 at cycle  14 NSaved=  14.
 NSaved=14 IEnMin=14 EnMin= -1352.16702093397     IErMin=14 ErrMin= 7.82D-08
 ErrMax= 7.82D-08  0.00D+00 EMaxC= 1.00D-01 BMatC= 1.21D-11 BMatP= 3.20D-11
 IDIUse=1 WtCom= 1.00D+00 WtEn= 0.00D+00
 Coeff-Com: -0.170D-06 0.796D-06 0.162D-05 0.267D-05-0.144D-04-0.683D-04
 Coeff-Com: -0.226D-03-0.892D-03-0.407D-02-0.779D-02 0.394D-02 0.784D-01
 Coeff-Com:  0.438D+00 0.492D+00
 Coeff:     -0.170D-06 0.796D-06 0.162D-05 0.267D-05-0.144D-04-0.683D-04
 Coeff:     -0.226D-03-0.892D-03-0.407D-02-0.779D-02 0.394D-02 0.784D-01
 Coeff:      0.438D+00 0.492D+00
 Gap=     0.154 Goal=   None    Shift=    0.000
 Gap=     0.154 Goal=   None    Shift=    0.000
 RMSDP=3.99D-08 MaxDP=2.71D-06 DE=-2.96D-12 OVMax= 5.21D-07

 Cycle  15  Pass 1  IDiag  1:
 RMSU=  1.30D-08    CP:  1.41D+00  4.33D-01  6.90D-01  5.93D-01  7.90D-01
                    CP:  7.23D-01  7.43D-01  7.74D-01  8.19D-01  9.29D-01
                    CP:  8.41D-01  8.57D-01  9.56D-01  7.04D-01
 E= -1352.16702093402     Delta-E=       -0.000000000050 Rises=F Damp=F
 DIIS: error= 1.90D-08 at cycle  15 NSaved=  15.
 NSaved=15 IEnMin=15 EnMin= -1352.16702093402     IErMin=15 ErrMin= 1.90D-08
 ErrMax= 1.90D-08  0.00D+00 EMaxC= 1.00D-01 BMatC= 6.13D-13 BMatP= 1.21D-11
 IDIUse=1 WtCom= 1.00D+00 WtEn= 0.00D+00
 Coeff-Com: -0.258D-07 0.163D-06 0.180D-05 0.376D-05 0.344D-05-0.673D-06
 Coeff-Com: -0.512D-04-0.235D-03-0.178D-02-0.431D-02-0.788D-02 0.945D-02
 Coeff-Com:  0.138D+00 0.235D+00 0.632D+00
 Coeff:     -0.258D-07 0.163D-06 0.180D-05 0.376D-05 0.344D-05-0.673D-06
 Coeff:     -0.512D-04-0.235D-03-0.178D-02-0.431D-02-0.788D-02 0.945D-02
 Coeff:      0.138D+00 0.235D+00 0.632D+00
 Gap=     0.154 Goal=   None    Shift=    0.000
 Gap=     0.154 Goal=   None    Shift=    0.000
 RMSDP=1.19D-08 MaxDP=7.32D-07 DE=-5.00D-11 OVMax= 1.29D-07

 Cycle  16  Pass 1  IDiag  1:
 RMSU=  4.88D-09    CP:  1.41D+00  4.33D-01  6.90D-01  5.93D-01  7.90D-01
                    CP:  7.23D-01  7.43D-01  7.74D-01  8.19D-01  9.29D-01
                    CP:  8.42D-01  8.63D-01  9.37D-01  6.88D-01  8.36D-01
 E= -1352.16702093400     Delta-E=        0.000000000023 Rises=F Damp=F
 DIIS: error= 1.08D-08 at cycle  16 NSaved=  16.
 NSaved=16 IEnMin=15 EnMin= -1352.16702093402     IErMin=16 ErrMin= 1.08D-08
 ErrMax= 1.08D-08  0.00D+00 EMaxC= 1.00D-01 BMatC= 1.81D-13 BMatP= 6.13D-13
 IDIUse=1 WtCom= 1.00D+00 WtEn= 0.00D+00
 Coeff-Com:  0.160D-07-0.209D-07 0.920D-06 0.193D-05 0.390D-05 0.793D-05
 Coeff-Com: -0.525D-05-0.306D-04-0.562D-03-0.158D-02-0.509D-02-0.383D-02
 Coeff-Com:  0.317D-01 0.857D-01 0.405D+00 0.488D+00
 Coeff:      0.160D-07-0.209D-07 0.920D-06 0.193D-05 0.390D-05 0.793D-05
 Coeff:     -0.525D-05-0.306D-04-0.562D-03-0.158D-02-0.509D-02-0.383D-02
 Coeff:      0.317D-01 0.857D-01 0.405D+00 0.488D+00
 Gap=     0.154 Goal=   None    Shift=    0.000
 Gap=     0.154 Goal=   None    Shift=    0.000
 RMSDP=3.24D-09 MaxDP=2.87D-07 DE= 2.27D-11 OVMax= 8.02D-08

 Error on total polarization charges =  0.01640
 SCF Done:  E(UB3LYP) =  -1352.16702093     A.U. after   16 cycles
            NFock= 16  Conv=0.32D-08     -V/T= 2.0031
 <Sx>= 0.0000 <Sy>= 0.0000 <Sz>= 0.0000 <S**2>=-0.0000 S=-0.0000
 <L.S>=  0.00000000000    
 KE= 1.347930044647D+03 PE=-6.644588028612D+03 EE= 2.208920506982D+03
 Annihilation of the first spin contaminant:
 S**2 before annihilation    -0.0000,   after     0.0000
 Leave Link  502 at Sat Feb 10 22:03:35 2024, MaxMem=  4026531840 cpu:            2474.2 elap:             313.7
 (Enter /sysapps/ubuntu-applications/gaussian/Gaussian/AVX2/g16/l601.exe)
 Copying SCF densities to generalized density rwf, IOpCl= 1 IROHF=0.

 **********************************************************************

            Population analysis using the SCF density.

 **********************************************************************

 Alpha  occ. eigenvalues --  -89.10399 -19.19104 -19.15212 -19.15176 -19.14168
 Alpha  occ. eigenvalues --  -19.14086 -10.29349 -10.29321 -10.24843 -10.23936
 Alpha  occ. eigenvalues --  -10.22814 -10.22704 -10.22535 -10.22487 -10.21587
 Alpha  occ. eigenvalues --  -10.21550 -10.21537 -10.20373 -10.20339 -10.20298
 Alpha  occ. eigenvalues --  -10.20281  -8.16496  -6.12860  -6.12692  -6.12567
 Alpha  occ. eigenvalues --   -1.17327  -1.07723  -1.07543  -1.06303  -1.04667
 Alpha  occ. eigenvalues --   -0.91517  -0.89367  -0.83605  -0.80478  -0.78972
 Alpha  occ. eigenvalues --   -0.78461  -0.75505  -0.70509  -0.69054  -0.66553
 Alpha  occ. eigenvalues --   -0.63778  -0.62821  -0.59880  -0.58236  -0.57334
 Alpha  occ. eigenvalues --   -0.54690  -0.53387  -0.51992  -0.50851  -0.49985
 Alpha  occ. eigenvalues --   -0.49686  -0.47496  -0.47246  -0.47018  -0.46788
 Alpha  occ. eigenvalues --   -0.46567  -0.45783  -0.45624  -0.45343  -0.43197
 Alpha  occ. eigenvalues --   -0.42919  -0.41994  -0.40897  -0.39913  -0.38832
 Alpha  occ. eigenvalues --   -0.38153  -0.37466  -0.37038  -0.36605  -0.35397
 Alpha  occ. eigenvalues --   -0.35034  -0.31827  -0.30688  -0.29832  -0.29809
 Alpha  occ. eigenvalues --   -0.28702  -0.28556  -0.28404
 Alpha virt. eigenvalues --   -0.13008  -0.09010  -0.05818  -0.03958  -0.01311
 Alpha virt. eigenvalues --   -0.00343   0.00304   0.00835   0.01258   0.01616
 Alpha virt. eigenvalues --    0.02041   0.02494   0.02745   0.03301   0.03508
 Alpha virt. eigenvalues --    0.03889   0.04504   0.04973   0.05399   0.05597
 Alpha virt. eigenvalues --    0.06019   0.06032   0.06718   0.07081   0.07227
 Alpha virt. eigenvalues --    0.07729   0.07800   0.08809   0.09030   0.09110
 Alpha virt. eigenvalues --    0.09581   0.10034   0.10418   0.10762   0.11052
 Alpha virt. eigenvalues --    0.11303   0.11744   0.11833   0.12084   0.12247
 Alpha virt. eigenvalues --    0.12755   0.12806   0.13081   0.13399   0.13604
 Alpha virt. eigenvalues --    0.13692   0.14477   0.14753   0.15140   0.15145
 Alpha virt. eigenvalues --    0.15822   0.16113   0.16530   0.16712   0.17259
 Alpha virt. eigenvalues --    0.17274   0.17556   0.17862   0.18258   0.18527
 Alpha virt. eigenvalues --    0.18929   0.19043   0.19248   0.19457   0.20715
 Alpha virt. eigenvalues --    0.20876   0.21307   0.21751   0.22022   0.22245
 Alpha virt. eigenvalues --    0.22383   0.22697   0.22810   0.23292   0.24225
 Alpha virt. eigenvalues --    0.24558   0.24841   0.24998   0.25535   0.25880
 Alpha virt. eigenvalues --    0.26288   0.26592   0.27082   0.27405   0.28034
 Alpha virt. eigenvalues --    0.28343   0.28886   0.28899   0.29299   0.29886
 Alpha virt. eigenvalues --    0.30139   0.30179   0.30449   0.30764   0.30857
 Alpha virt. eigenvalues --    0.30925   0.31566   0.31837   0.32402   0.33206
 Alpha virt. eigenvalues --    0.33741   0.34345   0.34578   0.34890   0.34975
 Alpha virt. eigenvalues --    0.35176   0.35748   0.36112   0.37037   0.37147
 Alpha virt. eigenvalues --    0.38014   0.38304   0.38775   0.39889   0.40055
 Alpha virt. eigenvalues --    0.40939   0.41109   0.41633   0.42371   0.43941
 Alpha virt. eigenvalues --    0.44118   0.44995   0.46063   0.46998   0.47547
 Alpha virt. eigenvalues --    0.47899   0.48461   0.49392   0.51058   0.51673
 Alpha virt. eigenvalues --    0.52457   0.52944   0.53188   0.53883   0.54442
 Alpha virt. eigenvalues --    0.55713   0.56372   0.56511   0.56977   0.57548
 Alpha virt. eigenvalues --    0.58253   0.59121   0.59277   0.60263   0.61644
 Alpha virt. eigenvalues --    0.62037   0.62162   0.63233   0.63621   0.64412
 Alpha virt. eigenvalues --    0.64538   0.64805   0.65504   0.65733   0.66055
 Alpha virt. eigenvalues --    0.66538   0.67136   0.67869   0.69397   0.69791
 Alpha virt. eigenvalues --    0.70922   0.71241   0.71985   0.72179   0.73174
 Alpha virt. eigenvalues --    0.73222   0.74787   0.75894   0.76427   0.76846
 Alpha virt. eigenvalues --    0.78766   0.80239   0.81972   0.82739   0.84773
 Alpha virt. eigenvalues --    0.85130   0.85652   0.86607   0.87538   0.88421
 Alpha virt. eigenvalues --    0.88752   0.89739   0.90060   0.90800   0.91104
 Alpha virt. eigenvalues --    0.91699   0.92093   0.92518   0.93414   0.93629
 Alpha virt. eigenvalues --    0.96066   0.96437   0.97499   0.98052   0.98481
 Alpha virt. eigenvalues --    0.98637   0.99168   0.99694   1.01582   1.01869
 Alpha virt. eigenvalues --    1.02415   1.04063   1.04399   1.04588   1.05237
 Alpha virt. eigenvalues --    1.06598   1.07109   1.09164   1.09624   1.10358
 Alpha virt. eigenvalues --    1.10993   1.12653   1.12877   1.13228   1.14094
 Alpha virt. eigenvalues --    1.15544   1.16156   1.16380   1.18020   1.19141
 Alpha virt. eigenvalues --    1.20036   1.20604   1.21517   1.21756   1.22970
 Alpha virt. eigenvalues --    1.23347   1.26551   1.27033   1.28313   1.31225
 Alpha virt. eigenvalues --    1.31521   1.32699   1.33160   1.33554   1.37383
 Alpha virt. eigenvalues --    1.38803   1.40868   1.42908   1.43740   1.45371
 Alpha virt. eigenvalues --    1.47522   1.48118   1.49020   1.49354   1.49629
 Alpha virt. eigenvalues --    1.50501   1.52183   1.53742   1.54497   1.55214
 Alpha virt. eigenvalues --    1.55832   1.56454   1.57806   1.57829   1.59469
 Alpha virt. eigenvalues --    1.59727   1.61542   1.63710   1.64842   1.65601
 Alpha virt. eigenvalues --    1.67133   1.68514   1.68732   1.70540   1.70924
 Alpha virt. eigenvalues --    1.71324   1.71732   1.72756   1.73938   1.73976
 Alpha virt. eigenvalues --    1.75697   1.76378   1.77261   1.79588   1.80798
 Alpha virt. eigenvalues --    1.82349   1.82960   1.87894   1.88218   1.88832
 Alpha virt. eigenvalues --    1.89118   1.89837   1.89988   1.90179   1.91079
 Alpha virt. eigenvalues --    1.91355   1.93267   1.94543   1.95154   1.95852
 Alpha virt. eigenvalues --    1.96563   1.98331   1.99811   2.01230   2.02315
 Alpha virt. eigenvalues --    2.03292   2.05145   2.05935   2.06351   2.08619
 Alpha virt. eigenvalues --    2.11220   2.12560   2.14415   2.14817   2.15692
 Alpha virt. eigenvalues --    2.16970   2.21311   2.23897   2.25864   2.29040
 Alpha virt. eigenvalues --    2.31774   2.32019   2.35354   2.35765   2.37345
 Alpha virt. eigenvalues --    2.41867   2.43319   2.44959   2.47281   2.48379
 Alpha virt. eigenvalues --    2.48461   2.50836   2.53747   2.54569   2.58659
 Alpha virt. eigenvalues --    2.59163   2.59987   2.61518   2.63068   2.64498
 Alpha virt. eigenvalues --    2.67146   2.67744   2.70388   2.71251   2.72335
 Alpha virt. eigenvalues --    2.73105   2.73324   2.74034   2.75059   2.75604
 Alpha virt. eigenvalues --    2.75650   2.76407   2.76843   2.77369   2.77767
 Alpha virt. eigenvalues --    2.78851   2.80036   2.81046   2.81887   2.82270
 Alpha virt. eigenvalues --    2.82840   2.83492   2.85304   2.85505   2.85719
 Alpha virt. eigenvalues --    2.86509   2.87434   2.88162   2.91709   2.92051
 Alpha virt. eigenvalues --    2.92367   2.93461   2.95295   2.96062   2.96455
 Alpha virt. eigenvalues --    2.99421   3.04229   3.04841   3.06411   3.07236
 Alpha virt. eigenvalues --    3.07722   3.08971   3.09566   3.13130   3.16336
 Alpha virt. eigenvalues --    3.19589   3.21331   3.22258   3.23460   3.27956
 Alpha virt. eigenvalues --    3.30954   3.32180   3.32977   3.34560   3.34992
 Alpha virt. eigenvalues --    3.39482   3.41877   3.50618   3.52021   3.52256
 Alpha virt. eigenvalues --    3.53928   3.54307   3.55794   3.56805   3.58194
 Alpha virt. eigenvalues --    3.58457   3.67237   3.75888   3.77192   3.77420
 Alpha virt. eigenvalues --    3.79556   3.81608   3.84128   4.00794   4.02356
 Alpha virt. eigenvalues --    4.04108   4.06955   4.16090   4.19445   4.21726
 Alpha virt. eigenvalues --    4.24612   4.43599   4.72602   4.81603   4.83499
 Alpha virt. eigenvalues --    4.97523   4.98845   5.03154   5.03495   5.04409
 Alpha virt. eigenvalues --    5.05623   5.07659   5.11129   5.19280   5.23063
 Alpha virt. eigenvalues --    5.25555   5.28087   5.46283   5.71694   5.79957
 Alpha virt. eigenvalues --    8.17008  17.29089  17.40612  17.51449  23.49711
 Alpha virt. eigenvalues --   23.62304  23.85326  23.89464  23.90488  23.91674
 Alpha virt. eigenvalues --   23.92073  23.93584  23.94046  24.01453  24.04987
 Alpha virt. eigenvalues --   24.06275  24.07678  24.14391  24.16523  49.85011
 Alpha virt. eigenvalues --   49.85506  49.91767  50.02151  50.07039 189.27831
  Beta  occ. eigenvalues --  -89.10399 -19.19104 -19.15212 -19.15176 -19.14168
  Beta  occ. eigenvalues --  -19.14086 -10.29349 -10.29321 -10.24843 -10.23936
  Beta  occ. eigenvalues --  -10.22814 -10.22704 -10.22535 -10.22487 -10.21587
  Beta  occ. eigenvalues --  -10.21550 -10.21537 -10.20373 -10.20339 -10.20298
  Beta  occ. eigenvalues --  -10.20281  -8.16496  -6.12860  -6.12692  -6.12567
  Beta  occ. eigenvalues --   -1.17327  -1.07723  -1.07543  -1.06303  -1.04667
  Beta  occ. eigenvalues --   -0.91517  -0.89367  -0.83605  -0.80478  -0.78972
  Beta  occ. eigenvalues --   -0.78461  -0.75505  -0.70509  -0.69054  -0.66553
  Beta  occ. eigenvalues --   -0.63778  -0.62821  -0.59880  -0.58236  -0.57334
  Beta  occ. eigenvalues --   -0.54690  -0.53387  -0.51992  -0.50851  -0.49985
  Beta  occ. eigenvalues --   -0.49686  -0.47496  -0.47246  -0.47018  -0.46788
  Beta  occ. eigenvalues --   -0.46567  -0.45783  -0.45624  -0.45343  -0.43197
  Beta  occ. eigenvalues --   -0.42919  -0.41994  -0.40897  -0.39913  -0.38832
  Beta  occ. eigenvalues --   -0.38153  -0.37466  -0.37038  -0.36605  -0.35397
  Beta  occ. eigenvalues --   -0.35034  -0.31827  -0.30688  -0.29832  -0.29809
  Beta  occ. eigenvalues --   -0.28702  -0.28556  -0.28404
  Beta virt. eigenvalues --   -0.13008  -0.09010  -0.05818  -0.03958  -0.01311
  Beta virt. eigenvalues --   -0.00343   0.00304   0.00835   0.01258   0.01616
  Beta virt. eigenvalues --    0.02041   0.02494   0.02745   0.03301   0.03508
  Beta virt. eigenvalues --    0.03889   0.04504   0.04973   0.05399   0.05597
  Beta virt. eigenvalues --    0.06019   0.06032   0.06718   0.07081   0.07227
  Beta virt. eigenvalues --    0.07729   0.07800   0.08809   0.09030   0.09110
  Beta virt. eigenvalues --    0.09581   0.10034   0.10418   0.10762   0.11052
  Beta virt. eigenvalues --    0.11303   0.11744   0.11833   0.12084   0.12247
  Beta virt. eigenvalues --    0.12755   0.12806   0.13081   0.13399   0.13604
  Beta virt. eigenvalues --    0.13692   0.14477   0.14753   0.15140   0.15145
  Beta virt. eigenvalues --    0.15822   0.16113   0.16530   0.16712   0.17259
  Beta virt. eigenvalues --    0.17274   0.17556   0.17862   0.18258   0.18527
  Beta virt. eigenvalues --    0.18929   0.19043   0.19248   0.19457   0.20715
  Beta virt. eigenvalues --    0.20876   0.21307   0.21751   0.22022   0.22245
  Beta virt. eigenvalues --    0.22383   0.22697   0.22810   0.23292   0.24225
  Beta virt. eigenvalues --    0.24558   0.24841   0.24998   0.25535   0.25880
  Beta virt. eigenvalues --    0.26288   0.26592   0.27082   0.27405   0.28034
  Beta virt. eigenvalues --    0.28343   0.28886   0.28899   0.29299   0.29886
  Beta virt. eigenvalues --    0.30139   0.30179   0.30449   0.30764   0.30857
  Beta virt. eigenvalues --    0.30925   0.31566   0.31837   0.32402   0.33206
  Beta virt. eigenvalues --    0.33741   0.34345   0.34578   0.34890   0.34975
  Beta virt. eigenvalues --    0.35176   0.35748   0.36112   0.37037   0.37147
  Beta virt. eigenvalues --    0.38014   0.38304   0.38775   0.39889   0.40055
  Beta virt. eigenvalues --    0.40939   0.41109   0.41633   0.42371   0.43941
  Beta virt. eigenvalues --    0.44118   0.44995   0.46063   0.46998   0.47547
  Beta virt. eigenvalues --    0.47899   0.48461   0.49392   0.51058   0.51673
  Beta virt. eigenvalues --    0.52457   0.52944   0.53188   0.53883   0.54442
  Beta virt. eigenvalues --    0.55713   0.56372   0.56511   0.56977   0.57548
  Beta virt. eigenvalues --    0.58253   0.59121   0.59277   0.60263   0.61644
  Beta virt. eigenvalues --    0.62037   0.62162   0.63233   0.63621   0.64412
  Beta virt. eigenvalues --    0.64538   0.64805   0.65504   0.65733   0.66055
  Beta virt. eigenvalues --    0.66538   0.67136   0.67869   0.69397   0.69791
  Beta virt. eigenvalues --    0.70922   0.71241   0.71985   0.72179   0.73174
  Beta virt. eigenvalues --    0.73222   0.74787   0.75894   0.76427   0.76846
  Beta virt. eigenvalues --    0.78766   0.80239   0.81972   0.82739   0.84773
  Beta virt. eigenvalues --    0.85130   0.85652   0.86607   0.87538   0.88421
  Beta virt. eigenvalues --    0.88752   0.89739   0.90060   0.90800   0.91104
  Beta virt. eigenvalues --    0.91699   0.92093   0.92518   0.93414   0.93629
  Beta virt. eigenvalues --    0.96066   0.96437   0.97499   0.98052   0.98481
  Beta virt. eigenvalues --    0.98637   0.99168   0.99694   1.01582   1.01869
  Beta virt. eigenvalues --    1.02415   1.04063   1.04399   1.04588   1.05237
  Beta virt. eigenvalues --    1.06598   1.07109   1.09164   1.09624   1.10358
  Beta virt. eigenvalues --    1.10993   1.12653   1.12877   1.13228   1.14094
  Beta virt. eigenvalues --    1.15544   1.16156   1.16380   1.18020   1.19141
  Beta virt. eigenvalues --    1.20036   1.20604   1.21517   1.21756   1.22970
  Beta virt. eigenvalues --    1.23347   1.26551   1.27033   1.28313   1.31225
  Beta virt. eigenvalues --    1.31521   1.32699   1.33160   1.33554   1.37383
  Beta virt. eigenvalues --    1.38803   1.40868   1.42908   1.43740   1.45371
  Beta virt. eigenvalues --    1.47522   1.48118   1.49020   1.49354   1.49629
  Beta virt. eigenvalues --    1.50501   1.52183   1.53742   1.54497   1.55214
  Beta virt. eigenvalues --    1.55832   1.56454   1.57806   1.57829   1.59469
  Beta virt. eigenvalues --    1.59727   1.61542   1.63710   1.64842   1.65601
  Beta virt. eigenvalues --    1.67133   1.68514   1.68732   1.70540   1.70924
  Beta virt. eigenvalues --    1.71324   1.71732   1.72756   1.73938   1.73976
  Beta virt. eigenvalues --    1.75697   1.76378   1.77261   1.79588   1.80798
  Beta virt. eigenvalues --    1.82349   1.82960   1.87894   1.88218   1.88832
  Beta virt. eigenvalues --    1.89118   1.89837   1.89988   1.90179   1.91079
  Beta virt. eigenvalues --    1.91355   1.93267   1.94543   1.95154   1.95852
  Beta virt. eigenvalues --    1.96563   1.98331   1.99811   2.01230   2.02315
  Beta virt. eigenvalues --    2.03292   2.05145   2.05935   2.06351   2.08619
  Beta virt. eigenvalues --    2.11220   2.12560   2.14415   2.14817   2.15692
  Beta virt. eigenvalues --    2.16970   2.21311   2.23897   2.25864   2.29040
  Beta virt. eigenvalues --    2.31774   2.32019   2.35354   2.35765   2.37345
  Beta virt. eigenvalues --    2.41867   2.43319   2.44959   2.47281   2.48379
  Beta virt. eigenvalues --    2.48461   2.50836   2.53747   2.54569   2.58659
  Beta virt. eigenvalues --    2.59163   2.59987   2.61518   2.63068   2.64498
  Beta virt. eigenvalues --    2.67146   2.67744   2.70388   2.71251   2.72335
  Beta virt. eigenvalues --    2.73105   2.73324   2.74034   2.75059   2.75604
  Beta virt. eigenvalues --    2.75650   2.76407   2.76843   2.77369   2.77767
  Beta virt. eigenvalues --    2.78851   2.80036   2.81046   2.81887   2.82270
  Beta virt. eigenvalues --    2.82840   2.83492   2.85304   2.85505   2.85719
  Beta virt. eigenvalues --    2.86509   2.87434   2.88162   2.91709   2.92051
  Beta virt. eigenvalues --    2.92367   2.93461   2.95295   2.96062   2.96455
  Beta virt. eigenvalues --    2.99421   3.04229   3.04841   3.06411   3.07236
  Beta virt. eigenvalues --    3.07722   3.08971   3.09566   3.13130   3.16336
  Beta virt. eigenvalues --    3.19589   3.21331   3.22258   3.23460   3.27956
  Beta virt. eigenvalues --    3.30954   3.32180   3.32977   3.34560   3.34992
  Beta virt. eigenvalues --    3.39482   3.41877   3.50618   3.52021   3.52256
  Beta virt. eigenvalues --    3.53928   3.54307   3.55794   3.56805   3.58194
  Beta virt. eigenvalues --    3.58457   3.67237   3.75888   3.77192   3.77420
  Beta virt. eigenvalues --    3.79556   3.81608   3.84128   4.00794   4.02356
  Beta virt. eigenvalues --    4.04108   4.06955   4.16090   4.19445   4.21726
  Beta virt. eigenvalues --    4.24612   4.43599   4.72602   4.81603   4.83499
  Beta virt. eigenvalues --    4.97523   4.98845   5.03154   5.03495   5.04409
  Beta virt. eigenvalues --    5.05623   5.07659   5.11129   5.19280   5.23063
  Beta virt. eigenvalues --    5.25555   5.28087   5.46283   5.71694   5.79957
  Beta virt. eigenvalues --    8.17008  17.29089  17.40612  17.51449  23.49711
  Beta virt. eigenvalues --   23.62304  23.85326  23.89464  23.90488  23.91674
  Beta virt. eigenvalues --   23.92073  23.93584  23.94046  24.01453  24.04987
  Beta virt. eigenvalues --   24.06275  24.07678  24.14391  24.16523  49.85011
  Beta virt. eigenvalues --   49.85506  49.91767  50.02151  50.07039 189.27831
          Condensed to atoms (all electrons):
               1          2          3          4          5          6
     1  C   15.841572  -4.485810  -0.865340  -5.926511  -6.363673   4.685644
     2  C   -4.485810  10.453494   0.225846   3.738886   2.540274  -2.299929
     3  C   -0.865340   0.225846   8.959112   2.072933  -0.772440  -0.290761
     4  C   -5.926511   3.738886   2.072933  32.495170   0.228880  -5.537140
     5  C   -6.363673   2.540274  -0.772440   0.228880  24.294261  -2.070814
     6  C    4.685644  -2.299929  -0.290761  -5.537140  -2.070814  12.673781
     7  C    2.680717  -3.327892   0.451969  -7.477331  -1.030751   1.419628
     8  C    1.418598  -0.591357  -0.471432  -6.802406  -4.944611  -1.177630
     9  C   -0.160805  -0.968684  -0.758299 -10.753811  -1.225889   1.197329
    10  C   -0.746548  -0.071172  -1.679777  -0.462155   1.053234  -1.389977
    11  C   -0.258334   0.609677  -0.433677   2.407232  -2.071324  -0.793622
    12  C   -0.092180  -0.125152  -0.223757  -2.132033  -1.691688  -0.257277
    13  C   -0.248679   0.042288   0.064236   1.037973   0.564053  -0.162161
    14  O    0.153078   0.074425  -0.008651  -0.027033  -0.391179  -0.043027
    15  O   -0.019899  -0.009125   0.064624  -0.363330  -0.158659   0.217698
    16  H    0.529337  -0.244195  -0.001343  -0.265031   0.055197   0.086433
    17  H   -0.136968   0.518815  -0.046602   0.058234  -0.000722  -0.014758
    18  H    0.006532  -0.064720   0.437923  -0.046251   0.016634  -0.050396
    19  H   -0.001146  -0.000484   0.000385  -0.006151   0.027203   0.004974
    20  H    0.052972   0.002084  -0.118345   0.112463  -0.020043   0.390622
    21  H   -0.025735   0.002696  -0.000704  -0.107848   0.024377  -0.007961
    22  H   -0.004208   0.004279  -0.006740   0.018631  -0.089618  -0.029074
    23  C   -0.152169   0.363884  -0.141114   3.316077  -2.130205  -0.682015
    24  S    0.008570   0.006045  -0.005521   0.061294  -0.169584  -0.030664
    25  O    0.001745   0.000492  -0.000076   0.021058  -0.007410  -0.000795
    26  O   -0.000218  -0.000085   0.000005  -0.009040   0.001375   0.000169
    27  O   -0.000580  -0.000192   0.000073  -0.004407   0.006352   0.001262
    28  C    0.000160  -0.000100  -0.000014  -0.005366   0.000443   0.000212
    29  H    0.000007   0.000016   0.000011   0.000696   0.000075  -0.000017
    30  H    0.000063   0.000023  -0.000013  -0.000487  -0.000478  -0.000094
    31  H   -0.000015  -0.000012  -0.000001  -0.000104   0.000102   0.000035
               7          8          9         10         11         12
     1  C    2.680717   1.418598  -0.160805  -0.746548  -0.258334  -0.092180
     2  C   -3.327892  -0.591357  -0.968684  -0.071172   0.609677  -0.125152
     3  C    0.451969  -0.471432  -0.758299  -1.679777  -0.433677  -0.223757
     4  C   -7.477331  -6.802406 -10.753811  -0.462155   2.407232  -2.132033
     5  C   -1.030751  -4.944611  -1.225889   1.053234  -2.071324  -1.691688
     6  C    1.419628  -1.177630   1.197329  -1.389977  -0.793622  -0.257277
     7  C   16.862476  -4.594862   2.091737   1.101841  -7.149033   0.203806
     8  C   -4.594862  43.713252   6.068575  -0.295786   9.990601  -5.397839
     9  C    2.091737   6.068575  22.974318  -1.348995  -0.998253   2.450850
    10  C    1.101841  -0.295786  -1.348995  16.866764  -2.093433  -2.679896
    11  C   -7.149033   9.990601  -0.998253  -2.093433  25.217012  -2.916553
    12  C    0.203806  -5.397839   2.450850  -2.679896  -2.916553  19.578140
    13  C    2.816815 -13.935092  -5.918245   2.150349 -14.937572   6.424312
    14  O    0.469751  -0.288897  -0.373599  -0.015700   0.358175  -0.021312
    15  O    0.006824  -0.345690  -0.233964   0.673372  -0.034392   0.194073
    16  H    0.155097   0.026042   0.060131   0.002339  -0.030345   0.004217
    17  H   -0.023358   0.004752  -0.017823  -0.016420   0.006903  -0.002592
    18  H    0.004738  -0.010159   0.014849   0.023003  -0.002525   0.002890
    19  H   -0.027071   0.040470  -0.057954   0.025209   0.046063  -0.183458
    20  H    0.003681   0.018582  -0.057455   0.000331   0.000000  -0.027898
    21  H    0.008868   0.033852   0.115030   0.007515   0.307558   0.009810
    22  H   -0.005322   0.030550   0.080640   0.019056   0.008940   0.530496
    23  C    2.060435 -15.442592  -6.050893  -4.366044  -0.366497  -8.832942
    24  S    0.053420  -1.425650  -0.913299  -0.284391  -1.061454   1.064995
    25  O    0.152744  -0.768672  -0.052797   0.006209  -1.314876   0.264859
    26  O   -0.072621   0.386514  -0.002069  -0.028952   0.953808  -0.396018
    27  O   -0.052149   0.209808   0.122998   0.028947   0.302138   0.134696
    28  C   -0.022129   0.076195   0.036469  -0.000806   0.171423   0.034139
    29  H    0.007639  -0.014619   0.001770   0.001439  -0.006049   0.000670
    30  H   -0.000397  -0.008365  -0.002958  -0.001094  -0.012480   0.001781
    31  H   -0.003215   0.016191   0.000955  -0.000875   0.024235  -0.005315
              13         14         15         16         17         18
     1  C   -0.248679   0.153078  -0.019899   0.529337  -0.136968   0.006532
     2  C    0.042288   0.074425  -0.009125  -0.244195   0.518815  -0.064720
     3  C    0.064236  -0.008651   0.064624  -0.001343  -0.046602   0.437923
     4  C    1.037973  -0.027033  -0.363330  -0.265031   0.058234  -0.046251
     5  C    0.564053  -0.391179  -0.158659   0.055197  -0.000722   0.016634
     6  C   -0.162161  -0.043027   0.217698   0.086433  -0.014758  -0.050396
     7  C    2.816815   0.469751   0.006824   0.155097  -0.023358   0.004738
     8  C  -13.935092  -0.288897  -0.345690   0.026042   0.004752  -0.010159
     9  C   -5.918245  -0.373599  -0.233964   0.060131  -0.017823   0.014849
    10  C    2.150349  -0.015700   0.673372   0.002339  -0.016420   0.023003
    11  C  -14.937572   0.358175  -0.034392  -0.030345   0.006903  -0.002525
    12  C    6.424312  -0.021312   0.194073   0.004217  -0.002592   0.002890
    13  C   35.359290  -0.005239   0.105613  -0.009220   0.000047   0.000232
    14  O   -0.005239   8.184754   0.000024  -0.011460   0.002588  -0.000349
    15  O    0.105613   0.000024   8.190456   0.000445  -0.000319   0.002473
    16  H   -0.009220  -0.011460   0.000445   0.496400  -0.015427   0.001724
    17  H    0.000047   0.002588  -0.000319  -0.015427   0.481964  -0.013656
    18  H    0.000232  -0.000349   0.002473   0.001724  -0.013656   0.480419
    19  H    0.390577  -0.000292   0.002992   0.000032   0.000004  -0.000003
    20  H   -0.006266   0.000440  -0.010143   0.000931   0.001475  -0.013874
    21  H    0.019547  -0.009231   0.000320   0.000565  -0.000115  -0.000031
    22  H   -0.162812   0.000430  -0.010031  -0.000195   0.000014  -0.000131
    23  C   -9.290994   0.181962  -0.027105  -0.028245   0.000867  -0.000587
    24  S    2.244405   0.016477   0.000132   0.000051  -0.000022  -0.000015
[...]
 -0.00045231,0.00058633,0.00038119,0.00092472,-0.00112687,-0.00000831,-
 0.00002018,0.00002036,0.00004079,0.00001082,-0.00001490,0.00003898,0.0
 0001209,-0.00001619,-0.00002575,-0.00042131,0.00025966,-0.00003372,0.0
 0000311,-0.00000660,0.00038205,-0.00000511,-0.00089114,0.00064037,0.00
 034790,-0.00038351,-0.02178146,0.00381663,-0.01050525,-0.19002437,0.09
 428570,-0.37546883,0.21855085,-0.09567518,0.40595098,0.00003394,-0.000
 18521,0.00023136,-0.00010333,-0.00003375,0.00005369,-0.00011515,0.0000
 1355,-0.00000625,-0.00073145,-0.00010471,0.00020208,-0.00062994,-0.000
 06358,0.00006604,-0.00005573,0.00008853,-0.00013501,0.00247940,-0.0009
 6974,0.00102183,-0.00299026,-0.00041705,-0.00132628,-0.00131821,-0.000
 72777,0.00118241,0.00190157,0.00171906,-0.00193153,-0.00030824,-0.0039
 8529,0.00721228,0.00072525,-0.00109352,0.00019967,-0.00283205,0.000419
 95,-0.00096065,-0.00121968,0.00047231,-0.00061101,-0.00027530,-0.00106
 969,0.00129332,0.00001234,0.00002735,-0.00002459,-0.00005002,-0.000022
 72,0.00001555,-0.00004243,-0.00001218,0.00002024,0.00003178,-0.0002714
 2,0.00126652,0.00003279,-0.00000686,0.00001173,0.00099286,0.00046032,0
 .00022772,-0.00023540,-0.00018187,0.00023001,-0.01302255,0.01771433,-0
 .00390904,-0.42469396,0.17862128,0.04108151,-0.01342403,0.01678650,0.0
 0134889,0.45235869,0.00003503,-0.00003336,0.00000695,-0.00001434,-0.00
 000780,0.00004256,-0.00005176,0.00001570,-0.00000796,-0.00011417,-0.00
 007571,0.00006104,-0.00017206,-0.00001735,0.00006016,0.00000979,0.0000
 3358,-0.00006171,0.00063055,-0.00015739,0.00020569,-0.00076394,-0.0011
 9685,-0.00021897,-0.00090403,-0.00009982,0.00013878,0.00029936,0.00046
 733,-0.00047688,0.00157686,0.00085311,0.00096510,-0.00033454,0.0005096
 3,-0.00090865,0.00027943,-0.00056691,0.00171684,-0.00022599,0.00013786
 ,-0.00019948,-0.00003772,-0.00020391,0.00024056,0.00000262,0.00000801,
 -0.00000367,-0.00000975,-0.00000862,-0.00000300,-0.00001059,-0.0000029
 9,0.00000288,-0.00098704,0.00032832,-0.00083452,0.00000602,-0.00000380
 ,0.00000180,-0.00035930,0.00035180,0.00007285,0.00008129,0.00004826,-0
 .00000990,-0.00698890,0.00669102,0.00428922,0.17673876,-0.16522187,-0.
 01362983,0.01462194,0.00795770,-0.00358091,-0.21175892,0.16416761,-0.0
 0002363,0.00009597,-0.00012373,0.00005333,0.00002823,-0.00002796,0.000
 05861,-0.00000202,-0.00000158,0.00040694,0.00001806,-0.00010267,0.0003
 3684,0.00004324,-0.00005251,0.00003606,-0.00005206,0.00006713,-0.00142
 367,0.00062155,-0.00063871,0.00240713,-0.00036558,0.00056839,0.0008375
 2,0.00044662,-0.00054201,-0.00078410,-0.00080911,0.00105241,-0.0001606
 0,0.00312160,-0.00424275,0.00047404,-0.00041895,0.00044433,-0.00010409
 ,0.00027276,-0.00068982,0.00064888,-0.00033072,0.00040047,0.00011143,0
 .00049584,-0.00062114,-0.00000843,-0.00001254,0.00001414,0.00002706,0.
 00000824,-0.00001260,0.00002201,0.00000670,-0.00000945,0.00103726,-0.0
 0055611,0.00064129,-0.00001602,0.00000466,-0.00000684,0.00017311,-0.00
 003227,-0.00001556,0.00000258,0.00000562,-0.00006560,0.01499213,-0.008
 04999,0.00781827,0.04486336,-0.01668668,-0.07851867,-0.03208023,0.0142
 0439,0.00586622,-0.04602918,0.02600495,0.06657417,0.00001719,-0.000124
 33,0.00008247,-0.00005400,-0.00003773,0.00003537,-0.00010434,0.0000346
 1,0.00000215,-0.00035056,-0.00014579,0.00017590,-0.00049581,-0.0001013
 4,0.00006864,-0.00001698,0.00007962,-0.00014239,0.00158150,-0.00026107
 ,0.00044769,-0.00074219,0.00111159,0.00085582,-0.00102407,-0.00108802,
 0.00093421,0.00148324,0.00118634,-0.00162500,0.00088490,-0.00160279,0.
 00100691,0.00024581,0.00051362,0.00114603,-0.00326899,-0.00093056,-0.0
 0071531,-0.00078817,0.00030974,-0.00034249,-0.00022913,-0.00075614,0.0
 0097641,0.00000777,0.00001603,-0.00001661,-0.00003034,-0.00000185,0.00
 001491,-0.00003123,-0.00001038,0.00001156,0.00011195,-0.00033699,-0.00
 011607,0.00002732,-0.00000554,0.00000316,0.00025349,-0.00049722,-0.000
 40801,-0.00019901,-0.00010000,0.00019483,0.00009613,-0.01667834,-0.006
 47373,-0.06191190,-0.01785177,0.00212793,0.00364784,-0.01292332,-0.017
 79147,0.00404815,0.02500907,0.01275900,0.17014641,0.00003127,-0.000176
 59,0.00018378,-0.00010109,-0.00005088,0.00007254,-0.00016625,0.0000111
 9,-0.00003583,-0.00061596,-0.00022150,0.00024681,-0.00081290,-0.000054
 92,0.00019174,-0.00002077,0.00017177,-0.00017735,0.00265225,-0.0006788
 3,0.00084035,-0.00185027,0.00136400,0.00069986,-0.00183932,-0.00151021
 ,0.00160232,0.00232505,0.00178614,-0.00272407,0.00084248,-0.00414072,0
 .00266095,0.00039541,0.00063771,0.00113110,-0.00421022,-0.00076468,-0.
 00031160,-0.00129914,0.00059444,-0.00062072,-0.00035098,-0.00119057,0.
 00156736,0.00000886,0.00001930,-0.00003151,-0.00005114,-0.00000863,0.0
 0002337,-0.00004987,-0.00001812,0.00001758,0.00007251,-0.00030760,-0.0
 0068203,0.00004257,-0.00001054,0.00000487,0.00035148,-0.00049344,-0.00
 046894,-0.00025340,-0.00014705,0.00028074,-0.00442337,-0.01468483,-0.0
 1151341,-0.01061070,-0.11879114,-0.04430967,-0.00005253,0.00166751,-0.
 00631455,0.00465817,-0.01968882,-0.01914907,0.10348672,0.30014301,-0.0
 0001110,0.00003816,-0.00002517,0.00001794,0.00001430,-0.00001608,0.000
 03864,0.00001195,0.00002561,0.00010055,0.00006363,-0.00004355,0.000170
 34,-0.00001197,-0.00005809,-0.00000994,-0.00006665,0.00001476,-0.00049
 323,0.00013767,-0.00020867,0.00039078,-0.00069099,-0.00073174,0.000386
 07,0.00029602,-0.00017501,-0.00047287,-0.00023687,0.00061236,-0.000875
 24,0.00105239,-0.00008121,0.00019386,-0.00073174,-0.00052292,0.0002749
 7,-0.00034759,0.00082355,0.00021640,-0.00013163,0.00014229,0.00007432,
 0.00021174,-0.00028064,0.00000058,-0.00000453,0.00000561,0.00000886,-0
 .00000387,-0.00000797,0.00000948,0.00000241,-0.00000310,0.00001949,0.0
 0033717,0.00005163,-0.00000948,-0.00000026,-0.00000207,0.00031026,0.00
 024597,0.00006059,0.00000520,0.00001673,-0.00003364,0.00558812,0.01209
 228,0.00621868,0.00872517,-0.03179018,-0.09765323,-0.01148270,-0.02709
 578,-0.01740797,-0.00100962,-0.01281788,0.00297731,-0.05282406,0.01569
 914,0.19583325,-0.00001677,0.00004499,-0.00004056,0.00002554,0.0000107
 2,-0.00002473,0.00003655,-0.00000724,0.00000584,0.00015347,0.00006286,
 -0.00005818,0.00017547,0.00003265,-0.00001709,0.00000836,-0.00002590,0
 .00004176,-0.00062317,0.00011570,-0.00019506,0.00051346,-0.00016037,-0
 .00028008,0.00062812,0.00029300,-0.00024024,-0.00047769,-0.00048367,0.
 00053640,-0.00005889,0.00064848,-0.00058372,-0.00038609,-0.00013041,0.
 00009922,0.00065715,0.00011017,-0.00047411,0.00030071,-0.00012092,0.00
 012712,0.00005865,0.00027237,-0.00033832,-0.00000200,-0.00000387,0.000
 00737,0.00001182,0.00000241,-0.00000498,0.00001089,0.00000367,-0.00000
 479,0.00000322,-0.00006636,0.00010306,-0.00000951,0.00000228,-0.000001
 62,-0.00017474,0.00009154,0.00009331,0.00004294,0.00005597,-0.00003470
 ,0.00173984,0.00138025,0.00194864,-0.00456734,-0.02553279,-0.01529968,
 0.00263076,0.00303803,0.00405239,-0.00370645,0.00445654,0.00281467,-0.
 09420678,-0.03818868,0.03409812,0.51867242,-0.00000366,0.00002634,-0.0
 0003638,0.00001692,0.00000659,-0.00001068,0.00002626,0.00000097,0.0000
 0302,0.00011223,0.00005065,-0.00005974,0.00014923,-0.00000782,-0.00004
 862,0.00001345,-0.00002742,0.00003603,-0.00052077,0.00007969,-0.000057
 10,0.00009523,-0.00007019,0.00041431,0.00029191,0.00039849,-0.00052581
 ,-0.00046394,-0.00042180,0.00051506,0.00027829,0.00003098,-0.00048067,
 -0.00000755,0.00010810,0.00004605,0.00048152,0.00001214,-0.00018764,0.
 00027018,-0.00008326,0.00010118,0.00005855,0.00025699,-0.00032187,-0.0
 0000251,-0.00000496,0.00000515,0.00000999,0.00000333,-0.00000196,0.000
 00968,0.00000295,-0.00000423,0.00003784,-0.00015654,0.00012020,-0.0000
 0837,0.00000144,-0.00000108,-0.00020054,-0.00008552,-0.00005025,0.0000
 3555,0.00002582,-0.00004389,-0.00054509,0.00049497,-0.00071971,-0.0212
 1615,-0.05527118,-0.01374141,0.00329143,0.00354001,0.00595199,-0.00210
 629,0.00691817,0.00245953,-0.03440183,-0.09300672,0.02705543,-0.090583
 98,0.48544852,0.00000027,-0.00004571,0.00003478,-0.00001945,-0.0000124
 2,0.00000451,-0.00002752,0.00000421,-0.00000067,-0.00013193,-0.0000289
 2,0.00005804,-0.00015474,0.00000476,0.00004913,-0.00001325,0.00002324,
 -0.00004192,0.00055360,-0.00014506,0.00018065,-0.00036624,0.00048043,0
 .00003757,-0.00017626,-0.00041673,0.00031317,0.00047252,0.00032369,-0.
 00053418,-0.00015202,-0.00058372,0.00078091,-0.00002746,0.00013115,0.0
 0057420,-0.00102616,-0.00018427,0.00009888,-0.00028144,0.00011598,-0.0
 0012832,-0.00008617,-0.00023767,0.00031419,0.00000370,0.00000588,-0.00
 000549,-0.00001085,-0.00000089,0.00000589,-0.00001027,-0.00000321,0.00
 000429,0.00001613,-0.00012762,-0.00018194,0.00000880,-0.00000177,0.000
 00128,0.00008422,-0.00013597,-0.00012158,-0.00008596,-0.00004385,0.000
 08205,0.00038426,-0.00367944,-0.00197265,-0.01119814,-0.00612954,0.014
 85394,-0.00104320,-0.00048321,-0.00444145,0.00185435,-0.00272769,-0.00
 170048,0.03758373,0.03368782,-0.09153566,0.04026478,0.06705049,0.57866
 254,0.00000251,-0.00000755,0.00000247,-0.00000354,-0.00000178,0.000003
 16,-0.00000474,0.00000246,-0.00000051,-0.00001801,-0.00000975,0.000005
 46,-0.00002068,-0.00000047,0.00000455,-0.00000013,0.00000089,-0.000006
 52,0.00007778,-0.00000881,0.00003553,-0.00006494,0.00000336,0.00003203
 ,-0.00007892,-0.00003989,0.00001608,0.00005511,0.00006458,-0.00005617,
 0.00006668,-0.00007365,0.00003077,0.00003975,0.00002816,-0.00001960,-0
 .00003798,0.00000937,-0.00001081,-0.00003740,0.00001830,-0.00001895,-0
 .00000679,-0.00003132,0.00003861,0.00000035,0.00000036,-0.00000111,-0.
 00000119,-0.00000017,0.00000080,-0.00000123,-0.00000048,0.00000052,-0.
 00000429,0.00001372,-0.00001218,0.00000112,-0.00000053,-0.00000007,0.0
 0001099,-0.00000576,-0.00000681,-0.00000287,-0.00000475,0.00000262,-0.
 00022306,0.00001797,-0.00029707,0.00122333,0.00233334,0.00282261,-0.00
 043866,0.00023510,-0.00055959,0.00030718,-0.00042180,-0.00033702,0.005
 51690,-0.01633522,0.02294686,-0.09966277,0.03975845,-0.10091276,0.1004
 8408,0.00000269,-0.00001001,0.00000187,-0.00000328,-0.00000155,0.00000
 515,-0.00000821,0.00000061,-0.00000132,-0.00002218,-0.00001428,0.00000
 591,-0.00002750,0.00001153,0.00001559,-0.00000007,0.00000275,-0.000010
 76,0.00009263,-0.00000098,0.00004587,-0.00009919,-0.00003975,0.0000350
 2,-0.00010766,-0.00002736,0.00002752,0.00007146,0.00006179,-0.00008393
 ,0.00010030,-0.00006423,0.00008386,0.00006021,0.00005539,-0.00003579,-
 0.00002747,0.00000911,-0.00002403,-0.00004222,0.00001766,-0.00002755,-
 0.00000804,-0.00003846,0.00004769,0.00000072,0.00000145,-0.00000062,-0
 .00000168,-0.00000019,0.00000092,-0.00000145,-0.00000038,0.00000093,-0
 .00000107,0.00001976,-0.00001288,0.00000128,-0.00000056,0.00000027,0.0
 0001158,-0.00000844,-0.00000630,-0.00000169,-0.00000392,0.00000113,-0.
 00038868,-0.00014232,-0.00051738,0.00191772,0.00285436,0.00709791,-0.0
 0019891,0.00088348,-0.00126834,0.00036279,-0.00057526,-0.00082752,-0.0
 0152733,-0.02098789,0.02312057,0.03707965,-0.07591205,0.06683795,-0.03
 358954,0.08493430,-0.00000243,0.00000820,-0.00000589,0.00000425,-0.000
 00059,-0.00000532,0.00000590,0.00000045,0.00000333,0.00002230,0.000013
 84,-0.00000558,0.00003080,0.00000563,-0.00000393,0.00000065,-0.0000091
 6,0.00000246,-0.00010749,0.00002207,-0.00003199,0.00006751,-0.00002104
 ,-0.00002917,0.00008300,0.00004550,-0.00005250,-0.00008329,-0.00006891
 ,0.00009773,-0.00008004,0.00006711,-0.00005795,-0.00003699,-0.00000273
 ,-0.00000605,0.00015677,0.00002101,-0.00001268,0.00005195,-0.00002434,
 0.00002641,0.00001332,0.00004330,-0.00005631,-0.00000007,-0.00000062,0
 .00000124,0.00000197,0.00000055,-0.00000077,0.00000185,0.00000082,-0.0
 0000052,0.00000316,-0.00001218,0.00002071,-0.00000171,0.00000011,-0.00
 000017,-0.00001857,0.00000916,0.00000642,0.00000929,0.00000350,-0.0000
 1214,-0.00001727,0.00021237,0.00011325,-0.00065503,-0.00391420,-0.0024
 4856,0.00039566,0.00008454,0.00121008,-0.00041488,0.00070527,0.0003113
 9,0.00366746,0.01142439,-0.00680234,-0.09509442,0.07267755,-0.24577217
 ,0.09974026,-0.08549131,0.26258614,0.00000132,-0.00001178,0.00000936,-
 0.00000636,-0.00000203,0.00000328,-0.00000724,0.00000122,-0.00000123,-
 0.00003174,-0.00001263,0.00000987,-0.00003741,-0.00000070,0.00001059,-
 0.00000247,0.00000673,-0.00000855,0.00013549,-0.00003308,0.00004865,-0
 .00009372,0.00010464,0.00003647,-0.00005972,-0.00009370,0.00006633,0.0
 0011316,0.00008112,-0.00012635,0.00002237,-0.00016209,0.00014093,0.000
 00151,0.00002430,0.00011000,-0.00022885,-0.00001879,-0.00001106,-0.000
 06685,0.00003241,-0.00003317,-0.00002031,-0.00005574,0.00007464,0.0000
 0018,0.00000103,-0.00000153,-0.00000250,-0.00000040,0.00000128,-0.0000
 0238,-0.00000093,0.00000092,0.00000530,-0.00002991,-0.00003638,0.00000
 219,-0.00000049,0.00000013,0.00002024,-0.00003949,-0.00003063,-0.00001
 709,-0.00000696,0.00001929,-0.00002061,-0.00079502,-0.00053453,-0.0028
 5789,-0.00005052,0.00271477,-0.00016168,-0.00023303,-0.00086218,0.0012
 4952,-0.00024216,-0.00043414,-0.00460270,-0.02390454,-0.01229892,-0.04
 699562,0.01096650,0.00594020,0.00094745,-0.00919954,-0.00957063,0.0498
 8094,0.00000224,-0.00001042,0.00001257,-0.00000626,-0.00000379,0.00000
 428,-0.00001039,0.00000130,-0.00000145,-0.00004181,-0.00001420,0.00001
 649,-0.00004890,-0.00000492,0.00001058,-0.00000284,0.00001000,-0.00001
 007,0.00017447,-0.00004448,0.00005477,-0.00012937,0.00008389,0.0000684
 2,-0.00010674,-0.00009932,0.00007823,0.00014102,0.00010851,-0.00016514
 ,0.00006111,-0.00020377,0.00016501,0.00002179,0.00004677,0.00010408,-0
 .00026961,-0.00005186,-0.00001617,-0.00008513,0.00003869,-0.00003754,-
 0.00002262,-0.00007339,0.00009814,0.00000056,0.00000109,-0.00000218,-0
 .00000333,-0.00000049,0.00000157,-0.00000318,-0.00000125,0.00000108,-0
 .00000033,-0.00002727,-0.00004535,0.00000258,-0.00000078,0.00000029,0.
 00003036,-0.00004762,-0.00003908,-0.00001983,-0.00001240,0.00001909,-0
 .00010402,-0.00072776,-0.00059675,-0.00095485,0.00180977,0.00471453,-0
 .00032784,0.00011386,-0.00109605,0.00054632,-0.00060108,-0.00046646,-0
 .00840152,-0.02900017,-0.01355503,0.00549647,-0.18218182,-0.13791816,0
 .00011770,0.01062781,0.00724942,0.00326225,0.20600538,-0.00000100,0.00
 000572,-0.00000629,0.00000313,0.00000328,-0.00000094,0.00000493,-0.000
 00212,-0.00000091,0.00002234,0.00000693,-0.00000733,0.00002228,0.00000
 003,-0.00000592,0.00000140,-0.00000163,0.00000788,-0.00008350,0.000021
 48,-0.00003129,0.00007578,-0.00005852,-0.00004099,0.00005535,0.0000537
 3,-0.00002582,-0.00006701,-0.00005897,0.00007258,-0.00002107,0.0000917
 8,-0.00011728,-0.00002870,-0.00003109,-0.00006071,0.00014792,0.0000108
 5,-0.00003001,0.00003987,-0.00001702,0.00001844,0.00001070,0.00003595,
 -0.00004644,-0.00000054,-0.00000076,0.00000104,0.00000156,-0.00000001,
 -0.00000093,0.00000150,0.00000046,-0.00000064,-0.00000790,0.00002275,0
 .00002102,-0.00000114,0.00000045,-0.00000018,-0.00000625,0.00002698,0.
 00002977,0.00001171,0.00000939,-0.00000981,0.00011804,0.00067986,0.000
 50583,0.00189106,0.00319247,-0.00164569,0.00017698,-0.00038025,0.00103
 375,-0.00067624,0.00028718,0.00044550,0.00245335,0.01466150,0.01082414
 ,0.00071492,-0.14799954,-0.19329659,0.00157137,-0.01874056,-0.01556690
 ,-0.00567095,0.14899507,0.19895844,0.00000050,-0.00000699,0.00000658,-
 0.00000405,0.00000057,0.00000312,-0.00000441,-0.00000075,-0.00000140,-
 0.00002310,-0.00001159,0.00001032,-0.00002893,-0.00000380,0.00000428,-
 0.00000230,0.00000594,-0.00000576,0.00010152,-0.00001283,0.00002046,-0
 .00002653,0.00005953,-0.00003893,-0.00002818,-0.00007797,0.00008582,0.
 00009265,0.00008125,-0.00009518,0.00001775,-0.00008982,0.00005870,-0.0
 0003149,-0.00002754,0.00004689,-0.00013613,0.00004951,-0.00005601,-0.0
 0005218,0.00001741,-0.00001900,-0.00001394,-0.00004923,0.00006223,0.00
 000064,0.00000094,-0.00000125,-0.00000187,-0.00000048,0.00000058,-0.00
 000200,-0.00000059,0.00000081,0.00000003,-0.00000260,-0.00001543,0.000
 00161,-0.00000026,0.00000032,0.00002898,0.00000366,-0.00000358,-0.0000
 0923,-0.00000403,0.00001211,0.00012878,-0.00035815,-0.00014687,-0.0017
 5125,0.00565741,0.00401772,-0.00018092,-0.00049662,-0.00099543,0.00158
 070,-0.00035025,-0.00066087,-0.02001241,-0.00973042,0.00591112,-0.2747
 8154,0.09415745,0.02855727,-0.00812604,0.00555469,0.00182672,0.0028354
 5,0.00068169,-0.00075989,0.30042789,-0.00000019,-0.00000344,0.00000321
 ,-0.00000221,-0.00000056,0.00000057,-0.00000197,0.00000085,0.00000042,
 -0.00000924,-0.00000311,0.00000862,-0.00001661,-0.00000110,0.00000379,
 -0.00000091,0.00000048,-0.00000534,0.00005972,-0.00001143,0.00000060,0
 .00001772,0.00005932,-0.00003729,0.00000607,-0.00006999,0.00005367,0.0
 0005672,0.00005446,-0.00004813,0.00002324,0.00001215,-0.00003952,-0.00
 003658,-0.00002985,0.00005161,-0.00010068,0.00002932,-0.00005566,-0.00
 003152,0.00001350,-0.00001127,-0.00000980,-0.00002827,0.00003596,0.000
 00002,0.00000044,-0.00000058,-0.00000091,-0.00000022,0.00000034,-0.000
 00107,-0.00000037,0.00000032,0.00000238,-0.00000546,-0.00000696,0.0000
 0090,-0.00000010,0.00000019,0.00001720,0.00000550,0.00000028,-0.000007
 72,0.00000149,0.00001224,0.00047417,-0.00036504,0.00000204,-0.00309043
 ,0.00452671,0.00296039,0.00009375,-0.00037945,-0.00073812,0.00112009,-
 0.00002656,-0.00007888,-0.03396348,-0.00046124,0.00708940,0.10210645,-
 0.09017686,-0.01575974,0.00792770,-0.00165236,-0.00304974,0.02041332,-
 0.00574028,-0.00081537,-0.09504613,0.09425147,-0.00000151,0.00000126,-
 0.00000968,0.00000284,0.00000357,0.00000043,0.00000414,0.00000095,0.00
 000108,0.00001704,0.00000120,-0.00001096,0.00002092,-0.00000496,-0.000
 00997,0.00000226,-0.00000661,0.00000319,-0.00007767,0.00002374,-0.0000
 1026,0.00003919,-0.00002214,0.00002640,0.00003324,0.00004588,-0.000061
 63,-0.00006680,-0.00004033,0.00008489,-0.00001124,0.00006746,-0.000084
 89,0.00000473,-0.00001435,-0.00003741,0.00009283,0.00000673,0.00005735
 ,0.00003962,-0.00001480,0.00001525,0.00000981,0.00003551,-0.00004619,-
 0.00000037,-0.00000050,0.00000105,0.00000162,0.00000027,-0.00000054,0.
 00000141,0.00000045,-0.00000062,-0.00000049,-0.00000151,0.00001110,-0.
 00000135,0.00000017,-0.00000027,-0.00002300,0.00000364,0.00000085,0.00
 000908,0.00000578,-0.00000746,-0.00001223,0.00005099,0.00007084,-0.001
 22374,-0.00267700,-0.00125806,0.00033871,0.00015942,0.00048749,-0.0004
 8490,0.00067923,0.00019106,0.01590761,0.00134254,-0.00200075,0.0277846
 8,-0.01214542,-0.05632294,-0.02501454,0.00972009,0.00649179,0.02043354
 ,-0.00764419,-0.00102368,-0.03782545,0.01042295,0.05344254\\-0.0000054
 4,-0.00000104,-0.00000220,-0.00000276,0.00000732,-0.00001170,0.0000080
 9,-0.00000544,0.00000748,0.00001227,-0.00000907,0.00000964,-0.00000001
 ,0.00001203,-0.00001191,-0.00000543,-0.00000002,0.00000432,-0.00000619
 ,0.00000211,-0.00000574,0.00000148,-0.00001091,0.00001417,-0.00000928,
 0.00001008,-0.00000777,-0.00000241,-0.00000275,0.00000526,0.00001338,0
 .00000508,-0.00000705,0.00000699,0.00000533,-0.00000038,0.00000641,-0.
 00000560,0.00000853,0.00000207,-0.00000456,-0.00000272,-0.00000007,0.0
 0000282,0.00000338,-0.00000159,-0.00000397,-0.00000208,0.00000031,-0.0
 0000256,-0.00000114,-0.00000188,0.00000280,-0.00000102,-0.00000124,0.0
 0000224,0.00000537,-0.00000294,0.00000285,0.00000237,0.00000094,-0.000
 00335,-0.00000035,-0.00000012,0.00000342,0.00000317,-0.00000943,0.0000
 0521,-0.00000048,-0.00000623,-0.00000520,-0.00000312,0.00000986,-0.000
 00719,0.00000611,-0.00000249,0.00000230,-0.00000221,-0.00000107,-0.000
 00101,-0.00000354,0.00000061,-0.00000146,-0.00000087,-0.00000015,-0.00
 000162,-0.00000262,-0.00000246,0.00000155,-0.00000362,-0.00000119,0.00
 000061,0.00000074\\\@


 ACHIEVEMENT--  THE MAN WHO ROWS THE BOAT GENERALLY 
                DOESN'T HAVE TIME TO ROCK IT.

                   -- FROM THE BACK OF A SUGAR PACKET
 Job cpu time:       0 days  7 hours 26 minutes 32.1 seconds.
 Elapsed time:       0 days  0 hours 56 minutes  9.4 seconds.
 File lengths (MBytes):  RWF=   1788 Int=      0 D2E=      0 Chk=     43 Scr=      1
 Normal termination of Gaussian 16 at Sun Feb 11 00:25:41 2024.
