
Running Job 1 of 1 110-rad-SM12.in
qchem 110-rad-SM12.in_1335534.0 /expanse/lustre/scratch/selhajj/temp_project/qcscratch/28445291/qchem1335534/ 0
/cm/shared/apps/spack/cpu/opt/spack/linux-centos8-zen2/gcc-10.2.0/qchem-5.4-akfmr7b3t57bfs6qan3padb2wnb2i7cl/exe/qcprog.exe_s 110-rad-SM12.in_1335534.0 /expanse/lustre/scratch/selhajj/temp_project/qcscratch/28445291/qchem1335534/
                  Welcome to Q-Chem
     A Quantum Leap Into The Future Of Chemistry


 Q-Chem 5.4, Q-Chem, Inc., Pleasanton, CA (2021)

 License issued to: University of California, San Diego (site)

 E. Epifanovsky,  A. T. B. Gilbert,  Xintian Feng,  Joonho Lee,  Yuezhi Mao,  
 N. Mardirossian,  P. Pokhilko,  A. White,  M. Wormit,  M. P. Coons,  
 A. L. Dempwolff,  Zhengting Gan,  D. Hait,  P. R. Horn,  L. D. Jacobson,  
 I. Kaliman,  J. Kussmann,  A. W. Lange,  Ka Un Lao,  D. S. Levine,  Jie Liu,  
 S. C. McKenzie,  A. F. Morrison,  K. Nanda,  F. Plasser,  D. R. Rehn,  
 M. L. Vidal,  Zhi-Qiang You,  Ying Zhu,  B. Alam,  B. Albrecht,  
 A. Aldossary,  E. Alguire,  J. H. Andersen,  D. Barton,  K. Begam,  A. Behn,  
 Y. A. Bernard,  E. J. Berquist,  H. Burton,  A. Carreras,  K. Carter-Fenk,  
 R. Chakraborty,  A. D. Chien,  K. D. Closser,  V. Cofer-Shabica,  
 S. Dasgupta,  Jia Deng,  M. de Wergifosse,  M. Diedenhofen,  Hainam Do,  
 S. Ehlert,  Po-Tung Fang,  S. Fatehi,  Qingguo Feng,  J. Gayvert,  
 Qinghui Ge,  G. Gidofalvi,  M. Goldey,  J. Gomes,  C. Gonzalez-Espinoza,  
 S. Gulania,  A. Gunina,  M. W. D. Hanson-Heine,  P. H. P. Harbach,  
 A. W. Hauser,  M. F. Herbst,  M. Hernandez Vera,  M. Hodecker,  
 Z. C. Holden,  S. Houck,  Xunkun Huang,  Kerwin Hui,  B. C. Huynh,  
 M. Ivanov,  Hyunjun Ji,  Hanjie Jiang,  B. Kaduk,  S. Kaehler,  
 K. Khistyaev,  Jaehoon Kim,  P. Klunzinger,  Z. Koczor-Benda,  
 Joong Hoon Koh,  D. Kosenkov,  L. Koulias,  T. Kowalczyk,  C. M. Krauter,  
 K. Kue,  A. Kunitsa,  T. Kus,  A. Landau,  K. V. Lawler,  D. Lefrancois,  
 S. Lehtola,  Rain Li,  Yi-Pei Li,  Jiashu Liang,  M. Liebenthal,  
 Hung-Hsuan Lin,  You-Sheng Lin,  Fenglai Liu,  Kuan-Yu Liu,  
 M. Loipersberger,  A. Luenser,  A. Manjanath,  P. Manohar,  E. Mansoor,  
 S. F. Manzer,  Shan-Ping Mao,  A. V. Marenich,  T. Markovich,  S. Mason,  
 S. A. Maurer,  P. F. McLaughlin,  M. F. S. J. Menger,  J.-M. Mewes,  
 S. A. Mewes,  P. Morgante,  J. W. Mullinax,  T. S. Nguyen-Beck,  
 K. J. Oosterbaan,  G. Paran,  Alexander C. Paul,  Suranjan K. Paul,  
 F. Pavosevic,  Zheng Pei,  S. Prager,  E. I. Proynov,  E. Ramos,  B. Rana,  
 A. E. Rask,  A. Rettig,  R. M. Richard,  F. Rob,  E. Rossomme,  T. Scheele,  
 M. Scheurer,  M. Schneider,  N. Sergueev,  S. M. Sharada,  W. Skomorowski,  
 D. W. Small,  C. J. Stein,  Yu-Chuan Su,  E. J. Sundstrom,  Zhen Tao,  
 J. Thirman,  T. Tsuchimochi,  N. M. Tubman,  S. P. Veccham,  O. Vydrov,  
 J. Wenzel,  J. Witte,  A. Yamada,  Kun Yao,  S. Yeganeh,  S. R. Yost,  
 A. Zech,  Igor Ying Zhang,  Xing Zhang,  Yu Zhang,  D. Zuev,  
 A. Aspuru-Guzik,  A. T. Bell,  N. A. Besley,  K. B. Bravaya,  B. R. Brooks,  
 D. Casanova,  Jeng-Da Chai,  S. Coriani,  C. J. Cramer,  
 A. E. DePrince, III,  R. A. DiStasio Jr.,  A. Dreuw,  B. D. Dunietz,  
 T. R. Furlani,  W. A. Goddard III,  S. Grimme,  S. Hammes-Schiffer,  
 T. Head-Gordon,  W. J. Hehre,  Chao-Ping Hsu,  T.-C. Jagau,  Yousung Jung,  
 A. Klamt,  Jing Kong,  D. S. Lambrecht,  WanZhen Liang,  N. J. Mayhall,  
 C. W. McCurdy,  J. B. Neaton,  C. Ochsenfeld,  J. A. Parkhill,  R. Peverati,  
 V. A. Rassolov,  Yihan Shao,  L. V. Slipchenko,  T. Stauch,  R. P. Steele,  
 J. E. Subotnik,  A. J. W. Thom,  A. Tkatchenko,  D. G. Truhlar,  
 T. Van Voorhis,  T. A. Wesolowski,  K. B. Whaley,  H. L. Woodcock III,  
 P. M. Zimmerman,  S. Faraji,  P. M. W. Gill,  M. Head-Gordon,  
 J. M. Herbert,  A. I. Krylov

 Contributors to earlier versions of Q-Chem not listed above: 
 R. D. Adamson,  B. Austin,  R. Baer,  J. Baker,  G. J. O. Beran,  
 K. Brandhorst,  S. T. Brown,  E. F. C. Byrd,  A. K. Chakraborty,  
 G. K. L. Chan,  Chun-Min Chang,  Yunqing Chen,  C.-L. Cheng,  
 Siu Hung Chien,  D. M. Chipman,  D. L. Crittenden,  H. Dachsel,  
 R. J. Doerksen,  A. D. Dutoi,  R. G. Edgar,  J. Fosso-Tande,  
 L. Fusti-Molnar,  D. Ghosh,  A. Ghysels,  A. Golubeva-Zadorozhnaya,  
 J. Gonthier,  M. S. Gordon,  S. R. Gwaltney,  G. Hawkins,  J. E. Herr,  
 A. Heyden,  S. Hirata,  E. G. Hohenstein,  G. Kedziora,  F. J. Keil,  
 C. Kelley,  Jihan Kim,  R. A. King,  R. Z. Khaliullin,  P. P. Korambath,  
 W. Kurlancheek,  A. Laurent,  A. M. Lee,  M. S. Lee,  S. V. Levchenko,  
 Ching Yeh Lin,  D. Liotard,  E. Livshits,  R. C. Lochan,  I. Lotan,  
 L. A. Martinez-Martinez,  P. E. Maslen,  N. Nair,  D. P. O'Neill,  
 D. Neuhauser,  E. Neuscamman,  C. M. Oana,  R. Olivares-Amaya,  R. Olson,  
 T. M. Perrine,  B. Peters,  P. A. Pieniazek,  A. Prociuk,  Y. M. Rhee,  
 J. Ritchie,  M. A. Rohrdanz,  E. Rosta,  N. J. Russ,  H. F. Schaefer III,  
 M. W. Schmidt,  N. E. Schultz,  S. Sharma,  N. Shenvi,  C. D. Sherrill,  
 A. C. Simmonett,  A. Sodt,  T. Stein,  D. Stuck,  K. S. Thanthiriwatte,  
 V. Vanovschi,  L. Vogt,  Tao Wang,  A. Warshel,  M. A. Watson,  
 C. F. Williams,  Q. Wu,  X. Xu,  Jun Yang,  W. Zhang,  Yan Zhao

 Please cite Q-Chem as follows:
 Y. Shao et al., Mol. Phys. 113, 184-215 (2015)
 DOI: 10.1080/00268976.2014.952696

 Q-Chem 5.4.0 for Intel X86 EM64T Linux

 Parts of Q-Chem use Armadillo 9.800.1 (Horizon Scraper).
 http://arma.sourceforge.net/

 Q-Chem begins on Sat Feb  3 11:12:26 2024  

 Host: 
0

     Scratch files written to /expanse/lustre/scratch/selhajj/temp_project/qcscratch/28445291/qchem1335534//
 May1621 |scratch|qcdevops|jenkins|workspace|build_RNUM    
 Processing $rem in /cm/shared/apps/spack/cpu/opt/spack/linux-centos8-zen2/gcc-10.2.0/qchem-5.4-akfmr7b3t57bfs6qan3padb2wnb2i7cl/config/preferences:
 Processing $rem in /home/selhajj/.qchemrc:
 Symmetry turned off for PCM/SM12/SMD calculation
 Method-specific promolecule density matrix will be built for SM12 calculation

 Checking the input file for inconsistencies... 	...done.

--------------------------------------------------------------
User input:
--------------------------------------------------------------
$molecule
-1 2
C                 -3.9106470000     -4.0097940000     -1.3046340000
C                 -2.6600900000     -4.7190590000     -1.2824500000
C                 -1.4780750000     -4.0464000000     -1.5458070000
C                 -1.4624600000     -2.6181240000     -1.8616070000
C                 -2.7270730000     -1.9005260000     -1.8840640000
C                 -3.8767880000     -2.5887270000     -1.6148700000
O                 -5.0576340000     -4.5275880000     -1.0737420000
O                 -0.3753380000     -2.0189880000     -2.1096650000
C                 -0.1368200000     -4.7410770000     -1.5445270000
C                  0.3297230000     -5.1718210000     -2.9493080000
C                  1.7146100000     -5.8283630000     -2.9524080000
C                  2.1939250000     -6.2507190000     -4.3460790000
C                  3.5834450000     -6.8987140000     -4.3544650000
C                  4.0612770000     -7.3195940000     -5.7490560000
C                  5.4520470000     -7.9644630000     -5.7582750000
C                  5.9286760000     -8.3843720000     -7.1535280000
C                  7.3195120000     -9.0284740000     -7.1633990000
C                  7.7964450000     -9.4480850000     -8.5585620000
C                 -2.7161490000     -0.4310750000     -2.2040750000
C                 -2.7139180000     -6.1943100000     -0.9563080000
O                 -5.1134990000     -2.0045040000     -1.6132160000
H                 -0.1599340000     -5.6192040000     -0.8894690000
H                  0.6071690000     -4.0452980000     -1.1437050000
H                  0.3429630000     -4.2834280000     -3.5885840000
H                 -0.4044620000     -5.8636120000     -3.3820030000
H                  1.7049450000     -6.7077130000     -2.2928930000
H                  2.4415050000     -5.1296720000     -2.5176170000
H                  2.2009980000     -5.3720640000     -5.0039500000
H                  1.4673700000     -6.9493580000     -4.7821990000
H                  3.5773050000     -7.7768800000     -3.6948430000
H                  4.3098290000     -6.1992350000     -3.9199780000
H                  4.0658950000     -6.4418660000     -6.4085500000
H                  3.3356030000     -8.0199210000     -6.1833910000
H                  5.4478540000     -8.8423640000     -5.0987150000
H                  6.1776900000     -7.2639010000     -5.3244900000
H                  5.9325890000     -7.5065480000     -7.8129200000
H                  5.2031610000     -9.0850520000     -7.5873530000
H                  7.3166590000     -9.9070050000     -6.5045530000
H                  8.0459600000     -8.3282470000     -6.7300980000
C                  9.1870720000    -10.0903030000     -8.5579880000
H                  7.8002190000     -8.5706790000     -9.2169330000
H                 -2.1061850000      0.1219570000     -1.4809340000
H                 -3.7284170000     -0.0233310000     -2.1997160000
H                 -2.2612190000     -0.2491120000     -3.1840170000
H                 -3.7566030000     -6.5066210000     -0.8829550000
H                 -2.2255130000     -6.4195460000      0.0004750000
H                 -2.2192240000     -6.8048460000     -1.7199580000
H                  7.0715520000    -10.1483390000     -8.9916390000
H                  9.9403520000     -9.4011640000     -8.1625660000
H                  9.4973110000    -10.3777830000     -9.5669970000
H                  9.2062060000    -10.9907140000     -7.9353710000
H                 -5.6906990000     -2.7681340000     -1.3885990000
$end

$rem
BASIS  =  6-311++G(d,p)
GUI  =  2
JOB_TYPE  =  SP
METHOD  =  B3LYP
SCF_CONVERGENCE  = 8
SOLVENT_METHOD = sm12
$end

$smx
solvent dimethylformamide
charges CM5
$end





--------------------------------------------------------------
 ----------------------------------------------------------------
             Standard Nuclear Orientation (Angstroms)
    I     Atom           X                Y                Z
 ----------------------------------------------------------------
    1      C      -3.9106470000    -4.0097940000    -1.3046340000
    2      C      -2.6600900000    -4.7190590000    -1.2824500000
    3      C      -1.4780750000    -4.0464000000    -1.5458070000
    4      C      -1.4624600000    -2.6181240000    -1.8616070000
    5      C      -2.7270730000    -1.9005260000    -1.8840640000
    6      C      -3.8767880000    -2.5887270000    -1.6148700000
    7      O      -5.0576340000    -4.5275880000    -1.0737420000
    8      O      -0.3753380000    -2.0189880000    -2.1096650000
    9      C      -0.1368200000    -4.7410770000    -1.5445270000
   10      C       0.3297230000    -5.1718210000    -2.9493080000
   11      C       1.7146100000    -5.8283630000    -2.9524080000
   12      C       2.1939250000    -6.2507190000    -4.3460790000
   13      C       3.5834450000    -6.8987140000    -4.3544650000
   14      C       4.0612770000    -7.3195940000    -5.7490560000
   15      C       5.4520470000    -7.9644630000    -5.7582750000
   16      C       5.9286760000    -8.3843720000    -7.1535280000
   17      C       7.3195120000    -9.0284740000    -7.1633990000
   18      C       7.7964450000    -9.4480850000    -8.5585620000
   19      C      -2.7161490000    -0.4310750000    -2.2040750000
   20      C      -2.7139180000    -6.1943100000    -0.9563080000
   21      O      -5.1134990000    -2.0045040000    -1.6132160000
   22      H      -0.1599340000    -5.6192040000    -0.8894690000
   23      H       0.6071690000    -4.0452980000    -1.1437050000
   24      H       0.3429630000    -4.2834280000    -3.5885840000
   25      H      -0.4044620000    -5.8636120000    -3.3820030000
   26      H       1.7049450000    -6.7077130000    -2.2928930000
   27      H       2.4415050000    -5.1296720000    -2.5176170000
   28      H       2.2009980000    -5.3720640000    -5.0039500000
   29      H       1.4673700000    -6.9493580000    -4.7821990000
   30      H       3.5773050000    -7.7768800000    -3.6948430000
   31      H       4.3098290000    -6.1992350000    -3.9199780000
   32      H       4.0658950000    -6.4418660000    -6.4085500000
   33      H       3.3356030000    -8.0199210000    -6.1833910000
   34      H       5.4478540000    -8.8423640000    -5.0987150000
   35      H       6.1776900000    -7.2639010000    -5.3244900000
   36      H       5.9325890000    -7.5065480000    -7.8129200000
   37      H       5.2031610000    -9.0850520000    -7.5873530000
   38      H       7.3166590000    -9.9070050000    -6.5045530000
   39      H       8.0459600000    -8.3282470000    -6.7300980000
   40      C       9.1870720000   -10.0903030000    -8.5579880000
   41      H       7.8002190000    -8.5706790000    -9.2169330000
   42      H      -2.1061850000     0.1219570000    -1.4809340000
   43      H      -3.7284170000    -0.0233310000    -2.1997160000
   44      H      -2.2612190000    -0.2491120000    -3.1840170000
   45      H      -3.7566030000    -6.5066210000    -0.8829550000
   46      H      -2.2255130000    -6.4195460000     0.0004750000
   47      H      -2.2192240000    -6.8048460000    -1.7199580000
   48      H       7.0715520000   -10.1483390000    -8.9916390000
   49      H       9.9403520000    -9.4011640000    -8.1625660000
   50      H       9.4973110000   -10.3777830000    -9.5669970000
   51      H       9.2062060000   -10.9907140000    -7.9353710000
   52      H      -5.6906990000    -2.7681340000    -1.3885990000
 ----------------------------------------------------------------
 Nuclear Repulsion Energy =        1654.58644468 hartrees
 There are       85 alpha and       84 beta electrons
 Requested basis set is 6-311++G(d,p)
 There are 282 shells and 694 basis functions

 Total QAlloc Memory Limit   8000 MB
 Mega-Array Size       188 MB
 MEM_STATIC part       192 MB
 A cutoff of  1.0D-11 yielded  23827 shell pairs
 There are    139687 function pairs (    147566 Cartesian)
 Smallest overlap matrix eigenvalue = 3.42E-07

 Q-Chem warning in module stvman/mkSTV.C, line 323:

 Overlap eigenvalue is smaller than square root of threshold
 Use THRESH >= 12 to get rid of this warning

 Linear dependence detected in AO basis
 Tighter screening thresholds may be required for diffuse basis sets
 Use S2THRESH > 14 and THRESH = 14 in case of SCF convergence issues
 Number of orthogonalized atomic orbitals = 691
 Maximum deviation from orthogonality = 1.895E-10

 Scale SEOQF with 1.000000e-02/1.000000e-02/1.000000e-02

 Standard Electronic Orientation quadrupole field applied
 Nucleus-field energy     =     0.0000000210 hartrees
 ================ Generating on-the-fly Promolecule Density  ================
Attempting to make child job directory: /expanse/lustre/scratch/selhajj/temp_project/qcscratch/28445291/qchem1335534//Frg1/
Attempting to make child job directory: /expanse/lustre/scratch/selhajj/temp_project/qcscratch/28445291/qchem1335534//Frg2/
Attempting to make child job directory: /expanse/lustre/scratch/selhajj/temp_project/qcscratch/28445291/qchem1335534//Frg3/
Creating input file /expanse/lustre/scratch/selhajj/temp_project/qcscratch/28445291/qchem1335534/Frg1.input
using default PutDataFrgm: nothing
calling putenv with: QCSCRATCH=/expanse/lustre/scratch/selhajj/temp_project/qcscratch/28445291/qchem1335534/ 
Spawning Job For Fragment 0
Done Job For Fragment 0
calling putenv with: QCSCRATCH=/expanse/lustre/scratch/selhajj/temp_project/qcscratch/28445291 
calling putenv with: QCTHREADS=8 
Creating input file /expanse/lustre/scratch/selhajj/temp_project/qcscratch/28445291/qchem1335534/Frg2.input
using default PutDataFrgm: nothing
calling putenv with: QCSCRATCH=/expanse/lustre/scratch/selhajj/temp_project/qcscratch/28445291/qchem1335534/ 
Spawning Job For Fragment 1
Done Job For Fragment 1
calling putenv with: QCSCRATCH=/expanse/lustre/scratch/selhajj/temp_project/qcscratch/28445291 
calling putenv with: QCTHREADS=8 
Creating input file /expanse/lustre/scratch/selhajj/temp_project/qcscratch/28445291/qchem1335534/Frg3.input
using default PutDataFrgm: nothing
calling putenv with: QCSCRATCH=/expanse/lustre/scratch/selhajj/temp_project/qcscratch/28445291/qchem1335534/ 
Spawning Job For Fragment 2
Done Job For Fragment 2
calling putenv with: QCSCRATCH=/expanse/lustre/scratch/selhajj/temp_project/qcscratch/28445291 
calling putenv with: QCTHREADS=8 
 Time for running child jobs:  CPU 0.01 s  wall 14.58 s
 ============= Method Specific Promolecule Density Constructed =============
 Guess from superposition of atomic densities
 Warning:  Energy on first SCF cycle will be non-variational
 SAD guess density has 168.000000 electrons

 -----------------------------------------------------------------------
  General SCF calculation program by
  Eric Jon Sundstrom, Paul Horn, Yuezhi Mao, Dmitri Zuev, Alec White,
  David Stuck, Shaama M.S., Shane Yost, Joonho Lee, David Small,
  Daniel Levine, Susi Lehtola, Hugh Burton, Evgeny Epifanovsky,
  Bang C. Huynh
 -----------------------------------------------------------------------
 Exchange:     0.2000 Hartree-Fock + 0.0800 Slater + 0.7200 B88
 Correlation:  0.1900 VWN1RPA + 0.8100 LYP
 Using SG-1 standard quadrature grid
 using 8 threads for integral computing
 -------------------------------------------------------
 OpenMP Integral computing Module                
 Release: version 1.0, May 2013, Q-Chem Inc. Pittsburgh 
 -------------------------------------------------------
 
 SM12 calculation using CM5 charges
 Citation of the SM12 model:
 Marenich, A.V.; Cramer, C.J.; Truhlar, D.G.
 J. Chem. Theory Comput. 2013, 9, 609-612.
 iSolventCode=          91
 Solvent: dimethylformamide                                               
 
Hirshfeld: reading atomic densities from disk.
warning:  vdwdata pointer should have been initialzed before dftman
 Inaccurate integrated density:
   Number of electrons =   169
   Numerical integral  =   167.999524515229
   Relative error      =    -0.5919973283 %

 Charges (in A.U.) from CM5PAC (Nov. 11, 2011)
 -----------------------------------------------
 Center     Atomic      CM5         Hirshfeld
 Number     Number      Charge      Charge
 -----------------------------------------------
    1          6        0.035915    0.008171
    2          6       -0.010738   -0.001163
    3          6       -0.009145   -0.001313
    4          6        0.034463    0.005774
    5          6       -0.006045    0.000592
    6          6        0.026229    0.008248
    7          8       -0.075623   -0.017935
    8          8       -0.064879   -0.017312
    9          6       -0.107818   -0.005111
   10          6       -0.114888   -0.005609
   11          6       -0.116729   -0.006750
   12          6       -0.116968   -0.006837
   13          6       -0.116959   -0.006852
   14          6       -0.117018   -0.006855
   15          6       -0.117005   -0.006854
   16          6       -0.117032   -0.006866
   17          6       -0.117040   -0.006930
   18          6       -0.119216   -0.007430
   19          6       -0.144025   -0.003326
   20          6       -0.146701   -0.004311
   21          8       -0.214790   -0.023333
   22          1        0.059947    0.002987
   23          1        0.065973    0.005208
   24          1        0.063140    0.005262
   25          1        0.059268    0.003751
   26          1        0.058526    0.003619
   27          1        0.058739    0.003548
   28          1        0.058709    0.003559
   29          1        0.058531    0.003491
   30          1        0.058568    0.003542
   31          1        0.058552    0.003476
   32          1        0.058638    0.003538
   33          1        0.058545    0.003475
   34          1        0.058607    0.003542
   35          1        0.058559    0.003475
   36          1        0.058626    0.003531
   37          1        0.058552    0.003468
   38          1        0.058582    0.003526
   39          1        0.058519    0.003455
   40          6       -0.156488   -0.006523
   41          1        0.057777    0.003301
   42          1        0.057361    0.004070
   43          1        0.061019    0.004771
   44          1        0.057505    0.004073
   45          1        0.062824    0.004942
   46          1        0.054604    0.003027
   47          1        0.055153    0.003030
   48          1        0.057740    0.003269
   49          1        0.053754    0.002665
   50          1        0.053103    0.002498
   51          1        0.053789    0.002704
   52          1        0.199765    0.014198
 -----------------------------------------------

 Dipole moment (in Debye)
 -----------------------------------------------
                 X        Y        Z     Total
 -----------------------------------------------
 CM5          0.2087  -0.8875   0.0918   0.9164
 Hirshfeld    0.1674  -0.1228  -0.0558   0.2149
 -----------------------------------------------

 A unrestricted SCF calculation will be
 performed using DIIS
 SCF converges when DIIS error is below 1.0e-08
 ---------------------------------------
  Cycle       Energy         DIIS error
 ---------------------------------------
Hirshfeld: reading atomic densities from disk.

 Charges (in A.U.) from CM5PAC (Nov. 11, 2011)
 -----------------------------------------------
 Center     Atomic      CM5         Hirshfeld
 Number     Number      Charge      Charge
 -----------------------------------------------
    1          6        0.208135    0.180391
    2          6       -0.082994   -0.073419
    3          6       -0.085440   -0.077607
    4          6        0.213884    0.185194
    5          6       -0.161340   -0.154703
    6          6        0.160331    0.142350
    7          8       -0.597124   -0.539435
    8          8       -0.642018   -0.594450
    9          6       -0.290240   -0.187532
   10          6       -0.299816   -0.190536
   11          6       -0.299054   -0.189076
   12          6       -0.300137   -0.190007
   13          6       -0.299516   -0.189410
   14          6       -0.299916   -0.189754
   15          6       -0.299866   -0.189715
   16          6       -0.300965   -0.190800
   17          6       -0.305500   -0.195390
   18          6       -0.306160   -0.194374
   19          6       -0.431447   -0.290748
   20          6       -0.420872   -0.278482
   21          8       -0.486007   -0.294550
   22          1        0.156377    0.099417
   23          1        0.148019    0.087254
   24          1        0.142291    0.084413
   25          1        0.148682    0.093164
   26          1        0.150983    0.096076
   27          1        0.149458    0.094267
   28          1        0.149068    0.093917
   29          1        0.149767    0.094727
   30          1        0.149965    0.094940
   31          1        0.149535    0.094458
   32          1        0.149626    0.094527
   33          1        0.149833    0.094763
   34          1        0.149978    0.094912
   35          1        0.149801    0.094717
   36          1        0.150004    0.094909
   37          1        0.150074    0.094991
   38          1        0.149760    0.094704
   39          1        0.149655    0.094591
   40          6       -0.440124   -0.290159
   41          1        0.150000    0.095524
   42          1        0.151865    0.098574
   43          1        0.151480    0.095232
   44          1        0.151630    0.098197
   45          1        0.145570    0.087688
   46          1        0.159363    0.107786
   47          1        0.158005    0.105882
   48          1        0.150048    0.095578
   49          1        0.149131    0.098042
   50          1        0.154355    0.103750
   51          1        0.149203    0.098117
   52          1        0.402617    0.217051
 -----------------------------------------------

 Dipole moment (in Debye)
 -----------------------------------------------
                 X        Y        Z     Total
 -----------------------------------------------
 CM5         12.0067  12.9927   8.4248  19.5946
 Hirshfeld   11.9653  13.7575   8.2771  20.0237
 -----------------------------------------------

    1    -972.2171905039      1.16e-02  
Hirshfeld: reading atomic densities from disk.

 Charges (in A.U.) from CM5PAC (Nov. 11, 2011)
 -----------------------------------------------
 Center     Atomic      CM5         Hirshfeld
 Number     Number      Charge      Charge
 -----------------------------------------------
    1          6       -0.259283   -0.287027
    2          6       -0.062819   -0.053243
    3          6       -0.036460   -0.028628
    4          6       -0.177343   -0.206033
    5          6        0.029541    0.036178
    6          6       -0.232046   -0.250026
    7          8       -0.049913    0.007775
    8          8        0.142780    0.190348
    9          6       -0.011864    0.090843
   10          6        0.021170    0.130449
   11          6        0.017691    0.127669
   12          6        0.015954    0.126085
   13          6        0.013477    0.123584
   14          6        0.012894    0.123057
   15          6        0.012805    0.122955
   16          6        0.014228    0.124394
   17          6        0.025612    0.135722
   18          6        0.027169    0.138955
   19          6       -0.017608    0.123091
   20          6       -0.027004    0.115386
   21          8       -0.318290   -0.126833
   22          1       -0.015921   -0.072881
   23          1       -0.023562   -0.084327
   24          1       -0.006246   -0.064124
   25          1       -0.017912   -0.073429
   26          1       -0.017481   -0.072388
   27          1       -0.006258   -0.061449
   28          1       -0.002900   -0.058050
   29          1       -0.010426   -0.065466
   30          1       -0.009896   -0.064922
   31          1       -0.005723   -0.060800
   32          1       -0.004694   -0.059793
   33          1       -0.007349   -0.062419
   34          1       -0.007479   -0.062545
   35          1       -0.005868   -0.060951
   36          1       -0.005667   -0.060761
   37          1       -0.006822   -0.061905
   38          1       -0.006737   -0.061792
   39          1       -0.005999   -0.061063
   40          6        0.000219    0.150184
   41          1       -0.006969   -0.061445
   42          1       -0.026289   -0.079579
   43          1       -0.016495   -0.072743
   44          1       -0.024492   -0.077924
   45          1       -0.011822   -0.069704
   46          1       -0.009139   -0.060717
   47          1       -0.004265   -0.056389
   48          1       -0.007532   -0.062003
   49          1       -0.006958   -0.058047
   50          1       -0.015550   -0.066154
   51          1       -0.007325   -0.058411
   52          1        0.162776   -0.022791
 -----------------------------------------------

 Dipole moment (in Debye)
 -----------------------------------------------
                 X        Y        Z     Total
 -----------------------------------------------
 CM5         16.8039  16.0167   7.3586  24.3527
 Hirshfeld   16.7626  16.7815   7.2110  24.7911
 -----------------------------------------------

    2    -967.5286899781      1.58e-03  
Hirshfeld: reading atomic densities from disk.

 Charges (in A.U.) from CM5PAC (Nov. 11, 2011)
 -----------------------------------------------
 Center     Atomic      CM5         Hirshfeld
 Number     Number      Charge      Charge
 -----------------------------------------------
    1          6        0.157107    0.129363
    2          6       -0.002492    0.007083
    3          6       -0.009717   -0.001885
    4          6        0.133020    0.104331
    5          6       -0.052196   -0.045559
    6          6        0.139968    0.121988
    7          8       -0.529712   -0.472024
    8          8       -0.622909   -0.575342
    9          6       -0.146632   -0.043925
   10          6       -0.149337   -0.040058
   11          6       -0.142110   -0.032132
   12          6       -0.141339   -0.031208
   13          6       -0.139842   -0.029736
   14          6       -0.140188   -0.030026
   15          6       -0.140224   -0.030073
   16          6       -0.140888   -0.030722
   17          6       -0.145835   -0.035726
   18          6       -0.150125   -0.038339
   19          6       -0.217863   -0.077164
   20          6       -0.209778   -0.067388
   21          8       -0.407210   -0.215753
   22          1        0.063610    0.006650
   23          1        0.067525    0.006760
   24          1        0.069920    0.012042
   25          1        0.063489    0.007971
   26          1        0.067523    0.012616
   27          1        0.071083    0.015892
   28          1        0.071471    0.016321
   29          1        0.069581    0.014541
   30          1        0.069780    0.014754
   31          1        0.070531    0.015454
   32          1        0.070969    0.015870
   33          1        0.070495    0.015425
   34          1        0.070505    0.015439
   35          1        0.070716    0.015632
   36          1        0.071622    0.016528
   37          1        0.071431    0.016348
   38          1        0.071229    0.016174
   39          1        0.071305    0.016241
   40          6       -0.209012   -0.059047
   41          1        0.073143    0.018667
   42          1        0.058699    0.005409
   43          1        0.064272    0.008024
   44          1        0.058150    0.004717
   45          1        0.065787    0.007905
   46          1        0.059557    0.007980
   47          1        0.058933    0.006810
   48          1        0.073050    0.018579
   49          1        0.069341    0.018252
   50          1        0.072401    0.021796
   51          1        0.069294    0.018208
   52          1        0.291842    0.106276
 -----------------------------------------------

 Dipole moment (in Debye)
 -----------------------------------------------
                 X        Y        Z     Total
 -----------------------------------------------
 CM5         11.3336  13.5130   8.4570  19.5595
 Hirshfeld   11.2922  14.2777   8.3094  20.0104
 -----------------------------------------------

    3    -967.0754729614      2.20e-03  
Hirshfeld: reading atomic densities from disk.

 Charges (in A.U.) from CM5PAC (Nov. 11, 2011)
 -----------------------------------------------
 Center     Atomic      CM5         Hirshfeld
 Number     Number      Charge      Charge
 -----------------------------------------------
    1          6        0.054656    0.026912
    2          6       -0.070079   -0.060504
    3          6       -0.058631   -0.050798
    4          6        0.075871    0.047181
    5          6       -0.081652   -0.075016
    6          6        0.040784    0.022804
    7          8       -0.404518   -0.346830
    8          8       -0.377724   -0.330157
    9          6       -0.164451   -0.061744
   10          6       -0.164650   -0.055370
   11          6       -0.160621   -0.050643
   12          6       -0.161939   -0.051809
   13          6       -0.161578   -0.051472
   14          6       -0.162073   -0.051910
   15          6       -0.162088   -0.051937
   16          6       -0.162442   -0.052276
   17          6       -0.164263   -0.054153
   18          6       -0.166163   -0.054377
   19          6       -0.243758   -0.103059
   20          6       -0.242739   -0.100349
   21          8       -0.422506   -0.231049
   22          1        0.075039    0.018079
   23          1        0.077713    0.016948
   24          1        0.078013    0.020135
   25          1        0.072015    0.016497
   26          1        0.077174    0.022267
   27          1        0.081383    0.026192
   28          1        0.081804    0.026654
   29          1        0.079401    0.024361
   30          1        0.080154    0.025128
   31          1        0.081224    0.026148
   32          1        0.081621    0.026521
   33          1        0.080912    0.025841
   34          1        0.080994    0.025928
   35          1        0.081366    0.026282
   36          1        0.081827    0.026733
   37          1        0.081519    0.026436
   38          1        0.080859    0.025803
   39          1        0.081015    0.025951
   40          6       -0.242606   -0.092642
   41          1        0.082268    0.027793
   42          1        0.073253    0.019963
   43          1        0.075345    0.019097
   44          1        0.073035    0.019602
   45          1        0.079593    0.021711
   46          1        0.077531    0.025954
   47          1        0.077005    0.024882
   48          1        0.082119    0.027648
   49          1        0.080323    0.029235
   50          1        0.083334    0.032730
   51          1        0.080240    0.029154
   52          1        0.305016    0.119450
 -----------------------------------------------

 Dipole moment (in Debye)
 -----------------------------------------------
                 X        Y        Z     Total
 -----------------------------------------------
 CM5         13.3361  14.3636   8.0649  21.1945
 Hirshfeld   13.2947  15.1284   7.9172  21.6402
 -----------------------------------------------

    4    -968.0687353330      5.42e-04  
Hirshfeld: reading atomic densities from disk.

 Charges (in A.U.) from CM5PAC (Nov. 11, 2011)
 -----------------------------------------------
 Center     Atomic      CM5         Hirshfeld
 Number     Number      Charge      Charge
 -----------------------------------------------
    1          6        0.049160    0.021416
    2          6       -0.049258   -0.039682
    3          6       -0.047572   -0.039740
    4          6        0.076072    0.047382
    5          6       -0.070683   -0.064046
    6          6        0.034051    0.016071
    7          8       -0.409797   -0.352109
    8          8       -0.421222   -0.373655
    9          6       -0.159359   -0.056652
   10          6       -0.155134   -0.045854
   11          6       -0.154717   -0.044738
   12          6       -0.155312   -0.045181
   13          6       -0.155456   -0.045350
   14          6       -0.155975   -0.045813
   15          6       -0.156030   -0.045879
   16          6       -0.156439   -0.046273
   17          6       -0.155459   -0.045350
   18          6       -0.155666   -0.043880
   19          6       -0.237517   -0.096818
   20          6       -0.235884   -0.093494
   21          8       -0.406184   -0.214727
   22          1        0.073595    0.016635
   23          1        0.074571    0.013806
   24          1        0.075561    0.017683
   25          1        0.070243    0.014725
   26          1        0.074022    0.019115
   27          1        0.077658    0.022468
   28          1        0.078617    0.023467
   29          1        0.076429    0.021389
   30          1        0.076938    0.021912
   31          1        0.077937    0.022860
   32          1        0.078477    0.023378
   33          1        0.077793    0.022723
   34          1        0.077782    0.022716
   35          1        0.078145    0.023062
   36          1        0.078399    0.023304
   37          1        0.078095    0.023012
   38          1        0.077454    0.022398
   39          1        0.077607    0.022543
   40          6       -0.235340   -0.085375
   41          1        0.078094    0.023619
   42          1        0.071763    0.018473
   43          1        0.074471    0.018223
   44          1        0.071808    0.018376
   45          1        0.076063    0.018181
   46          1        0.074651    0.023074
   47          1        0.075395    0.023272
   48          1        0.077949    0.023478
   49          1        0.077481    0.026392
   50          1        0.079009    0.028405
   51          1        0.077404    0.026318
   52          1        0.300240    0.114674
 -----------------------------------------------

 Dipole moment (in Debye)
 -----------------------------------------------
                 X        Y        Z     Total
 -----------------------------------------------
 CM5         12.9654  14.1239   8.1264  20.8237
 Hirshfeld   12.9241  14.8887   7.9788  21.2689
 -----------------------------------------------

    5    -968.1243924278      1.09e-04  
Hirshfeld: reading atomic densities from disk.

 Charges (in A.U.) from CM5PAC (Nov. 11, 2011)
 -----------------------------------------------
 Center     Atomic      CM5         Hirshfeld
 Number     Number      Charge      Charge
 -----------------------------------------------
    1          6        0.062305    0.034561
    2          6       -0.055848   -0.046273
    3          6       -0.049839   -0.042006
    4          6        0.078364    0.049674
    5          6       -0.072743   -0.066106
    6          6        0.048450    0.030470
    7          8       -0.421890   -0.364202
    8          8       -0.409075   -0.361508
    9          6       -0.160103   -0.057395
   10          6       -0.157803   -0.048524
   11          6       -0.154639   -0.044661
   12          6       -0.155379   -0.045248
   13          6       -0.155071   -0.044965
   14          6       -0.155535   -0.045372
   15          6       -0.155533   -0.045382
   16          6       -0.155941   -0.045775
   17          6       -0.157122   -0.047012
   18          6       -0.158547   -0.046762
   19          6       -0.237430   -0.096731
   20          6       -0.235830   -0.093440
   21          8       -0.417291   -0.225834
   22          1        0.072865    0.015905
   23          1        0.074496    0.013731
   24          1        0.075780    0.017902
   25          1        0.070034    0.014517
   26          1        0.073958    0.019051
   27          1        0.077890    0.022700
   28          1        0.078661    0.023510
   29          1        0.076330    0.021290
   30          1        0.076828    0.021802
   31          1        0.077892    0.022816
   32          1        0.078372    0.023273
   33          1        0.077659    0.022589
   34          1        0.077684    0.022618
   35          1        0.078062    0.022978
   36          1        0.078479    0.023384
   37          1        0.078168    0.023084
   38          1        0.077804    0.022748
   39          1        0.077962    0.022898
   40          6       -0.234077   -0.084113
   41          1        0.078790    0.024314
   42          1        0.070579    0.017288
   43          1        0.073486    0.017238
   44          1        0.070417    0.016984
   45          1        0.075969    0.018087
   46          1        0.074063    0.022485
   47          1        0.074346    0.022223
   48          1        0.078641    0.024171
   49          1        0.077381    0.026292
   50          1        0.079299    0.028695
   51          1        0.077301    0.026215
   52          1        0.301313    0.115746
 -----------------------------------------------

 Dipole moment (in Debye)
 -----------------------------------------------
                 X        Y        Z     Total
 -----------------------------------------------
 CM5         13.1415  14.2634   8.0931  21.0153
 Hirshfeld   13.1002  15.0282   7.9454  21.4614
 -----------------------------------------------

    6    -968.1263819246      4.14e-05  
Hirshfeld: reading atomic densities from disk.

 Charges (in A.U.) from CM5PAC (Nov. 11, 2011)
 -----------------------------------------------
 Center     Atomic      CM5         Hirshfeld
 Number     Number      Charge      Charge
 -----------------------------------------------
    1          6        0.058795    0.031051
    2          6       -0.055584   -0.046009
    3          6       -0.049496   -0.041664
    4          6        0.079669    0.050979
    5          6       -0.073691   -0.067054
    6          6        0.045561    0.027581
    7          8       -0.413992   -0.356304
    8          8       -0.413838   -0.366271
    9          6       -0.160000   -0.057292
   10          6       -0.158242   -0.048963
   11          6       -0.155266   -0.045288
   12          6       -0.156106   -0.045975
   13          6       -0.155823   -0.045717
   14          6       -0.156297   -0.046135
   15          6       -0.156327   -0.046176
   16          6       -0.156668   -0.046502
   17          6       -0.157746   -0.047636
   18          6       -0.159206   -0.047421
   19          6       -0.237643   -0.096944
   20          6       -0.236023   -0.093633
   21          8       -0.414797   -0.223340
   22          1        0.072993    0.016033
   23          1        0.074768    0.014003
   24          1        0.075913    0.018035
   25          1        0.070167    0.014650
   26          1        0.074301    0.019394
   27          1        0.078178    0.022987
   28          1        0.078947    0.023797
   29          1        0.076673    0.021633
   30          1        0.077212    0.022186
   31          1        0.078236    0.023159
   32          1        0.078722    0.023623
   33          1        0.078037    0.022967
   34          1        0.078062    0.022996
   35          1        0.078420    0.023336
   36          1        0.078840    0.023746
   37          1        0.078543    0.023459
   38          1        0.078070    0.023014
   39          1        0.078219    0.023155
   40          6       -0.234985   -0.085020
   41          1        0.079134    0.024659
   42          1        0.070880    0.017589
   43          1        0.073668    0.017420
   44          1        0.070699    0.017266
   45          1        0.075989    0.018107
   46          1        0.074074    0.022497
   47          1        0.074249    0.022125
   48          1        0.078992    0.024522
   49          1        0.077654    0.026565
   50          1        0.079764    0.029159
   51          1        0.077578    0.026492
   52          1        0.300654    0.115088
 -----------------------------------------------

 Dipole moment (in Debye)
 -----------------------------------------------
                 X        Y        Z     Total
 -----------------------------------------------
 CM5         13.0288  14.2097   8.1183  20.9182
 Hirshfeld   12.9874  14.9745   7.9707  21.3644
 -----------------------------------------------

    7    -968.1270382808      1.75e-05  
Hirshfeld: reading atomic densities from disk.

 Charges (in A.U.) from CM5PAC (Nov. 11, 2011)
 -----------------------------------------------
 Center     Atomic      CM5         Hirshfeld
 Number     Number      Charge      Charge
 -----------------------------------------------
    1          6        0.058360    0.030616
    2          6       -0.054545   -0.044970
    3          6       -0.049136   -0.041303
    4          6        0.078629    0.049940
    5          6       -0.072812   -0.066176
    6          6        0.044334    0.026354
    7          8       -0.417555   -0.359867
    8          8       -0.411694   -0.364127
    9          6       -0.159941   -0.057233
   10          6       -0.157780   -0.048501
   11          6       -0.155230   -0.045252
   12          6       -0.156007   -0.045877
   13          6       -0.155803   -0.045697
   14          6       -0.156285   -0.046122
   15          6       -0.156318   -0.046167
   16          6       -0.156693   -0.046528
   17          6       -0.157424   -0.047314
   18          6       -0.158670   -0.046885
   19          6       -0.237628   -0.096929
   20          6       -0.236024   -0.093634
   21          8       -0.414192   -0.222735
   22          1        0.073033    0.016073
   23          1        0.074729    0.013964
   24          1        0.075827    0.017949
   25          1        0.070131    0.014614
   26          1        0.074266    0.019358
   27          1        0.078112    0.022922
   28          1        0.078903    0.023753
   29          1        0.076643    0.021603
   30          1        0.077187    0.022161
   31          1        0.078206    0.023129
   32          1        0.078701    0.023601
   33          1        0.078017    0.022947
   34          1        0.078037    0.022971
   35          1        0.078396    0.023312
   36          1        0.078797    0.023703
   37          1        0.078498    0.023415
   38          1        0.077972    0.022916
   39          1        0.078122    0.023058
   40          6       -0.235077   -0.085113
   41          1        0.078991    0.024515
   42          1        0.070963    0.017672
   43          1        0.073743    0.017495
   44          1        0.070819    0.017387
   45          1        0.076106    0.018224
   46          1        0.074135    0.022558
   47          1        0.074382    0.022258
   48          1        0.078848    0.024378
   49          1        0.077629    0.026540
   50          1        0.079701    0.029096
   51          1        0.077553    0.026467
   52          1        0.300977    0.115411
 -----------------------------------------------

 Dipole moment (in Debye)
 -----------------------------------------------
                 X        Y        Z     Total
 -----------------------------------------------
 CM5         13.0903  14.2365   8.1040  20.9692
 Hirshfeld   13.0489  15.0013   7.9564  21.4153
 -----------------------------------------------

    8    -968.1270377932      7.55e-06  
Hirshfeld: reading atomic densities from disk.

 Charges (in A.U.) from CM5PAC (Nov. 11, 2011)
 -----------------------------------------------
 Center     Atomic      CM5         Hirshfeld
 Number     Number      Charge      Charge
 -----------------------------------------------
    1          6        0.058655    0.030912
    2          6       -0.054900   -0.045325
    3          6       -0.049734   -0.041901
    4          6        0.078375    0.049685
    5          6       -0.072974   -0.066338
    6          6        0.045334    0.027354
    7          8       -0.416130   -0.358442
    8          8       -0.412313   -0.364746
    9          6       -0.160109   -0.057402
   10          6       -0.157777   -0.048498
   11          6       -0.155146   -0.045168
   12          6       -0.155885   -0.045754
   13          6       -0.155671   -0.045564
   14          6       -0.156150   -0.045987
   15          6       -0.156167   -0.046017
   16          6       -0.156577   -0.046411
   17          6       -0.157342   -0.047233
   18          6       -0.158564   -0.046778
   19          6       -0.237760   -0.097060
   20          6       -0.236192   -0.093802
   21          8       -0.415083   -0.223626
   22          1        0.073121    0.016160
   23          1        0.074766    0.014001
   24          1        0.075843    0.017965
   25          1        0.070192    0.014674
   26          1        0.074249    0.019342
   27          1        0.078071    0.022881
   28          1        0.078856    0.023706
   29          1        0.076605    0.021565
   30          1        0.077129    0.022103
   31          1        0.078146    0.023070
   32          1        0.078639    0.023540
   33          1        0.077955    0.022885
   34          1        0.077973    0.022908
   35          1        0.078334    0.023250
   36          1        0.078734    0.023639
   37          1        0.078434    0.023351
   38          1        0.077940    0.022884
   39          1        0.078090    0.023026
   40          6       -0.234949   -0.084984
   41          1        0.078931    0.024455
   42          1        0.070995    0.017705
   43          1        0.073843    0.017595
   44          1        0.070860    0.017428
   45          1        0.076114    0.018232
   46          1        0.074146    0.022569
   47          1        0.074427    0.022304
   48          1        0.078788    0.024318
   49          1        0.077598    0.026509
   50          1        0.079623    0.029018
   51          1        0.077522    0.026436
   52          1        0.301066    0.115499
 -----------------------------------------------

 Dipole moment (in Debye)
 -----------------------------------------------
                 X        Y        Z     Total
 -----------------------------------------------
 CM5         13.0663  14.2241   8.1081  20.9474
 Hirshfeld   13.0249  14.9888   7.9604  21.3935
 -----------------------------------------------

    9    -968.1270435949      3.93e-06  
Hirshfeld: reading atomic densities from disk.

 Charges (in A.U.) from CM5PAC (Nov. 11, 2011)
 -----------------------------------------------
 Center     Atomic      CM5         Hirshfeld
 Number     Number      Charge      Charge
 -----------------------------------------------
    1          6        0.058560    0.030816
    2          6       -0.055005   -0.045429
    3          6       -0.049189   -0.041357
    4          6        0.078901    0.050211
    5          6       -0.073053   -0.066417
    6          6        0.045032    0.027052
    7          8       -0.416640   -0.358952
    8          8       -0.412151   -0.364584
    9          6       -0.160012   -0.057305
   10          6       -0.157919   -0.048640
   11          6       -0.155218   -0.045240
   12          6       -0.155985   -0.045854
   13          6       -0.155742   -0.045635
   14          6       -0.156216   -0.046054
   15          6       -0.156239   -0.046088
   16          6       -0.156615   -0.046450
   17          6       -0.157483   -0.047373
   18          6       -0.158785   -0.046999
   19          6       -0.237707   -0.097008
   20          6       -0.236133   -0.093743
   21          8       -0.414659   -0.223202
   22          1        0.073056    0.016096
   23          1        0.074731    0.013966
   24          1        0.075861    0.017983
   25          1        0.070191    0.014673
   26          1        0.074265    0.019358
   27          1        0.078101    0.022910
   28          1        0.078892    0.023742
   29          1        0.076634    0.021594
   30          1        0.077162    0.022136
   31          1        0.078183    0.023106
   32          1        0.078675    0.023575
   33          1        0.077989    0.022919
   34          1        0.078010    0.022944
   35          1        0.078370    0.023286
   36          1        0.078772    0.023678
   37          1        0.078473    0.023389
   38          1        0.077992    0.022936
   39          1        0.078142    0.023078
   40          6       -0.234979   -0.085014
   41          1        0.079000    0.024525
   42          1        0.070957    0.017667
   43          1        0.073782    0.017534
   44          1        0.070804    0.017371
   45          1        0.076058    0.018176
   46          1        0.074095    0.022518
   47          1        0.074355    0.022232
   48          1        0.078858    0.024387
   49          1        0.077627    0.026538
   50          1        0.079668    0.029063
   51          1        0.077551    0.026465
   52          1        0.300916    0.115350
 -----------------------------------------------

 Dipole moment (in Debye)
 -----------------------------------------------
                 X        Y        Z     Total
 -----------------------------------------------
 CM5         13.0765  14.2322   8.1066  20.9587
 Hirshfeld   13.0352  14.9969   7.9590  21.4049
 -----------------------------------------------

   10    -968.1270462249      1.94e-06  
Hirshfeld: reading atomic densities from disk.

 Charges (in A.U.) from CM5PAC (Nov. 11, 2011)
 -----------------------------------------------
 Center     Atomic      CM5         Hirshfeld
 Number     Number      Charge      Charge
 -----------------------------------------------
    1          6        0.058600    0.030856
    2          6       -0.054759   -0.045184
    3          6       -0.049433   -0.041601
    4          6        0.078667    0.049978
    5          6       -0.072958   -0.066321
    6          6        0.045060    0.027080
    7          8       -0.416599   -0.358910
    8          8       -0.412068   -0.364500
    9          6       -0.160037   -0.057330
   10          6       -0.157876   -0.048597
   11          6       -0.155196   -0.045217
   12          6       -0.155978   -0.045847
   13          6       -0.155753   -0.045646
   14          6       -0.156233   -0.046070
   15          6       -0.156262   -0.046111
   16          6       -0.156637   -0.046471
   17          6       -0.157455   -0.047345
   18          6       -0.158740   -0.046954
   19          6       -0.237670   -0.096971
   20          6       -0.236081   -0.093691
   21          8       -0.414774   -0.223317
   22          1        0.073068    0.016108
   23          1        0.074741    0.013976
   24          1        0.075846    0.017968
   25          1        0.070178    0.014661
   26          1        0.074265    0.019358
   27          1        0.078099    0.022908
   28          1        0.078888    0.023738
   29          1        0.076634    0.021594
   30          1        0.077167    0.022142
   31          1        0.078185    0.023108
   32          1        0.078679    0.023579
   33          1        0.077996    0.022926
   34          1        0.078016    0.022950
   35          1        0.078375    0.023291
   36          1        0.078778    0.023683
   37          1        0.078480    0.023396
   38          1        0.077982    0.022926
   39          1        0.078131    0.023067
   40          6       -0.234999   -0.085034
   41          1        0.078995    0.024519
   42          1        0.070952    0.017662
   43          1        0.073778    0.017530
   44          1        0.070799    0.017367
   45          1        0.076050    0.018168
   46          1        0.074076    0.022499
   47          1        0.074326    0.022203
   48          1        0.078853    0.024382
   49          1        0.077622    0.026533
   50          1        0.079675    0.029070
   51          1        0.077546    0.026461
   52          1        0.300930    0.115364
 -----------------------------------------------

 Dipole moment (in Debye)
 -----------------------------------------------
                 X        Y        Z     Total
 -----------------------------------------------
 CM5         13.0752  14.2309   8.1069  20.9571
 Hirshfeld   13.0339  14.9957   7.9592  21.4033
 -----------------------------------------------

   11    -968.1270593382      5.93e-07  
Hirshfeld: reading atomic densities from disk.

 Charges (in A.U.) from CM5PAC (Nov. 11, 2011)
 -----------------------------------------------
 Center     Atomic      CM5         Hirshfeld
 Number     Number      Charge      Charge
 -----------------------------------------------
    1          6        0.058545    0.030801
    2          6       -0.054943   -0.045367
    3          6       -0.049297   -0.041465
    4          6        0.078734    0.050045
    5          6       -0.072979   -0.066342
    6          6        0.045069    0.027089
    7          8       -0.416604   -0.358916
    8          8       -0.412043   -0.364475
    9          6       -0.160013   -0.057306
   10          6       -0.157867   -0.048588
   11          6       -0.155200   -0.045222
   12          6       -0.155965   -0.045834
   13          6       -0.155735   -0.045628
   14          6       -0.156212   -0.046049
   15          6       -0.156236   -0.046085
   16          6       -0.156620   -0.046454
   17          6       -0.157447   -0.047337
   18          6       -0.158728   -0.046942
   19          6       -0.237689   -0.096990
   20          6       -0.236123   -0.093733
   21          8       -0.414772   -0.223315
   22          1        0.073062    0.016101
   23          1        0.074738    0.013973
   24          1        0.075846    0.017968
   25          1        0.070178    0.014660
   26          1        0.074263    0.019355
   27          1        0.078095    0.022905
   28          1        0.078883    0.023732
   29          1        0.076629    0.021589
   30          1        0.077159    0.022134
   31          1        0.078177    0.023100
   32          1        0.078670    0.023570
   33          1        0.077987    0.022917
   34          1        0.078006    0.022941
   35          1        0.078365    0.023281
   36          1        0.078770    0.023675
   37          1        0.078471    0.023388
   38          1        0.077976    0.022920
   39          1        0.078125    0.023061
   40          6       -0.234981   -0.085016
   41          1        0.078988    0.024512
   42          1        0.070958    0.017667
   43          1        0.073784    0.017536
   44          1        0.070808    0.017376
   45          1        0.076062    0.018181
   46          1        0.074087    0.022510
   47          1        0.074343    0.022219
   48          1        0.078846    0.024375
   49          1        0.077616    0.026527
   50          1        0.079667    0.029063
   51          1        0.077541    0.026455
   52          1        0.300934    0.115368
 -----------------------------------------------

 Dipole moment (in Debye)
 -----------------------------------------------
                 X        Y        Z     Total
 -----------------------------------------------
 CM5         13.0772  14.2320   8.1063  20.9589
 Hirshfeld   13.0358  14.9968   7.9586  21.4051
 -----------------------------------------------

   12    -968.1270587019      3.02e-07  
Hirshfeld: reading atomic densities from disk.

 Charges (in A.U.) from CM5PAC (Nov. 11, 2011)
 -----------------------------------------------
 Center     Atomic      CM5         Hirshfeld
 Number     Number      Charge      Charge
 -----------------------------------------------
    1          6        0.058574    0.030831
    2          6       -0.054888   -0.045313
    3          6       -0.049348   -0.041515
    4          6        0.078730    0.050040
    5          6       -0.072999   -0.066363
    6          6        0.045061    0.027080
    7          8       -0.416612   -0.358924
    8          8       -0.412027   -0.364460
    9          6       -0.160028   -0.057321
   10          6       -0.157883   -0.048604
   11          6       -0.155199   -0.045221
   12          6       -0.155967   -0.045836
   13          6       -0.155736   -0.045629
   14          6       -0.156213   -0.046050
   15          6       -0.156237   -0.046086
   16          6       -0.156618   -0.046452
   17          6       -0.157453   -0.047344
   18          6       -0.158740   -0.046954
   19          6       -0.237688   -0.096989
   20          6       -0.236111   -0.093721
   21          8       -0.414760   -0.223303
   22          1        0.073068    0.016107
   23          1        0.074739    0.013973
   24          1        0.075849    0.017971
   25          1        0.070185    0.014667
   26          1        0.074265    0.019358
   27          1        0.078096    0.022905
   28          1        0.078884    0.023734
   29          1        0.076631    0.021591
   30          1        0.077160    0.022134
   31          1        0.078178    0.023101
   32          1        0.078671    0.023571
   33          1        0.077987    0.022917
   34          1        0.078007    0.022941
   35          1        0.078366    0.023282
   36          1        0.078770    0.023675
   37          1        0.078471    0.023388
   38          1        0.077979    0.022924
   39          1        0.078129    0.023065
   40          6       -0.234979   -0.085014
   41          1        0.078990    0.024515
   42          1        0.070958    0.017668
   43          1        0.073786    0.017538
   44          1        0.070808    0.017375
   45          1        0.076057    0.018175
   46          1        0.074081    0.022504
   47          1        0.074337    0.022214
   48          1        0.078848    0.024377
   49          1        0.077618    0.026529
   50          1        0.079667    0.029062
   51          1        0.077542    0.026457
   52          1        0.300927    0.115360
 -----------------------------------------------

 Dipole moment (in Debye)
 -----------------------------------------------
                 X        Y        Z     Total
 -----------------------------------------------
 CM5         13.0770  14.2319   8.1063  20.9587
 Hirshfeld   13.0356  14.9967   7.9587  21.4049
 -----------------------------------------------

   13    -968.1270581427      1.51e-07  
Hirshfeld: reading atomic densities from disk.

 Charges (in A.U.) from CM5PAC (Nov. 11, 2011)
 -----------------------------------------------
 Center     Atomic      CM5         Hirshfeld
 Number     Number      Charge      Charge
 -----------------------------------------------
    1          6        0.058557    0.030813
    2          6       -0.054900   -0.045325
    3          6       -0.049328   -0.041496
    4          6        0.078735    0.050045
    5          6       -0.072965   -0.066328
    6          6        0.045055    0.027075
    7          8       -0.416618   -0.358930
    8          8       -0.412030   -0.364463
    9          6       -0.160021   -0.057313
   10          6       -0.157874   -0.048595
   11          6       -0.155199   -0.045221
   12          6       -0.155971   -0.045840
   13          6       -0.155741   -0.045634
   14          6       -0.156219   -0.046056
   15          6       -0.156245   -0.046094
   16          6       -0.156624   -0.046458
   17          6       -0.157452   -0.047342
   18          6       -0.158737   -0.046951
   19          6       -0.237682   -0.096982
   20          6       -0.236113   -0.093723
   21          8       -0.414777   -0.223320
   22          1        0.073066    0.016105
   23          1        0.074738    0.013973
   24          1        0.075847    0.017969
   25          1        0.070182    0.014664
   26          1        0.074264    0.019357
   27          1        0.078096    0.022906
   28          1        0.078885    0.023735
   29          1        0.076631    0.021592
   30          1        0.077162    0.022136
   31          1        0.078180    0.023103
   32          1        0.078673    0.023574
   33          1        0.077990    0.022920
   34          1        0.078010    0.022944
   35          1        0.078369    0.023285
   36          1        0.078772    0.023677
   37          1        0.078473    0.023390
   38          1        0.077980    0.022924
   39          1        0.078129    0.023065
   40          6       -0.234985   -0.085021
   41          1        0.078991    0.024515
   42          1        0.070957    0.017667
   43          1        0.073784    0.017536
   44          1        0.070806    0.017373
   45          1        0.076056    0.018174
   46          1        0.074081    0.022503
   47          1        0.074335    0.022212
   48          1        0.078848    0.024378
   49          1        0.077620    0.026531
   50          1        0.079669    0.029064
   51          1        0.077544    0.026458
   52          1        0.300927    0.115361
 -----------------------------------------------

 Dipole moment (in Debye)
 -----------------------------------------------
                 X        Y        Z     Total
 -----------------------------------------------
 CM5         13.0775  14.2322   8.1063  20.9592
 Hirshfeld   13.0361  14.9970   7.9586  21.4054
 -----------------------------------------------

   14    -968.1270582802      7.01e-08  
Hirshfeld: reading atomic densities from disk.

 Charges (in A.U.) from CM5PAC (Nov. 11, 2011)
 -----------------------------------------------
 Center     Atomic      CM5         Hirshfeld
 Number     Number      Charge      Charge
 -----------------------------------------------
    1          6        0.058563    0.030820
    2          6       -0.054900   -0.045324
    3          6       -0.049334   -0.041501
    4          6        0.078728    0.050039
    5          6       -0.072984   -0.066347
    6          6        0.045063    0.027083
    7          8       -0.416622   -0.358934
    8          8       -0.412025   -0.364458
    9          6       -0.160023   -0.057315
   10          6       -0.157875   -0.048596
   11          6       -0.155199   -0.045221
   12          6       -0.155969   -0.045838
   13          6       -0.155739   -0.045632
   14          6       -0.156216   -0.046054
   15          6       -0.156242   -0.046091
   16          6       -0.156623   -0.046457
   17          6       -0.157452   -0.047342
   18          6       -0.158736   -0.046950
   19          6       -0.237686   -0.096987
   20          6       -0.236115   -0.093725
   21          8       -0.414767   -0.223310
   22          1        0.073067    0.016107
   23          1        0.074740    0.013974
   24          1        0.075847    0.017969
   25          1        0.070183    0.014665
   26          1        0.074265    0.019358
   27          1        0.078097    0.022906
   28          1        0.078885    0.023734
   29          1        0.076631    0.021591
   30          1        0.077161    0.022136
   31          1        0.078179    0.023103
   32          1        0.078672    0.023573
   33          1        0.077989    0.022919
   34          1        0.078009    0.022943
   35          1        0.078368    0.023284
   36          1        0.078771    0.023677
   37          1        0.078473    0.023390
   38          1        0.077979    0.022923
   39          1        0.078128    0.023064
   40          6       -0.234984   -0.085020
   41          1        0.078990    0.024515
   42          1        0.070959    0.017669
   43          1        0.073787    0.017539
   44          1        0.070809    0.017376
   45          1        0.076057    0.018175
   46          1        0.074081    0.022504
   47          1        0.074335    0.022212
   48          1        0.078848    0.024377
   49          1        0.077619    0.026530
   50          1        0.079668    0.029064
   51          1        0.077543    0.026457
   52          1        0.300926    0.115360
 -----------------------------------------------

 Dipole moment (in Debye)
 -----------------------------------------------
                 X        Y        Z     Total
 -----------------------------------------------
 CM5         13.0774  14.2322   8.1062  20.9591
 Hirshfeld   13.0360  14.9970   7.9586  21.4053
 -----------------------------------------------

   15    -968.1270587624      4.61e-08  
Hirshfeld: reading atomic densities from disk.

 Charges (in A.U.) from CM5PAC (Nov. 11, 2011)
 -----------------------------------------------
 Center     Atomic      CM5         Hirshfeld
 Number     Number      Charge      Charge
 -----------------------------------------------
    1          6        0.058562    0.030818
    2          6       -0.054898   -0.045323
    3          6       -0.049335   -0.041503
    4          6        0.078735    0.050046
    5          6       -0.072978   -0.066341
    6          6        0.045056    0.027076
    7          8       -0.416623   -0.358935
    8          8       -0.412025   -0.364457
    9          6       -0.160024   -0.057317
   10          6       -0.157877   -0.048598
   11          6       -0.155199   -0.045221
   12          6       -0.155968   -0.045838
   13          6       -0.155738   -0.045632
   14          6       -0.156216   -0.046053
   15          6       -0.156241   -0.046090
   16          6       -0.156622   -0.046456
   17          6       -0.157452   -0.047342
   18          6       -0.158737   -0.046951
   19          6       -0.237685   -0.096986
   20          6       -0.236114   -0.093724
   21          8       -0.414772   -0.223315
   22          1        0.073068    0.016107
   23          1        0.074739    0.013974
   24          1        0.075848    0.017970
   25          1        0.070184    0.014666
   26          1        0.074265    0.019358
   27          1        0.078097    0.022906
   28          1        0.078884    0.023734
   29          1        0.076631    0.021591
   30          1        0.077161    0.022136
   31          1        0.078179    0.023102
   32          1        0.078672    0.023572
   33          1        0.077989    0.022919
   34          1        0.078009    0.022943
   35          1        0.078367    0.023283
   36          1        0.078771    0.023676
   37          1        0.078473    0.023389
   38          1        0.077979    0.022923
   39          1        0.078128    0.023064
   40          6       -0.234983   -0.085018
   41          1        0.078990    0.024515
   42          1        0.070959    0.017669
   43          1        0.073786    0.017538
   44          1        0.070809    0.017376
   45          1        0.076057    0.018175
   46          1        0.074080    0.022503
   47          1        0.074335    0.022212
   48          1        0.078848    0.024377
   49          1        0.077619    0.026530
   50          1        0.079668    0.029064
   51          1        0.077543    0.026457
   52          1        0.300927    0.115361
 -----------------------------------------------

 Dipole moment (in Debye)
 -----------------------------------------------
                 X        Y        Z     Total
 -----------------------------------------------
 CM5         13.0775  14.2322   8.1062  20.9592
 Hirshfeld   13.0362  14.9970   7.9585  21.4054
 -----------------------------------------------

   16    -968.1270584809      1.60e-08  
   17    -968.1270585483      9.39e-09  Convergence criterion met
 ---------------------------------------
 SCF time:   CPU 19875.63s  wall 2625.00s 
<S^2> =          0.760050882
(1)  E-EN(liq) elect-nuc energy of solute               -968.127058548 a.u.
(2)  G-P(liq) polarization free energy of solvation           -43.0977 kcal/mol
(3)  G-ENP(liq) elect-nuc-pol free energy of system     -968.195739041 a.u.
(4)  G-CDS(liq) cavity-dispersion-solvent structure 
     free energy                                              -12.3745 kcal/mol
(5)  G-P-CDS(liq) = G-P(liq) + G-CDS(liq) = (2) + (4)         -55.4721 kcal/mol
(6)  G-S(liq) free energy of system = (1) + (5)         -968.215458984 a.u.
 SCF   energy in the final basis set =     -968.2154589839
 Total energy in the final basis set =     -968.2154589839
 
 --------------------------------------------------------------
 
                    Orbital Energies (a.u.)
 --------------------------------------------------------------
 
 Alpha MOs
 -- Occupied --
-19.1389 -19.0812 -19.0676 -10.2166 -10.2149 -10.2132 -10.1685 -10.1647
-10.1643 -10.1629 -10.1629 -10.1629 -10.1628 -10.1628 -10.1625 -10.1624
-10.1622 -10.1621 -10.1620 -10.1617 -10.1602 -10.1573  -1.0579  -0.9900
 -0.9890  -0.8302  -0.8154  -0.8031  -0.7876  -0.7732  -0.7506  -0.7224
 -0.7120  -0.6898  -0.6604  -0.6418  -0.6283  -0.5972  -0.5806  -0.5757
 -0.5745  -0.5676  -0.5527  -0.5209  -0.4889  -0.4851  -0.4746  -0.4555
 -0.4459  -0.4401  -0.4336  -0.4313  -0.4262  -0.4179  -0.4150  -0.4124
 -0.4084  -0.4041  -0.3962  -0.3945  -0.3933  -0.3841  -0.3820  -0.3774
 -0.3697  -0.3640  -0.3614  -0.3523  -0.3478  -0.3463  -0.3400  -0.3394
 -0.3320  -0.3295  -0.3285  -0.3246  -0.3244  -0.3225  -0.3223  -0.3004
 -0.2631  -0.2540  -0.2309  -0.2202  -0.1545
 -- Virtual --
 -0.0330  -0.0270  -0.0139  -0.0115  -0.0085  -0.0037  -0.0014   0.0015
  0.0043   0.0056   0.0081   0.0101   0.0160   0.0186   0.0210   0.0263
  0.0292   0.0331   0.0337   0.0366   0.0378   0.0420   0.0452   0.0498
  0.0502   0.0558   0.0565   0.0576   0.0600   0.0651   0.0686   0.0729
  0.0743   0.0768   0.0815   0.0828   0.0834   0.0876   0.0887   0.0906
  0.0950   0.0989   0.1030   0.1058   0.1090   0.1119   0.1135   0.1162
  0.1167   0.1199   0.1215   0.1236   0.1251   0.1266   0.1277   0.1296
  0.1302   0.1336   0.1355   0.1369   0.1378   0.1397   0.1430   0.1450
  0.1467   0.1484   0.1493   0.1513   0.1541   0.1556   0.1566   0.1587
  0.1606   0.1648   0.1661   0.1671   0.1680   0.1706   0.1719   0.1755
  0.1766   0.1773   0.1786   0.1821   0.1849   0.1858   0.1899   0.1928
  0.1955   0.1962   0.2014   0.2052   0.2080   0.2100   0.2107   0.2116
  0.2131   0.2176   0.2189   0.2220   0.2260   0.2269   0.2318   0.2387
  0.2407   0.2425   0.2463   0.2514   0.2514   0.2526   0.2536   0.2583
  0.2627   0.2642   0.2671   0.2684   0.2719   0.2732   0.2791   0.2815
  0.2834   0.2859   0.2899   0.2944   0.2984   0.3060   0.3080   0.3091
  0.3113   0.3120   0.3154   0.3168   0.3172   0.3228   0.3233   0.3248
  0.3302   0.3318   0.3340   0.3369   0.3394   0.3411   0.3438   0.3453
  0.3492   0.3515   0.3585   0.3639   0.3661   0.3692   0.3732   0.3783
  0.3880   0.3917   0.3956   0.3968   0.3987   0.4087   0.4121   0.4162
  0.4209   0.4253   0.4342   0.4422   0.4441   0.4480   0.4513   0.4533
  0.4541   0.4605   0.4647   0.4689   0.4762   0.4850   0.4908   0.5005
  0.5056   0.5063   0.5266   0.5278   0.5379   0.5546   0.5584   0.5658
  0.5778   0.5804   0.5882   0.5914   0.5972   0.5987   0.6053   0.6141
  0.6203   0.6262   0.6295   0.6408   0.6471   0.6506   0.6514   0.6527
  0.6540   0.6589   0.6625   0.6696   0.6714   0.6726   0.6769   0.6790
  0.6839   0.6845   0.6887   0.6898   0.6979   0.7029   0.7040   0.7064
  0.7100   0.7135   0.7188   0.7225   0.7240   0.7296   0.7325   0.7372
  0.7451   0.7476   0.7496   0.7505   0.7511   0.7536   0.7583   0.7621
  0.7659   0.7702   0.7721   0.7767   0.7792   0.7811   0.7848   0.7864
  0.7916   0.7973   0.8064   0.8125   0.8176   0.8230   0.8281   0.8438
  0.8500   0.8799   0.8817   0.8898   0.9092   0.9217   0.9348   0.9419
  0.9475   0.9627   0.9776   0.9856   0.9886   0.9977   1.0080   1.0102
  1.0144   1.0250   1.0277   1.0337   1.0404   1.0456   1.0536   1.0574
  1.0633   1.0667   1.0799   1.0977   1.1019   1.1064   1.1143   1.1347
  1.1436   1.1700   1.1764   1.1910   1.2019   1.2229   1.2248   1.2303
  1.2400   1.2452   1.2493   1.2516   1.2581   1.2683   1.2714   1.2738
  1.2771   1.2798   1.2831   1.2861   1.2979   1.3053   1.3107   1.3280
  1.3337   1.3688   1.3787   1.3856   1.3941   1.4102   1.4253   1.4613
  1.4651   1.4693   1.4734   1.4755   1.4805   1.4882   1.4949   1.5144
  1.5161   1.5353   1.5389   1.5594   1.5633   1.5674   1.5722   1.5749
  1.5802   1.5833   1.5892   1.5947   1.6006   1.6038   1.6058   1.6146
  1.6206   1.6252   1.6311   1.6388   1.6469   1.6510   1.6604   1.6625
  1.6666   1.6691   1.6697   1.6733   1.6775   1.6822   1.6860   1.6914
  1.6951   1.7053   1.7142   1.7222   1.7254   1.7338   1.7374   1.7400
  1.7419   1.7460   1.7500   1.7522   1.7557   1.7726   1.7752   1.7937
  1.8044   1.8133   1.8260   1.8287   1.8344   1.8374   1.8422   1.8477
  1.8544   1.8629   1.8730   1.8787   1.8800   1.8849   1.8985   1.9076
  1.9108   1.9176   1.9323   1.9340   1.9431   1.9490   1.9568   1.9705
  1.9889   2.0126   2.0137   2.0354   2.0620   2.0729   2.0751   2.0873
  2.0997   2.1107   2.1218   2.1292   2.1417   2.1455   2.1573   2.1714
  2.1905   2.1996   2.2113   2.2202   2.2260   2.2336   2.2404   2.2465
  2.2478   2.2567   2.2627   2.2759   2.2837   2.3011   2.3034   2.3116
  2.3162   2.3301   2.3408   2.3452   2.3486   2.3729   2.3850   2.3881
  2.3978   2.4026   2.4085   2.4331   2.4412   2.4420   2.4503   2.4682
  2.4794   2.4803   2.4884   2.5023   2.5145   2.5285   2.5406   2.5444
  2.5483   2.5535   2.5575   2.5617   2.5634   2.5714   2.5767   2.5807
  2.5850   2.5943   2.6064   2.6155   2.6190   2.6205   2.6285   2.6353
  2.6433   2.6517   2.6618   2.6650   2.6768   2.6826   2.6864   2.6939
  2.7066   2.7175   2.7239   2.7324   2.7414   2.7557   2.7620   2.7658
  2.7809   2.7925   2.7987   2.8121   2.8125   2.8211   2.8239   2.8375
  2.8429   2.8478   2.8591   2.8791   2.8920   2.8950   2.9088   2.9226
  2.9407   2.9507   2.9520   2.9571   2.9575   2.9690   2.9773   2.9788
  2.9844   2.9883   2.9949   3.0270   3.0354   3.0382   3.0659   3.0746
  3.0798   3.0987   3.1140   3.1175   3.1361   3.1544   3.1671   3.1752
  3.1850   3.2119   3.2316   3.2361   3.2897   3.2993   3.3159   3.3269
  3.3550   3.3866   3.4281   3.4436   3.4571   3.4933   3.5144   3.5204
  3.5470   3.5539   3.6286   3.7691   3.7711   3.7824   3.7884   3.7902
  3.7952   3.8014   3.8141   3.8211   3.8236   3.8375   3.8465   3.8529
  3.8581   3.8756   3.8834   3.9065   3.9259   3.9329   3.9836   4.0547
  4.0653   4.0862   4.1193   4.1626   4.2041   4.2156   4.2712   4.2809
  4.2892   4.3319   4.3738   4.3914   4.4086   4.4212   4.8519   5.0113
  5.1025   5.1345   5.3040   5.3299   5.5049   5.6853   5.7942   5.8404
 23.6147  23.8314  23.8749  23.8883  23.8931  23.8942  23.8970  23.9020
 23.9130  23.9214  23.9279  23.9329  23.9560  23.9617  23.9824  23.9827
 23.9940  24.1189  24.1563  49.9478  50.0502  50.0956
 
 Beta MOs
 -- Occupied --
-19.1385 -19.0744 -19.0612 -10.2157 -10.2125 -10.2121 -10.1681 -10.1647
-10.1629 -10.1629 -10.1629 -10.1628 -10.1628 -10.1624 -10.1623 -10.1622
-10.1621 -10.1620 -10.1619 -10.1617 -10.1599 -10.1573  -1.0559  -0.9789
 -0.9776  -0.8255  -0.8151  -0.8026  -0.7868  -0.7725  -0.7498  -0.7210
 -0.7101  -0.6872  -0.6586  -0.6370  -0.6264  -0.5966  -0.5805  -0.5753
 -0.5745  -0.5652  -0.5496  -0.5182  -0.4884  -0.4837  -0.4744  -0.4553
 -0.4432  -0.4342  -0.4333  -0.4297  -0.4248  -0.4158  -0.4137  -0.4108
 -0.4064  -0.4024  -0.3956  -0.3910  -0.3878  -0.3817  -0.3804  -0.3768
 -0.3691  -0.3607  -0.3541  -0.3514  -0.3440  -0.3387  -0.3355  -0.3314
 -0.3285  -0.3279  -0.3257  -0.3244  -0.3234  -0.3224  -0.3215  -0.2995
 -0.2480  -0.2350  -0.2248  -0.2136
 -- Virtual --
 -0.0827  -0.0329  -0.0269  -0.0137  -0.0112  -0.0084  -0.0033  -0.0013
  0.0024   0.0045   0.0063   0.0090   0.0126   0.0185   0.0190   0.0246
  0.0265   0.0308   0.0334   0.0358   0.0373   0.0415   0.0453   0.0498
  0.0501   0.0552   0.0565   0.0570   0.0599   0.0618   0.0655   0.0689
  0.0730   0.0745   0.0769   0.0818   0.0830   0.0839   0.0879   0.0890
  0.0909   0.0952   0.0990   0.1032   0.1059   0.1091   0.1120   0.1137
  0.1163   0.1168   0.1199   0.1216   0.1237   0.1252   0.1267   0.1278
  0.1299   0.1303   0.1339   0.1365   0.1372   0.1384   0.1399   0.1432
  0.1451   0.1472   0.1486   0.1495   0.1532   0.1544   0.1558   0.1569
  0.1590   0.1607   0.1650   0.1663   0.1677   0.1683   0.1716   0.1726
  0.1760   0.1773   0.1789   0.1803   0.1822   0.1855   0.1861   0.1905
  0.1931   0.1965   0.1971   0.2017   0.2054   0.2084   0.2104   0.2111
  0.2120   0.2135   0.2179   0.2196   0.2223   0.2264   0.2273   0.2321
  0.2395   0.2415   0.2436   0.2465   0.2516   0.2520   0.2529   0.2542
  0.2587   0.2632   0.2647   0.2679   0.2691   0.2726   0.2744   0.2799
  0.2819   0.2843   0.2868   0.2908   0.2947   0.2995   0.3071   0.3085
  0.3099   0.3116   0.3128   0.3157   0.3173   0.3181   0.3238   0.3247
  0.3253   0.3312   0.3320   0.3347   0.3393   0.3404   0.3424   0.3445
  0.3463   0.3511   0.3522   0.3607   0.3641   0.3676   0.3706   0.3739
  0.3787   0.3884   0.3922   0.3960   0.3973   0.3993   0.4091   0.4126
  0.4170   0.4213   0.4262   0.4350   0.4427   0.4448   0.4482   0.4517
  0.4551   0.4562   0.4606   0.4652   0.4707   0.4765   0.4859   0.4913
  0.5013   0.5061   0.5082   0.5267   0.5286   0.5382   0.5550   0.5589
  0.5661   0.5791   0.5820   0.5892   0.5921   0.5986   0.5997   0.6060
  0.6151   0.6207   0.6270   0.6299   0.6419   0.6483   0.6522   0.6526
  0.6533   0.6547   0.6594   0.6626   0.6700   0.6727   0.6735   0.6780
  0.6803   0.6844   0.6853   0.6895   0.6907   0.6983   0.7037   0.7044
  0.7069   0.7106   0.7139   0.7193   0.7235   0.7246   0.7299   0.7334
  0.7377   0.7460   0.7490   0.7498   0.7507   0.7517   0.7543   0.7588
  0.7624   0.7662   0.7713   0.7724   0.7772   0.7801   0.7813   0.7863
  0.7874   0.7922   0.7976   0.8067   0.8128   0.8184   0.8231   0.8285
  0.8445   0.8506   0.8807   0.8845   0.8918   0.9101   0.9230   0.9362
  0.9425   0.9506   0.9639   0.9777   0.9873   0.9902   1.0004   1.0102
  1.0112   1.0149   1.0279   1.0289   1.0340   1.0423   1.0469   1.0537
  1.0579   1.0644   1.0678   1.0820   1.0985   1.1065   1.1102   1.1170
  1.1367   1.1457   1.1766   1.1783   1.1931   1.2033   1.2237   1.2303
  1.2330   1.2415   1.2482   1.2497   1.2550   1.2633   1.2688   1.2726
  1.2745   1.2795   1.2816   1.2834   1.2864   1.3013   1.3088   1.3126
  1.3295   1.3365   1.3712   1.3810   1.3882   1.3959   1.4117   1.4271
  1.4621   1.4651   1.4696   1.4738   1.4760   1.4814   1.4891   1.4953
  1.5149   1.5191   1.5368   1.5399   1.5594   1.5633   1.5679   1.5731
  1.5752   1.5804   1.5838   1.5894   1.5949   1.6009   1.6043   1.6062
  1.6148   1.6207   1.6257   1.6314   1.6396   1.6475   1.6528   1.6606
  1.6639   1.6670   1.6694   1.6705   1.6738   1.6779   1.6826   1.6861
  1.6921   1.6957   1.7056   1.7161   1.7228   1.7267   1.7347   1.7391
  1.7430   1.7437   1.7464   1.7504   1.7524   1.7562   1.7734   1.7759
  1.7952   1.8056   1.8151   1.8261   1.8313   1.8370   1.8391   1.8433
  1.8484   1.8562   1.8645   1.8741   1.8796   1.8812   1.8857   1.8997
  1.9086   1.9134   1.9193   1.9335   1.9365   1.9443   1.9505   1.9576
  1.9717   1.9921   2.0138   2.0147   2.0373   2.0624   2.0734   2.0755
  2.0879   2.1007   2.1114   2.1223   2.1296   2.1428   2.1460   2.1577
  2.1726   2.1916   2.2010   2.2125   2.2227   2.2292   2.2351   2.2410
  2.2471   2.2481   2.2576   2.2634   2.2764   2.2843   2.3017   2.3046
  2.3120   2.3168   2.3314   2.3410   2.3458   2.3496   2.3731   2.3855
  2.3885   2.3989   2.4028   2.4088   2.4336   2.4414   2.4424   2.4518
  2.4710   2.4795   2.4812   2.4887   2.5025   2.5145   2.5285   2.5408
  2.5447   2.5487   2.5537   2.5579   2.5626   2.5639   2.5717   2.5777
  2.5810   2.5853   2.5944   2.6066   2.6160   2.6194   2.6207   2.6289
  2.6359   2.6435   2.6529   2.6633   2.6684   2.6791   2.6843   2.6866
  2.6950   2.7071   2.7182   2.7244   2.7325   2.7415   2.7558   2.7632
  2.7667   2.7830   2.7959   2.8031   2.8123   2.8134   2.8215   2.8253
  2.8377   2.8452   2.8492   2.8619   2.8830   2.8965   2.9026   2.9145
  2.9321   2.9417   2.9520   2.9526   2.9591   2.9617   2.9728   2.9784
  2.9795   2.9861   2.9911   3.0052   3.0285   3.0372   3.0453   3.0673
  3.0794   3.0825   3.0993   3.1152   3.1192   3.1428   3.1557   3.1702
  3.1789   3.1883   3.2131   3.2319   3.2383   3.2917   3.3008   3.3165
  3.3438   3.3713   3.3869   3.4296   3.4452   3.4579   3.4937   3.5171
  3.5207   3.5504   3.5572   3.6312   3.7692   3.7714   3.7856   3.7887
  3.7904   3.7956   3.8022   3.8141   3.8216   3.8240   3.8376   3.8470
  3.8531   3.8582   3.8768   3.8842   3.9065   3.9261   3.9339   3.9856
  4.0547   4.0654   4.0863   4.1194   4.1627   4.2065   4.2160   4.2720
  4.2848   4.2914   4.3322   4.3751   4.3925   4.4100   4.4216   4.8572
  5.0176   5.1270   5.1599   5.3094   5.3353   5.5056   5.6880   5.7978
  5.8458  23.6160  23.8327  23.8749  23.8883  23.8931  23.8942  23.8974
 23.9025  23.9131  23.9216  23.9279  23.9334  23.9577  23.9620  23.9824
 23.9830  23.9945  24.1200  24.1571  49.9490  50.0563  50.1020
 --------------------------------------------------------------
 
          Ground-State Mulliken Net Atomic Charges

     Atom                 Charge (a.u.)    Spin (a.u.)
  --------------------------------------------------------
      1 C                    -1.551733       0.111185
      2 C                     0.160387       0.041021
      3 C                     0.425926       0.192888
      4 C                    -1.675462       0.056701
      5 C                     0.649424       0.014893
      6 C                    -1.418437       0.064810
      7 O                    -0.396032       0.248794
      8 O                    -0.309142       0.239141
      9 C                    -0.928417       0.007535
     10 C                    -2.778022      -0.012175
     11 C                    -1.193798       0.010423
     12 C                    -0.209307      -0.006563
     13 C                     0.848473      -0.001136
     14 C                     1.248463      -0.000204
     15 C                     1.157595       0.000339
     16 C                     0.666142       0.000020
     17 C                     0.233551       0.000022
     18 C                    -0.048021      -0.000012
     19 C                     0.037269       0.005320
     20 C                     0.367298       0.004581
     21 O                    -0.193904       0.015221
     22 H                     0.225545       0.000305
     23 H                     0.106894       0.006302
     24 H                     0.086029      -0.002265
     25 H                     0.034877       0.000091
     26 H                     0.174839       0.000122
     27 H                     0.169546      -0.000807
     28 H                     0.108032       0.000048
     29 H                     0.157026      -0.000182
     30 H                     0.114158      -0.000026
     31 H                     0.110630       0.000000
     32 H                     0.111923       0.000010
     33 H                     0.110372       0.000008
     34 H                     0.121515       0.000002
     35 H                     0.116259       0.000006
     36 H                     0.115778      -0.000001
     37 H                     0.117707      -0.000001
     38 H                     0.108998      -0.000000
     39 H                     0.106882      -0.000001
     40 C                    -0.445272       0.000002
     41 H                     0.123689       0.000000
     42 H                     0.160566       0.002391
     43 H                     0.191627      -0.000090
     44 H                     0.160146       0.001797
     45 H                     0.201292      -0.001520
     46 H                     0.202623       0.002617
     47 H                     0.227924       0.002119
     48 H                     0.124562       0.000000
     49 H                     0.141232       0.000000
     50 H                     0.188377       0.000002
     51 H                     0.141986      -0.000000
     52 H                     0.291988      -0.003733
  --------------------------------------------------------
  Sum of atomic charges =    -1.000000
  Sum of spin   charges =     1.000000

 -----------------------------------------------------------------
                    Cartesian Multipole Moments
 -----------------------------------------------------------------
    Charge (ESU x 10^10)
                -4.8032
    Dipole Moment (Debye)
         X      13.0755      Y      14.3198      Z       7.9914
       Tot      20.9735
    Quadrupole Moments (Debye-Ang)
        XX    -209.7073     XY     -45.1016     YY    -199.1150
        XZ     -16.1213     YZ     -21.5404     ZZ    -159.7857
    Octopole Moments (Debye-Ang^2)
       XXX    -126.4911    XXY    1055.4843    XYY      45.6591
       YYY    2579.5310    XXZ     614.5757    XYZ      33.2009
       YYZ     599.5855    XZZ    -116.5228    YZZ     829.4024
       ZZZ    1597.6635
    Hexadecapole Moments (Debye-Ang^3)
      XXXX  -19189.5769   XXXY    5838.4972   XXYY   -9737.5128
      XYYY    5899.1172   YYYY  -33019.4747   XXXZ    5820.5322
      XXYZ   -4138.4047   XYYZ    2014.4499   YYYZ  -11239.0184
      XXZZ   -5969.6813   XYZZ    2284.8687   YYZZ   -8413.9091
      XZZZ    6015.7521   YZZZ  -11099.7773   ZZZZ  -17210.6643
 -----------------------------------------------------------------
 Total job time:  2645.76s(wall), 19886.44s(cpu) 
 Sat Feb  3 11:56:31 2024

        *************************************************************
        *                                                           *
        *  Thank you very much for using Q-Chem.  Have a nice day.  *
        *                                                           *
        *************************************************************


