
Running Job 1 of 1 302-an-CPCM.in
qchem 302-an-CPCM.in_3118858.0 /expanse/lustre/scratch/selhajj/temp_project/qcscratch/31293063/qchem3118858/ 0
/cm/shared/apps/spack/cpu/opt/spack/linux-centos8-zen2/gcc-10.2.0/qchem-5.4-akfmr7b3t57bfs6qan3padb2wnb2i7cl/exe/qcprog.exe_s 302-an-CPCM.in_3118858.0 /expanse/lustre/scratch/selhajj/temp_project/qcscratch/31293063/qchem3118858/
                  Welcome to Q-Chem
     A Quantum Leap Into The Future Of Chemistry


 Q-Chem 5.4, Q-Chem, Inc., Pleasanton, CA (2021)

 License issued to: University of California, San Diego (site)

 E. Epifanovsky,  A. T. B. Gilbert,  Xintian Feng,  Joonho Lee,  Yuezhi Mao,  
 N. Mardirossian,  P. Pokhilko,  A. White,  M. Wormit,  M. P. Coons,  
 A. L. Dempwolff,  Zhengting Gan,  D. Hait,  P. R. Horn,  L. D. Jacobson,  
 I. Kaliman,  J. Kussmann,  A. W. Lange,  Ka Un Lao,  D. S. Levine,  Jie Liu,  
 S. C. McKenzie,  A. F. Morrison,  K. Nanda,  F. Plasser,  D. R. Rehn,  
 M. L. Vidal,  Zhi-Qiang You,  Ying Zhu,  B. Alam,  B. Albrecht,  
 A. Aldossary,  E. Alguire,  J. H. Andersen,  D. Barton,  K. Begam,  A. Behn,  
 Y. A. Bernard,  E. J. Berquist,  H. Burton,  A. Carreras,  K. Carter-Fenk,  
 R. Chakraborty,  A. D. Chien,  K. D. Closser,  V. Cofer-Shabica,  
 S. Dasgupta,  Jia Deng,  M. de Wergifosse,  M. Diedenhofen,  Hainam Do,  
 S. Ehlert,  Po-Tung Fang,  S. Fatehi,  Qingguo Feng,  J. Gayvert,  
 Qinghui Ge,  G. Gidofalvi,  M. Goldey,  J. Gomes,  C. Gonzalez-Espinoza,  
 S. Gulania,  A. Gunina,  M. W. D. Hanson-Heine,  P. H. P. Harbach,  
 A. W. Hauser,  M. F. Herbst,  M. Hernandez Vera,  M. Hodecker,  
 Z. C. Holden,  S. Houck,  Xunkun Huang,  Kerwin Hui,  B. C. Huynh,  
 M. Ivanov,  Hyunjun Ji,  Hanjie Jiang,  B. Kaduk,  S. Kaehler,  
 K. Khistyaev,  Jaehoon Kim,  P. Klunzinger,  Z. Koczor-Benda,  
 Joong Hoon Koh,  D. Kosenkov,  L. Koulias,  T. Kowalczyk,  C. M. Krauter,  
 K. Kue,  A. Kunitsa,  T. Kus,  A. Landau,  K. V. Lawler,  D. Lefrancois,  
 S. Lehtola,  Rain Li,  Yi-Pei Li,  Jiashu Liang,  M. Liebenthal,  
 Hung-Hsuan Lin,  You-Sheng Lin,  Fenglai Liu,  Kuan-Yu Liu,  
 M. Loipersberger,  A. Luenser,  A. Manjanath,  P. Manohar,  E. Mansoor,  
 S. F. Manzer,  Shan-Ping Mao,  A. V. Marenich,  T. Markovich,  S. Mason,  
 S. A. Maurer,  P. F. McLaughlin,  M. F. S. J. Menger,  J.-M. Mewes,  
 S. A. Mewes,  P. Morgante,  J. W. Mullinax,  T. S. Nguyen-Beck,  
 K. J. Oosterbaan,  G. Paran,  Alexander C. Paul,  Suranjan K. Paul,  
 F. Pavosevic,  Zheng Pei,  S. Prager,  E. I. Proynov,  E. Ramos,  B. Rana,  
 A. E. Rask,  A. Rettig,  R. M. Richard,  F. Rob,  E. Rossomme,  T. Scheele,  
 M. Scheurer,  M. Schneider,  N. Sergueev,  S. M. Sharada,  W. Skomorowski,  
 D. W. Small,  C. J. Stein,  Yu-Chuan Su,  E. J. Sundstrom,  Zhen Tao,  
 J. Thirman,  T. Tsuchimochi,  N. M. Tubman,  S. P. Veccham,  O. Vydrov,  
 J. Wenzel,  J. Witte,  A. Yamada,  Kun Yao,  S. Yeganeh,  S. R. Yost,  
 A. Zech,  Igor Ying Zhang,  Xing Zhang,  Yu Zhang,  D. Zuev,  
 A. Aspuru-Guzik,  A. T. Bell,  N. A. Besley,  K. B. Bravaya,  B. R. Brooks,  
 D. Casanova,  Jeng-Da Chai,  S. Coriani,  C. J. Cramer,  
 A. E. DePrince, III,  R. A. DiStasio Jr.,  A. Dreuw,  B. D. Dunietz,  
 T. R. Furlani,  W. A. Goddard III,  S. Grimme,  S. Hammes-Schiffer,  
 T. Head-Gordon,  W. J. Hehre,  Chao-Ping Hsu,  T.-C. Jagau,  Yousung Jung,  
 A. Klamt,  Jing Kong,  D. S. Lambrecht,  WanZhen Liang,  N. J. Mayhall,  
 C. W. McCurdy,  J. B. Neaton,  C. Ochsenfeld,  J. A. Parkhill,  R. Peverati,  
 V. A. Rassolov,  Yihan Shao,  L. V. Slipchenko,  T. Stauch,  R. P. Steele,  
 J. E. Subotnik,  A. J. W. Thom,  A. Tkatchenko,  D. G. Truhlar,  
 T. Van Voorhis,  T. A. Wesolowski,  K. B. Whaley,  H. L. Woodcock III,  
 P. M. Zimmerman,  S. Faraji,  P. M. W. Gill,  M. Head-Gordon,  
 J. M. Herbert,  A. I. Krylov

 Contributors to earlier versions of Q-Chem not listed above: 
 R. D. Adamson,  B. Austin,  R. Baer,  J. Baker,  G. J. O. Beran,  
 K. Brandhorst,  S. T. Brown,  E. F. C. Byrd,  A. K. Chakraborty,  
 G. K. L. Chan,  Chun-Min Chang,  Yunqing Chen,  C.-L. Cheng,  
 Siu Hung Chien,  D. M. Chipman,  D. L. Crittenden,  H. Dachsel,  
 R. J. Doerksen,  A. D. Dutoi,  R. G. Edgar,  J. Fosso-Tande,  
 L. Fusti-Molnar,  D. Ghosh,  A. Ghysels,  A. Golubeva-Zadorozhnaya,  
 J. Gonthier,  M. S. Gordon,  S. R. Gwaltney,  G. Hawkins,  J. E. Herr,  
 A. Heyden,  S. Hirata,  E. G. Hohenstein,  G. Kedziora,  F. J. Keil,  
 C. Kelley,  Jihan Kim,  R. A. King,  R. Z. Khaliullin,  P. P. Korambath,  
 W. Kurlancheek,  A. Laurent,  A. M. Lee,  M. S. Lee,  S. V. Levchenko,  
 Ching Yeh Lin,  D. Liotard,  E. Livshits,  R. C. Lochan,  I. Lotan,  
 L. A. Martinez-Martinez,  P. E. Maslen,  N. Nair,  D. P. O'Neill,  
 D. Neuhauser,  E. Neuscamman,  C. M. Oana,  R. Olivares-Amaya,  R. Olson,  
 T. M. Perrine,  B. Peters,  P. A. Pieniazek,  A. Prociuk,  Y. M. Rhee,  
 J. Ritchie,  M. A. Rohrdanz,  E. Rosta,  N. J. Russ,  H. F. Schaefer III,  
 M. W. Schmidt,  N. E. Schultz,  S. Sharma,  N. Shenvi,  C. D. Sherrill,  
 A. C. Simmonett,  A. Sodt,  T. Stein,  D. Stuck,  K. S. Thanthiriwatte,  
 V. Vanovschi,  L. Vogt,  Tao Wang,  A. Warshel,  M. A. Watson,  
 C. F. Williams,  Q. Wu,  X. Xu,  Jun Yang,  W. Zhang,  Yan Zhao

 Please cite Q-Chem as follows:
 Y. Shao et al., Mol. Phys. 113, 184-215 (2015)
 DOI: 10.1080/00268976.2014.952696

 Q-Chem 5.4.0 for Intel X86 EM64T Linux

 Parts of Q-Chem use Armadillo 9.800.1 (Horizon Scraper).
 http://arma.sourceforge.net/

 Q-Chem begins on Thu Jun 13 12:16:42 2024  

 Host: 
0

     Scratch files written to /expanse/lustre/scratch/selhajj/temp_project/qcscratch/31293063/qchem3118858//
 May1621 |scratch|qcdevops|jenkins|workspace|build_RNUM    
 Processing $rem in /cm/shared/apps/spack/cpu/opt/spack/linux-centos8-zen2/gcc-10.2.0/qchem-5.4-akfmr7b3t57bfs6qan3padb2wnb2i7cl/config/preferences:
 Processing $rem in /home/selhajj/.qchemrc:
 Symmetry turned off for PCM/SM12/SMD calculation

 Checking the input file for inconsistencies... 	...done.

--------------------------------------------------------------
User input:
--------------------------------------------------------------
$molecule
-2 1
C                 -1.7295550000      4.5819700000      5.3847550000
C                 -3.0427970000      4.1653070000      5.4742140000
C                 -3.6014240000      3.3648020000      4.4491340000
C                 -0.9156230000      4.2202700000      4.2822780000
C                 -1.4792060000      3.4056260000      3.2412040000
C                 -2.8238550000      3.0048800000      3.3600030000
C                  0.4414480000      4.6686820000      4.1847020000
C                  1.1650010000      4.2155970000      3.0398340000
C                  0.6801330000      3.3724060000      2.0322150000
C                 -0.7099140000      2.9902720000      2.0580300000
O                  1.0553600000      5.4382890000      5.0259270000
O                 -1.2937020000      2.3421120000      1.1204690000
O                  2.4457050000      4.7036260000      2.9977220000
H                 -1.2794090000      5.2004270000      6.1543610000
H                 -3.6490380000      4.4528830000      6.3303210000
H                 -4.6351360000      3.0354010000      4.5163520000
H                 -3.2259060000      2.3974460000      2.5562850000
H                  2.4567710000      5.2370310000      3.8309360000
C                  2.9382850000      2.3551810000      1.2952600000
C                  3.0399110000      1.5793940000      2.4513640000
C                  4.0617510000      2.4556600000      0.4668560000
C                  5.2502780000      1.7981720000      0.7771330000
C                  5.3379800000      1.0217160000      1.9340030000
C                  4.2262010000      0.9182270000      2.7691830000
H                  2.1815770000      1.5125810000      3.1100050000
H                  3.9909230000      3.0542460000     -0.4360380000
H                  6.1099580000      1.8936730000      0.1196000000
H                  4.2832170000      0.3252090000      3.6771970000
H                  6.2632070000      0.5108630000      2.1839770000
C                  1.6420040000      3.0575840000      0.8754540000
H                  1.9679990000      4.0327780000      0.4869510000
N                  1.0660780000      2.3487340000     -0.3027040000
C                  0.9651370000      0.8875260000     -0.1856130000
C                  0.2332920000      0.3221810000     -1.4044240000
C                  0.1488380000     -1.2085710000     -1.4066580000
C                 -0.5547690000     -1.7840930000     -2.6423710000
C                 -0.6186330000     -3.3164500000     -2.6673990000
C                 -1.2957870000     -3.8897300000     -3.9187160000
C                 -1.3411610000     -5.4224320000     -3.9558820000
C                 -1.9986670000     -5.9942320000     -5.2181960000
C                 -2.0313840000     -7.5271990000     -5.2608030000
C                 -2.6776200000     -8.0979150000     -6.5292670000
C                 -2.7029210000     -9.6311720000     -6.5731580000
C                 -3.3447550000    -10.1991910000     -7.8423460000
H                  0.0949400000      2.6612910000     -0.3338000000
H                  0.4233030000      0.5844910000      0.7221610000
H                  1.9723430000      0.4601880000     -0.1402630000
H                  0.7445780000      0.6668550000     -2.3128050000
H                 -0.7787600000      0.7436690000     -1.4280780000
H                 -0.3757240000     -1.5436040000     -0.5029000000
H                  1.1624000000     -1.6286210000     -1.3447750000
H                 -0.0387750000     -1.4321380000     -3.5461270000
H                 -1.5732850000     -1.3782010000     -2.6984560000
H                 -1.1491380000     -3.6708460000     -1.7738230000
H                  0.4001910000     -3.7202100000     -2.5935650000
H                 -0.7700080000     -3.5243820000     -4.8111140000
H                 -2.3183890000     -3.4959760000     -3.9888430000
H                 -1.8771710000     -5.7899190000     -3.0708270000
H                 -0.3186650000     -5.8147070000     -3.8740160000
H                 -1.4655390000     -5.6211120000     -6.1027830000
H                 -3.0235710000     -5.6085850000     -5.2989080000
H                 -2.5704060000     -7.9019250000     -4.3805800000
H                 -1.0065210000     -7.9120630000     -5.1742850000
H                 -2.1409380000     -7.7224580000     -7.4104170000
H                 -3.7041230000     -7.7185360000     -6.6169100000
H                 -3.2407220000    -10.0081190000     -5.6938700000
H                 -1.6770170000    -10.0108730000     -6.4841420000
H                 -4.3861990000     -9.8734040000     -7.9446050000
H                 -3.3447440000    -11.2946100000     -7.8393780000
H                 -2.8072770000     -9.8761950000     -8.7412670000
$end
$rem
MAX_SCF_CYCLES=200
BASIS  =  6-311++G(d,p)
GUI  =  2
JOB_TYPE  =  SP
METHOD  =  B3LYP
SCF_ALGORITHM = RCA_DIIS
SCF_CONVERGENCE = 8
scf_guess = GWH
THRESH = 14
SOLVENT_METHOD = PCM
$end
$pcm
theory = CPCM
$end
$solvent
dielectric 37.219
opticaldielectric 1.43
$end






--------------------------------------------------------------
 ----------------------------------------------------------------
             Standard Nuclear Orientation (Angstroms)
    I     Atom           X                Y                Z
 ----------------------------------------------------------------
    1      C      -1.7295550000     4.5819700000     5.3847550000
    2      C      -3.0427970000     4.1653070000     5.4742140000
    3      C      -3.6014240000     3.3648020000     4.4491340000
    4      C      -0.9156230000     4.2202700000     4.2822780000
    5      C      -1.4792060000     3.4056260000     3.2412040000
    6      C      -2.8238550000     3.0048800000     3.3600030000
    7      C       0.4414480000     4.6686820000     4.1847020000
    8      C       1.1650010000     4.2155970000     3.0398340000
    9      C       0.6801330000     3.3724060000     2.0322150000
   10      C      -0.7099140000     2.9902720000     2.0580300000
   11      O       1.0553600000     5.4382890000     5.0259270000
   12      O      -1.2937020000     2.3421120000     1.1204690000
   13      O       2.4457050000     4.7036260000     2.9977220000
   14      H      -1.2794090000     5.2004270000     6.1543610000
   15      H      -3.6490380000     4.4528830000     6.3303210000
   16      H      -4.6351360000     3.0354010000     4.5163520000
   17      H      -3.2259060000     2.3974460000     2.5562850000
   18      H       2.4567710000     5.2370310000     3.8309360000
   19      C       2.9382850000     2.3551810000     1.2952600000
   20      C       3.0399110000     1.5793940000     2.4513640000
   21      C       4.0617510000     2.4556600000     0.4668560000
   22      C       5.2502780000     1.7981720000     0.7771330000
   23      C       5.3379800000     1.0217160000     1.9340030000
   24      C       4.2262010000     0.9182270000     2.7691830000
   25      H       2.1815770000     1.5125810000     3.1100050000
   26      H       3.9909230000     3.0542460000    -0.4360380000
   27      H       6.1099580000     1.8936730000     0.1196000000
   28      H       4.2832170000     0.3252090000     3.6771970000
   29      H       6.2632070000     0.5108630000     2.1839770000
   30      C       1.6420040000     3.0575840000     0.8754540000
   31      H       1.9679990000     4.0327780000     0.4869510000
   32      N       1.0660780000     2.3487340000    -0.3027040000
   33      C       0.9651370000     0.8875260000    -0.1856130000
   34      C       0.2332920000     0.3221810000    -1.4044240000
   35      C       0.1488380000    -1.2085710000    -1.4066580000
   36      C      -0.5547690000    -1.7840930000    -2.6423710000
   37      C      -0.6186330000    -3.3164500000    -2.6673990000
   38      C      -1.2957870000    -3.8897300000    -3.9187160000
   39      C      -1.3411610000    -5.4224320000    -3.9558820000
   40      C      -1.9986670000    -5.9942320000    -5.2181960000
   41      C      -2.0313840000    -7.5271990000    -5.2608030000
   42      C      -2.6776200000    -8.0979150000    -6.5292670000
   43      C      -2.7029210000    -9.6311720000    -6.5731580000
   44      C      -3.3447550000   -10.1991910000    -7.8423460000
   45      H       0.0949400000     2.6612910000    -0.3338000000
   46      H       0.4233030000     0.5844910000     0.7221610000
   47      H       1.9723430000     0.4601880000    -0.1402630000
   48      H       0.7445780000     0.6668550000    -2.3128050000
   49      H      -0.7787600000     0.7436690000    -1.4280780000
   50      H      -0.3757240000    -1.5436040000    -0.5029000000
   51      H       1.1624000000    -1.6286210000    -1.3447750000
   52      H      -0.0387750000    -1.4321380000    -3.5461270000
   53      H      -1.5732850000    -1.3782010000    -2.6984560000
   54      H      -1.1491380000    -3.6708460000    -1.7738230000
   55      H       0.4001910000    -3.7202100000    -2.5935650000
   56      H      -0.7700080000    -3.5243820000    -4.8111140000
   57      H      -2.3183890000    -3.4959760000    -3.9888430000
   58      H      -1.8771710000    -5.7899190000    -3.0708270000
   59      H      -0.3186650000    -5.8147070000    -3.8740160000
   60      H      -1.4655390000    -5.6211120000    -6.1027830000
   61      H      -3.0235710000    -5.6085850000    -5.2989080000
   62      H      -2.5704060000    -7.9019250000    -4.3805800000
   63      H      -1.0065210000    -7.9120630000    -5.1742850000
   64      H      -2.1409380000    -7.7224580000    -7.4104170000
   65      H      -3.7041230000    -7.7185360000    -6.6169100000
   66      H      -3.2407220000   -10.0081190000    -5.6938700000
   67      H      -1.6770170000   -10.0108730000    -6.4841420000
   68      H      -4.3861990000    -9.8734040000    -7.9446050000
   69      H      -3.3447440000   -11.2946100000    -7.8393780000
   70      H      -2.8072770000    -9.8761950000    -8.7412670000
 ----------------------------------------------------------------
 Nuclear Repulsion Energy =        3043.77980781 hartrees
 There are      122 alpha and      122 beta electrons
 Requested basis set is 6-311++G(d,p)
 There are 383 shells and 985 basis functions

 Total QAlloc Memory Limit   8000 MB
 Mega-Array Size       188 MB
 MEM_STATIC part       192 MB
 Discretize the solute cavity surface with Lebedev spheres
	Using 110 Lebedev grid points for each H atom
	Using 194 Lebedev grid points for other atoms
	Atomic van der Waals radii will be scaled by 1.20
 Remove points where switching function is < 1.0e-08
 Keep 4320 surface tesserae and discard 6152 interior tesserae
 Molecular Surface Area = 550.789 Angst**2
 A cutoff of  1.0D-14 yielded  42504 shell pairs
 There are    277262 function pairs (    293443 Cartesian)
 Smallest overlap matrix eigenvalue = 6.78E-08
 Linear dependence detected in AO basis
 Tighter screening thresholds may be required for diffuse basis sets
 Use S2THRESH > 14 and THRESH = 14 in case of SCF convergence issues
 Number of orthogonalized atomic orbitals = 976
 Maximum deviation from orthogonality = 1.548E-10

 Scale SEOQF with 1.000000e-02/1.000000e-02/1.000000e-02

 Standard Electronic Orientation quadrupole field applied
 Nucleus-field energy     =     0.0000000037 hartrees
 Constructing guess Fock matrix from core Hamiltonian
 Applying Wolfsberg-Helmholtz approximation
 A restricted hybrid HF-DFT SCF calculation will be
 performed using Relaxed Constraint Minimization + Pulay DIIS
 Polarizable Continuum solvation model will be applied
 Exchange:     0.2000 Hartree-Fock + 0.0800 Slater + 0.7200 B88
 Correlation:  0.1900 VWN1RPA + 0.8100 LYP
 Using SG-1 standard quadrature grid
 SCF converges when DIIS error is below 1.0E-08
 using 8 threads for integral computing
 -------------------------------------------------------
 OpenMP Integral computing Module                
 Release: version 1.0, May 2013, Q-Chem Inc. Pittsburgh 
 -------------------------------------------------------
 ---------------------------------------
  Cycle       Energy         DIIS Error
 ---------------------------------------
    1    -911.2600032961      4.82E-02
Recomputing EXC -798.938690 -1961.686635 -911.260003 
Recomputing EXC 294.201236 -1052.547921 -911.260003 
Recomputing EXC 1446.550153 -911.260003 -911.260003 
    2    1446.5501532679      6.90E-02
    3   -1295.4071794415      2.79E-02
Recomputing EXC -1303.959439 -1462.023130 -1295.407179 
Recomputing EXC -1171.339434 -1314.153902 -1295.407179 
Recomputing EXC -958.673964 -1295.407179 -1295.407179 
    4    -958.6739640241      2.78E-02
    5   -1200.0415163040      2.18E-02
Recomputing EXC -1001.242987 -1269.171904 -1200.041516 
Recomputing EXC -830.561485 -1200.041516 -1200.041516 
Recomputing EXC -830.561485 -1200.041516 -1200.041516 
    6    -830.5614847808      2.17E-02
    7    -949.0085786346      1.43E-02
Recomputing EXC -643.983624 -1071.839703 -949.008579 
Recomputing EXC -254.863574 -949.008579 -949.008579 
Recomputing EXC -254.863574 -949.008579 -949.008579 
    8    -254.8635739153      1.58E-02
    9    -987.5657454674      1.65E-02
   10   -1432.9170973794      1.03E-02
   11   -1725.4025086620      8.82E-03
Recomputing EXC -1706.916597 -1797.819577 -1725.402509 
Recomputing EXC -1543.694730 -1725.402509 -1725.402509 
Recomputing EXC -1543.694730 -1725.402509 -1725.402509 
   12   -1543.6947296647      1.43E-02
   13   -1600.6446543265      1.30E-02
Recomputing EXC -1420.452282 -1813.967556 -1600.644654 
Recomputing EXC -1132.235204 -1601.195035 -1600.644654 
Recomputing EXC -1132.235204 -1601.195035 -1600.644654 
   14   -1132.2352043446      1.81E-02
   15   -1501.4214355203      1.32E-02
   16   -1524.3816623731      9.89E-03
Recomputing EXC -1350.959486 -1565.969177 -1524.381662 
Recomputing EXC -1228.194491 -1524.746201 -1524.381662 
Recomputing EXC -1228.194491 -1524.746201 -1524.381662 
   17   -1228.1944913459      1.11E-02
   18   -1342.9216175445      1.24E-02
Recomputing EXC -1309.384718 -1774.646983 -1342.921618 
Recomputing EXC -969.488621 -1351.160980 -1342.921618 
Recomputing EXC -789.165367 -1348.461184 -1342.921618 
   19    -789.1653666789      1.78E-02
   20   -1431.3894601605      1.32E-02
Recomputing EXC -1393.997854 -1633.957423 -1431.389460 
Recomputing EXC -1090.556405 -1436.405989 -1431.389460 
Recomputing EXC -964.055122 -1431.389460 -1431.389460 
   21    -964.0551216964      1.72E-02
   22   -1293.6145798483      1.52E-02
Recomputing EXC -1092.691226 -1605.522133 -1293.614580 
Recomputing EXC -686.591674 -1293.614580 -1293.614580 
Recomputing EXC -686.591674 -1293.614580 -1293.614580 
   23    -686.5916744747      1.93E-02
   24   -1160.3748989231      1.44E-02
Recomputing EXC -1005.453102 -1423.356161 -1160.374899 
Recomputing EXC -493.600284 -1160.374899 -1160.374899 
Recomputing EXC -493.600284 -1160.374899 -1160.374899 
   25    -493.6002835106      1.75E-02
   26    -953.9447044870      1.07E-02
Recomputing EXC -896.475615 -1064.102786 -953.944704 
Recomputing EXC -652.228469 -953.944704 -953.944704 
Recomputing EXC -652.228469 -953.944704 -953.944704 
   27    -652.2284688410      1.05E-02
   28    -703.8101911848      9.84E-03
   29   -1195.2199210149      1.00E-02
Recomputing EXC -1207.117901 -1772.651220 -1195.219921 
Recomputing EXC -1029.816918 -1236.467667 -1195.219921 
Recomputing EXC -901.816287 -1225.549001 -1195.219921 
   30    -901.8162869301      1.21E-02
   31   -1667.2857797259      1.02E-02
Recomputing EXC -1578.729184 -1775.397290 -1667.285780 
Recomputing EXC -1329.370495 -1667.285780 -1667.285780 
Recomputing EXC -1329.370495 -1667.285780 -1667.285780 
   32   -1329.3704947243      1.33E-02
   33   -1443.6857641588      1.19E-02
Recomputing EXC -1269.531817 -1550.230679 -1443.685764 
Recomputing EXC -1173.526683 -1443.685764 -1443.685764 
Recomputing EXC -1173.526683 -1443.685764 -1443.685764 
   34   -1173.5266827378      1.40E-02
   35   -1378.5751324484      1.05E-02
Recomputing EXC -1373.036422 -1435.803911 -1378.575132 
Recomputing EXC -1292.929137 -1379.880504 -1378.575132 
Recomputing EXC -1247.928891 -1378.575132 -1378.575132 
   36   -1247.9288909643      1.19E-02
   37   -1323.8669687365      9.94E-03
   38   -1393.4654780050      1.15E-02
Recomputing EXC -1359.874284 -1813.853064 -1393.465478 
Recomputing EXC -1014.804994 -1402.989699 -1393.465478 
Recomputing EXC -1014.804994 -1402.989699 -1393.465478 
   39   -1014.8049940473      1.72E-02
   40   -1591.2319957208      1.23E-02
Recomputing EXC -1521.716127 -1743.582694 -1591.231996 
Recomputing EXC -1191.820392 -1591.231996 -1591.231996 
Recomputing EXC -1191.820392 -1591.231996 -1591.231996 
   41   -1191.8203916094      1.53E-02
   42   -1377.4082382868      1.45E-02
Recomputing EXC -1183.259959 -1744.622887 -1377.408238 
Recomputing EXC -819.904508 -1377.420349 -1377.408238 
Recomputing EXC -819.904508 -1377.420349 -1377.408238 
   43    -819.9045083651      1.95E-02
   44   -1282.8911494985      1.49E-02
Recomputing EXC -1213.961438 -1563.207174 -1282.891149 
Recomputing EXC -763.346185 -1285.086659 -1282.891149 
Recomputing EXC -679.625624 -1282.891149 -1282.891149 
   45    -679.6256237211      1.91E-02
   46   -1102.3957127749      1.47E-02
Recomputing EXC -920.752948 -1297.663576 -1102.395713 
Recomputing EXC -544.647401 -1102.395713 -1102.395713 
Recomputing EXC -544.647401 -1102.395713 -1102.395713 
   47    -544.6474008692      1.61E-02
   48    -889.6387350241      9.15E-03
Recomputing EXC -665.937867 -1003.670065 -889.638735 
Recomputing EXC -314.882711 -889.638735 -889.638735 
Recomputing EXC -314.882711 -889.638735 -889.638735 
   49    -314.8827106486      9.14E-03
   50   -1090.2605160242      1.40E-02 Done RCA. Switching to DIIS
   51    -819.7405076811      3.09E-02
   52   -1181.8737398227      2.09E-02
   53   -1125.8661563023      1.64E-02
   54   -1143.7372997315      1.54E-02
   55   -1200.3273630350      1.81E-02
   56   -1227.3134300349      1.89E-02
   57   -1225.8368967151      1.75E-02
   58   -1134.0643769806      1.72E-02
   59   -1148.3532130373      1.60E-02
   60   -1114.3704219113      2.99E-02
   61   -1116.8059969531      2.77E-02
   62   -1043.6009164208      2.63E-02
   63    -974.1744934172      4.23E-02
   64    -683.5798402589      5.65E-02
   65    -863.0691953068      4.10E-02
   66   -1160.8946792872      3.06E-02
   67   -1148.3252190617      2.95E-02
   68   -1167.9430345083      2.89E-02
   69   -1212.3318747430      2.62E-02
   70   -1308.5074398196      2.17E-02
   71   -1307.3244708410      2.15E-02
   72   -1337.0775281038      1.79E-02
   73   -1331.6708525549      1.82E-02
   74   -1357.6821946539      1.62E-02
   75   -1380.3645230081      1.30E-02
   76   -1378.1766032736      1.10E-02
   77   -1406.4129134337      4.01E-03
   78   -1406.5706192963      3.97E-03
   79   -1408.2658070511      1.27E-03
   80   -1408.4161220441      5.27E-04
   81   -1408.4419560825      2.29E-04
   82   -1408.4476272252      6.35E-05
   83   -1408.4479805633      3.70E-05
   84   -1408.4481330383      1.46E-05
   85   -1408.4481565831      6.90E-06
   86   -1408.4481609751      2.87E-06
   87   -1408.4481619216      6.79E-07
   88   -1408.4481616596      3.10E-07
   89   -1408.4481621975      9.76E-08
   90   -1408.4481620109      3.46E-08
   91   -1408.4481618845      1.43E-08
   92   -1408.4481620498      4.33E-09 Convergence criterion met
 ---------------------------------------

************** Final PCM Free Energy Summary **************
 G_electrostatic  =      -0.27882201 hartree =    -174.96345418 kcal/mol
 G_cavitation     =       0.00000000 hartree =       0.00000000 kcal/mol
 G_dispersion     =       0.00000000 hartree =       0.00000000 kcal/mol
 G_repulsion      =       0.00000000 hartree =       0.00000000 kcal/mol
 --------------------------------------------------
 Non-electrostatic Free Energy =       0.00000000 hartree =       0.00000000 kcal/mol
 Total                         =      -0.27882201 hartree =    -174.96345418 kcal/mol
 --------------------------------------------------
 SCF Energy (H0 + V/2)                       =   -1408.44816205 
 Solute Internal Energy (H0)                 =   -1408.16934004 
 Total Free Energy (H0 + V/2 + non-elec)     =   -1408.44816205 hartree
                                             = -883814.56109882 kcal/mol
***********************************************************

 SCF time:  CPU 44733.00 s  wall 7375.00 s
 SCF   energy in the final basis set = -1408.44816205
 Total energy in the final basis set = -1408.44816205
 
 --------------------------------------------------------------
 
                    Orbital Energies (a.u.)
 --------------------------------------------------------------
 
 Alpha MOs
 -- Occupied --
-19.1113 -19.0282 -19.0184 -14.2727 -10.1871 -10.1789 -10.1766 -10.1692
-10.1675 -10.1667 -10.1661 -10.1644 -10.1627 -10.1621 -10.1605 -10.1570
-10.1542 -10.1540 -10.1537 -10.1534 -10.1531 -10.1526 -10.1521 -10.1516
-10.1509 -10.1486 -10.1477 -10.1446 -10.1445 -10.1435 -10.1370 -10.1330
-10.1297  -1.0283  -0.9446  -0.9359  -0.8847  -0.8463  -0.8255  -0.8063
 -0.7942  -0.7784  -0.7682  -0.7513  -0.7420  -0.7384  -0.7221  -0.7163
 -0.7058  -0.6779  -0.6527  -0.6332  -0.6239  -0.6006  -0.5975  -0.5885
 -0.5773  -0.5715  -0.5708  -0.5654  -0.5634  -0.5538  -0.5355  -0.5059
 -0.5009  -0.4824  -0.4787  -0.4693  -0.4577  -0.4555  -0.4501  -0.4432
 -0.4402  -0.4321  -0.4272  -0.4260  -0.4222  -0.4192  -0.4136  -0.4112
 -0.4084  -0.4012  -0.3983  -0.3949  -0.3872  -0.3831  -0.3782  -0.3730
 -0.3681  -0.3664  -0.3604  -0.3576  -0.3548  -0.3536  -0.3482  -0.3434
 -0.3393  -0.3357  -0.3323  -0.3284  -0.3247  -0.3208  -0.3193  -0.3180
 -0.3171  -0.3150  -0.3140  -0.3130  -0.3125  -0.3112  -0.3034  -0.2999
 -0.2885  -0.2499  -0.2409  -0.2311  -0.2270  -0.2232  -0.2167  -0.1947
 -0.1881  -0.1093
 -- Virtual --
 -0.0105  -0.0069  -0.0052  -0.0010   0.0010   0.0061   0.0076   0.0104
  0.0149   0.0155   0.0163   0.0188   0.0197   0.0228   0.0252   0.0289
  0.0324   0.0344   0.0367   0.0394   0.0411   0.0462   0.0489   0.0514
  0.0533   0.0564   0.0573   0.0602   0.0611   0.0631   0.0667   0.0676
  0.0717   0.0729   0.0767   0.0786   0.0794   0.0834   0.0855   0.0875
  0.0909   0.0916   0.0931   0.0972   0.1001   0.1041   0.1065   0.1085
  0.1101   0.1123   0.1146   0.1150   0.1164   0.1184   0.1206   0.1216
  0.1232   0.1262   0.1271   0.1283   0.1294   0.1300   0.1314   0.1322
  0.1340   0.1350   0.1360   0.1371   0.1379   0.1383   0.1407   0.1422
  0.1438   0.1450   0.1464   0.1472   0.1482   0.1507   0.1518   0.1530
  0.1548   0.1562   0.1581   0.1587   0.1603   0.1613   0.1629   0.1654
  0.1671   0.1689   0.1698   0.1707   0.1719   0.1749   0.1771   0.1777
  0.1782   0.1802   0.1830   0.1837   0.1844   0.1866   0.1875   0.1896
  0.1923   0.1937   0.1949   0.1968   0.1992   0.1996   0.2017   0.2036
  0.2060   0.2070   0.2085   0.2121   0.2139   0.2154   0.2165   0.2176
  0.2193   0.2226   0.2244   0.2257   0.2280   0.2297   0.2304   0.2324
  0.2349   0.2371   0.2390   0.2396   0.2434   0.2456   0.2475   0.2487
  0.2506   0.2523   0.2549   0.2568   0.2592   0.2610   0.2612   0.2648
  0.2661   0.2690   0.2696   0.2708   0.2733   0.2742   0.2746   0.2787
  0.2791   0.2812   0.2828   0.2882   0.2893   0.2906   0.2937   0.2945
  0.2963   0.3006   0.3013   0.3028   0.3056   0.3070   0.3103   0.3114
  0.3147   0.3161   0.3179   0.3201   0.3226   0.3245   0.3256   0.3261
  0.3270   0.3286   0.3330   0.3333   0.3349   0.3368   0.3378   0.3400
  0.3409   0.3430   0.3436   0.3473   0.3480   0.3506   0.3528   0.3545
  0.3584   0.3601   0.3634   0.3663   0.3683   0.3692   0.3726   0.3733
  0.3771   0.3819   0.3836   0.3860   0.3885   0.3929   0.3951   0.3967
  0.3974   0.3994   0.4034   0.4047   0.4095   0.4124   0.4143   0.4164
  0.4226   0.4258   0.4293   0.4336   0.4368   0.4371   0.4398   0.4512
  0.4514   0.4532   0.4549   0.4558   0.4617   0.4669   0.4687   0.4718
  0.4750   0.4858   0.4891   0.4898   0.4990   0.5040   0.5078   0.5099
  0.5152   0.5236   0.5329   0.5367   0.5452   0.5523   0.5546   0.5567
  0.5611   0.5664   0.5700   0.5720   0.5737   0.5764   0.5777   0.5835
  0.5917   0.5958   0.6000   0.6017   0.6051   0.6079   0.6192   0.6223
  0.6232   0.6296   0.6311   0.6377   0.6395   0.6420   0.6488   0.6531
  0.6576   0.6585   0.6611   0.6613   0.6657   0.6687   0.6708   0.6730
  0.6758   0.6793   0.6827   0.6839   0.6853   0.6885   0.6929   0.6980
  0.6991   0.6998   0.7013   0.7046   0.7064   0.7113   0.7124   0.7159
  0.7198   0.7238   0.7258   0.7303   0.7318   0.7338   0.7354   0.7379
  0.7425   0.7459   0.7489   0.7514   0.7532   0.7554   0.7567   0.7589
  0.7633   0.7635   0.7654   0.7685   0.7735   0.7764   0.7780   0.7823
  0.7838   0.7866   0.7890   0.7901   0.7916   0.7953   0.7965   0.7995
  0.8038   0.8078   0.8090   0.8137   0.8204   0.8230   0.8281   0.8294
  0.8308   0.8371   0.8394   0.8478   0.8537   0.8584   0.8619   0.8683
  0.8707   0.8731   0.8773   0.8831   0.8895   0.8931   0.8982   0.9118
  0.9141   0.9254   0.9287   0.9300   0.9366   0.9464   0.9535   0.9583
  0.9616   0.9703   0.9795   0.9814   0.9830   0.9874   0.9968   1.0070
  1.0108   1.0141   1.0183   1.0214   1.0265   1.0312   1.0374   1.0395
  1.0457   1.0516   1.0577   1.0607   1.0619   1.0651   1.0681   1.0721
  1.0766   1.0797   1.0827   1.0889   1.0927   1.1033   1.1062   1.1189
  1.1211   1.1243   1.1269   1.1368   1.1436   1.1514   1.1583   1.1605
  1.1732   1.1761   1.1849   1.1907   1.1967   1.2157   1.2178   1.2220
  1.2284   1.2456   1.2494   1.2567   1.2581   1.2605   1.2691   1.2753
  1.2776   1.2836   1.2845   1.2900   1.2919   1.2934   1.2957   1.2972
  1.3054   1.3167   1.3254   1.3362   1.3385   1.3490   1.3508   1.3576
  1.3788   1.3860   1.3946   1.4039   1.4090   1.4328   1.4544   1.4632
  1.4708   1.4716   1.4785   1.4828   1.4964   1.5070   1.5109   1.5161
  1.5234   1.5303   1.5369   1.5411   1.5469   1.5515   1.5563   1.5598
  1.5659   1.5701   1.5724   1.5758   1.5781   1.5809   1.5847   1.5884
  1.5903   1.5922   1.5941   1.6017   1.6052   1.6085   1.6107   1.6200
  1.6224   1.6287   1.6365   1.6384   1.6467   1.6551   1.6587   1.6589
  1.6642   1.6694   1.6738   1.6779   1.6833   1.6855   1.6866   1.6873
  1.6895   1.6963   1.6977   1.7023   1.7068   1.7100   1.7137   1.7238
  1.7245   1.7298   1.7376   1.7426   1.7460   1.7470   1.7510   1.7565
  1.7570   1.7578   1.7594   1.7627   1.7653   1.7691   1.7760   1.7775
  1.7847   1.7878   1.7954   1.8011   1.8044   1.8152   1.8173   1.8336
  1.8420   1.8451   1.8496   1.8534   1.8578   1.8642   1.8683   1.8695
  1.8730   1.8839   1.8848   1.8915   1.8972   1.9060   1.9102   1.9143
  1.9222   1.9276   1.9358   1.9367   1.9438   1.9522   1.9544   1.9590
  1.9628   1.9730   1.9758   1.9805   1.9864   1.9871   1.9916   1.9971
  1.9987   2.0115   2.0177   2.0213   2.0247   2.0326   2.0395   2.0436
  2.0529   2.0592   2.0658   2.0734   2.0841   2.0947   2.1001   2.1063
  2.1090   2.1117   2.1262   2.1393   2.1553   2.1567   2.1579   2.1715
  2.1843   2.1992   2.2015   2.2093   2.2168   2.2262   2.2292   2.2364
  2.2394   2.2494   2.2537   2.2620   2.2627   2.2695   2.2736   2.2900
  2.2965   2.3037   2.3098   2.3189   2.3301   2.3355   2.3413   2.3488
  2.3514   2.3572   2.3647   2.3703   2.3759   2.3866   2.3994   2.4051
  2.4065   2.4071   2.4169   2.4245   2.4318   2.4395   2.4483   2.4519
  2.4577   2.4627   2.4671   2.4803   2.4931   2.4959   2.5050   2.5067
  2.5153   2.5174   2.5227   2.5348   2.5458   2.5500   2.5585   2.5626
  2.5678   2.5703   2.5771   2.5882   2.5925   2.5937   2.5969   2.6162
  2.6206   2.6312   2.6401   2.6461   2.6518   2.6562   2.6591   2.6629
  2.6758   2.6766   2.6878   2.6912   2.6989   2.7008   2.7046   2.7142
  2.7212   2.7298   2.7355   2.7377   2.7414   2.7468   2.7498   2.7527
  2.7545   2.7602   2.7620   2.7688   2.7784   2.7795   2.7818   2.7928
  2.7951   2.7995   2.8066   2.8080   2.8162   2.8191   2.8229   2.8272
  2.8277   2.8328   2.8400   2.8452   2.8510   2.8523   2.8553   2.8641
  2.8696   2.8750   2.8794   2.8971   2.9017   2.9077   2.9177   2.9184
  2.9204   2.9269   2.9333   2.9506   2.9581   2.9603   2.9624   2.9689
  2.9729   2.9791   2.9827   2.9862   2.9904   2.9916   2.9965   2.9988
  3.0195   3.0220   3.0398   3.0405   3.0455   3.0575   3.0865   3.0926
  3.1089   3.1106   3.1179   3.1242   3.1400   3.1543   3.1679   3.1747
  3.1978   3.2082   3.2113   3.2183   3.2269   3.2385   3.2450   3.2573
  3.2812   3.2950   3.3164   3.3303   3.3430   3.3506   3.3676   3.3795
  3.3899   3.4031   3.4165   3.4326   3.4625   3.4656   3.4997   3.5011
  3.5159   3.5293   3.5363   3.5527   3.5604   3.5865   3.5952   3.6057
  3.6229   3.6438   3.6663   3.6826   3.7150   3.7617   3.7752   3.7806
  3.7940   3.8065   3.8133   3.8213   3.8352   3.8502   3.8518   3.8573
  3.8661   3.8713   3.8855   3.9069   3.9254   3.9338   3.9833   4.0219
  4.0535   4.0610   4.0698   4.0704   4.0873   4.1065   4.1133   4.1475
  4.1676   4.1763   4.1953   4.2175   4.2384   4.2519   4.2744   4.3027
  4.3466   4.3611   4.3818   4.3968   4.4140   4.4327   4.4858   4.8065
  4.8646   4.8684   4.8785   4.9645   5.0860   5.1658   5.2054   5.3455
  5.4180   5.6012   5.7298   5.8395   5.9067  23.6073  23.6836  23.8392
 23.8815  23.8912  23.8955  23.9017  23.9036  23.9051  23.9137  23.9215
 23.9265  23.9359  23.9384  23.9533  23.9705  23.9819  23.9867  23.9975
 23.9988  24.0185  24.0271  24.0574  24.1019  24.1154  24.1283  24.1423
 24.2089  24.2111  35.6531  49.9977  50.1027  50.1502
 --------------------------------------------------------------
 
          Ground-State Mulliken Net Atomic Charges

     Atom                 Charge (a.u.)
  ----------------------------------------
      1 C                    -0.151495
      2 C                    -0.476431
      3 C                    -0.616728
      4 C                     0.049862
      5 C                     0.486517
      6 C                    -0.073646
      7 C                    -0.766227
      8 C                    -0.445528
      9 C                     0.907591
     10 C                    -0.556843
     11 O                    -0.745336
     12 O                    -0.628282
     13 O                    -0.312191
     14 H                     0.160336
     15 H                     0.167538
     16 H                     0.168085
     17 H                     0.157835
     18 H                     0.297955
     19 C                     0.079948
     20 C                    -0.202288
     21 C                     0.138787
     22 C                    -0.320666
     23 C                    -0.449243
     24 C                    -0.301365
     25 H                     0.167853
     26 H                     0.182995
     27 H                     0.214199
     28 H                     0.215602
     29 H                     0.183889
     30 C                     0.292059
     31 H                     0.216821
     32 N                     0.009407
     33 C                    -0.713122
     34 C                    -0.239488
     35 C                    -0.056477
     36 C                    -0.229542
     37 C                    -0.446136
     38 C                    -0.361447
     39 C                    -0.227457
     40 C                    -0.065852
     41 C                    -0.123666
     42 C                    -0.287442
     43 C                    -0.236213
     44 C                    -0.709067
     45 H                     0.271837
     46 H                     0.191954
     47 H                     0.085963
     48 H                     0.145697
     49 H                     0.144497
     50 H                     0.122299
     51 H                     0.132117
     52 H                     0.118556
     53 H                     0.133167
     54 H                     0.137616
     55 H                     0.134692
     56 H                     0.134710
     57 H                     0.137119
     58 H                     0.133744
     59 H                     0.132136
     60 H                     0.131503
     61 H                     0.132840
     62 H                     0.130509
     63 H                     0.129824
     64 H                     0.126688
     65 H                     0.128212
     66 H                     0.135476
     67 H                     0.135211
     68 H                     0.144708
     69 H                     0.148995
     70 H                     0.144826
  ----------------------------------------
  Sum of atomic charges =    -2.000000

 -----------------------------------------------------------------
                    Cartesian Multipole Moments
 -----------------------------------------------------------------
    Charge (ESU x 10^10)
                -9.6064
    Dipole Moment (Debye)
         X      -0.1903      Y     -36.5668      Z     -28.1422
       Tot      46.1427
    Quadrupole Moments (Debye-Ang)
        XX    -238.4974     XY     -11.1466     YY    -373.1497
        XZ      -4.8743     YZ    -133.2202     ZZ    -337.3423
    Octopole Moments (Debye-Ang^2)
       XXX      19.7332    XXY    -140.5575    XYY     -64.1014
       YYY    -794.4975    XXZ    -101.8258    XYZ     -45.2645
       YYZ    -654.8795    XZZ      -5.6161    YZZ    -601.9054
       ZZZ    -614.6497
    Hexadecapole Moments (Debye-Ang^3)
      XXXX   -7826.5408   XXXY   -3008.0370   XXYY   -6300.9550
      XYYY   -3471.9682   YYYY  -30954.7520   XXXZ   -1947.2562
      XXYZ   -3943.4334   XYYZ   -1127.2518   YYYZ  -14129.7666
      XXZZ   -4783.4724   XYZZ   -1468.0472   YYZZ  -10869.2932
      XZZZ   -2265.4615   YZZZ  -13632.4782   ZZZZ  -22010.4791
 -----------------------------------------------------------------
 Total job time:  7383.83s(wall), 44748.67s(cpu) 
 Thu Jun 13 14:19:46 2024

        *************************************************************
        *                                                           *
        *  Thank you very much for using Q-Chem.  Have a nice day.  *
        *                                                           *
        *************************************************************


