
Running Job 1 of 1 323-an-CPCM.in
qchem 323-an-CPCM.in_1921322.0 /expanse/lustre/scratch/selhajj/temp_project/qcscratch/31258539/qchem1921322/ 0
/cm/shared/apps/spack/cpu/opt/spack/linux-centos8-zen2/gcc-10.2.0/qchem-5.4-akfmr7b3t57bfs6qan3padb2wnb2i7cl/exe/qcprog.exe_s 323-an-CPCM.in_1921322.0 /expanse/lustre/scratch/selhajj/temp_project/qcscratch/31258539/qchem1921322/
                  Welcome to Q-Chem
     A Quantum Leap Into The Future Of Chemistry


 Q-Chem 5.4, Q-Chem, Inc., Pleasanton, CA (2021)

 License issued to: University of California, San Diego (site)

 E. Epifanovsky,  A. T. B. Gilbert,  Xintian Feng,  Joonho Lee,  Yuezhi Mao,  
 N. Mardirossian,  P. Pokhilko,  A. White,  M. Wormit,  M. P. Coons,  
 A. L. Dempwolff,  Zhengting Gan,  D. Hait,  P. R. Horn,  L. D. Jacobson,  
 I. Kaliman,  J. Kussmann,  A. W. Lange,  Ka Un Lao,  D. S. Levine,  Jie Liu,  
 S. C. McKenzie,  A. F. Morrison,  K. Nanda,  F. Plasser,  D. R. Rehn,  
 M. L. Vidal,  Zhi-Qiang You,  Ying Zhu,  B. Alam,  B. Albrecht,  
 A. Aldossary,  E. Alguire,  J. H. Andersen,  D. Barton,  K. Begam,  A. Behn,  
 Y. A. Bernard,  E. J. Berquist,  H. Burton,  A. Carreras,  K. Carter-Fenk,  
 R. Chakraborty,  A. D. Chien,  K. D. Closser,  V. Cofer-Shabica,  
 S. Dasgupta,  Jia Deng,  M. de Wergifosse,  M. Diedenhofen,  Hainam Do,  
 S. Ehlert,  Po-Tung Fang,  S. Fatehi,  Qingguo Feng,  J. Gayvert,  
 Qinghui Ge,  G. Gidofalvi,  M. Goldey,  J. Gomes,  C. Gonzalez-Espinoza,  
 S. Gulania,  A. Gunina,  M. W. D. Hanson-Heine,  P. H. P. Harbach,  
 A. W. Hauser,  M. F. Herbst,  M. Hernandez Vera,  M. Hodecker,  
 Z. C. Holden,  S. Houck,  Xunkun Huang,  Kerwin Hui,  B. C. Huynh,  
 M. Ivanov,  Hyunjun Ji,  Hanjie Jiang,  B. Kaduk,  S. Kaehler,  
 K. Khistyaev,  Jaehoon Kim,  P. Klunzinger,  Z. Koczor-Benda,  
 Joong Hoon Koh,  D. Kosenkov,  L. Koulias,  T. Kowalczyk,  C. M. Krauter,  
 K. Kue,  A. Kunitsa,  T. Kus,  A. Landau,  K. V. Lawler,  D. Lefrancois,  
 S. Lehtola,  Rain Li,  Yi-Pei Li,  Jiashu Liang,  M. Liebenthal,  
 Hung-Hsuan Lin,  You-Sheng Lin,  Fenglai Liu,  Kuan-Yu Liu,  
 M. Loipersberger,  A. Luenser,  A. Manjanath,  P. Manohar,  E. Mansoor,  
 S. F. Manzer,  Shan-Ping Mao,  A. V. Marenich,  T. Markovich,  S. Mason,  
 S. A. Maurer,  P. F. McLaughlin,  M. F. S. J. Menger,  J.-M. Mewes,  
 S. A. Mewes,  P. Morgante,  J. W. Mullinax,  T. S. Nguyen-Beck,  
 K. J. Oosterbaan,  G. Paran,  Alexander C. Paul,  Suranjan K. Paul,  
 F. Pavosevic,  Zheng Pei,  S. Prager,  E. I. Proynov,  E. Ramos,  B. Rana,  
 A. E. Rask,  A. Rettig,  R. M. Richard,  F. Rob,  E. Rossomme,  T. Scheele,  
 M. Scheurer,  M. Schneider,  N. Sergueev,  S. M. Sharada,  W. Skomorowski,  
 D. W. Small,  C. J. Stein,  Yu-Chuan Su,  E. J. Sundstrom,  Zhen Tao,  
 J. Thirman,  T. Tsuchimochi,  N. M. Tubman,  S. P. Veccham,  O. Vydrov,  
 J. Wenzel,  J. Witte,  A. Yamada,  Kun Yao,  S. Yeganeh,  S. R. Yost,  
 A. Zech,  Igor Ying Zhang,  Xing Zhang,  Yu Zhang,  D. Zuev,  
 A. Aspuru-Guzik,  A. T. Bell,  N. A. Besley,  K. B. Bravaya,  B. R. Brooks,  
 D. Casanova,  Jeng-Da Chai,  S. Coriani,  C. J. Cramer,  
 A. E. DePrince, III,  R. A. DiStasio Jr.,  A. Dreuw,  B. D. Dunietz,  
 T. R. Furlani,  W. A. Goddard III,  S. Grimme,  S. Hammes-Schiffer,  
 T. Head-Gordon,  W. J. Hehre,  Chao-Ping Hsu,  T.-C. Jagau,  Yousung Jung,  
 A. Klamt,  Jing Kong,  D. S. Lambrecht,  WanZhen Liang,  N. J. Mayhall,  
 C. W. McCurdy,  J. B. Neaton,  C. Ochsenfeld,  J. A. Parkhill,  R. Peverati,  
 V. A. Rassolov,  Yihan Shao,  L. V. Slipchenko,  T. Stauch,  R. P. Steele,  
 J. E. Subotnik,  A. J. W. Thom,  A. Tkatchenko,  D. G. Truhlar,  
 T. Van Voorhis,  T. A. Wesolowski,  K. B. Whaley,  H. L. Woodcock III,  
 P. M. Zimmerman,  S. Faraji,  P. M. W. Gill,  M. Head-Gordon,  
 J. M. Herbert,  A. I. Krylov

 Contributors to earlier versions of Q-Chem not listed above: 
 R. D. Adamson,  B. Austin,  R. Baer,  J. Baker,  G. J. O. Beran,  
 K. Brandhorst,  S. T. Brown,  E. F. C. Byrd,  A. K. Chakraborty,  
 G. K. L. Chan,  Chun-Min Chang,  Yunqing Chen,  C.-L. Cheng,  
 Siu Hung Chien,  D. M. Chipman,  D. L. Crittenden,  H. Dachsel,  
 R. J. Doerksen,  A. D. Dutoi,  R. G. Edgar,  J. Fosso-Tande,  
 L. Fusti-Molnar,  D. Ghosh,  A. Ghysels,  A. Golubeva-Zadorozhnaya,  
 J. Gonthier,  M. S. Gordon,  S. R. Gwaltney,  G. Hawkins,  J. E. Herr,  
 A. Heyden,  S. Hirata,  E. G. Hohenstein,  G. Kedziora,  F. J. Keil,  
 C. Kelley,  Jihan Kim,  R. A. King,  R. Z. Khaliullin,  P. P. Korambath,  
 W. Kurlancheek,  A. Laurent,  A. M. Lee,  M. S. Lee,  S. V. Levchenko,  
 Ching Yeh Lin,  D. Liotard,  E. Livshits,  R. C. Lochan,  I. Lotan,  
 L. A. Martinez-Martinez,  P. E. Maslen,  N. Nair,  D. P. O'Neill,  
 D. Neuhauser,  E. Neuscamman,  C. M. Oana,  R. Olivares-Amaya,  R. Olson,  
 T. M. Perrine,  B. Peters,  P. A. Pieniazek,  A. Prociuk,  Y. M. Rhee,  
 J. Ritchie,  M. A. Rohrdanz,  E. Rosta,  N. J. Russ,  H. F. Schaefer III,  
 M. W. Schmidt,  N. E. Schultz,  S. Sharma,  N. Shenvi,  C. D. Sherrill,  
 A. C. Simmonett,  A. Sodt,  T. Stein,  D. Stuck,  K. S. Thanthiriwatte,  
 V. Vanovschi,  L. Vogt,  Tao Wang,  A. Warshel,  M. A. Watson,  
 C. F. Williams,  Q. Wu,  X. Xu,  Jun Yang,  W. Zhang,  Yan Zhao

 Please cite Q-Chem as follows:
 Y. Shao et al., Mol. Phys. 113, 184-215 (2015)
 DOI: 10.1080/00268976.2014.952696

 Q-Chem 5.4.0 for Intel X86 EM64T Linux

 Parts of Q-Chem use Armadillo 9.800.1 (Horizon Scraper).
 http://arma.sourceforge.net/

 Q-Chem begins on Wed Jun 12 03:15:37 2024  

 Host: 
0

     Scratch files written to /expanse/lustre/scratch/selhajj/temp_project/qcscratch/31258539/qchem1921322//
 May1621 |scratch|qcdevops|jenkins|workspace|build_RNUM    
 Processing $rem in /cm/shared/apps/spack/cpu/opt/spack/linux-centos8-zen2/gcc-10.2.0/qchem-5.4-akfmr7b3t57bfs6qan3padb2wnb2i7cl/config/preferences:
 Processing $rem in /home/selhajj/.qchemrc:
 Symmetry turned off for PCM/SM12/SMD calculation

 Checking the input file for inconsistencies... 	...done.

--------------------------------------------------------------
User input:
--------------------------------------------------------------
$molecule
-2 1
C                 -1.6459860000      2.8552810000     -0.7337480000
C                 -2.8654560000      2.2053460000     -0.7183890000
C                 -2.9061990000      0.8007410000     -0.5040240000
C                 -0.4171340000      2.1819040000     -0.5228040000
C                 -0.4677890000      0.7560740000     -0.2477830000
C                 -1.7304370000      0.1096610000     -0.2756920000
C                  0.8257990000      2.9440520000     -0.5997960000
C                  2.0910800000      2.1805060000     -0.3870950000
C                  1.9547060000      0.7795750000     -0.0920660000
C                  0.7564590000      0.0734050000     -0.0083800000
O                  0.8280490000      4.1875300000     -0.8375700000
O                  3.2319460000      2.7355710000     -0.4483840000
H                 -1.5810350000      3.9235500000     -0.9174750000
H                 -3.7871260000      2.7600530000     -0.8859510000
H                 -3.8558440000      0.2689770000     -0.5184390000
H                 -1.7551040000     -0.9657900000     -0.1281770000
H                  2.8967680000      0.2685750000      0.0914340000
N                  0.7133290000     -1.3447420000      0.2836810000
C                  1.8513280000     -2.1245080000     -0.1642160000
C                  0.3903580000     -1.6541410000      1.6770340000
H                  2.0826790000     -1.8758740000     -1.2020360000
H                  1.6123590000     -3.1916560000     -0.1002800000
H                  2.7703110000     -1.9612880000      0.4360010000
H                 -0.4689010000     -1.0640320000      1.9956300000
H                  1.2336110000     -1.4320850000      2.3646300000
H                  0.1425080000     -2.7208730000      1.7859360000
$end
$rem
MAX_SCF_CYCLES=200
BASIS  =  6-311++G(d,p)
GUI  =  2
JOB_TYPE  =  SP
METHOD  =  B3LYP
SOLVENT_METHOD = PCM
$end
$pcm
theory = CPCM
$end
$solvent
dielectric 37.219
opticaldielectric 1.43
$end






--------------------------------------------------------------
 ----------------------------------------------------------------
             Standard Nuclear Orientation (Angstroms)
    I     Atom           X                Y                Z
 ----------------------------------------------------------------
    1      C      -1.6459860000     2.8552810000    -0.7337480000
    2      C      -2.8654560000     2.2053460000    -0.7183890000
    3      C      -2.9061990000     0.8007410000    -0.5040240000
    4      C      -0.4171340000     2.1819040000    -0.5228040000
    5      C      -0.4677890000     0.7560740000    -0.2477830000
    6      C      -1.7304370000     0.1096610000    -0.2756920000
    7      C       0.8257990000     2.9440520000    -0.5997960000
    8      C       2.0910800000     2.1805060000    -0.3870950000
    9      C       1.9547060000     0.7795750000    -0.0920660000
   10      C       0.7564590000     0.0734050000    -0.0083800000
   11      O       0.8280490000     4.1875300000    -0.8375700000
   12      O       3.2319460000     2.7355710000    -0.4483840000
   13      H      -1.5810350000     3.9235500000    -0.9174750000
   14      H      -3.7871260000     2.7600530000    -0.8859510000
   15      H      -3.8558440000     0.2689770000    -0.5184390000
   16      H      -1.7551040000    -0.9657900000    -0.1281770000
   17      H       2.8967680000     0.2685750000     0.0914340000
   18      N       0.7133290000    -1.3447420000     0.2836810000
   19      C       1.8513280000    -2.1245080000    -0.1642160000
   20      C       0.3903580000    -1.6541410000     1.6770340000
   21      H       2.0826790000    -1.8758740000    -1.2020360000
   22      H       1.6123590000    -3.1916560000    -0.1002800000
   23      H       2.7703110000    -1.9612880000     0.4360010000
   24      H      -0.4689010000    -1.0640320000     1.9956300000
   25      H       1.2336110000    -1.4320850000     2.3646300000
   26      H       0.1425080000    -2.7208730000     1.7859360000
 ----------------------------------------------------------------
 Nuclear Repulsion Energy =         938.88074815 hartrees
 There are       54 alpha and       54 beta electrons
 Requested basis set is 6-311++G(d,p)
 There are 145 shells and 407 basis functions

 Total QAlloc Memory Limit   8000 MB
 Mega-Array Size       188 MB
 MEM_STATIC part       192 MB
 Discretize the solute cavity surface with Lebedev spheres
	Using 110 Lebedev grid points for each H atom
	Using 194 Lebedev grid points for other atoms
	Atomic van der Waals radii will be scaled by 1.20
 Remove points where switching function is < 1.0e-08
 Keep 1724 surface tesserae and discard 2396 interior tesserae
 Molecular Surface Area = 241.076 Angst**2
 A cutoff of  1.0D-08 yielded   7979 shell pairs
 There are     64461 function pairs (     68873 Cartesian)
 Smallest overlap matrix eigenvalue = 2.00E-07

 Q-Chem warning in module stvman/mkSTV.C, line 323:

 Overlap eigenvalue is smaller than square root of threshold
 Use THRESH >= 12 to get rid of this warning

 Linear dependence detected in AO basis
 Tighter screening thresholds may be required for diffuse basis sets
 Use S2THRESH > 14 and THRESH = 14 in case of SCF convergence issues
 Number of orthogonalized atomic orbitals = 403
 Maximum deviation from orthogonality = 9.280E-11

 Scale SEOQF with 1.000000e-01/1.000000e-01/1.000000e-01

 Standard Electronic Orientation quadrupole field applied
 Nucleus-field energy     =     0.0000000434 hartrees
 Guess from superposition of atomic densities
 Warning:  Energy on first SCF cycle will be non-variational
 SAD guess density has 106.000000 electrons

 -----------------------------------------------------------------------
  General SCF calculation program by
  Eric Jon Sundstrom, Paul Horn, Yuezhi Mao, Dmitri Zuev, Alec White,
  David Stuck, Shaama M.S., Shane Yost, Joonho Lee, David Small,
  Daniel Levine, Susi Lehtola, Hugh Burton, Evgeny Epifanovsky,
  Bang C. Huynh
 -----------------------------------------------------------------------
 Exchange:     0.2000 Hartree-Fock + 0.0800 Slater + 0.7200 B88
 Correlation:  0.1900 VWN1RPA + 0.8100 LYP
 Using SG-1 standard quadrature grid
 using 8 threads for integral computing
 -------------------------------------------------------
 OpenMP Integral computing Module                
 Release: version 1.0, May 2013, Q-Chem Inc. Pittsburgh 
 -------------------------------------------------------
 A restricted SCF calculation will be
 performed using DIIS
 SCF converges when DIIS error is below 1.0e-05
 ---------------------------------------
  Cycle       Energy         DIIS error
 ---------------------------------------
    1    -672.4786691508      3.19e-02  
    2    -669.1068880845      4.48e-03  
    3    -668.5027659411      7.47e-03  
    4    -669.4566444270      1.73e-03  
    5    -669.5077017635      4.11e-04  
    6    -669.5102812539      2.31e-04  
    7    -669.5113391562      5.79e-05  
    8    -669.5113983118      2.27e-05  
    9    -669.5114071535      6.97e-06  Convergence criterion met
 ---------------------------------------
 SCF time:   CPU 269.53s  wall 35.00s 

************** Final PCM Free Energy Summary **************
 G_electrostatic  =      -0.32323315 hartree =    -202.83186408 kcal/mol
 G_cavitation     =       0.00000000 hartree =       0.00000000 kcal/mol
 G_dispersion     =       0.00000000 hartree =       0.00000000 kcal/mol
 G_repulsion      =       0.00000000 hartree =       0.00000000 kcal/mol
 --------------------------------------------------
 Non-electrostatic Free Energy =       0.00000000 hartree =       0.00000000 kcal/mol
 Total                         =      -0.32323315 hartree =    -202.83186408 kcal/mol
 --------------------------------------------------
 SCF Energy (H0 + V/2)                       =    -669.51140715 
 Solute Internal Energy (H0)                 =    -669.18817400 
 Total Free Energy (H0 + V/2 + non-elec)     =    -669.51140715 hartree
                                             = -420124.74893135 kcal/mol
***********************************************************

 SCF   energy in the final basis set =     -669.5114071535
 Total energy in the final basis set =     -669.5114071535
 
 --------------------------------------------------------------
 
                    Orbital Energies (a.u.)
 --------------------------------------------------------------
 
 Alpha MOs
 -- Occupied --
-19.0209 -19.0206 -14.2932 -10.1731 -10.1720 -10.1664 -10.1655 -10.1575
-10.1455 -10.1439 -10.1433 -10.1405 -10.1388 -10.1307 -10.1212  -0.9551
 -0.9281  -0.9080  -0.8228  -0.7608  -0.7220  -0.6962  -0.6841  -0.6565
 -0.6017  -0.5816  -0.5562  -0.5259  -0.4808  -0.4678  -0.4596  -0.4396
 -0.4287  -0.4152  -0.4027  -0.3934  -0.3819  -0.3747  -0.3696  -0.3678
 -0.3586  -0.3518  -0.3446  -0.3301  -0.3203  -0.3018  -0.2937  -0.2689
 -0.2270  -0.2181  -0.2064  -0.1855  -0.1830  -0.1094
 -- Virtual --
 -0.0078   0.0005   0.0106   0.0180   0.0230   0.0274   0.0313   0.0326
  0.0427   0.0517   0.0526   0.0557   0.0600   0.0690   0.0741   0.0797
  0.0806   0.0853   0.0902   0.0964   0.1026   0.1104   0.1172   0.1185
  0.1213   0.1263   0.1286   0.1302   0.1346   0.1364   0.1430   0.1436
  0.1485   0.1512   0.1540   0.1586   0.1609   0.1635   0.1692   0.1740
  0.1785   0.1797   0.1839   0.1877   0.1922   0.1985   0.1992   0.1999
  0.2097   0.2147   0.2191   0.2293   0.2306   0.2380   0.2432   0.2457
  0.2479   0.2583   0.2627   0.2684   0.2700   0.2749   0.2839   0.2871
  0.2895   0.2978   0.2997   0.3028   0.3047   0.3118   0.3145   0.3159
  0.3223   0.3266   0.3346   0.3351   0.3417   0.3423   0.3498   0.3522
  0.3567   0.3610   0.3733   0.3762   0.3828   0.3897   0.4019   0.4085
  0.4152   0.4253   0.4306   0.4499   0.4626   0.4745   0.4900   0.5051
  0.5134   0.5339   0.5536   0.5603   0.5684   0.5771   0.5816   0.5882
  0.5926   0.6095   0.6185   0.6225   0.6281   0.6393   0.6404   0.6489
  0.6519   0.6602   0.6678   0.6780   0.6841   0.6880   0.6937   0.7066
  0.7165   0.7305   0.7323   0.7363   0.7506   0.7599   0.7711   0.7770
  0.7819   0.7924   0.8001   0.8046   0.8143   0.8388   0.8457   0.8548
  0.8615   0.8792   0.8832   0.8911   0.9131   0.9157   0.9214   0.9304
  0.9392   0.9550   0.9621   0.9800   0.9857   0.9942   1.0049   1.0252
  1.0390   1.0429   1.0711   1.0735   1.0886   1.1114   1.1146   1.1163
  1.1295   1.1466   1.1523   1.1652   1.1756   1.1794   1.2021   1.2119
  1.2411   1.2633   1.2880   1.2964   1.3137   1.3193   1.3359   1.3637
  1.3735   1.4025   1.4112   1.4453   1.4517   1.4889   1.4942   1.5310
  1.5357   1.5394   1.5500   1.5608   1.5646   1.5746   1.5901   1.5974
  1.6127   1.6263   1.6406   1.6552   1.6622   1.6663   1.6975   1.7017
  1.7102   1.7315   1.7387   1.7488   1.7538   1.7621   1.7716   1.7899
  1.7952   1.8028   1.8184   1.8280   1.8656   1.8776   1.8928   1.8996
  1.9101   1.9364   1.9394   1.9683   1.9746   1.9847   1.9919   1.9956
  2.0053   2.0247   2.0492   2.0535   2.0872   2.0901   2.1047   2.1160
  2.1248   2.1697   2.1834   2.2029   2.2060   2.2226   2.2318   2.2580
  2.3082   2.3320   2.3435   2.3969   2.4010   2.4477   2.4574   2.4721
  2.4832   2.5084   2.5150   2.5256   2.5515   2.5652   2.5842   2.6126
  2.6356   2.6528   2.6617   2.6780   2.6836   2.6976   2.7160   2.7360
  2.7517   2.7601   2.7684   2.7747   2.7960   2.8019   2.8062   2.8128
  2.8274   2.8391   2.8551   2.8696   2.8754   2.8991   2.9257   2.9397
  2.9597   2.9941   3.0001   3.0057   3.0285   3.0400   3.0479   3.0663
  3.1078   3.1455   3.1548   3.1956   3.2373   3.2421   3.2760   3.3418
  3.3494   3.3615   3.3956   3.4202   3.4460   3.4920   3.5182   3.5508
  3.5695   3.6030   3.6196   3.6282   3.6869   3.7402   3.7707   3.7774
  3.7945   3.8301   3.8576   3.8782   3.9754   4.0706   4.0969   4.1794
  4.2457   4.2715   4.3185   4.4241   4.8448   4.8568   4.8835   5.0202
  5.1064   5.1750   5.2373   5.3656   5.7306   5.8944  23.6124  23.8578
 23.9352  23.9573  23.9656  23.9766  23.9815  24.0190  24.0373  24.1437
 24.1598  24.2073  35.6162  50.0528  50.1542
 --------------------------------------------------------------
 
          Ground-State Mulliken Net Atomic Charges

     Atom                 Charge (a.u.)
  ----------------------------------------
      1 C                    -0.024814
      2 C                    -0.527056
      3 C                    -0.489781
      4 C                     0.337270
      5 C                     0.173079
      6 C                    -0.126764
      7 C                    -0.411660
      8 C                    -0.136967
      9 C                    -0.166083
     10 C                    -0.270074
     11 O                    -0.710508
     12 O                    -0.723132
     13 H                     0.146306
     14 H                     0.164156
     15 H                     0.169538
     16 H                     0.156654
     17 H                     0.133798
     18 N                     0.086412
     19 C                    -0.265946
     20 C                    -0.351658
     21 H                     0.154818
     22 H                     0.147159
     23 H                     0.114153
     24 H                     0.131272
     25 H                     0.127460
     26 H                     0.162369
  ----------------------------------------
  Sum of atomic charges =    -2.000000

 -----------------------------------------------------------------
                    Cartesian Multipole Moments
 -----------------------------------------------------------------
    Charge (ESU x 10^10)
                -9.6064
    Dipole Moment (Debye)
         X     -11.8985      Y     -27.2149      Z       5.8890
       Tot      30.2804
    Quadrupole Moments (Debye-Ang)
        XX    -144.6631     XY     -42.5625     YY    -190.6411
        XZ       6.0046     YZ      16.8626     ZZ    -103.4373
    Octopole Moments (Debye-Ang^2)
       XXX    -196.1035    XXY    -238.2776    XYY    -163.9468
       YYY    -673.5603    XXZ      41.4359    XYZ      26.8763
       YYZ      89.9493    XZZ     -18.7813    YZZ    -121.3506
       ZZZ      68.6832
    Hexadecapole Moments (Debye-Ang^3)
      XXXX   -2557.9928   XXXY    -388.9469   XXYY   -1208.5814
      XYYY    -517.0806   YYYY   -4286.4932   XXXZ      20.6609
      XXYZ     167.6826   XYYZ      77.7815   YYYZ     586.4369
      XXZZ    -455.3945   XYZZ      -7.0732   YYZZ    -612.2978
      XZZZ     -65.4956   YZZZ     343.5461   ZZZZ    -428.9767
 -----------------------------------------------------------------
 Total job time:  58.62s(wall), 276.76s(cpu) 
 Wed Jun 12 03:16:35 2024

        *************************************************************
        *                                                           *
        *  Thank you very much for using Q-Chem.  Have a nice day.  *
        *                                                           *
        *************************************************************


