
Running Job 1 of 1 158-rad-SM12.in
qchem 158-rad-SM12.in_3796482.0 /expanse/lustre/scratch/selhajj/temp_project/qcscratch/28445593/qchem3796482/ 0
/cm/shared/apps/spack/cpu/opt/spack/linux-centos8-zen2/gcc-10.2.0/qchem-5.4-akfmr7b3t57bfs6qan3padb2wnb2i7cl/exe/qcprog.exe_s 158-rad-SM12.in_3796482.0 /expanse/lustre/scratch/selhajj/temp_project/qcscratch/28445593/qchem3796482/
                  Welcome to Q-Chem
     A Quantum Leap Into The Future Of Chemistry


 Q-Chem 5.4, Q-Chem, Inc., Pleasanton, CA (2021)

 License issued to: University of California, San Diego (site)

 E. Epifanovsky,  A. T. B. Gilbert,  Xintian Feng,  Joonho Lee,  Yuezhi Mao,  
 N. Mardirossian,  P. Pokhilko,  A. White,  M. Wormit,  M. P. Coons,  
 A. L. Dempwolff,  Zhengting Gan,  D. Hait,  P. R. Horn,  L. D. Jacobson,  
 I. Kaliman,  J. Kussmann,  A. W. Lange,  Ka Un Lao,  D. S. Levine,  Jie Liu,  
 S. C. McKenzie,  A. F. Morrison,  K. Nanda,  F. Plasser,  D. R. Rehn,  
 M. L. Vidal,  Zhi-Qiang You,  Ying Zhu,  B. Alam,  B. Albrecht,  
 A. Aldossary,  E. Alguire,  J. H. Andersen,  D. Barton,  K. Begam,  A. Behn,  
 Y. A. Bernard,  E. J. Berquist,  H. Burton,  A. Carreras,  K. Carter-Fenk,  
 R. Chakraborty,  A. D. Chien,  K. D. Closser,  V. Cofer-Shabica,  
 S. Dasgupta,  Jia Deng,  M. de Wergifosse,  M. Diedenhofen,  Hainam Do,  
 S. Ehlert,  Po-Tung Fang,  S. Fatehi,  Qingguo Feng,  J. Gayvert,  
 Qinghui Ge,  G. Gidofalvi,  M. Goldey,  J. Gomes,  C. Gonzalez-Espinoza,  
 S. Gulania,  A. Gunina,  M. W. D. Hanson-Heine,  P. H. P. Harbach,  
 A. W. Hauser,  M. F. Herbst,  M. Hernandez Vera,  M. Hodecker,  
 Z. C. Holden,  S. Houck,  Xunkun Huang,  Kerwin Hui,  B. C. Huynh,  
 M. Ivanov,  Hyunjun Ji,  Hanjie Jiang,  B. Kaduk,  S. Kaehler,  
 K. Khistyaev,  Jaehoon Kim,  P. Klunzinger,  Z. Koczor-Benda,  
 Joong Hoon Koh,  D. Kosenkov,  L. Koulias,  T. Kowalczyk,  C. M. Krauter,  
 K. Kue,  A. Kunitsa,  T. Kus,  A. Landau,  K. V. Lawler,  D. Lefrancois,  
 S. Lehtola,  Rain Li,  Yi-Pei Li,  Jiashu Liang,  M. Liebenthal,  
 Hung-Hsuan Lin,  You-Sheng Lin,  Fenglai Liu,  Kuan-Yu Liu,  
 M. Loipersberger,  A. Luenser,  A. Manjanath,  P. Manohar,  E. Mansoor,  
 S. F. Manzer,  Shan-Ping Mao,  A. V. Marenich,  T. Markovich,  S. Mason,  
 S. A. Maurer,  P. F. McLaughlin,  M. F. S. J. Menger,  J.-M. Mewes,  
 S. A. Mewes,  P. Morgante,  J. W. Mullinax,  T. S. Nguyen-Beck,  
 K. J. Oosterbaan,  G. Paran,  Alexander C. Paul,  Suranjan K. Paul,  
 F. Pavosevic,  Zheng Pei,  S. Prager,  E. I. Proynov,  E. Ramos,  B. Rana,  
 A. E. Rask,  A. Rettig,  R. M. Richard,  F. Rob,  E. Rossomme,  T. Scheele,  
 M. Scheurer,  M. Schneider,  N. Sergueev,  S. M. Sharada,  W. Skomorowski,  
 D. W. Small,  C. J. Stein,  Yu-Chuan Su,  E. J. Sundstrom,  Zhen Tao,  
 J. Thirman,  T. Tsuchimochi,  N. M. Tubman,  S. P. Veccham,  O. Vydrov,  
 J. Wenzel,  J. Witte,  A. Yamada,  Kun Yao,  S. Yeganeh,  S. R. Yost,  
 A. Zech,  Igor Ying Zhang,  Xing Zhang,  Yu Zhang,  D. Zuev,  
 A. Aspuru-Guzik,  A. T. Bell,  N. A. Besley,  K. B. Bravaya,  B. R. Brooks,  
 D. Casanova,  Jeng-Da Chai,  S. Coriani,  C. J. Cramer,  
 A. E. DePrince, III,  R. A. DiStasio Jr.,  A. Dreuw,  B. D. Dunietz,  
 T. R. Furlani,  W. A. Goddard III,  S. Grimme,  S. Hammes-Schiffer,  
 T. Head-Gordon,  W. J. Hehre,  Chao-Ping Hsu,  T.-C. Jagau,  Yousung Jung,  
 A. Klamt,  Jing Kong,  D. S. Lambrecht,  WanZhen Liang,  N. J. Mayhall,  
 C. W. McCurdy,  J. B. Neaton,  C. Ochsenfeld,  J. A. Parkhill,  R. Peverati,  
 V. A. Rassolov,  Yihan Shao,  L. V. Slipchenko,  T. Stauch,  R. P. Steele,  
 J. E. Subotnik,  A. J. W. Thom,  A. Tkatchenko,  D. G. Truhlar,  
 T. Van Voorhis,  T. A. Wesolowski,  K. B. Whaley,  H. L. Woodcock III,  
 P. M. Zimmerman,  S. Faraji,  P. M. W. Gill,  M. Head-Gordon,  
 J. M. Herbert,  A. I. Krylov

 Contributors to earlier versions of Q-Chem not listed above: 
 R. D. Adamson,  B. Austin,  R. Baer,  J. Baker,  G. J. O. Beran,  
 K. Brandhorst,  S. T. Brown,  E. F. C. Byrd,  A. K. Chakraborty,  
 G. K. L. Chan,  Chun-Min Chang,  Yunqing Chen,  C.-L. Cheng,  
 Siu Hung Chien,  D. M. Chipman,  D. L. Crittenden,  H. Dachsel,  
 R. J. Doerksen,  A. D. Dutoi,  R. G. Edgar,  J. Fosso-Tande,  
 L. Fusti-Molnar,  D. Ghosh,  A. Ghysels,  A. Golubeva-Zadorozhnaya,  
 J. Gonthier,  M. S. Gordon,  S. R. Gwaltney,  G. Hawkins,  J. E. Herr,  
 A. Heyden,  S. Hirata,  E. G. Hohenstein,  G. Kedziora,  F. J. Keil,  
 C. Kelley,  Jihan Kim,  R. A. King,  R. Z. Khaliullin,  P. P. Korambath,  
 W. Kurlancheek,  A. Laurent,  A. M. Lee,  M. S. Lee,  S. V. Levchenko,  
 Ching Yeh Lin,  D. Liotard,  E. Livshits,  R. C. Lochan,  I. Lotan,  
 L. A. Martinez-Martinez,  P. E. Maslen,  N. Nair,  D. P. O'Neill,  
 D. Neuhauser,  E. Neuscamman,  C. M. Oana,  R. Olivares-Amaya,  R. Olson,  
 T. M. Perrine,  B. Peters,  P. A. Pieniazek,  A. Prociuk,  Y. M. Rhee,  
 J. Ritchie,  M. A. Rohrdanz,  E. Rosta,  N. J. Russ,  H. F. Schaefer III,  
 M. W. Schmidt,  N. E. Schultz,  S. Sharma,  N. Shenvi,  C. D. Sherrill,  
 A. C. Simmonett,  A. Sodt,  T. Stein,  D. Stuck,  K. S. Thanthiriwatte,  
 V. Vanovschi,  L. Vogt,  Tao Wang,  A. Warshel,  M. A. Watson,  
 C. F. Williams,  Q. Wu,  X. Xu,  Jun Yang,  W. Zhang,  Yan Zhao

 Please cite Q-Chem as follows:
 Y. Shao et al., Mol. Phys. 113, 184-215 (2015)
 DOI: 10.1080/00268976.2014.952696

 Q-Chem 5.4.0 for Intel X86 EM64T Linux

 Parts of Q-Chem use Armadillo 9.800.1 (Horizon Scraper).
 http://arma.sourceforge.net/

 Q-Chem begins on Sat Feb  3 11:23:27 2024  

 Host: 
0

     Scratch files written to /expanse/lustre/scratch/selhajj/temp_project/qcscratch/28445593/qchem3796482//
 May1621 |scratch|qcdevops|jenkins|workspace|build_RNUM    
 Processing $rem in /cm/shared/apps/spack/cpu/opt/spack/linux-centos8-zen2/gcc-10.2.0/qchem-5.4-akfmr7b3t57bfs6qan3padb2wnb2i7cl/config/preferences:
 Processing $rem in /home/selhajj/.qchemrc:
 Symmetry turned off for PCM/SM12/SMD calculation
 Method-specific promolecule density matrix will be built for SM12 calculation

 Checking the input file for inconsistencies... 	...done.

--------------------------------------------------------------
User input:
--------------------------------------------------------------
$molecule
-1 2
N                 -2.5760950000      0.5058950000      2.3186170000
C                 -2.4270760000      0.2785920000      0.9635040000
C                 -3.5557650000      0.1778940000      0.1453250000
C                 -3.4342790000     -0.1182270000     -1.2174540000
C                 -2.1908760000     -0.3219110000     -1.7842160000
C                 -1.0256090000     -0.2144360000     -1.0002590000
C                  0.2648720000     -0.4261800000     -1.6674460000
O                  0.3467160000     -0.7160120000     -2.8852340000
C                  1.4543080000     -0.2761960000     -0.8354590000
C                  2.7266690000     -0.4646160000     -1.4116970000
C                  3.8725270000     -0.3239140000     -0.6638310000
Cl                 5.4401870000     -0.5716300000     -1.4360790000
C                  3.7821750000      0.0170890000      0.7077960000
Cl                 5.2339360000      0.2043630000      1.6943450000
C                  2.5490730000      0.2059510000      1.2884550000
C                  1.3627830000      0.0640360000      0.5407150000
C                  0.0794430000      0.2730190000      1.2069280000
O                  0.0522800000      0.5980280000      2.4327670000
C                 -1.1191120000      0.1012710000      0.3938190000
H                 -1.7061140000      0.7433130000      2.7963830000
H                 -3.4281600000      0.9576190000      2.6100300000
H                 -4.5377770000      0.3155620000      0.5901480000
H                 -4.3300830000     -0.1935100000     -1.8271860000
H                 -2.0708800000     -0.5605470000     -2.8330880000
H                  2.7746260000     -0.7222290000     -2.4620990000
H                  2.4622300000      0.4667770000      2.3352180000
$end

$rem
BASIS  =  6-311++G(d,p)
GUI  =  2
JOB_TYPE  =  SP
METHOD  =  B3LYP
SCF_CONVERGENCE  = 8
SOLVENT_METHOD = sm12
$end

$smx
solvent dimethylformamide
charges CM5
$end





--------------------------------------------------------------
 ----------------------------------------------------------------
             Standard Nuclear Orientation (Angstroms)
    I     Atom           X                Y                Z
 ----------------------------------------------------------------
    1      N      -2.5760950000     0.5058950000     2.3186170000
    2      C      -2.4270760000     0.2785920000     0.9635040000
    3      C      -3.5557650000     0.1778940000     0.1453250000
    4      C      -3.4342790000    -0.1182270000    -1.2174540000
    5      C      -2.1908760000    -0.3219110000    -1.7842160000
    6      C      -1.0256090000    -0.2144360000    -1.0002590000
    7      C       0.2648720000    -0.4261800000    -1.6674460000
    8      O       0.3467160000    -0.7160120000    -2.8852340000
    9      C       1.4543080000    -0.2761960000    -0.8354590000
   10      C       2.7266690000    -0.4646160000    -1.4116970000
   11      C       3.8725270000    -0.3239140000    -0.6638310000
   12      Cl      5.4401870000    -0.5716300000    -1.4360790000
   13      C       3.7821750000     0.0170890000     0.7077960000
   14      Cl      5.2339360000     0.2043630000     1.6943450000
   15      C       2.5490730000     0.2059510000     1.2884550000
   16      C       1.3627830000     0.0640360000     0.5407150000
   17      C       0.0794430000     0.2730190000     1.2069280000
   18      O       0.0522800000     0.5980280000     2.4327670000
   19      C      -1.1191120000     0.1012710000     0.3938190000
   20      H      -1.7061140000     0.7433130000     2.7963830000
   21      H      -3.4281600000     0.9576190000     2.6100300000
   22      H      -4.5377770000     0.3155620000     0.5901480000
   23      H      -4.3300830000    -0.1935100000    -1.8271860000
   24      H      -2.0708800000    -0.5605470000    -2.8330880000
   25      H       2.7746260000    -0.7222290000    -2.4620990000
   26      H       2.4622300000     0.4667770000     2.3352180000
 ----------------------------------------------------------------
 Nuclear Repulsion Energy =        1542.49476827 hartrees
 There are       75 alpha and       74 beta electrons
 Requested basis set is 6-311++G(d,p)
 There are 163 shells and 483 basis functions

 Total QAlloc Memory Limit   8000 MB
 Mega-Array Size       188 MB
 MEM_STATIC part       192 MB
 A cutoff of  1.0D-11 yielded   9651 shell pairs
 There are     90993 function pairs (     97684 Cartesian)
 Smallest overlap matrix eigenvalue = 3.92E-08

 Q-Chem warning in module stvman/mkSTV.C, line 323:

 Overlap eigenvalue is smaller than square root of threshold
 Use THRESH >= 12 to get rid of this warning

 Linear dependence detected in AO basis
 Tighter screening thresholds may be required for diffuse basis sets
 Use S2THRESH > 14 and THRESH = 14 in case of SCF convergence issues
 Number of orthogonalized atomic orbitals = 476
 Maximum deviation from orthogonality = 5.230E-10

 Scale SEOQF with 1.000000e-02/1.000000e-01/1.000000e-01

 Standard Electronic Orientation quadrupole field applied
 Nucleus-field energy     =    -0.0000000326 hartrees
 ================ Generating on-the-fly Promolecule Density  ================
Attempting to make child job directory: /expanse/lustre/scratch/selhajj/temp_project/qcscratch/28445593/qchem3796482//Frg1/
Attempting to make child job directory: /expanse/lustre/scratch/selhajj/temp_project/qcscratch/28445593/qchem3796482//Frg2/
Attempting to make child job directory: /expanse/lustre/scratch/selhajj/temp_project/qcscratch/28445593/qchem3796482//Frg3/
Attempting to make child job directory: /expanse/lustre/scratch/selhajj/temp_project/qcscratch/28445593/qchem3796482//Frg4/
Attempting to make child job directory: /expanse/lustre/scratch/selhajj/temp_project/qcscratch/28445593/qchem3796482//Frg5/
Creating input file /expanse/lustre/scratch/selhajj/temp_project/qcscratch/28445593/qchem3796482/Frg1.input
using default PutDataFrgm: nothing
calling putenv with: QCSCRATCH=/expanse/lustre/scratch/selhajj/temp_project/qcscratch/28445593/qchem3796482/ 
Spawning Job For Fragment 0
Done Job For Fragment 0
calling putenv with: QCSCRATCH=/expanse/lustre/scratch/selhajj/temp_project/qcscratch/28445593 
calling putenv with: QCTHREADS=8 
Creating input file /expanse/lustre/scratch/selhajj/temp_project/qcscratch/28445593/qchem3796482/Frg2.input
using default PutDataFrgm: nothing
calling putenv with: QCSCRATCH=/expanse/lustre/scratch/selhajj/temp_project/qcscratch/28445593/qchem3796482/ 
Spawning Job For Fragment 1
Done Job For Fragment 1
calling putenv with: QCSCRATCH=/expanse/lustre/scratch/selhajj/temp_project/qcscratch/28445593 
calling putenv with: QCTHREADS=8 
Creating input file /expanse/lustre/scratch/selhajj/temp_project/qcscratch/28445593/qchem3796482/Frg3.input
using default PutDataFrgm: nothing
calling putenv with: QCSCRATCH=/expanse/lustre/scratch/selhajj/temp_project/qcscratch/28445593/qchem3796482/ 
Spawning Job For Fragment 2
Done Job For Fragment 2
calling putenv with: QCSCRATCH=/expanse/lustre/scratch/selhajj/temp_project/qcscratch/28445593 
calling putenv with: QCTHREADS=8 
Creating input file /expanse/lustre/scratch/selhajj/temp_project/qcscratch/28445593/qchem3796482/Frg4.input
using default PutDataFrgm: nothing
calling putenv with: QCSCRATCH=/expanse/lustre/scratch/selhajj/temp_project/qcscratch/28445593/qchem3796482/ 
Spawning Job For Fragment 3
Done Job For Fragment 3
calling putenv with: QCSCRATCH=/expanse/lustre/scratch/selhajj/temp_project/qcscratch/28445593 
calling putenv with: QCTHREADS=8 
Creating input file /expanse/lustre/scratch/selhajj/temp_project/qcscratch/28445593/qchem3796482/Frg5.input
using default PutDataFrgm: nothing
calling putenv with: QCSCRATCH=/expanse/lustre/scratch/selhajj/temp_project/qcscratch/28445593/qchem3796482/ 
Spawning Job For Fragment 4
Done Job For Fragment 4
calling putenv with: QCSCRATCH=/expanse/lustre/scratch/selhajj/temp_project/qcscratch/28445593 
calling putenv with: QCTHREADS=8 
 Time for running child jobs:  CPU 0.01 s  wall 40.76 s
 ============= Method Specific Promolecule Density Constructed =============
 Guess from superposition of atomic densities
 Warning:  Energy on first SCF cycle will be non-variational
 SAD guess density has 148.000000 electrons

 -----------------------------------------------------------------------
  General SCF calculation program by
  Eric Jon Sundstrom, Paul Horn, Yuezhi Mao, Dmitri Zuev, Alec White,
  David Stuck, Shaama M.S., Shane Yost, Joonho Lee, David Small,
  Daniel Levine, Susi Lehtola, Hugh Burton, Evgeny Epifanovsky,
  Bang C. Huynh
 -----------------------------------------------------------------------
 Exchange:     0.2000 Hartree-Fock + 0.0800 Slater + 0.7200 B88
 Correlation:  0.1900 VWN1RPA + 0.8100 LYP
 Using SG-1 standard quadrature grid
 using 8 threads for integral computing
 -------------------------------------------------------
 OpenMP Integral computing Module                
 Release: version 1.0, May 2013, Q-Chem Inc. Pittsburgh 
 -------------------------------------------------------
 
 SM12 calculation using CM5 charges
 Citation of the SM12 model:
 Marenich, A.V.; Cramer, C.J.; Truhlar, D.G.
 J. Chem. Theory Comput. 2013, 9, 609-612.
 iSolventCode=          91
 Solvent: dimethylformamide                                               
 
Hirshfeld: reading atomic densities from disk.
warning:  vdwdata pointer should have been initialzed before dftman
 Inaccurate integrated density:
   Number of electrons =   149
   Numerical integral  =   148.001670518676
   Relative error      =    -0.6700197861 %

 Charges (in A.U.) from CM5PAC (Nov. 11, 2011)
 -----------------------------------------------
 Center     Atomic      CM5         Hirshfeld
 Number     Number      Charge      Charge
 -----------------------------------------------
    1          7       -0.466895   -0.018674
    2          6        0.057640    0.002648
    3          6       -0.048667   -0.000885
    4          6       -0.057829   -0.003048
    5          6       -0.052164   -0.000568
    6          6       -0.001743   -0.000164
    7          6        0.037578    0.006957
    8          8       -0.064366   -0.017376
    9          6       -0.002081   -0.000508
   10          6       -0.051342   -0.003312
   11          6       -0.011443   -0.007587
   12         17        0.012065    0.012946
   13          6       -0.011580   -0.007716
   14         17        0.012133    0.013022
   15          6       -0.051115   -0.003109
   16          6       -0.001891   -0.000387
   17          6        0.038023    0.007579
   18          8       -0.081432   -0.019970
   19          6        0.006543    0.001565
   20          1        0.218086    0.010351
   21          1        0.198789    0.007766
   22          1        0.062333    0.003509
   23          1        0.058665    0.003054
   24          1        0.067123    0.005500
   25          1        0.065584    0.003301
   26          1        0.066318    0.003438
 -----------------------------------------------

 Dipole moment (in Debye)
 -----------------------------------------------
                 X        Y        Z     Total
 -----------------------------------------------
 CM5         -0.4293   0.5151  -0.1151   0.6804
 Hirshfeld    0.2159   0.0089  -0.0111   0.2163
 -----------------------------------------------

 A unrestricted SCF calculation will be
 performed using DIIS
 SCF converges when DIIS error is below 1.0e-08
 ---------------------------------------
  Cycle       Energy         DIIS error
 ---------------------------------------
Hirshfeld: reading atomic densities from disk.

 Charges (in A.U.) from CM5PAC (Nov. 11, 2011)
 -----------------------------------------------
 Center     Atomic      CM5         Hirshfeld
 Number     Number      Charge      Charge
 -----------------------------------------------
    1          7       -0.747244   -0.299023
    2          6        0.166167    0.111174
    3          6       -0.239503   -0.191721
    4          6       -0.191611   -0.136829
    5          6       -0.239642   -0.188047
    6          6       -0.086157   -0.084578
    7          6        0.239210    0.208589
    8          8       -0.636339   -0.589349
    9          6       -0.091092   -0.089519
   10          6       -0.207595   -0.159565
   11          6        0.071549    0.075406
   12         17        0.021844    0.022725
   13          6        0.071693    0.075557
   14         17        0.022790    0.023679
   15          6       -0.208925   -0.160919
   16          6       -0.089484   -0.087980
   17          6        0.241789    0.211345
   18          8       -0.599797   -0.538335
   19          6       -0.094230   -0.099208
   20          1        0.351831    0.144097
   21          1        0.399567    0.208544
   22          1        0.177899    0.119076
   23          1        0.178896    0.123285
   24          1        0.163209    0.101585
   25          1        0.162722    0.100439
   26          1        0.161541    0.098660
 -----------------------------------------------

 Dipole moment (in Debye)
 -----------------------------------------------
                 X        Y        Z     Total
 -----------------------------------------------
 CM5         -0.1278   1.7797   3.6195   4.0354
 Hirshfeld    0.5173   1.2735   3.7235   3.9691
 -----------------------------------------------

    1   -1668.1433796643      1.50e-02  
Hirshfeld: reading atomic densities from disk.

 Charges (in A.U.) from CM5PAC (Nov. 11, 2011)
 -----------------------------------------------
 Center     Atomic      CM5         Hirshfeld
 Number     Number      Charge      Charge
 -----------------------------------------------
    1          7       -0.449945   -0.001725
    2          6       -0.023032   -0.078025
    3          6       -0.020724    0.027057
    4          6       -0.013812    0.040970
    5          6       -0.008552    0.043044
    6          6       -0.027380   -0.025801
    7          6       -0.206737   -0.237358
    8          8        0.147933    0.194923
    9          6        0.005036    0.006609
   10          6        0.045024    0.093053
   11          6       -0.185376   -0.181519
   12         17       -0.174726   -0.173845
   13          6       -0.186677   -0.182812
   14         17       -0.173985   -0.173095
   15          6        0.050612    0.098619
   16          6        0.004384    0.005888
   17          6       -0.197221   -0.227665
   18          8        0.110898    0.172360
   19          6       -0.056898   -0.061876
   20          1        0.186917   -0.020818
   21          1        0.191161    0.000138
   22          1       -0.008440   -0.067263
   23          1       -0.012209   -0.067820
   24          1       -0.039955   -0.101579
   25          1        0.017020   -0.045263
   26          1        0.023300   -0.039581
 -----------------------------------------------

 Dipole moment (in Debye)
 -----------------------------------------------
                 X        Y        Z     Total
 -----------------------------------------------
 CM5        -10.9632   1.0263   0.1431  11.0121
 Hirshfeld  -10.3180   0.5202   0.2471  10.3341
 -----------------------------------------------

    2   -1663.3008080229      1.76e-03  
Hirshfeld: reading atomic densities from disk.

 Charges (in A.U.) from CM5PAC (Nov. 11, 2011)
 -----------------------------------------------
 Center     Atomic      CM5         Hirshfeld
 Number     Number      Charge      Charge
 -----------------------------------------------
    1          7       -0.593942   -0.145721
    2          6        0.090869    0.035876
    3          6       -0.110297   -0.062516
    4          6       -0.104088   -0.049307
    5          6       -0.108065   -0.056470
    6          6       -0.009280   -0.007701
    7          6        0.133753    0.103132
    8          8       -0.556659   -0.509669
    9          6       -0.011490   -0.009918
   10          6       -0.080411   -0.032381
   11          6        0.046964    0.050821
   12         17       -0.102894   -0.102013
   13          6        0.045861    0.049726
   14         17       -0.103522   -0.102633
   15          6       -0.080790   -0.032784
   16          6       -0.009511   -0.008007
   17          6        0.133932    0.103488
   18          8       -0.504920   -0.443457
   19          6       -0.005328   -0.010307
   20          1        0.273023    0.065288
   21          1        0.285763    0.094740
   22          1        0.069251    0.010428
   23          1        0.072348    0.016737
   24          1        0.065818    0.004194
   25          1        0.080819    0.018537
   26          1        0.080643    0.017763
 -----------------------------------------------

 Dipole moment (in Debye)
 -----------------------------------------------
                 X        Y        Z     Total
 -----------------------------------------------
 CM5         -4.0805   1.4568   2.6219   5.0643
 Hirshfeld   -3.4353   0.9506   2.7260   4.4873
 -----------------------------------------------

    3   -1662.9260943087      2.75e-03  
Hirshfeld: reading atomic densities from disk.

 Charges (in A.U.) from CM5PAC (Nov. 11, 2011)
 -----------------------------------------------
 Center     Atomic      CM5         Hirshfeld
 Number     Number      Charge      Charge
 -----------------------------------------------
    1          7       -0.631971   -0.183750
    2          6        0.101006    0.046013
    3          6       -0.146095   -0.098313
    4          6       -0.120022   -0.065240
    5          6       -0.144553   -0.092957
    6          6       -0.062980   -0.061401
    7          6        0.092384    0.061763
    8          8       -0.376569   -0.329579
    9          6       -0.057630   -0.056057
   10          6       -0.107227   -0.059198
   11          6       -0.006410   -0.002553
   12         17       -0.056444   -0.055563
   13          6       -0.007516   -0.003651
   14         17       -0.057007   -0.056118
   15          6       -0.106575   -0.058569
   16          6       -0.057485   -0.055981
   17          6        0.098899    0.068454
   18          8       -0.364837   -0.303375
   19          6       -0.068001   -0.072979
   20          1        0.287248    0.079513
   21          1        0.307356    0.116333
   22          1        0.093256    0.034432
   23          1        0.096361    0.040750
   24          1        0.087271    0.025647
   25          1        0.102479    0.040196
   26          1        0.103191    0.040311
 -----------------------------------------------

 Dipole moment (in Debye)
 -----------------------------------------------
                 X        Y        Z     Total
 -----------------------------------------------
 CM5         -3.6348   1.4188   2.1886   4.4738
 Hirshfeld   -2.9896   0.9126   2.2926   3.8765
 -----------------------------------------------

    4   -1663.6076610406      6.39e-04  
Hirshfeld: reading atomic densities from disk.

 Charges (in A.U.) from CM5PAC (Nov. 11, 2011)
 -----------------------------------------------
 Center     Atomic      CM5         Hirshfeld
 Number     Number      Charge      Charge
 -----------------------------------------------
    1          7       -0.615428   -0.167207
    2          6        0.089251    0.034259
    3          6       -0.139976   -0.092194
    4          6       -0.113177   -0.058396
    5          6       -0.131506   -0.079911
    6          6       -0.040745   -0.039166
    7          6        0.085825    0.055204
    8          8       -0.406086   -0.359096
    9          6       -0.033489   -0.031916
   10          6       -0.094508   -0.046478
   11          6       -0.009250   -0.005393
   12         17       -0.075822   -0.074941
   13          6       -0.010183   -0.006318
   14         17       -0.076255   -0.075365
   15          6       -0.093557   -0.045550
   16          6       -0.032711   -0.031207
   17          6        0.086707    0.056262
   18          8       -0.381113   -0.319650
   19          6       -0.055008   -0.059987
   20          1        0.283505    0.075770
   21          1        0.301946    0.110923
   22          1        0.088275    0.029451
   23          1        0.090255    0.034644
   24          1        0.081100    0.019476
   25          1        0.099825    0.037542
   26          1        0.100200    0.037319
 -----------------------------------------------

 Dipole moment (in Debye)
 -----------------------------------------------
                 X        Y        Z     Total
 -----------------------------------------------
 CM5         -4.3915   1.4376   2.2313   5.1314
 Hirshfeld   -3.7464   0.9315   2.3353   4.5119
 -----------------------------------------------

    5   -1663.6427846409      1.61e-04  
Hirshfeld: reading atomic densities from disk.

 Charges (in A.U.) from CM5PAC (Nov. 11, 2011)
 -----------------------------------------------
 Center     Atomic      CM5         Hirshfeld
 Number     Number      Charge      Charge
 -----------------------------------------------
    1          7       -0.618397   -0.170176
    2          6        0.094059    0.039067
    3          6       -0.136387   -0.088606
    4          6       -0.113992   -0.059210
    5          6       -0.134236   -0.082640
    6          6       -0.047732   -0.046153
    7          6        0.088934    0.058313
    8          8       -0.399675   -0.352685
    9          6       -0.044681   -0.043109
   10          6       -0.098933   -0.050904
   11          6        0.002033    0.005890
   12         17       -0.074626   -0.073745
   13          6        0.000827    0.004691
   14         17       -0.075154   -0.074265
   15          6       -0.098295   -0.050288
   16          6       -0.043913   -0.042409
   17          6        0.094813    0.064368
   18          8       -0.382548   -0.321086
   19          6       -0.052977   -0.057956
   20          1        0.282973    0.075238
   21          1        0.301345    0.110323
   22          1        0.086990    0.028167
   23          1        0.089672    0.034061
   24          1        0.080685    0.019061
   25          1        0.098394    0.036111
   26          1        0.098889    0.036008
 -----------------------------------------------

 Dipole moment (in Debye)
 -----------------------------------------------
                 X        Y        Z     Total
 -----------------------------------------------
 CM5         -4.1639   1.4257   2.2184   4.9287
 Hirshfeld   -3.5187   0.9195   2.3224   4.3152
 -----------------------------------------------

    6   -1663.6473107236      5.37e-05  
Hirshfeld: reading atomic densities from disk.

 Charges (in A.U.) from CM5PAC (Nov. 11, 2011)
 -----------------------------------------------
 Center     Atomic      CM5         Hirshfeld
 Number     Number      Charge      Charge
 -----------------------------------------------
    1          7       -0.619071   -0.170850
    2          6        0.092757    0.037764
    3          6       -0.138718   -0.090936
    4          6       -0.114361   -0.059579
    5          6       -0.133743   -0.082148
    6          6       -0.046000   -0.044421
    7          6        0.091299    0.060678
    8          8       -0.402378   -0.355388
    9          6       -0.040317   -0.038744
   10          6       -0.097544   -0.049515
   11          6       -0.005191   -0.001335
   12         17       -0.072414   -0.071533
   13          6       -0.006305   -0.002441
   14         17       -0.072976   -0.072086
   15          6       -0.096759   -0.048752
   16          6       -0.039901   -0.038397
   17          6        0.094388    0.063944
   18          8       -0.380918   -0.319456
   19          6       -0.054762   -0.059740
   20          1        0.283193    0.075459
   21          1        0.301699    0.110676
   22          1        0.087486    0.028663
   23          1        0.090042    0.034431
   24          1        0.080999    0.019375
   25          1        0.098558    0.036275
   26          1        0.099007    0.036126
 -----------------------------------------------

 Dipole moment (in Debye)
 -----------------------------------------------
                 X        Y        Z     Total
 -----------------------------------------------
 CM5         -4.1832   1.4280   2.2195   4.9461
 Hirshfeld   -3.5380   0.9218   2.3235   4.3320
 -----------------------------------------------

    7   -1663.6472121978      2.35e-05  
Hirshfeld: reading atomic densities from disk.

 Charges (in A.U.) from CM5PAC (Nov. 11, 2011)
 -----------------------------------------------
 Center     Atomic      CM5         Hirshfeld
 Number     Number      Charge      Charge
 -----------------------------------------------
    1          7       -0.618698   -0.170477
    2          6        0.093000    0.038007
    3          6       -0.138631   -0.090849
    4          6       -0.114093   -0.059312
    5          6       -0.133991   -0.082395
    6          6       -0.046149   -0.044570
    7          6        0.089129    0.058509
    8          8       -0.400751   -0.353761
    9          6       -0.041283   -0.039710
   10          6       -0.097795   -0.049766
   11          6       -0.002370    0.001487
   12         17       -0.073431   -0.072550
   13          6       -0.003499    0.000365
   14         17       -0.074001   -0.073112
   15          6       -0.096950   -0.048944
   16          6       -0.040660   -0.039156
   17          6        0.092939    0.062495
   18          8       -0.381425   -0.319962
   19          6       -0.054837   -0.059816
   20          1        0.283293    0.075558
   21          1        0.301751    0.110729
   22          1        0.087557    0.028734
   23          1        0.090160    0.034549
   24          1        0.081159    0.019535
   25          1        0.098584    0.036301
   26          1        0.099063    0.036182
 -----------------------------------------------

 Dipole moment (in Debye)
 -----------------------------------------------
                 X        Y        Z     Total
 -----------------------------------------------
 CM5         -4.1660   1.4244   2.2074   4.9251
 Hirshfeld   -3.5208   0.9182   2.3114   4.3107
 -----------------------------------------------

    8   -1663.6474289716      1.04e-05  
Hirshfeld: reading atomic densities from disk.

 Charges (in A.U.) from CM5PAC (Nov. 11, 2011)
 -----------------------------------------------
 Center     Atomic      CM5         Hirshfeld
 Number     Number      Charge      Charge
 -----------------------------------------------
    1          7       -0.619036   -0.170815
    2          6        0.093068    0.038075
    3          6       -0.138371   -0.090589
    4          6       -0.114409   -0.059628
    5          6       -0.134268   -0.082673
    6          6       -0.045949   -0.044370
    7          6        0.089920    0.059299
    8          8       -0.401164   -0.354173
    9          6       -0.041347   -0.039774
   10          6       -0.098150   -0.050120
   11          6       -0.003000    0.000857
   12         17       -0.073323   -0.072442
   13          6       -0.004201   -0.000336
   14         17       -0.073903   -0.073013
   15          6       -0.097386   -0.049379
   16          6       -0.040798   -0.039294
   17          6        0.094074    0.063630
   18          8       -0.381085   -0.319623
   19          6       -0.053780   -0.058759
   20          1        0.283223    0.075489
   21          1        0.301647    0.110624
   22          1        0.087377    0.028554
   23          1        0.090042    0.034431
   24          1        0.081034    0.019410
   25          1        0.098695    0.036413
   26          1        0.099160    0.036279
 -----------------------------------------------

 Dipole moment (in Debye)
 -----------------------------------------------
                 X        Y        Z     Total
 -----------------------------------------------
 CM5         -4.1827   1.4274   2.2184   4.9451
 Hirshfeld   -3.5375   0.9212   2.3224   4.3309
 -----------------------------------------------

    9   -1663.6473728164      4.88e-06  
Hirshfeld: reading atomic densities from disk.

 Charges (in A.U.) from CM5PAC (Nov. 11, 2011)
 -----------------------------------------------
 Center     Atomic      CM5         Hirshfeld
 Number     Number      Charge      Charge
 -----------------------------------------------
    1          7       -0.618905   -0.170684
    2          6        0.092882    0.037889
    3          6       -0.138548   -0.090767
    4          6       -0.114231   -0.059450
    5          6       -0.134033   -0.082437
    6          6       -0.046098   -0.044519
    7          6        0.089972    0.059351
    8          8       -0.400846   -0.353856
    9          6       -0.041109   -0.039537
   10          6       -0.097958   -0.049928
   11          6       -0.002830    0.001027
   12         17       -0.073368   -0.072487
   13          6       -0.003972   -0.000108
   14         17       -0.073959   -0.073069
   15          6       -0.097139   -0.049132
   16          6       -0.040654   -0.039150
   17          6        0.093683    0.063239
   18          8       -0.381352   -0.319890
   19          6       -0.054585   -0.059563
   20          1        0.283241    0.075506
   21          1        0.301695    0.110672
   22          1        0.087431    0.028608
   23          1        0.090053    0.034442
   24          1        0.081048    0.019425
   25          1        0.098588    0.036305
   26          1        0.099064    0.036183
 -----------------------------------------------

 Dipole moment (in Debye)
 -----------------------------------------------
                 X        Y        Z     Total
 -----------------------------------------------
 CM5         -4.1713   1.4240   2.2054   4.9286
 Hirshfeld   -3.5261   0.9178   2.3094   4.3138
 -----------------------------------------------

   10   -1663.6474468341      2.66e-06  
Hirshfeld: reading atomic densities from disk.

 Charges (in A.U.) from CM5PAC (Nov. 11, 2011)
 -----------------------------------------------
 Center     Atomic      CM5         Hirshfeld
 Number     Number      Charge      Charge
 -----------------------------------------------
    1          7       -0.618948   -0.170727
    2          6        0.093003    0.038010
    3          6       -0.138596   -0.090814
    4          6       -0.114302   -0.059521
    5          6       -0.134180   -0.082585
    6          6       -0.045978   -0.044399
    7          6        0.089726    0.059105
    8          8       -0.400912   -0.353922
    9          6       -0.041211   -0.039639
   10          6       -0.097989   -0.049960
   11          6       -0.002822    0.001035
   12         17       -0.073327   -0.072446
   13          6       -0.004005   -0.000140
   14         17       -0.073922   -0.073033
   15          6       -0.097145   -0.049138
   16          6       -0.040640   -0.039136
   17          6        0.093661    0.063217
   18          8       -0.381161   -0.319699
   19          6       -0.054266   -0.059244
   20          1        0.283230    0.075495
   21          1        0.301675    0.110653
   22          1        0.087419    0.028595
   23          1        0.090058    0.034448
   24          1        0.081051    0.019428
   25          1        0.098591    0.036309
   26          1        0.099059    0.036178
 -----------------------------------------------

 Dipole moment (in Debye)
 -----------------------------------------------
                 X        Y        Z     Total
 -----------------------------------------------
 CM5         -4.1703   1.4255   2.2120   4.9312
 Hirshfeld   -3.5252   0.9193   2.3161   4.3170
 -----------------------------------------------

   11   -1663.6474337997      9.88e-07  
Hirshfeld: reading atomic densities from disk.

 Charges (in A.U.) from CM5PAC (Nov. 11, 2011)
 -----------------------------------------------
 Center     Atomic      CM5         Hirshfeld
 Number     Number      Charge      Charge
 -----------------------------------------------
    1          7       -0.618947   -0.170726
    2          6        0.092938    0.037945
    3          6       -0.138551   -0.090769
    4          6       -0.114293   -0.059511
    5          6       -0.134139   -0.082543
    6          6       -0.045974   -0.044395
    7          6        0.089806    0.059185
    8          8       -0.400815   -0.353825
    9          6       -0.041158   -0.039586
   10          6       -0.097983   -0.049953
   11          6       -0.002860    0.000997
   12         17       -0.073342   -0.072461
   13          6       -0.004030   -0.000165
   14         17       -0.073931   -0.073041
   15          6       -0.097187   -0.049180
   16          6       -0.040662   -0.039158
   17          6        0.093687    0.063242
   18          8       -0.381257   -0.319795
   19          6       -0.054299   -0.059278
   20          1        0.283230    0.075496
   21          1        0.301676    0.110653
   22          1        0.087410    0.028586
   23          1        0.090047    0.034436
   24          1        0.081040    0.019417
   25          1        0.098595    0.036312
   26          1        0.099068    0.036187
 -----------------------------------------------

 Dipole moment (in Debye)
 -----------------------------------------------
                 X        Y        Z     Total
 -----------------------------------------------
 CM5         -4.1718   1.4246   2.2081   4.9305
 Hirshfeld   -3.5267   0.9184   2.3121   4.3159
 -----------------------------------------------

   12   -1663.6474345837      4.18e-07  
Hirshfeld: reading atomic densities from disk.

 Charges (in A.U.) from CM5PAC (Nov. 11, 2011)
 -----------------------------------------------
 Center     Atomic      CM5         Hirshfeld
 Number     Number      Charge      Charge
 -----------------------------------------------
    1          7       -0.618939   -0.170718
    2          6        0.092947    0.037954
    3          6       -0.138560   -0.090778
    4          6       -0.114287   -0.059506
    5          6       -0.134135   -0.082539
    6          6       -0.046004   -0.044425
    7          6        0.089815    0.059194
    8          8       -0.400855   -0.353865
    9          6       -0.041172   -0.039600
   10          6       -0.097992   -0.049963
   11          6       -0.002840    0.001017
   12         17       -0.073351   -0.072470
   13          6       -0.004010   -0.000145
   14         17       -0.073945   -0.073056
   15          6       -0.097163   -0.049157
   16          6       -0.040656   -0.039152
   17          6        0.093685    0.063241
   18          8       -0.381193   -0.319731
   19          6       -0.054337   -0.059315
   20          1        0.283228    0.075493
   21          1        0.301674    0.110651
   22          1        0.087410    0.028587
   23          1        0.090048    0.034437
   24          1        0.081043    0.019419
   25          1        0.098595    0.036312
   26          1        0.099065    0.036184
 -----------------------------------------------

 Dipole moment (in Debye)
 -----------------------------------------------
                 X        Y        Z     Total
 -----------------------------------------------
 CM5         -4.1715   1.4250   2.2096   4.9309
 Hirshfeld   -3.5263   0.9188   2.3136   4.3165
 -----------------------------------------------

   13   -1663.6474385510      2.15e-07  
Hirshfeld: reading atomic densities from disk.

 Charges (in A.U.) from CM5PAC (Nov. 11, 2011)
 -----------------------------------------------
 Center     Atomic      CM5         Hirshfeld
 Number     Number      Charge      Charge
 -----------------------------------------------
    1          7       -0.618943   -0.170722
    2          6        0.092957    0.037964
    3          6       -0.138572   -0.090790
    4          6       -0.114294   -0.059512
    5          6       -0.134142   -0.082547
    6          6       -0.045991   -0.044412
    7          6        0.089804    0.059184
    8          8       -0.400836   -0.353845
    9          6       -0.041172   -0.039599
   10          6       -0.097985   -0.049955
   11          6       -0.002851    0.001006
   12         17       -0.073344   -0.072463
   13          6       -0.004025   -0.000160
   14         17       -0.073937   -0.073047
   15          6       -0.097163   -0.049157
   16          6       -0.040652   -0.039148
   17          6        0.093688    0.063244
   18          8       -0.381220   -0.319757
   19          6       -0.054318   -0.059297
   20          1        0.283229    0.075495
   21          1        0.301674    0.110651
   22          1        0.087410    0.028587
   23          1        0.090048    0.034437
   24          1        0.081042    0.019419
   25          1        0.098595    0.036312
   26          1        0.099066    0.036185
 -----------------------------------------------

 Dipole moment (in Debye)
 -----------------------------------------------
                 X        Y        Z     Total
 -----------------------------------------------
 CM5         -4.1713   1.4249   2.2092   4.9305
 Hirshfeld   -3.5261   0.9187   2.3132   4.3160
 -----------------------------------------------

   14   -1663.6474373821      1.03e-07  
Hirshfeld: reading atomic densities from disk.

 Charges (in A.U.) from CM5PAC (Nov. 11, 2011)
 -----------------------------------------------
 Center     Atomic      CM5         Hirshfeld
 Number     Number      Charge      Charge
 -----------------------------------------------
    1          7       -0.618946   -0.170725
    2          6        0.092947    0.037954
    3          6       -0.138564   -0.090782
    4          6       -0.114292   -0.059510
    5          6       -0.134141   -0.082545
    6          6       -0.045987   -0.044408
    7          6        0.089807    0.059186
    8          8       -0.400839   -0.353849
    9          6       -0.041168   -0.039596
   10          6       -0.097986   -0.049957
   11          6       -0.002848    0.001009
   12         17       -0.073342   -0.072461
   13          6       -0.004019   -0.000155
   14         17       -0.073935   -0.073046
   15          6       -0.097170   -0.049164
   16          6       -0.040658   -0.039154
   17          6        0.093682    0.063238
   18          8       -0.381216   -0.319753
   19          6       -0.054320   -0.059299
   20          1        0.283229    0.075495
   21          1        0.301675    0.110652
   22          1        0.087410    0.028586
   23          1        0.090047    0.034437
   24          1        0.081043    0.019419
   25          1        0.098595    0.036313
   26          1        0.099066    0.036185
 -----------------------------------------------

 Dipole moment (in Debye)
 -----------------------------------------------
                 X        Y        Z     Total
 -----------------------------------------------
 CM5         -4.1712   1.4248   2.2091   4.9304
 Hirshfeld   -3.5260   0.9186   2.3131   4.3159
 -----------------------------------------------

   15   -1663.6474380394      3.94e-08  
Hirshfeld: reading atomic densities from disk.

 Charges (in A.U.) from CM5PAC (Nov. 11, 2011)
 -----------------------------------------------
 Center     Atomic      CM5         Hirshfeld
 Number     Number      Charge      Charge
 -----------------------------------------------
    1          7       -0.618943   -0.170722
    2          6        0.092951    0.037958
    3          6       -0.138568   -0.090787
    4          6       -0.114293   -0.059512
    5          6       -0.134142   -0.082546
    6          6       -0.045990   -0.044411
    7          6        0.089806    0.059185
    8          8       -0.400837   -0.353847
    9          6       -0.041170   -0.039597
   10          6       -0.097988   -0.049958
   11          6       -0.002848    0.001009
   12         17       -0.073343   -0.072462
   13          6       -0.004020   -0.000156
   14         17       -0.073937   -0.073047
   15          6       -0.097165   -0.049159
   16          6       -0.040654   -0.039150
   17          6        0.093687    0.063242
   18          8       -0.381219   -0.319756
   19          6       -0.054320   -0.059298
   20          1        0.283229    0.075494
   21          1        0.301674    0.110651
   22          1        0.087410    0.028586
   23          1        0.090048    0.034437
   24          1        0.081043    0.019419
   25          1        0.098596    0.036313
   26          1        0.099066    0.036185
 -----------------------------------------------

 Dipole moment (in Debye)
 -----------------------------------------------
                 X        Y        Z     Total
 -----------------------------------------------
 CM5         -4.1712   1.4248   2.2091   4.9304
 Hirshfeld   -3.5260   0.9186   2.3131   4.3159
 -----------------------------------------------

   16   -1663.6474377856      2.49e-08  
Hirshfeld: reading atomic densities from disk.

 Charges (in A.U.) from CM5PAC (Nov. 11, 2011)
 -----------------------------------------------
 Center     Atomic      CM5         Hirshfeld
 Number     Number      Charge      Charge
 -----------------------------------------------
    1          7       -0.618945   -0.170725
    2          6        0.092952    0.037959
    3          6       -0.138569   -0.090787
    4          6       -0.114293   -0.059511
    5          6       -0.134141   -0.082545
    6          6       -0.045988   -0.044409
    7          6        0.089808    0.059187
    8          8       -0.400836   -0.353846
    9          6       -0.041170   -0.039597
   10          6       -0.097985   -0.049955
   11          6       -0.002847    0.001009
   12         17       -0.073344   -0.072463
   13          6       -0.004020   -0.000156
   14         17       -0.073937   -0.073047
   15          6       -0.097167   -0.049160
   16          6       -0.040656   -0.039152
   17          6        0.093684    0.063240
   18          8       -0.381218   -0.319756
   19          6       -0.054320   -0.059299
   20          1        0.283229    0.075494
   21          1        0.301674    0.110651
   22          1        0.087409    0.028586
   23          1        0.090047    0.034436
   24          1        0.081043    0.019419
   25          1        0.098596    0.036313
   26          1        0.099066    0.036185
 -----------------------------------------------

 Dipole moment (in Debye)
 -----------------------------------------------
                 X        Y        Z     Total
 -----------------------------------------------
 CM5         -4.1711   1.4248   2.2090   4.9303
 Hirshfeld   -3.5260   0.9186   2.3130   4.3159
 -----------------------------------------------

   17   -1663.6474379615      1.15e-08  
   18   -1663.6474380740      7.84e-09  Convergence criterion met
 ---------------------------------------
 SCF time:   CPU 5624.03s  wall 718.00s 
<S^2> =          0.759667613
(1)  E-EN(liq) elect-nuc energy of solute              -1663.647438074 a.u.
(2)  G-P(liq) polarization free energy of solvation           -42.8248 kcal/mol
(3)  G-ENP(liq) elect-nuc-pol free energy of system    -1663.715683694 a.u.
(4)  G-CDS(liq) cavity-dispersion-solvent structure 
     free energy                                               -9.1007 kcal/mol
(5)  G-P-CDS(liq) = G-P(liq) + G-CDS(liq) = (2) + (4)         -51.9254 kcal/mol
(6)  G-S(liq) free energy of system = (1) + (5)        -1663.730186540 a.u.
 SCF   energy in the final basis set =    -1663.7301865398
 Total energy in the final basis set =    -1663.7301865398
 
 --------------------------------------------------------------
 
                    Orbital Energies (a.u.)
 --------------------------------------------------------------
 
 Alpha MOs
 -- Occupied --
********-101.5632 -19.0866 -19.0800 -14.3145 -10.2510 -10.2504 -10.2378
-10.2302 -10.2275 -10.1934 -10.1931 -10.1890 -10.1878 -10.1842 -10.1827
-10.1826 -10.1741 -10.1675  -9.4773  -9.4771  -7.2419  -7.2418  -7.2323
 -7.2321  -7.2317  -7.2314  -1.0134  -1.0071  -0.9223  -0.9186  -0.8630
 -0.8562  -0.8405  -0.7855  -0.7632  -0.7407  -0.7377  -0.6748  -0.6494
 -0.6302  -0.6066  -0.5708  -0.5518  -0.5364  -0.5077  -0.4945  -0.4854
 -0.4780  -0.4577  -0.4532  -0.4464  -0.4392  -0.4279  -0.4183  -0.4126
 -0.4106  -0.4021  -0.3895  -0.3778  -0.3741  -0.3639  -0.3563  -0.3522
 -0.3342  -0.3272  -0.3170  -0.3141  -0.2726  -0.2674  -0.2550  -0.2544
 -0.2439  -0.2198  -0.1481
 -- Virtual --
 -0.0629  -0.0367  -0.0273  -0.0246  -0.0175  -0.0160  -0.0115  -0.0039
 -0.0013   0.0136   0.0217   0.0240   0.0249   0.0290   0.0327   0.0396
  0.0438   0.0445   0.0508   0.0566   0.0611   0.0659   0.0686   0.0705
  0.0763   0.0780   0.0843   0.0889   0.0916   0.0924   0.0932   0.0956
  0.1021   0.1064   0.1083   0.1087   0.1154   0.1204   0.1242   0.1249
  0.1280   0.1295   0.1352   0.1469   0.1499   0.1520   0.1545   0.1618
  0.1641   0.1673   0.1688   0.1736   0.1762   0.1830   0.1850   0.1930
  0.1962   0.2000   0.2058   0.2134   0.2143   0.2182   0.2224   0.2235
  0.2273   0.2335   0.2342   0.2375   0.2422   0.2439   0.2480   0.2543
  0.2566   0.2576   0.2680   0.2719   0.2769   0.2793   0.2833   0.2894
  0.2915   0.2974   0.2994   0.3016   0.3092   0.3097   0.3147   0.3193
  0.3250   0.3327   0.3356   0.3389   0.3463   0.3520   0.3546   0.3642
  0.3817   0.3856   0.3880   0.3954   0.4082   0.4221   0.4288   0.4404
  0.4480   0.4546   0.4581   0.4627   0.4759   0.4857   0.4978   0.5079
  0.5179   0.5279   0.5327   0.5402   0.5446   0.5496   0.5571   0.5659
  0.5757   0.5856   0.5906   0.5932   0.5992   0.6091   0.6158   0.6182
  0.6247   0.6346   0.6384   0.6442   0.6485   0.6592   0.6659   0.6696
  0.6786   0.6787   0.6837   0.6860   0.6938   0.7246   0.7259   0.7311
  0.7496   0.7601   0.7644   0.7826   0.7843   0.7908   0.7997   0.8058
  0.8264   0.8382   0.8444   0.8510   0.8529   0.8601   0.8610   0.8627
  0.8648   0.8823   0.8881   0.8948   0.9022   0.9118   0.9184   0.9226
  0.9246   0.9292   0.9333   0.9449   0.9456   0.9561   0.9618   0.9692
  0.9784   0.9811   0.9860   0.9966   1.0011   1.0096   1.0189   1.0310
  1.0416   1.0512   1.0634   1.0738   1.0919   1.1004   1.1102   1.1229
  1.1374   1.1601   1.1641   1.1797   1.1966   1.2090   1.2305   1.2404
  1.2505   1.2571   1.2649   1.2657   1.2757   1.2814   1.2859   1.2965
  1.3254   1.3385   1.3519   1.3741   1.3871   1.4257   1.4575   1.4736
  1.4783   1.4852   1.4949   1.5094   1.5128   1.5263   1.5450   1.5543
  1.5656   1.5703   1.5722   1.6012   1.6186   1.6240   1.6484   1.6723
  1.6879   1.6909   1.7005   1.7106   1.7306   1.7448   1.7467   1.7533
  1.7777   1.7841   1.8057   1.8140   1.8412   1.8570   1.8736   1.8826
  1.8995   1.9187   1.9258   1.9314   1.9384   1.9390   1.9566   1.9613
  1.9728   1.9804   1.9851   2.0086   2.0153   2.0281   2.0472   2.0488
  2.0861   2.1000   2.1283   2.1538   2.1666   2.1945   2.1976   2.2143
  2.2447   2.2659   2.2735   2.2891   2.3012   2.3148   2.3169   2.3290
  2.3692   2.3917   2.3997   2.4089   2.4443   2.4555   2.4745   2.5110
  2.5269   2.5514   2.5622   2.5977   2.6151   2.6236   2.6449   2.6511
  2.6622   2.6957   2.7012   2.7172   2.7247   2.7390   2.7550   2.7628
  2.7684   2.7751   2.7870   2.7905   2.7944   2.8072   2.8099   2.8286
  2.8419   2.8514   2.8690   2.8713   2.8844   2.8953   2.9365   2.9477
  2.9572   2.9846   3.0244   3.0289   3.0763   3.0854   3.1021   3.1101
  3.1279   3.1557   3.1767   3.2037   3.2201   3.2279   3.2658   3.3127
  3.3195   3.3264   3.3515   3.3637   3.4004   3.4200   3.4503   3.4882
  3.5186   3.5372   3.5468   3.5651   3.5860   3.6475   3.7379   3.7793
  3.8211   3.8461   3.8900   3.9511   4.0028   4.0528   4.1540   4.1867
  4.2695   4.3103   4.4606   4.7900   4.8240   4.8308   4.8560   5.0399
  5.0746   5.0893   5.2874   5.3556   5.7655   5.8461   9.7685   9.8033
 23.4519  23.6471  23.8598  23.8795  23.9154  23.9275  23.9373  23.9622
 23.9959  24.0261  24.0737  24.0842  24.1351  24.1844  25.7833  25.8733
 26.1219  26.2211  26.5162  26.8368  35.6739  50.0584  50.1121 215.7598
215.7990
 
 Beta MOs
 -- Occupied --
********-101.5632 -19.0814 -19.0742 -14.3143 -10.2505 -10.2497 -10.2362
-10.2288 -10.2276 -10.1935 -10.1932 -10.1879 -10.1868 -10.1841 -10.1824
-10.1818 -10.1732 -10.1672  -9.4773  -9.4771  -7.2419  -7.2418  -7.2322
 -7.2320  -7.2317  -7.2314  -1.0044  -0.9969  -0.9216  -0.9175  -0.8625
 -0.8534  -0.8393  -0.7823  -0.7612  -0.7386  -0.7357  -0.6680  -0.6481
 -0.6277  -0.6056  -0.5686  -0.5498  -0.5351  -0.5068  -0.4934  -0.4834
 -0.4762  -0.4568  -0.4522  -0.4459  -0.4307  -0.4264  -0.4142  -0.4084
 -0.4072  -0.4001  -0.3766  -0.3719  -0.3644  -0.3623  -0.3541  -0.3498
 -0.3340  -0.3205  -0.3140  -0.3092  -0.2611  -0.2550  -0.2501  -0.2483
 -0.2386  -0.2121
 -- Virtual --
 -0.0915  -0.0544  -0.0274  -0.0259  -0.0243  -0.0173  -0.0158  -0.0083
 -0.0039  -0.0012   0.0137   0.0221   0.0242   0.0258   0.0292   0.0367
  0.0424   0.0448   0.0463   0.0515   0.0614   0.0642   0.0685   0.0699
  0.0710   0.0777   0.0809   0.0844   0.0891   0.0920   0.0929   0.0937
  0.0969   0.1024   0.1067   0.1089   0.1091   0.1167   0.1206   0.1243
  0.1253   0.1281   0.1296   0.1354   0.1482   0.1513   0.1527   0.1563
  0.1621   0.1647   0.1687   0.1695   0.1743   0.1764   0.1832   0.1851
  0.1933   0.1986   0.2003   0.2065   0.2141   0.2162   0.2188   0.2232
  0.2243   0.2284   0.2343   0.2369   0.2396   0.2436   0.2445   0.2483
  0.2550   0.2572   0.2581   0.2685   0.2722   0.2777   0.2806   0.2841
  0.2903   0.2925   0.2981   0.3003   0.3051   0.3102   0.3117   0.3161
  0.3201   0.3263   0.3330   0.3365   0.3400   0.3471   0.3531   0.3553
  0.3650   0.3830   0.3873   0.3887   0.3962   0.4100   0.4235   0.4298
  0.4406   0.4492   0.4555   0.4593   0.4634   0.4761   0.4868   0.4989
  0.5083   0.5194   0.5291   0.5348   0.5422   0.5458   0.5512   0.5606
  0.5675   0.5772   0.5871   0.5916   0.5955   0.6005   0.6103   0.6166
  0.6190   0.6263   0.6369   0.6397   0.6457   0.6526   0.6600   0.6666
  0.6718   0.6794   0.6798   0.6862   0.6876   0.6950   0.7255   0.7289
  0.7322   0.7501   0.7606   0.7651   0.7843   0.7854   0.7918   0.8001
  0.8063   0.8273   0.8389   0.8453   0.8518   0.8535   0.8605   0.8615
  0.8632   0.8656   0.8830   0.8902   0.8955   0.9029   0.9126   0.9195
  0.9237   0.9257   0.9301   0.9345   0.9459   0.9465   0.9591   0.9631
  0.9703   0.9802   0.9831   0.9882   0.9980   1.0032   1.0105   1.0206
  1.0334   1.0446   1.0517   1.0666   1.0749   1.0953   1.1073   1.1122
  1.1269   1.1421   1.1623   1.1667   1.1851   1.1991   1.2103   1.2398
  1.2423   1.2569   1.2591   1.2668   1.2675   1.2773   1.2834   1.2872
  1.2983   1.3270   1.3405   1.3528   1.3764   1.3885   1.4273   1.4589
  1.4759   1.4800   1.4869   1.4956   1.5128   1.5135   1.5303   1.5459
  1.5555   1.5671   1.5715   1.5736   1.6018   1.6201   1.6251   1.6498
  1.6740   1.6904   1.6928   1.7039   1.7117   1.7318   1.7459   1.7482
  1.7550   1.7793   1.7877   1.8068   1.8169   1.8439   1.8597   1.8754
  1.8854   1.9015   1.9207   1.9270   1.9327   1.9407   1.9419   1.9584
  1.9631   1.9750   1.9819   1.9872   2.0098   2.0173   2.0295   2.0492
  2.0516   2.0883   2.1016   2.1293   2.1549   2.1683   2.1974   2.1990
  2.2160   2.2451   2.2679   2.2759   2.2898   2.3020   2.3171   2.3193
  2.3321   2.3725   2.3933   2.4010   2.4114   2.4450   2.4561   2.4752
  2.5115   2.5271   2.5531   2.5633   2.5986   2.6157   2.6283   2.6464
  2.6546   2.6641   2.6983   2.7032   2.7179   2.7251   2.7393   2.7564
  2.7672   2.7701   2.7760   2.7877   2.7916   2.7989   2.8083   2.8129
  2.8298   2.8457   2.8524   2.8739   2.8764   2.8917   2.9003   2.9413
  2.9580   2.9682   2.9929   3.0325   3.0342   3.0785   3.0888   3.1062
  3.1107   3.1292   3.1564   3.1810   3.2056   3.2208   3.2297   3.2673
  3.3144   3.3268   3.3338   3.3647   3.3666   3.4019   3.4209   3.4511
  3.4891   3.5207   3.5387   3.5493   3.5665   3.5877   3.6491   3.7393
  3.7804   3.8225   3.8504   3.8912   3.9532   4.0043   4.0541   4.1554
  4.1878   4.2722   4.3135   4.4637   4.7927   4.8259   4.8320   4.8572
  5.0404   5.0974   5.1124   5.2923   5.3599   5.7703   5.8508   9.7686
  9.8034  23.4525  23.6477  23.8603  23.8806  23.9162  23.9286  23.9381
 23.9637  23.9966  24.0270  24.0744  24.0844  24.1354  24.1850  25.7834
 25.8735  26.1219  26.2211  26.5162  26.8368  35.6741  50.0639  50.1178
215.7598 215.7990
 --------------------------------------------------------------
 
          Ground-State Mulliken Net Atomic Charges

     Atom                 Charge (a.u.)    Spin (a.u.)
  --------------------------------------------------------
      1 N                    -0.238424       0.008177
      2 C                    -0.018976       0.026098
      3 C                     1.903376       0.088515
      4 C                     0.693453       0.029057
      5 C                    -0.489646       0.058508
      6 C                    -0.994024       0.031541
      7 C                    -2.291459       0.062828
      8 O                    -0.310907       0.221296
      9 C                    -1.832269       0.052575
     10 C                    -0.385635       0.026322
     11 C                     1.780364       0.029743
     12 Cl                    0.934989       0.002731
     13 C                     1.818355       0.045525
     14 Cl                    0.939090       0.003401
     15 C                     0.194311       0.028298
     16 C                    -0.937481       0.070740
     17 C                    -2.361308       0.059163
     18 O                    -0.254672       0.195928
     19 C                    -1.112121      -0.022317
     20 H                     0.276786      -0.003181
     21 H                     0.396657      -0.000695
     22 H                     0.310445      -0.006072
     23 H                     0.345629      -0.002250
     24 H                     0.114951      -0.003935
     25 H                     0.243132      -0.001732
     26 H                     0.275382      -0.000264
  --------------------------------------------------------
  Sum of atomic charges =    -1.000000
  Sum of spin   charges =     1.000000

 -----------------------------------------------------------------
                    Cartesian Multipole Moments
 -----------------------------------------------------------------
    Charge (ESU x 10^10)
                -4.8032
    Dipole Moment (Debye)
         X      -5.0141      Y       1.4872      Z       2.4140
       Tot       5.7602
    Quadrupole Moments (Debye-Ang)
        XX    -151.4493     XY      -2.1611     YY    -130.8861
        XZ      -2.4689     YZ      -3.2976     ZZ    -152.9784
    Octopole Moments (Debye-Ang^2)
       XXX    -563.8153    XXY      24.7102    XYY    -131.8479
       YYY      24.6739    XXZ      13.1972    XYZ     -13.7752
       YYZ       9.6442    XZZ    -154.3442    YZZ      23.0093
       ZZZ      46.1602
    Hexadecapole Moments (Debye-Ang^3)
      XXXX   -8462.0529   XXXY     130.8773   XXYY   -1407.6020
      XYYY     155.7273   YYYY    -271.2081   XXXZ     -49.6064
      XXYZ     -26.6636   XYYZ     -10.5453   YYYZ    -217.8181
      XXZZ   -1617.0454   XYZZ      28.8313   YYZZ    -384.4325
      XZZZ       2.7930   YZZZ    -232.9965   ZZZZ   -2153.6429
 -----------------------------------------------------------------
 Total job time:  763.29s(wall), 5631.25s(cpu) 
 Sat Feb  3 11:36:10 2024

        *************************************************************
        *                                                           *
        *  Thank you very much for using Q-Chem.  Have a nice day.  *
        *                                                           *
        *************************************************************


