 Entering Gaussian System, Link 0=g16
 Input=231-rad-PCM.com
 Output=231-rad-PCM.log
 Initial command:
 /sysapps/ubuntu-applications/gaussian/Gaussian/AVX2/g16/l1.exe "/scratch/selhajj1/4304471/Gau-672950.inp" -scrdir="/scratch/selhajj1/4304471/"
 Entering Link 1 = /sysapps/ubuntu-applications/gaussian/Gaussian/AVX2/g16/l1.exe PID=    672955.
  
 Copyright (c) 1988,1990,1992,1993,1995,1998,2003,2009,2016,
            Gaussian, Inc.  All Rights Reserved.
  
 This is part of the Gaussian(R) 16 program.  It is based on
 the Gaussian(R) 09 system (copyright 2009, Gaussian, Inc.),
 the Gaussian(R) 03 system (copyright 2003, Gaussian, Inc.),
 the Gaussian(R) 98 system (copyright 1998, Gaussian, Inc.),
 the Gaussian(R) 94 system (copyright 1995, Gaussian, Inc.),
 the Gaussian 92(TM) system (copyright 1992, Gaussian, Inc.),
 the Gaussian 90(TM) system (copyright 1990, Gaussian, Inc.),
 the Gaussian 88(TM) system (copyright 1988, Gaussian, Inc.),
 the Gaussian 86(TM) system (copyright 1986, Carnegie Mellon
 University), and the Gaussian 82(TM) system (copyright 1983,
 Carnegie Mellon University). Gaussian is a federally registered
 trademark of Gaussian, Inc.
  
 This software contains proprietary and confidential information,
 including trade secrets, belonging to Gaussian, Inc.
  
 This software is provided under written license and may be
 used, copied, transmitted, or stored only in accord with that
 written license.
  
 The following legend is applicable only to US Government
 contracts under FAR:
  
                    RESTRICTED RIGHTS LEGEND
  
 Use, reproduction and disclosure by the US Government is
 subject to restrictions as set forth in subparagraphs (a)
 and (c) of the Commercial Computer Software - Restricted
 Rights clause in FAR 52.227-19.
  
 Gaussian, Inc.
 340 Quinnipiac St., Bldg. 40, Wallingford CT 06492
  
  
 ---------------------------------------------------------------
 Warning -- This program may not be used in any manner that
 competes with the business of Gaussian, Inc. or will provide
 assistance to any competitor of Gaussian, Inc.  The licensee
 of this program is prohibited from giving any competitor of
 Gaussian, Inc. access to this program.  By using this program,
 the user acknowledges that Gaussian, Inc. is engaged in the
 business of creating and licensing software in the field of
 computational chemistry and represents and warrants to the
 licensee that it is not a competitor of Gaussian, Inc. and that
 it will not use this program in any manner prohibited above.
 ---------------------------------------------------------------
  

 Cite this work as:
 Gaussian 16, Revision A.03,
 M. J. Frisch, G. W. Trucks, H. B. Schlegel, G. E. Scuseria, 
 M. A. Robb, J. R. Cheeseman, G. Scalmani, V. Barone, 
 G. A. Petersson, H. Nakatsuji, X. Li, M. Caricato, A. V. Marenich, 
 J. Bloino, B. G. Janesko, R. Gomperts, B. Mennucci, H. P. Hratchian, 
 J. V. Ortiz, A. F. Izmaylov, J. L. Sonnenberg, D. Williams-Young, 
 F. Ding, F. Lipparini, F. Egidi, J. Goings, B. Peng, A. Petrone, 
 T. Henderson, D. Ranasinghe, V. G. Zakrzewski, J. Gao, N. Rega, 
 G. Zheng, W. Liang, M. Hada, M. Ehara, K. Toyota, R. Fukuda, 
 J. Hasegawa, M. Ishida, T. Nakajima, Y. Honda, O. Kitao, H. Nakai, 
 T. Vreven, K. Throssell, J. A. Montgomery, Jr., J. E. Peralta, 
 F. Ogliaro, M. J. Bearpark, J. J. Heyd, E. N. Brothers, K. N. Kudin, 
 V. N. Staroverov, T. A. Keith, R. Kobayashi, J. Normand, 
 K. Raghavachari, A. P. Rendell, J. C. Burant, S. S. Iyengar, 
 J. Tomasi, M. Cossi, J. M. Millam, M. Klene, C. Adamo, R. Cammi, 
 J. W. Ochterski, R. L. Martin, K. Morokuma, O. Farkas, 
 J. B. Foresman, and D. J. Fox, Gaussian, Inc., Wallingford CT, 2016.
 
 ******************************************
 Gaussian 16:  ES64L-G16RevA.03 25-Dec-2016
                21-Jan-2024 
 ******************************************
 %chk=231-rad-PCM.chk
 %nproc=8
 Will use up to    8 processors via shared memory.
 %mem=30GB
 ----------------------------------------------------------------
 #P UB3LYP/6-311++G(d,p) SCRF=(PCM,Solvent=n,n-DiMethylFormamide)
 ----------------------------------------------------------------
 1/38=1,172=1/1;
 2/12=2,17=6,18=5,40=1/2;
 3/5=4,6=6,7=1111,11=2,25=1,30=1,70=2201,72=148,74=-5,116=2/1,2,3;
 4//1;
 5/5=2,38=5,53=148/2;
 6/7=2,8=2,9=2,10=2,28=1/1;
 99/5=1,9=1/99;
 Leave Link    1 at Sun Jan 21 08:10:55 2024, MaxMem=  4026531840 cpu:               0.6 elap:               0.1
 (Enter /sysapps/ubuntu-applications/gaussian/Gaussian/AVX2/g16/l101.exe)
 ------------------
 Radical PCM in DMF
 ------------------
 Symbolic Z-matrix:
 Charge = -1 Multiplicity = 2
 C                     5.91038  -5.21095   1.07225 
 C                     6.7834   -5.0769    0.00773 
 C                     6.55311  -4.09005  -0.96921 
 C                     4.78676  -4.37112   1.19666 
 C                     4.55531  -3.37911   0.21466 
 C                     5.45434  -3.25661  -0.86239 
 C                     3.88457  -4.55253   2.34915 
 C                     2.75909  -3.64263   2.38977 
 C                     2.53239  -2.67075   1.42778 
 C                     3.39817  -2.46747   0.28525 
 O                     4.09131  -5.42967   3.21602 
 O                     3.1959   -1.59113  -0.58349 
 H                     6.06121  -5.96108   1.83982 
 H                     7.64544  -5.73206  -0.07443 
 H                     5.25062  -2.48768  -1.59848 
 Cl                    1.66871  -3.83781   3.75339 
 H                     7.23735  -3.98333  -1.80558 
 Cl                    1.14609  -1.59694   1.53539 
 
 ITRead=  0  0  0  0  0  0  0  0  0  0  0  0  0  0  0  0  0  0
 MicOpt= -1 -1 -1 -1 -1 -1 -1 -1 -1 -1 -1 -1 -1 -1 -1 -1 -1 -1
 NAtoms=     18 NQM=       18 NQMF=       0 NMMI=      0 NMMIF=      0
                NMic=       0 NMicF=      0.
                    Isotopes and Nuclear Properties:
 (Nuclear quadrupole moments (NQMom) in fm**2, nuclear magnetic moments (NMagM)
  in nuclear magnetons)

  Atom         1           2           3           4           5           6           7           8           9          10
 IAtWgt=          12          12          12          12          12          12          12          12          12          12
 AtmWgt=  12.0000000  12.0000000  12.0000000  12.0000000  12.0000000  12.0000000  12.0000000  12.0000000  12.0000000  12.0000000
 NucSpn=           0           0           0           0           0           0           0           0           0           0
 AtZEff=  -0.0000000  -0.0000000  -0.0000000  -0.0000000  -0.0000000  -0.0000000  -0.0000000  -0.0000000  -0.0000000  -0.0000000
 NQMom=    0.0000000   0.0000000   0.0000000   0.0000000   0.0000000   0.0000000   0.0000000   0.0000000   0.0000000   0.0000000
 NMagM=    0.0000000   0.0000000   0.0000000   0.0000000   0.0000000   0.0000000   0.0000000   0.0000000   0.0000000   0.0000000
 AtZNuc=   6.0000000   6.0000000   6.0000000   6.0000000   6.0000000   6.0000000   6.0000000   6.0000000   6.0000000   6.0000000

  Atom        11          12          13          14          15          16          17          18
 IAtWgt=          16          16           1           1           1          35           1          35
 AtmWgt=  15.9949146  15.9949146   1.0078250   1.0078250   1.0078250  34.9688527   1.0078250  34.9688527
 NucSpn=           0           0           1           1           1           3           1           3
 AtZEff=  -0.0000000  -0.0000000  -0.0000000  -0.0000000  -0.0000000  -0.0000000  -0.0000000  -0.0000000
 NQMom=    0.0000000   0.0000000   0.0000000   0.0000000   0.0000000  -8.1650000   0.0000000  -8.1650000
 NMagM=    0.0000000   0.0000000   2.7928460   2.7928460   2.7928460   0.8218740   2.7928460   0.8218740
 AtZNuc=   8.0000000   8.0000000   1.0000000   1.0000000   1.0000000  17.0000000   1.0000000  17.0000000
 Leave Link  101 at Sun Jan 21 08:10:55 2024, MaxMem=  4026531840 cpu:               1.4 elap:               0.3
 (Enter /sysapps/ubuntu-applications/gaussian/Gaussian/AVX2/g16/l202.exe)
                          Input orientation:                          
 ---------------------------------------------------------------------
 Center     Atomic      Atomic             Coordinates (Angstroms)
 Number     Number       Type             X           Y           Z
 ---------------------------------------------------------------------
      1          6           0        5.910384   -5.210952    1.072255
      2          6           0        6.783400   -5.076897    0.007733
      3          6           0        6.553107   -4.090049   -0.969207
      4          6           0        4.786756   -4.371122    1.196659
      5          6           0        4.555306   -3.379110    0.214664
      6          6           0        5.454340   -3.256607   -0.862389
      7          6           0        3.884569   -4.552533    2.349145
      8          6           0        2.759093   -3.642627    2.389772
      9          6           0        2.532385   -2.670746    1.427783
     10          6           0        3.398167   -2.467465    0.285253
     11          8           0        4.091315   -5.429672    3.216024
     12          8           0        3.195896   -1.591126   -0.583492
     13          1           0        6.061213   -5.961078    1.839815
     14          1           0        7.645443   -5.732056   -0.074431
     15          1           0        5.250622   -2.487682   -1.598482
     16         17           0        1.668713   -3.837810    3.753386
     17          1           0        7.237352   -3.983331   -1.805581
     18         17           0        1.146090   -1.596938    1.535394
 ---------------------------------------------------------------------
                    Distance matrix (angstroms):
                    1          2          3          4          5
     1  C    0.000000
     2  C    1.383233   0.000000
     3  C    2.416006   1.407592   0.000000
     4  C    1.408308   2.428631   2.808910   0.000000
     5  C    2.434614   2.808862   2.428620   1.414910   0.000000
     6  C    2.787524   2.415982   1.383230   2.434644   1.408301
     7  C    2.483524   3.763029   4.283275   1.474814   2.526424
     8  C    3.758474   4.891450   5.086990   2.462852   2.833181
     9  C    4.241453   5.086967   4.891440   2.833176   2.462853
    10  C    3.802279   4.283218   3.762990   2.526411   1.474805
    11  O    2.820035   4.202964   5.036980   2.383695   3.664458
    12  O    4.817996   5.036897   4.202887   3.664444   2.383681
    13  H    1.083784   2.158670   3.410764   2.136785   3.402268
    14  H    2.144031   1.085865   2.165643   3.411730   3.894724
    15  H    3.870959   3.410773   2.158711   3.402254   2.136728
    16  Cl   5.202476   6.459511   6.798810   4.067366   4.589704
    17  H    3.398505   2.165656   1.085864   3.894772   3.411722
    18  Cl   5.997841   6.798759   6.459447   4.589694   4.067336
                    6          7          8          9         10
     6  C    0.000000
     7  C    3.802309   0.000000
     8  C    4.241452   1.447852   0.000000
     9  C    3.758449   2.493678   1.386136   0.000000
    10  C    2.483480   2.973844   2.493676   1.447852   0.000000
    11  O    4.818039   1.250438   2.377191   3.638646   4.224280
    12  O    2.819961   4.224282   3.638647   2.377194   1.250441
    13  H    3.870964   2.642195   4.072059   4.842384   4.659808
    14  H    3.398479   4.627004   5.857852   6.145863   5.369011
    15  H    1.083780   4.659771   4.842291   4.071929   2.642055
    16  Cl   5.997845   2.718959   1.756835   2.741605   4.110572
    17  H    2.144031   5.369068   6.145882   5.857835   4.626962
    18  Cl   5.202392   4.110596   2.741639   1.756832   2.718919
                   11         12         13         14         15
    11  O    0.000000
    12  O    5.474718   0.000000
    13  H    2.461065   5.760116   0.000000
    14  H    4.852871   6.099583   2.495310   0.000000
    15  H    5.760101   2.460877   4.954132   4.310900   0.000000
    16  Cl   2.948183   5.117459   5.240618   7.345860   6.579925
    17  H    6.099669   4.852784   4.310881   2.494285   2.495386
    18  Cl   5.117491   2.948121   6.580032   7.869709   5.240399
                   16         17         18
    16  Cl   0.000000
    17  H    7.869754   0.000000
    18  Cl   3.195955   7.345778   0.000000
 Stoichiometry    C10H4Cl2O2(1-,2)
 Framework group  C1[X(C10H4Cl2O2)]
 Deg. of freedom    48
 Full point group                 C1      NOp   1
 Largest Abelian subgroup         C1      NOp   1
 Largest concise Abelian subgroup C1      NOp   1
                         Standard orientation:                         
 ---------------------------------------------------------------------
 Center     Atomic      Atomic             Coordinates (Angstroms)
 Number     Number       Type             X           Y           Z
 ---------------------------------------------------------------------
      1          6           0        2.514613    1.393769   -0.000080
      2          6           0        3.713469    0.703784   -0.000054
      3          6           0        3.713468   -0.703808    0.000060
      4          6           0        1.284840    0.707482    0.000042
      5          6           0        1.284851   -0.707428    0.000100
      6          6           0        2.514595   -1.393754    0.000090
      7          6           0        0.032837    1.486946    0.000202
      8          6           0       -1.177970    0.693082    0.000045
      9          6           0       -1.177960   -0.693054    0.000036
     10          6           0        0.032861   -1.486897    0.000220
     11          8           0        0.035238    2.737382   -0.000250
     12          8           0        0.035286   -2.737335   -0.000259
     13          1           0        2.482498    2.477077   -0.000170
     14          1           0        4.653622    1.247120   -0.000114
     15          1           0        2.482360   -2.477055    0.000129
     16         17           0       -2.683855    1.597946    0.000062
     17          1           0        4.653609   -1.247165    0.000081
     18         17           0       -2.683786   -1.598010   -0.000051
 ---------------------------------------------------------------------
 Rotational constants (GHZ):           0.8883329           0.4537148           0.3003245
 Leave Link  202 at Sun Jan 21 08:10:55 2024, MaxMem=  4026531840 cpu:               0.4 elap:               0.1
 (Enter /sysapps/ubuntu-applications/gaussian/Gaussian/AVX2/g16/l301.exe)
 Standard basis: 6-311++G(d,p) (5D, 7F)
 Ernie: Thresh=  0.10000D-02 Tol=  0.10000D-05 Strict=F.
 There are   366 symmetry adapted cartesian basis functions of A   symmetry.
 There are   352 symmetry adapted basis functions of A   symmetry.
   352 basis functions,   574 primitive gaussians,   366 cartesian basis functions
    58 alpha electrons       57 beta electrons
       nuclear repulsion energy      1018.0170287048 Hartrees.
 IExCor=  402 DFT=T Ex+Corr=B3LYP ExCW=0 ScaHFX=  0.200000
 ScaDFX=  0.800000  0.720000  1.000000  0.810000 ScalE2=  1.000000  1.000000
 IRadAn=      5 IRanWt=     -1 IRanGd=            0 ICorTp=0 IEmpDi=  4
 NAtoms=   18 NActive=   18 NUniq=   18 SFac= 1.00D+00 NAtFMM=   60 NAOKFM=F Big=F
 Integral buffers will be    131072 words long.
 Raffenetti 2 integral format.
 Two-electron integral symmetry is turned on.
 ------------------------------------------------------------------------------
 Polarizable Continuum Model (PCM)
 =================================
 Model                : PCM.
 Atomic radii         : UFF (Universal Force Field).
 Polarization charges : Total charges.
 Charge compensation  : None.
 Solution method      : On-the-fly selection.
 Cavity type          : Scaled VdW (van der Waals Surface) (Alpha=1.100).
 Cavity algorithm     : GePol (No added spheres)
                        Default sphere list used, NSphG=   18.
                        Lebedev-Laikov grids with approx.  5.0 points / Ang**2.
                        Smoothing algorithm: York/Karplus (Gamma=1.0000).
                        Polarization charges: spherical gaussians, with
                                              point-specific exponents (IZeta= 3).
                        Self-potential: point-specific (ISelfS= 7).
                        Self-field    : sphere-specific E.n sum rule (ISelfD= 2).
 Solvent              : n,n-DiMethylFormamide, Eps=  37.219000 Eps(inf)=   2.046330
 ------------------------------------------------------------------------------
 Spheres list:
 ISph  on   Nord     Re0    Alpha      Xe            Ye            Ze
    1   C      1    1.9255  1.100      2.514613      1.393769     -0.000080
    2   C      2    1.9255  1.100      3.713469      0.703784     -0.000054
    3   C      3    1.9255  1.100      3.713468     -0.703808      0.000060
    4   C      4    1.9255  1.100      1.284840      0.707482      0.000042
    5   C      5    1.9255  1.100      1.284851     -0.707428      0.000100
    6   C      6    1.9255  1.100      2.514595     -1.393754      0.000090
    7   C      7    1.9255  1.100      0.032837      1.486946      0.000202
    8   C      8    1.9255  1.100     -1.177970      0.693082      0.000045
    9   C      9    1.9255  1.100     -1.177960     -0.693054      0.000036
   10   C     10    1.9255  1.100      0.032861     -1.486897      0.000220
   11   O     11    1.7500  1.100      0.035238      2.737382     -0.000250
   12   O     12    1.7500  1.100      0.035286     -2.737335     -0.000259
   13   H     13    1.4430  1.100      2.482498      2.477077     -0.000170
   14   H     14    1.4430  1.100      4.653622      1.247120     -0.000114
   15   H     15    1.4430  1.100      2.482360     -2.477055      0.000129
   16  Cl     16    1.9735  1.100     -2.683855      1.597946      0.000062
   17   H     17    1.4430  1.100      4.653609     -1.247165      0.000081
   18  Cl     18    1.9735  1.100     -2.683786     -1.598010     -0.000051
 ------------------------------------------------------------------------------
 GePol: Number of generator spheres                  =      18
 GePol: Total number of spheres                      =      18
 GePol: Number of exposed spheres                    =      18 (100.00%)
 GePol: Number of points                             =    1698
 GePol: Average weight of points                     =       0.14
 GePol: Minimum weight of points                     =   0.41D-06
 GePol: Maximum weight of points                     =    0.21616
 GePol: Number of points with low weight             =      64
 GePol: Fraction of low-weight points (<1% of avg)   =       3.77%
 GePol: Cavity surface area                          =    243.026 Ang**2
 GePol: Cavity volume                                =    258.028 Ang**3
 Leave Link  301 at Sun Jan 21 08:10:56 2024, MaxMem=  4026531840 cpu:               0.8 elap:               0.2
 (Enter /sysapps/ubuntu-applications/gaussian/Gaussian/AVX2/g16/l302.exe)
 NPDir=0 NMtPBC=     1 NCelOv=     1 NCel=       1 NClECP=     1 NCelD=      1
         NCelK=      1 NCelE2=     1 NClLst=     1 CellRange=     0.0.
 One-electron integrals computed using PRISM.
 One-electron integral symmetry used in STVInt
 NBasis=   352 RedAO= T EigKep=  1.35D-06  NBF=   352
 NBsUse=   349 1.00D-06 EigRej=  9.36D-07 NBFU=   349
 Precomputing XC quadrature grid using
 IXCGrd= 4 IRadAn=           5 IRanWt=          -1 IRanGd=           0 AccXCQ= 0.00D+00.
 Generated NRdTot=       0 NPtTot=           0 NUsed=           0 NTot=          32
 NSgBfM=   363   363   363   363   363 MxSgAt=    18 MxSgA2=    18.
 Leave Link  302 at Sun Jan 21 08:10:59 2024, MaxMem=  4026531840 cpu:              13.4 elap:               3.4
 (Enter /sysapps/ubuntu-applications/gaussian/Gaussian/AVX2/g16/l303.exe)
 DipDrv:  MaxL=1.
 Leave Link  303 at Sun Jan 21 08:10:59 2024, MaxMem=  4026531840 cpu:               1.0 elap:               0.3
 (Enter /sysapps/ubuntu-applications/gaussian/Gaussian/AVX2/g16/l401.exe)
 ExpMin= 3.60D-02 ExpMax= 1.06D+05 ExpMxC= 3.62D+03 IAcc=3 IRadAn=         5 AccDes= 0.00D+00
 Harris functional with IExCor=  402 and IRadAn=       5 diagonalized for initial guess.
 HarFok:  IExCor=  402 AccDes= 0.00D+00 IRadAn=         5 IDoV= 1 UseB2=F ITyADJ=14
 ICtDFT=  3500011 ScaDFX=  1.000000  1.000000  1.000000  1.000000
 FoFCou: FMM=F IPFlag=           0 FMFlag=      100000 FMFlg1=           0
         NFxFlg=           0 DoJE=T BraDBF=F KetDBF=T FulRan=T
         wScrn=  0.000000 ICntrl=       500 IOpCl=  0 I1Cent=   200000004 NGrid=           0
         NMat0=    1 NMatS0=      1 NMatT0=    0 NMatD0=    1 NMtDS0=    0 NMtDT0=    0
 Petite list used in FoFCou.
 Harris En= -1454.59559776152    
 JPrj=0 DoOrth=F DoCkMO=F.
 Initial guess <Sx>= 0.0000 <Sy>= 0.0000 <Sz>= 0.5000 <S**2>= 0.7500 S= 0.5000
 Leave Link  401 at Sun Jan 21 08:11:02 2024, MaxMem=  4026531840 cpu:              20.0 elap:               2.6
 (Enter /sysapps/ubuntu-applications/gaussian/Gaussian/AVX2/g16/l502.exe)
 Integral symmetry usage will be decided dynamically.
 UHF open shell SCF:
 Using DIIS extrapolation, IDIIS=  1040.
 NGot=  4026531840 LenX=  4026257640 LenY=  4026123243
 Requested convergence on RMS density matrix=1.00D-08 within 128 cycles.
 Requested convergence on MAX density matrix=1.00D-06.
 Requested convergence on             energy=1.00D-06.
 No special actions if energy rises.
 Fock matrices will be formed incrementally for  20 cycles.

 Cycle   1  Pass 1  IDiag  1:
 FoFJK:  IHMeth= 1 ICntrl=       0 DoSepK=F KAlg= 0 I1Cent=           0 FoldK=F
 IRaf= 870000000 NMat=       1 IRICut=       1 DoRegI=T DoRafI=F ISym2E= 0 IDoP0=0 IntGTp=1.
 FoFCou: FMM=F IPFlag=           0 FMFlag=      100000 FMFlg1=           0
         NFxFlg=           0 DoJE=F BraDBF=F KetDBF=F FulRan=T
         wScrn=  0.000000 ICntrl=         0 IOpCl=  1 I1Cent=           0 NGrid=           0
         NMat0=    1 NMatS0=      1 NMatT0=    0 NMatD0=    1 NMtDS0=    0 NMtDT0=    0
 Symmetry not used in FoFCou.
 Inv3:  Mode=1 IEnd=     8649612.
 Iteration    1 A*A^-1 deviation from unit magnitude is 3.00D-15 for    382.
 Iteration    1 A*A^-1 deviation from orthogonality  is 3.16D-15 for   1186     24.
 Iteration    1 A^-1*A deviation from unit magnitude is 3.11D-15 for    382.
 Iteration    1 A^-1*A deviation from orthogonality  is 2.22D-15 for   1551   1352.
 E= -1454.26293759166    
 DIIS: error= 4.26D-02 at cycle   1 NSaved=   1.
 NSaved= 1 IEnMin= 1 EnMin= -1454.26293759166     IErMin= 1 ErrMin= 4.26D-02
 ErrMax= 4.26D-02  0.00D+00 EMaxC= 1.00D-01 BMatC= 1.96D+00 BMatP= 1.96D+00
 IDIUse=3 WtCom= 5.74D-01 WtEn= 4.26D-01
 Coeff-Com:  0.100D+01
 Coeff-En:   0.100D+01
 Coeff:      0.100D+01
 Gap=     0.146 Goal=   None    Shift=    0.000
 Gap=     0.275 Goal=   None    Shift=    0.000
 GapD=    0.146 DampG=1.000 DampE=0.500 DampFc=0.5000 IDamp=-1.
 Damping current iteration by 5.00D-01
 RMSDP=1.04D-01 MaxDP=1.44D+01              OVMax= 4.95D-01

 Cycle   2  Pass 1  IDiag  1:
 RMSU=  5.14D-02    CP:  1.07D+00
 E= -1454.34394427196     Delta-E=       -0.081006680298 Rises=F Damp=T
 DIIS: error= 1.99D-02 at cycle   2 NSaved=   2.
 NSaved= 2 IEnMin= 2 EnMin= -1454.34394427196     IErMin= 2 ErrMin= 1.99D-02
 ErrMax= 1.99D-02  0.00D+00 EMaxC= 1.00D-01 BMatC= 3.58D-01 BMatP= 1.96D+00
 IDIUse=3 WtCom= 8.01D-01 WtEn= 1.99D-01
 Coeff-Com:  0.218D+00 0.782D+00
 Coeff-En:   0.391D+00 0.609D+00
 Coeff:      0.253D+00 0.747D+00
 Gap=     0.156 Goal=   None    Shift=    0.000
 Gap=     0.179 Goal=   None    Shift=    0.000
 RMSDP=4.62D-02 MaxDP=6.11D+00 DE=-8.10D-02 OVMax= 3.35D-01

 Cycle   3  Pass 1  IDiag  1:
 RMSU=  1.25D-02    CP:  9.98D-01  1.47D-01
 E= -1454.59775596221     Delta-E=       -0.253811690250 Rises=F Damp=F
 DIIS: error= 2.22D-02 at cycle   3 NSaved=   3.
 NSaved= 3 IEnMin= 3 EnMin= -1454.59775596221     IErMin= 2 ErrMin= 1.99D-02
 ErrMax= 2.22D-02  0.00D+00 EMaxC= 1.00D-01 BMatC= 2.75D-01 BMatP= 3.58D-01
 IDIUse=3 WtCom= 7.78D-01 WtEn= 2.22D-01
 Coeff-Com:  0.348D-01 0.460D+00 0.505D+00
 Coeff-En:   0.000D+00 0.000D+00 0.100D+01
 Coeff:      0.271D-01 0.358D+00 0.615D+00
 Gap=     0.120 Goal=   None    Shift=    0.000
 Gap=     0.149 Goal=   None    Shift=    0.000
 RMSDP=1.02D-02 MaxDP=5.96D-01 DE=-2.54D-01 OVMax= 1.18D-01

 Cycle   4  Pass 1  IDiag  1:
 RMSU=  6.18D-03    CP:  9.52D-01  1.85D-01  5.05D-01
 E= -1454.62735014500     Delta-E=       -0.029594182785 Rises=F Damp=F
 DIIS: error= 1.60D-02 at cycle   4 NSaved=   4.
 NSaved= 4 IEnMin= 4 EnMin= -1454.62735014500     IErMin= 4 ErrMin= 1.60D-02
 ErrMax= 1.60D-02  0.00D+00 EMaxC= 1.00D-01 BMatC= 1.37D-01 BMatP= 2.75D-01
 IDIUse=3 WtCom= 8.40D-01 WtEn= 1.60D-01
 Coeff-Com: -0.771D-02 0.599D-01 0.422D+00 0.526D+00
 Coeff-En:   0.000D+00 0.000D+00 0.370D+00 0.630D+00
 Coeff:     -0.647D-02 0.503D-01 0.413D+00 0.543D+00
 Gap=     0.123 Goal=   None    Shift=    0.000
 Gap=     0.147 Goal=   None    Shift=    0.000
 RMSDP=4.99D-03 MaxDP=2.43D-01 DE=-2.96D-02 OVMax= 5.26D-02

 Cycle   5  Pass 1  IDiag  1:
 RMSU=  1.52D-03    CP:  9.47D-01  1.67D-01  7.88D-01  5.17D-01
 E= -1454.65682472411     Delta-E=       -0.029474579115 Rises=F Damp=F
 DIIS: error= 1.58D-03 at cycle   5 NSaved=   5.
 NSaved= 5 IEnMin= 5 EnMin= -1454.65682472411     IErMin= 5 ErrMin= 1.58D-03
 ErrMax= 1.58D-03  0.00D+00 EMaxC= 1.00D-01 BMatC= 2.01D-03 BMatP= 1.37D-01
 IDIUse=3 WtCom= 9.84D-01 WtEn= 1.58D-02
 Coeff-Com: -0.316D-02 0.751D-02 0.173D+00 0.260D+00 0.562D+00
 Coeff-En:   0.000D+00 0.000D+00 0.000D+00 0.000D+00 0.100D+01
 Coeff:     -0.311D-02 0.739D-02 0.171D+00 0.256D+00 0.569D+00
 Gap=     0.125 Goal=   None    Shift=    0.000
 Gap=     0.143 Goal=   None    Shift=    0.000
 RMSDP=1.10D-03 MaxDP=7.65D-02 DE=-2.95D-02 OVMax= 1.06D-02

 Cycle   6  Pass 1  IDiag  1:
 RMSU=  6.97D-04    CP:  9.42D-01  1.60D-01  7.63D-01  6.06D-01  8.94D-01
 E= -1454.65726689736     Delta-E=       -0.000442173245 Rises=F Damp=F
 DIIS: error= 7.43D-04 at cycle   6 NSaved=   6.
 NSaved= 6 IEnMin= 6 EnMin= -1454.65726689736     IErMin= 6 ErrMin= 7.43D-04
 ErrMax= 7.43D-04  0.00D+00 EMaxC= 1.00D-01 BMatC= 3.90D-04 BMatP= 2.01D-03
 IDIUse=3 WtCom= 9.93D-01 WtEn= 7.43D-03
 Coeff-Com:  0.273D-04-0.664D-02 0.359D-01 0.651D-01 0.322D+00 0.583D+00
 Coeff-En:   0.000D+00 0.000D+00 0.000D+00 0.000D+00 0.128D+00 0.872D+00
 Coeff:      0.271D-04-0.659D-02 0.356D-01 0.647D-01 0.321D+00 0.586D+00
 Gap=     0.124 Goal=   None    Shift=    0.000
 Gap=     0.144 Goal=   None    Shift=    0.000
 RMSDP=5.06D-04 MaxDP=5.09D-02 DE=-4.42D-04 OVMax= 5.89D-03

 Cycle   7  Pass 1  IDiag  1:
 RMSU=  2.84D-04    CP:  9.45D-01  1.59D-01  7.58D-01  5.80D-01  9.63D-01
                    CP:  6.58D-01
 E= -1454.65738046151     Delta-E=       -0.000113564155 Rises=F Damp=F
 DIIS: error= 2.68D-04 at cycle   7 NSaved=   7.
 NSaved= 7 IEnMin= 7 EnMin= -1454.65738046151     IErMin= 7 ErrMin= 2.68D-04
 ErrMax= 2.68D-04  0.00D+00 EMaxC= 1.00D-01 BMatC= 3.32D-05 BMatP= 3.90D-04
 IDIUse=3 WtCom= 9.97D-01 WtEn= 2.68D-03
 Coeff-Com:  0.116D-02-0.385D-02-0.116D-01-0.179D-01 0.123D-01 0.196D+00
 Coeff-Com:  0.823D+00
 Coeff-En:   0.000D+00 0.000D+00 0.000D+00 0.000D+00 0.000D+00 0.000D+00
 Coeff-En:   0.100D+01
 Coeff:      0.115D-02-0.384D-02-0.116D-01-0.178D-01 0.122D-01 0.196D+00
 Coeff:      0.824D+00
 Gap=     0.125 Goal=   None    Shift=    0.000
 Gap=     0.144 Goal=   None    Shift=    0.000
 RMSDP=9.86D-05 MaxDP=1.00D-02 DE=-1.14D-04 OVMax= 1.87D-03

 Cycle   8  Pass 1  IDiag  1:
 RMSU=  4.96D-05    CP:  9.45D-01  1.58D-01  7.58D-01  5.81D-01  9.63D-01
                    CP:  7.29D-01  9.75D-01
 E= -1454.65739376008     Delta-E=       -0.000013298565 Rises=F Damp=F
 DIIS: error= 1.46D-04 at cycle   8 NSaved=   8.
 NSaved= 8 IEnMin= 8 EnMin= -1454.65739376008     IErMin= 8 ErrMin= 1.46D-04
 ErrMax= 1.46D-04  0.00D+00 EMaxC= 1.00D-01 BMatC= 8.91D-06 BMatP= 3.32D-05
 IDIUse=3 WtCom= 9.99D-01 WtEn= 1.46D-03
 Coeff-Com:  0.694D-03-0.105D-02-0.105D-01-0.196D-01-0.475D-01-0.124D-01
 Coeff-Com:  0.356D+00 0.734D+00
 Coeff-En:   0.000D+00 0.000D+00 0.000D+00 0.000D+00 0.000D+00 0.000D+00
 Coeff-En:   0.000D+00 0.100D+01
 Coeff:      0.693D-03-0.105D-02-0.105D-01-0.196D-01-0.474D-01-0.124D-01
 Coeff:      0.356D+00 0.735D+00
 Gap=     0.125 Goal=   None    Shift=    0.000
 Gap=     0.144 Goal=   None    Shift=    0.000
 RMSDP=3.68D-05 MaxDP=2.25D-03 DE=-1.33D-05 OVMax= 1.06D-03

 Cycle   9  Pass 1  IDiag  1:
 RMSU=  2.32D-05    CP:  9.44D-01  1.58D-01  7.59D-01  5.80D-01  9.67D-01
                    CP:  7.59D-01  9.69D-01  1.09D+00
 E= -1454.65739708166     Delta-E=       -0.000003321586 Rises=F Damp=F
 DIIS: error= 6.39D-05 at cycle   9 NSaved=   9.
 NSaved= 9 IEnMin= 9 EnMin= -1454.65739708166     IErMin= 9 ErrMin= 6.39D-05
 ErrMax= 6.39D-05  0.00D+00 EMaxC= 1.00D-01 BMatC= 2.57D-06 BMatP= 8.91D-06
 IDIUse=1 WtCom= 1.00D+00 WtEn= 0.00D+00
 Coeff-Com:  0.528D-04 0.507D-03-0.256D-02-0.655D-02-0.316D-01-0.668D-01
 Coeff-Com: -0.525D-01 0.423D+00 0.737D+00
 Coeff:      0.528D-04 0.507D-03-0.256D-02-0.655D-02-0.316D-01-0.668D-01
 Coeff:     -0.525D-01 0.423D+00 0.737D+00
 Gap=     0.125 Goal=   None    Shift=    0.000
 Gap=     0.144 Goal=   None    Shift=    0.000
 RMSDP=3.47D-05 MaxDP=3.14D-03 DE=-3.32D-06 OVMax= 5.50D-04

 Cycle  10  Pass 1  IDiag  1:
 RMSU=  1.28D-05    CP:  9.45D-01  1.57D-01  7.59D-01  5.78D-01  9.68D-01
                    CP:  7.37D-01  9.90D-01  1.21D+00  1.15D+00
 E= -1454.65739811212     Delta-E=       -0.000001030460 Rises=F Damp=F
 DIIS: error= 2.71D-05 at cycle  10 NSaved=  10.
 NSaved=10 IEnMin=10 EnMin= -1454.65739811212     IErMin=10 ErrMin= 2.71D-05
 ErrMax= 2.71D-05  0.00D+00 EMaxC= 1.00D-01 BMatC= 3.25D-07 BMatP= 2.57D-06
 IDIUse=1 WtCom= 1.00D+00 WtEn= 0.00D+00
 Coeff-Com: -0.954D-04 0.392D-03 0.437D-03 0.145D-04-0.797D-02-0.274D-01
 Coeff-Com: -0.755D-01 0.900D-01 0.353D+00 0.667D+00
 Coeff:     -0.954D-04 0.392D-03 0.437D-03 0.145D-04-0.797D-02-0.274D-01
 Coeff:     -0.755D-01 0.900D-01 0.353D+00 0.667D+00
 Gap=     0.125 Goal=   None    Shift=    0.000
 Gap=     0.144 Goal=   None    Shift=    0.000
 RMSDP=1.62D-05 MaxDP=1.16D-03 DE=-1.03D-06 OVMax= 1.84D-04

 Cycle  11  Pass 1  IDiag  1:
 RMSU=  5.37D-06    CP:  9.45D-01  1.58D-01  7.58D-01  5.79D-01  9.67D-01
                    CP:  7.49D-01  9.89D-01  1.22D+00  1.24D+00  8.99D-01
 E= -1454.65739821691     Delta-E=       -0.000000104789 Rises=F Damp=F
 DIIS: error= 9.32D-06 at cycle  11 NSaved=  11.
 NSaved=11 IEnMin=11 EnMin= -1454.65739821691     IErMin=11 ErrMin= 9.32D-06
 ErrMax= 9.32D-06  0.00D+00 EMaxC= 1.00D-01 BMatC= 5.47D-08 BMatP= 3.25D-07
 IDIUse=1 WtCom= 1.00D+00 WtEn= 0.00D+00
 Coeff-Com: -0.623D-04 0.143D-03 0.529D-03 0.850D-03-0.265D-03-0.486D-02
 Coeff-Com: -0.316D-01-0.141D-01 0.811D-01 0.341D+00 0.627D+00
 Coeff:     -0.623D-04 0.143D-03 0.529D-03 0.850D-03-0.265D-03-0.486D-02
 Coeff:     -0.316D-01-0.141D-01 0.811D-01 0.341D+00 0.627D+00
 Gap=     0.125 Goal=   None    Shift=    0.000
 Gap=     0.144 Goal=   None    Shift=    0.000
 RMSDP=5.58D-06 MaxDP=3.35D-04 DE=-1.05D-07 OVMax= 9.18D-05

 Cycle  12  Pass 1  IDiag  1:
 RMSU=  1.68D-06    CP:  9.45D-01  1.58D-01  7.58D-01  5.78D-01  9.66D-01
                    CP:  7.44D-01  9.87D-01  1.24D+00  1.25D+00  9.69D-01
                    CP:  8.09D-01
 E= -1454.65739823344     Delta-E=       -0.000000016531 Rises=F Damp=F
 DIIS: error= 2.59D-06 at cycle  12 NSaved=  12.
 NSaved=12 IEnMin=12 EnMin= -1454.65739823344     IErMin=12 ErrMin= 2.59D-06
 ErrMax= 2.59D-06  0.00D+00 EMaxC= 1.00D-01 BMatC= 7.35D-09 BMatP= 5.47D-08
 IDIUse=1 WtCom= 1.00D+00 WtEn= 0.00D+00
 Coeff-Com: -0.434D-05-0.201D-04 0.125D-03 0.322D-03 0.124D-02 0.331D-02
 Coeff-Com:  0.142D-02-0.231D-01-0.313D-01 0.944D-02 0.285D+00 0.753D+00
 Coeff:     -0.434D-05-0.201D-04 0.125D-03 0.322D-03 0.124D-02 0.331D-02
 Coeff:      0.142D-02-0.231D-01-0.313D-01 0.944D-02 0.285D+00 0.753D+00
 Gap=     0.125 Goal=   None    Shift=    0.000
 Gap=     0.144 Goal=   None    Shift=    0.000
 RMSDP=1.65D-06 MaxDP=1.17D-04 DE=-1.65D-08 OVMax= 2.82D-05

 Cycle  13  Pass 1  IDiag  1:
 RMSU=  6.52D-07    CP:  9.45D-01  1.58D-01  7.59D-01  5.78D-01  9.66D-01
                    CP:  7.44D-01  9.84D-01  1.23D+00  1.27D+00  9.98D-01
                    CP:  8.02D-01  1.17D+00
 E= -1454.65739823577     Delta-E=       -0.000000002323 Rises=F Damp=F
 DIIS: error= 6.64D-07 at cycle  13 NSaved=  13.
 NSaved=13 IEnMin=13 EnMin= -1454.65739823577     IErMin=13 ErrMin= 6.64D-07
 ErrMax= 6.64D-07  0.00D+00 EMaxC= 1.00D-01 BMatC= 5.13D-10 BMatP= 7.35D-09
 IDIUse=1 WtCom= 1.00D+00 WtEn= 0.00D+00
 Coeff-Com:  0.695D-05-0.208D-04-0.244D-04-0.219D-04 0.333D-03 0.149D-02
 Coeff-Com:  0.361D-02-0.419D-02-0.164D-01-0.423D-01 0.274D-01 0.222D+00
 Coeff-Com:  0.808D+00
 Coeff:      0.695D-05-0.208D-04-0.244D-04-0.219D-04 0.333D-03 0.149D-02
 Coeff:      0.361D-02-0.419D-02-0.164D-01-0.423D-01 0.274D-01 0.222D+00
 Coeff:      0.808D+00
 Gap=     0.125 Goal=   None    Shift=    0.000
 Gap=     0.144 Goal=   None    Shift=    0.000
 RMSDP=9.77D-07 MaxDP=6.90D-05 DE=-2.32D-09 OVMax= 1.44D-05

 Cycle  14  Pass 1  IDiag  1:
 RMSU=  2.40D-07    CP:  9.45D-01  1.58D-01  7.59D-01  5.78D-01  9.66D-01
                    CP:  7.45D-01  9.84D-01  1.23D+00  1.26D+00  9.95D-01
                    CP:  8.48D-01  1.18D+00  1.02D+00
 E= -1454.65739823598     Delta-E=       -0.000000000210 Rises=F Damp=F
 DIIS: error= 3.25D-07 at cycle  14 NSaved=  14.
 NSaved=14 IEnMin=14 EnMin= -1454.65739823598     IErMin=14 ErrMin= 3.25D-07
 ErrMax= 3.25D-07  0.00D+00 EMaxC= 1.00D-01 BMatC= 1.00D-10 BMatP= 5.13D-10
 IDIUse=1 WtCom= 1.00D+00 WtEn= 0.00D+00
 Coeff-Com:  0.331D-05-0.714D-05-0.183D-04-0.354D-04 0.532D-04 0.360D-03
 Coeff-Com:  0.134D-02 0.506D-03-0.398D-02-0.220D-01-0.172D-01 0.140D-01
 Coeff-Com:  0.354D+00 0.673D+00
 Coeff:      0.331D-05-0.714D-05-0.183D-04-0.354D-04 0.532D-04 0.360D-03
 Coeff:      0.134D-02 0.506D-03-0.398D-02-0.220D-01-0.172D-01 0.140D-01
 Coeff:      0.354D+00 0.673D+00
 Gap=     0.125 Goal=   None    Shift=    0.000
 Gap=     0.144 Goal=   None    Shift=    0.000
 RMSDP=1.97D-07 MaxDP=1.17D-05 DE=-2.10D-10 OVMax= 4.00D-06

 Cycle  15  Pass 1  IDiag  1:
 RMSU=  9.20D-08    CP:  9.45D-01  1.58D-01  7.59D-01  5.78D-01  9.66D-01
                    CP:  7.45D-01  9.84D-01  1.23D+00  1.26D+00  9.88D-01
                    CP:  8.54D-01  1.21D+00  1.08D+00  9.24D-01
 E= -1454.65739823600     Delta-E=       -0.000000000022 Rises=F Damp=F
 DIIS: error= 1.02D-07 at cycle  15 NSaved=  15.
 NSaved=15 IEnMin=15 EnMin= -1454.65739823600     IErMin=15 ErrMin= 1.02D-07
 ErrMax= 1.02D-07  0.00D+00 EMaxC= 1.00D-01 BMatC= 1.39D-11 BMatP= 1.00D-10
 IDIUse=1 WtCom= 1.00D+00 WtEn= 0.00D+00
 Coeff-Com: -0.460D-09 0.105D-05-0.495D-05-0.133D-04-0.401D-04-0.999D-04
 Coeff-Com: -0.374D-04 0.944D-03 0.126D-02-0.178D-02-0.105D-01-0.322D-01
 Coeff-Com: -0.152D-02 0.271D+00 0.773D+00
 Coeff:     -0.460D-09 0.105D-05-0.495D-05-0.133D-04-0.401D-04-0.999D-04
 Coeff:     -0.374D-04 0.944D-03 0.126D-02-0.178D-02-0.105D-01-0.322D-01
 Coeff:     -0.152D-02 0.271D+00 0.773D+00
 Gap=     0.125 Goal=   None    Shift=    0.000
 Gap=     0.144 Goal=   None    Shift=    0.000
 RMSDP=8.88D-08 MaxDP=5.25D-06 DE=-2.18D-11 OVMax= 2.01D-06

 Cycle  16  Pass 1  IDiag  1:
 RMSU=  3.24D-08    CP:  9.45D-01  1.58D-01  7.59D-01  5.78D-01  9.66D-01
                    CP:  7.45D-01  9.84D-01  1.23D+00  1.26D+00  9.88D-01
                    CP:  8.49D-01  1.22D+00  1.11D+00  9.62D-01  1.04D+00
 E= -1454.65739823601     Delta-E=       -0.000000000008 Rises=F Damp=F
 DIIS: error= 3.76D-08 at cycle  16 NSaved=  16.
 NSaved=16 IEnMin=16 EnMin= -1454.65739823601     IErMin=16 ErrMin= 3.76D-08
 ErrMax= 3.76D-08  0.00D+00 EMaxC= 1.00D-01 BMatC= 1.11D-12 BMatP= 1.39D-11
 IDIUse=1 WtCom= 1.00D+00 WtEn= 0.00D+00
 Coeff-Com: -0.535D-06 0.119D-05 0.693D-06 0.181D-05-0.204D-04-0.652D-04
 Coeff-Com: -0.175D-03 0.792D-04 0.765D-03 0.270D-02 0.526D-03-0.780D-02
 Coeff-Com: -0.444D-01-0.468D-01 0.131D+00 0.964D+00
 Coeff:     -0.535D-06 0.119D-05 0.693D-06 0.181D-05-0.204D-04-0.652D-04
 Coeff:     -0.175D-03 0.792D-04 0.765D-03 0.270D-02 0.526D-03-0.780D-02
 Coeff:     -0.444D-01-0.468D-01 0.131D+00 0.964D+00
 Gap=     0.125 Goal=   None    Shift=    0.000
 Gap=     0.144 Goal=   None    Shift=    0.000
 RMSDP=5.15D-08 MaxDP=2.90D-06 DE=-8.19D-12 OVMax= 5.82D-07

 Cycle  17  Pass 1  IDiag  1:
 RMSU=  1.47D-08    CP:  9.45D-01  1.58D-01  7.59D-01  5.78D-01  9.66D-01
                    CP:  7.45D-01  9.84D-01  1.23D+00  1.26D+00  9.87D-01
                    CP:  8.51D-01  1.22D+00  1.11D+00  9.93D-01  1.08D+00
                    CP:  1.18D+00
 E= -1454.65739823601     Delta-E=       -0.000000000008 Rises=F Damp=F
 DIIS: error= 1.04D-08 at cycle  17 NSaved=  17.
 NSaved=17 IEnMin=17 EnMin= -1454.65739823601     IErMin=17 ErrMin= 1.04D-08
 ErrMax= 1.04D-08  0.00D+00 EMaxC= 1.00D-01 BMatC= 9.76D-14 BMatP= 1.11D-12
 IDIUse=1 WtCom= 1.00D+00 WtEn= 0.00D+00
 Coeff-Com: -0.944D-07 0.143D-06 0.573D-06 0.146D-05-0.144D-05-0.292D-05
 Coeff-Com: -0.326D-04-0.640D-04 0.508D-04 0.672D-03 0.924D-03 0.953D-03
 Coeff-Com: -0.822D-02-0.350D-01-0.393D-01 0.192D+00 0.888D+00
 Coeff:     -0.944D-07 0.143D-06 0.573D-06 0.146D-05-0.144D-05-0.292D-05
 Coeff:     -0.326D-04-0.640D-04 0.508D-04 0.672D-03 0.924D-03 0.953D-03
 Coeff:     -0.822D-02-0.350D-01-0.393D-01 0.192D+00 0.888D+00
 Gap=     0.125 Goal=   None    Shift=    0.000
 Gap=     0.144 Goal=   None    Shift=    0.000
 RMSDP=1.31D-08 MaxDP=1.10D-06 DE=-7.96D-12 OVMax= 1.59D-07

 Cycle  18  Pass 1  IDiag  1:
 RMSU=  6.61D-09    CP:  9.45D-01  1.58D-01  7.59D-01  5.78D-01  9.66D-01
                    CP:  7.45D-01  9.84D-01  1.23D+00  1.26D+00  9.87D-01
                    CP:  8.50D-01  1.22D+00  1.11D+00  9.95D-01  1.11D+00
                    CP:  1.23D+00  8.73D-01
 E= -1454.65739823602     Delta-E=       -0.000000000003 Rises=F Damp=F
 DIIS: error= 1.54D-08 at cycle  18 NSaved=  18.
 NSaved=18 IEnMin=18 EnMin= -1454.65739823602     IErMin=17 ErrMin= 1.04D-08
 ErrMax= 1.54D-08  0.00D+00 EMaxC= 1.00D-01 BMatC= 1.05D-13 BMatP= 9.76D-14
 IDIUse=1 WtCom= 1.00D+00 WtEn= 0.00D+00
 Coeff-Com:  0.632D-08-0.537D-07 0.340D-06 0.778D-06 0.154D-05 0.605D-05
 Coeff-Com: -0.259D-05-0.534D-04-0.560D-04 0.123D-03 0.574D-03 0.164D-02
 Coeff-Com: -0.623D-04-0.184D-01-0.423D-01 0.100D-01 0.610D+00 0.438D+00
 Coeff:      0.632D-08-0.537D-07 0.340D-06 0.778D-06 0.154D-05 0.605D-05
 Coeff:     -0.259D-05-0.534D-04-0.560D-04 0.123D-03 0.574D-03 0.164D-02
 Coeff:     -0.623D-04-0.184D-01-0.423D-01 0.100D-01 0.610D+00 0.438D+00
 Gap=     0.125 Goal=   None    Shift=    0.000
 Gap=     0.144 Goal=   None    Shift=    0.000
 RMSDP=3.93D-09 MaxDP=4.10D-07 DE=-2.50D-12 OVMax= 7.48D-08

 Error on total polarization charges =  0.02194
 SCF Done:  E(UB3LYP) =  -1454.65739824     A.U. after   18 cycles
            NFock= 18  Conv=0.39D-08     -V/T= 2.0030
 <Sx>= 0.0000 <Sy>= 0.0000 <Sz>= 0.5000 <S**2>= 0.7583 S= 0.5041
 <L.S>=  0.00000000000    
 KE= 1.450339648909D+03 PE=-5.488147368825D+03 EE= 1.565133292976D+03
 Annihilation of the first spin contaminant:
 S**2 before annihilation     0.7583,   after     0.7500
 Leave Link  502 at Sun Jan 21 08:13:33 2024, MaxMem=  4026531840 cpu:            1202.7 elap:             150.8
 (Enter /sysapps/ubuntu-applications/gaussian/Gaussian/AVX2/g16/l601.exe)
 Copying SCF densities to generalized density rwf, IOpCl= 1 IROHF=0.

 **********************************************************************

            Population analysis using the SCF density.

 **********************************************************************

 Orbital symmetries:
 Alpha Orbitals:
       Occupied  (A) (A) (A) (A) (A) (A) (A) (A) (A) (A) (A) (A)
                 (A) (A) (A) (A) (A) (A) (A) (A) (A) (A) (A) (A)
                 (A) (A) (A) (A) (A) (A) (A) (A) (A) (A) (A) (A)
                 (A) (A) (A) (A) (A) (A) (A) (A) (A) (A) (A) (A)
                 (A) (A) (A) (A) (A) (A) (A) (A) (A) (A)
       Virtual   (A) (A) (A) (A) (A) (A) (A) (A) (A) (A) (A) (A)
                 (A) (A) (A) (A) (A) (A) (A) (A) (A) (A) (A) (A)
                 (A) (A) (A) (A) (A) (A) (A) (A) (A) (A) (A) (A)
                 (A) (A) (A) (A) (A) (A) (A) (A) (A) (A) (A) (A)
                 (A) (A) (A) (A) (A) (A) (A) (A) (A) (A) (A) (A)
                 (A) (A) (A) (A) (A) (A) (A) (A) (A) (A) (A) (A)
                 (A) (A) (A) (A) (A) (A) (A) (A) (A) (A) (A) (A)
                 (A) (A) (A) (A) (A) (A) (A) (A) (A) (A) (A) (A)
                 (A) (A) (A) (A) (A) (A) (A) (A) (A) (A) (A) (A)
                 (A) (A) (A) (A) (A) (A) (A) (A) (A) (A) (A) (A)
                 (A) (A) (A) (A) (A) (A) (A) (A) (A) (A) (A) (A)
                 (A) (A) (A) (A) (A) (A) (A) (A) (A) (A) (A) (A)
                 (A) (A) (A) (A) (A) (A) (A) (A) (A) (A) (A) (A)
                 (A) (A) (A) (A) (A) (A) (A) (A) (A) (A) (A) (A)
                 (A) (A) (A) (A) (A) (A) (A) (A) (A) (A) (A) (A)
                 (A) (A) (A) (A) (A) (A) (A) (A) (A) (A) (A) (A)
                 (A) (A) (A) (A) (A) (A) (A) (A) (A) (A) (A) (A)
                 (A) (A) (A) (A) (A) (A) (A) (A) (A) (A) (A) (A)
                 (A) (A) (A) (A) (A) (A) (A) (A) (A) (A) (A) (A)
                 (A) (A) (A) (A) (A) (A) (A) (A) (A) (A) (A) (A)
                 (A) (A) (A) (A) (A) (A) (A) (A) (A) (A) (A) (A)
                 (A) (A) (A) (A) (A) (A) (A) (A) (A) (A) (A) (A)
                 (A) (A) (A) (A) (A) (A) (A) (A) (A) (A) (A) (A)
                 (A) (A) (A) (A) (A) (A) (A) (A) (A) (A) (A) (A)
                 (A) (A) (A)
 Beta  Orbitals:
       Occupied  (A) (A) (A) (A) (A) (A) (A) (A) (A) (A) (A) (A)
                 (A) (A) (A) (A) (A) (A) (A) (A) (A) (A) (A) (A)
                 (A) (A) (A) (A) (A) (A) (A) (A) (A) (A) (A) (A)
                 (A) (A) (A) (A) (A) (A) (A) (A) (A) (A) (A) (A)
                 (A) (A) (A) (A) (A) (A) (A) (A) (A)
       Virtual   (A) (A) (A) (A) (A) (A) (A) (A) (A) (A) (A) (A)
                 (A) (A) (A) (A) (A) (A) (A) (A) (A) (A) (A) (A)
                 (A) (A) (A) (A) (A) (A) (A) (A) (A) (A) (A) (A)
                 (A) (A) (A) (A) (A) (A) (A) (A) (A) (A) (A) (A)
                 (A) (A) (A) (A) (A) (A) (A) (A) (A) (A) (A) (A)
                 (A) (A) (A) (A) (A) (A) (A) (A) (A) (A) (A) (A)
                 (A) (A) (A) (A) (A) (A) (A) (A) (A) (A) (A) (A)
                 (A) (A) (A) (A) (A) (A) (A) (A) (A) (A) (A) (A)
                 (A) (A) (A) (A) (A) (A) (A) (A) (A) (A) (A) (A)
                 (A) (A) (A) (A) (A) (A) (A) (A) (A) (A) (A) (A)
                 (A) (A) (A) (A) (A) (A) (A) (A) (A) (A) (A) (A)
                 (A) (A) (A) (A) (A) (A) (A) (A) (A) (A) (A) (A)
                 (A) (A) (A) (A) (A) (A) (A) (A) (A) (A) (A) (A)
                 (A) (A) (A) (A) (A) (A) (A) (A) (A) (A) (A) (A)
                 (A) (A) (A) (A) (A) (A) (A) (A) (A) (A) (A) (A)
                 (A) (A) (A) (A) (A) (A) (A) (A) (A) (A) (A) (A)
                 (A) (A) (A) (A) (A) (A) (A) (A) (A) (A) (A) (A)
                 (A) (A) (A) (A) (A) (A) (A) (A) (A) (A) (A) (A)
                 (A) (A) (A) (A) (A) (A) (A) (A) (A) (A) (A) (A)
                 (A) (A) (A) (A) (A) (A) (A) (A) (A) (A) (A) (A)
                 (A) (A) (A) (A) (A) (A) (A) (A) (A) (A) (A) (A)
                 (A) (A) (A) (A) (A) (A) (A) (A) (A) (A) (A) (A)
                 (A) (A) (A) (A) (A) (A) (A) (A) (A) (A) (A) (A)
                 (A) (A) (A) (A) (A) (A) (A) (A) (A) (A) (A) (A)
                 (A) (A) (A) (A)
 The electronic state is 2-A.
 Alpha  occ. eigenvalues -- -101.55531-101.55531 -19.08955 -19.08954 -10.24190
 Alpha  occ. eigenvalues --  -10.24189 -10.23663 -10.23607 -10.18487 -10.18440
 Alpha  occ. eigenvalues --  -10.17961 -10.17912 -10.17700 -10.17699  -9.46983
 Alpha  occ. eigenvalues --   -9.46982  -7.23426  -7.23426  -7.22513  -7.22513
 Alpha  occ. eigenvalues --   -7.22409  -7.22409  -1.02067  -1.01777  -0.89652
 Alpha  occ. eigenvalues --   -0.86509  -0.84883  -0.79482  -0.75855  -0.73272
 Alpha  occ. eigenvalues --   -0.68291  -0.62216  -0.61283  -0.57107  -0.53122
 Alpha  occ. eigenvalues --   -0.50667  -0.47903  -0.46584  -0.44166  -0.43370
 Alpha  occ. eigenvalues --   -0.43353  -0.42858  -0.42019  -0.40879  -0.39754
 Alpha  occ. eigenvalues --   -0.37870  -0.36605  -0.34863  -0.34769  -0.33600
 Alpha  occ. eigenvalues --   -0.32893  -0.30586  -0.27824  -0.26327  -0.26052
 Alpha  occ. eigenvalues --   -0.25340  -0.25169  -0.16588
 Alpha virt. eigenvalues --   -0.04066  -0.02718  -0.01246   0.00079   0.01629
 Alpha virt. eigenvalues --    0.02042   0.02760   0.03614   0.03796   0.04785
 Alpha virt. eigenvalues --    0.04957   0.05106   0.06587   0.06784   0.06877
 Alpha virt. eigenvalues --    0.07509   0.07532   0.08093   0.09743   0.09919
 Alpha virt. eigenvalues --    0.10246   0.10246   0.10807   0.11019   0.12681
 Alpha virt. eigenvalues --    0.12723   0.13059   0.13219   0.14262   0.14454
 Alpha virt. eigenvalues --    0.14609   0.14747   0.15141   0.16085   0.16854
 Alpha virt. eigenvalues --    0.17122   0.17342   0.18671   0.18913   0.19197
 Alpha virt. eigenvalues --    0.19370   0.19981   0.21566   0.21653   0.21881
 Alpha virt. eigenvalues --    0.22094   0.23774   0.23932   0.24381   0.24776
 Alpha virt. eigenvalues --    0.25331   0.25425   0.26714   0.26872   0.27264
 Alpha virt. eigenvalues --    0.27461   0.29304   0.29563   0.29686   0.29828
 Alpha virt. eigenvalues --    0.30898   0.31223   0.31233   0.31381   0.32606
 Alpha virt. eigenvalues --    0.33034   0.33830   0.34187   0.34506   0.36399
 Alpha virt. eigenvalues --    0.37570   0.39111   0.39670   0.40028   0.40493
 Alpha virt. eigenvalues --    0.40872   0.45246   0.45357   0.46229   0.46638
 Alpha virt. eigenvalues --    0.47822   0.49183   0.51170   0.52883   0.53160
 Alpha virt. eigenvalues --    0.53909   0.54011   0.54392   0.55820   0.57059
 Alpha virt. eigenvalues --    0.57614   0.58122   0.59360   0.62384   0.62505
 Alpha virt. eigenvalues --    0.62780   0.63339   0.63776   0.64390   0.65506
 Alpha virt. eigenvalues --    0.66177   0.68384   0.70331   0.70798   0.71634
 Alpha virt. eigenvalues --    0.73296   0.73938   0.76225   0.77711   0.78013
 Alpha virt. eigenvalues --    0.80446   0.82170   0.84035   0.84988   0.85805
 Alpha virt. eigenvalues --    0.86355   0.86570   0.86605   0.86847   0.88042
 Alpha virt. eigenvalues --    0.89130   0.90720   0.92772   0.93180   0.93696
 Alpha virt. eigenvalues --    0.94485   0.95108   0.95443   0.95628   0.96095
 Alpha virt. eigenvalues --    0.97821   0.99185   0.99597   1.01445   1.03708
 Alpha virt. eigenvalues --    1.04525   1.06212   1.08557   1.09549   1.09793
 Alpha virt. eigenvalues --    1.11433   1.12998   1.15261   1.17624   1.17966
 Alpha virt. eigenvalues --    1.20448   1.21094   1.23388   1.23663   1.24016
 Alpha virt. eigenvalues --    1.27435   1.29118   1.30288   1.30513   1.32328
 Alpha virt. eigenvalues --    1.32583   1.39456   1.40529   1.44622   1.47561
 Alpha virt. eigenvalues --    1.49902   1.50970   1.52230   1.54033   1.54641
 Alpha virt. eigenvalues --    1.56727   1.62360   1.65655   1.66460   1.67394
 Alpha virt. eigenvalues --    1.69697   1.69912   1.71456   1.74485   1.75917
 Alpha virt. eigenvalues --    1.78283   1.78826   1.79151   1.81980   1.83710
 Alpha virt. eigenvalues --    1.86187   1.86340   1.89807   1.91219   1.91668
 Alpha virt. eigenvalues --    1.94042   1.96546   1.97131   1.97596   2.01670
 Alpha virt. eigenvalues --    2.02526   2.07175   2.10739   2.12245   2.14844
 Alpha virt. eigenvalues --    2.17273   2.21704   2.24897   2.28889   2.29078
 Alpha virt. eigenvalues --    2.30888   2.31014   2.33692   2.36809   2.40597
 Alpha virt. eigenvalues --    2.41411   2.46305   2.46629   2.48048   2.51253
 Alpha virt. eigenvalues --    2.54332   2.60533   2.61400   2.63808   2.66407
 Alpha virt. eigenvalues --    2.68201   2.71664   2.74108   2.74384   2.75592
 Alpha virt. eigenvalues --    2.76365   2.76704   2.78247   2.80597   2.83995
 Alpha virt. eigenvalues --    2.85248   2.85414   2.88193   2.88989   2.91620
 Alpha virt. eigenvalues --    2.92485   2.94985   2.95289   3.03416   3.09546
 Alpha virt. eigenvalues --    3.09568   3.12181   3.16881   3.21119   3.21202
 Alpha virt. eigenvalues --    3.24539   3.25544   3.32503   3.34355   3.35075
 Alpha virt. eigenvalues --    3.41450   3.50935   3.51363   3.51699   3.55204
 Alpha virt. eigenvalues --    3.57876   3.62089   3.64204   3.79409   3.82911
 Alpha virt. eigenvalues --    4.00989   4.04148   4.09660   4.18995   4.26176
 Alpha virt. eigenvalues --    4.32805   4.77139   4.84471   5.06355   5.08014
 Alpha virt. eigenvalues --    5.23761   5.27987   5.72218   5.80839   9.77417
 Alpha virt. eigenvalues --    9.81248  23.47867  23.68582  23.89683  23.93765
 Alpha virt. eigenvalues --   23.94516  23.94940  23.98866  24.04397  24.10899
 Alpha virt. eigenvalues --   24.18603  25.79795  25.89057  26.13364  26.21866
 Alpha virt. eigenvalues --   26.53313  26.76431  50.03510  50.08467 215.76672
 Alpha virt. eigenvalues --  215.80920
  Beta  occ. eigenvalues -- -101.55523-101.55523 -19.08349 -19.08349 -10.24050
  Beta  occ. eigenvalues --  -10.24048 -10.23465 -10.23408 -10.18455 -10.18408
  Beta  occ. eigenvalues --  -10.17936 -10.17887 -10.17690 -10.17689  -9.46976
  Beta  occ. eigenvalues --   -9.46975  -7.23431  -7.23431  -7.22479  -7.22479
  Beta  occ. eigenvalues --   -7.22406  -7.22406  -1.01037  -1.00716  -0.89306
  Beta  occ. eigenvalues --   -0.86394  -0.84718  -0.79127  -0.75682  -0.73060
  Beta  occ. eigenvalues --   -0.67403  -0.62057  -0.60957  -0.56829  -0.52915
  Beta  occ. eigenvalues --   -0.50426  -0.47606  -0.46488  -0.43255  -0.43205
  Beta  occ. eigenvalues --   -0.42712  -0.42554  -0.41570  -0.40562  -0.37527
  Beta  occ. eigenvalues --   -0.37467  -0.36499  -0.34788  -0.33433  -0.33011
  Beta  occ. eigenvalues --   -0.32815  -0.30542  -0.25743  -0.25707  -0.25486
  Beta  occ. eigenvalues --   -0.24768  -0.24387
  Beta virt. eigenvalues --   -0.09981  -0.03269  -0.01548  -0.01118   0.00105
  Beta virt. eigenvalues --    0.01643   0.02093   0.02830   0.03626   0.04640
  Beta virt. eigenvalues --    0.04850   0.05151   0.06038   0.06714   0.06811
  Beta virt. eigenvalues --    0.06898   0.07590   0.08126   0.08439   0.09752
  Beta virt. eigenvalues --    0.09971   0.10256   0.10305   0.10933   0.11036
  Beta virt. eigenvalues --    0.12697   0.12734   0.13152   0.13248   0.14331
  Beta virt. eigenvalues --    0.14626   0.14692   0.14773   0.15178   0.16104
  Beta virt. eigenvalues --    0.17140   0.17199   0.17370   0.18705   0.18931
  Beta virt. eigenvalues --    0.19409   0.19446   0.19928   0.21592   0.21933
  Beta virt. eigenvalues --    0.22153   0.22316   0.23901   0.24022   0.24425
  Beta virt. eigenvalues --    0.24831   0.25345   0.25620   0.26860   0.26977
  Beta virt. eigenvalues --    0.27306   0.27552   0.29362   0.29843   0.29870
  Beta virt. eigenvalues --    0.30019   0.30978   0.31284   0.31486   0.31661
  Beta virt. eigenvalues --    0.32646   0.33116   0.33894   0.34306   0.34554
  Beta virt. eigenvalues --    0.36557   0.37648   0.39181   0.39756   0.40162
  Beta virt. eigenvalues --    0.40582   0.41286   0.45314   0.45403   0.46332
  Beta virt. eigenvalues --    0.46829   0.47979   0.49253   0.51288   0.52926
  Beta virt. eigenvalues --    0.53247   0.54148   0.54431   0.54580   0.55872
  Beta virt. eigenvalues --    0.57116   0.57730   0.58439   0.59565   0.62705
  Beta virt. eigenvalues --    0.62910   0.63044   0.63582   0.63980   0.64874
  Beta virt. eigenvalues --    0.65720   0.66223   0.68698   0.70456   0.70870
  Beta virt. eigenvalues --    0.71780   0.73321   0.74160   0.76290   0.77757
  Beta virt. eigenvalues --    0.78083   0.80701   0.82389   0.84160   0.85052
  Beta virt. eigenvalues --    0.85865   0.86433   0.86673   0.86747   0.86990
  Beta virt. eigenvalues --    0.88253   0.89186   0.90778   0.92869   0.93317
  Beta virt. eigenvalues --    0.93772   0.94793   0.95548   0.95620   0.96026
  Beta virt. eigenvalues --    0.96290   0.97918   0.99377   0.99753   1.01700
  Beta virt. eigenvalues --    1.04051   1.04708   1.06322   1.08968   1.09867
  Beta virt. eigenvalues --    1.10131   1.11756   1.13515   1.16124   1.17740
  Beta virt. eigenvalues --    1.18087   1.20546   1.22211   1.23893   1.24203
  Beta virt. eigenvalues --    1.24347   1.27603   1.30013   1.30649   1.30846
  Beta virt. eigenvalues --    1.32569   1.32962   1.39601   1.40847   1.44693
  Beta virt. eigenvalues --    1.47687   1.50308   1.51081   1.52293   1.54067
  Beta virt. eigenvalues --    1.54845   1.56785   1.62569   1.65753   1.66561
  Beta virt. eigenvalues --    1.67475   1.69958   1.70450   1.71608   1.74680
  Beta virt. eigenvalues --    1.76113   1.78506   1.79320   1.79608   1.82721
  Beta virt. eigenvalues --    1.84065   1.86514   1.86540   1.90357   1.91638
  Beta virt. eigenvalues --    1.91799   1.94210   1.96637   1.97624   1.97736
  Beta virt. eigenvalues --    2.01816   2.02775   2.07273   2.10819   2.12543
  Beta virt. eigenvalues --    2.15325   2.17459   2.22153   2.24998   2.29054
  Beta virt. eigenvalues --    2.29210   2.31106   2.31285   2.33886   2.37077
  Beta virt. eigenvalues --    2.41004   2.41474   2.46371   2.46744   2.48061
  Beta virt. eigenvalues --    2.51310   2.54355   2.61381   2.61468   2.63918
  Beta virt. eigenvalues --    2.66690   2.68291   2.71680   2.74123   2.75288
  Beta virt. eigenvalues --    2.76380   2.76458   2.76804   2.78269   2.80959
  Beta virt. eigenvalues --    2.84104   2.86025   2.86228   2.88720   2.89523
  Beta virt. eigenvalues --    2.92536   2.93709   2.96305   2.96433   3.04226
  Beta virt. eigenvalues --    3.09758   3.09812   3.12995   3.17036   3.21238
  Beta virt. eigenvalues --    3.21653   3.24663   3.25704   3.34095   3.34410
  Beta virt. eigenvalues --    3.36645   3.41510   3.51175   3.51527   3.52041
  Beta virt. eigenvalues --    3.55352   3.58125   3.62288   3.64417   3.79583
  Beta virt. eigenvalues --    3.83474   4.01295   4.04202   4.09922   4.19112
  Beta virt. eigenvalues --    4.26492   4.33020   4.77648   4.84536   5.08869
  Beta virt. eigenvalues --    5.10524   5.24264   5.28491   5.72731   5.81350
  Beta virt. eigenvalues --    9.77434   9.81265  23.48014  23.68698  23.89849
  Beta virt. eigenvalues --   23.93924  23.94566  23.94987  23.99059  24.04445
  Beta virt. eigenvalues --   24.10919  24.18626  25.79838  25.89100  26.13370
  Beta virt. eigenvalues --   26.21872  26.53311  26.76433  50.04117  50.09074
  Beta virt. eigenvalues --  215.76679 215.80927
          Condensed to atoms (all electrons):
               1          2          3          4          5          6
     1  C   11.811157   0.969295  -0.745302  -3.802937  -4.449567   2.495036
     2  C    0.969295   7.803371  -0.576612  -1.449806   0.337076  -0.745291
     3  C   -0.745302  -0.576612   7.803561   0.337562  -1.449705   0.968896
     4  C   -3.802937  -1.449806   0.337562  24.220643   0.286482  -4.448812
     5  C   -4.449567   0.337076  -1.449705   0.286482  24.223404  -3.803153
     6  C    2.495036  -0.745291   0.968896  -4.448812  -3.803153  11.811257
     7  C    0.895028  -0.496393   0.934868  -6.488278  -3.447569   1.692418
     8  C   -0.863025  -0.828573   0.176542   3.136185  -2.869926  -2.156272
     9  C   -2.155970   0.176351  -0.828460  -2.872633   3.136634  -0.861843
    10  C    1.692786   0.935061  -0.496811  -3.445323  -6.490680   0.894131
    11  O    0.179930   0.045069  -0.000414  -0.221405  -0.105806  -0.021521
    12  O   -0.021524  -0.000416   0.045074  -0.105845  -0.221406   0.179968
    13  H    0.319653  -0.120951   0.024388  -0.019833   0.053729   0.034569
    14  H   -0.044704   0.497014  -0.082493  -0.007362   0.014577  -0.032572
    15  H    0.034564   0.024395  -0.120932   0.053709  -0.019858   0.319650
    16  Cl  -0.162252  -0.063557   0.026333  -0.033198   0.300237  -0.070072
    17  H   -0.032566  -0.082502   0.496990   0.014581  -0.007347  -0.044689
    18  Cl  -0.070053   0.026335  -0.063565   0.300169  -0.033289  -0.162248
               7          8          9         10         11         12
     1  C    0.895028  -0.863025  -2.155970   1.692786   0.179930  -0.021524
     2  C   -0.496393  -0.828573   0.176351   0.935061   0.045069  -0.000416
     3  C    0.934868   0.176542  -0.828460  -0.496811  -0.000414   0.045074
     4  C   -6.488278   3.136185  -2.872633  -3.445323  -0.221405  -0.105845
     5  C   -3.447569  -2.869926   3.136634  -6.490680  -0.105806  -0.221406
     6  C    1.692418  -2.156272  -0.861843   0.894131  -0.021521   0.179968
     7  C   20.931254  -6.949352  -6.339519   6.634661   0.403674  -0.081359
     8  C   -6.949352  26.230505  -3.366437  -6.340066  -0.145243  -0.095849
     9  C   -6.339519  -3.366437  26.231127  -6.949290  -0.095848  -0.145223
    10  C    6.634661  -6.340066  -6.949290  20.932689  -0.081350   0.403655
    11  O    0.403674  -0.145243  -0.095848  -0.081350   8.392339   0.000402
    12  O   -0.081359  -0.095849  -0.145223   0.403655   0.000402   8.392349
    13  H   -0.000098   0.038694   0.029338  -0.030821  -0.002558   0.000106
    14  H   -0.019384  -0.002888   0.005950  -0.001155   0.002191  -0.000011
    15  H   -0.030814   0.029333   0.038692  -0.000068   0.000106  -0.002555
    16  Cl   0.310263  -1.574510   0.636207  -0.139395   0.062877  -0.009725
    17  H   -0.001157   0.005955  -0.002886  -0.019397  -0.000011   0.002191
    18  Cl  -0.139135   0.636059  -1.574842   0.310607  -0.009725   0.062860
              13         14         15         16         17         18
     1  C    0.319653  -0.044704   0.034564  -0.162252  -0.032566  -0.070053
     2  C   -0.120951   0.497014   0.024395  -0.063557  -0.082502   0.026335
     3  C    0.024388  -0.082493  -0.120932   0.026333   0.496990  -0.063565
     4  C   -0.019833  -0.007362   0.053709  -0.033198   0.014581   0.300169
     5  C    0.053729   0.014577  -0.019858   0.300237  -0.007347  -0.033289
     6  C    0.034569  -0.032572   0.319650  -0.070072  -0.044689  -0.162248
     7  C   -0.000098  -0.019384  -0.030814   0.310263  -0.001157  -0.139135
     8  C    0.038694  -0.002888   0.029333  -1.574510   0.005955   0.636059
     9  C    0.029338   0.005950   0.038692   0.636207  -0.002886  -1.574842
    10  C   -0.030821  -0.001155  -0.000068  -0.139395  -0.019397   0.310607
    11  O   -0.002558   0.002191   0.000106   0.062877  -0.000011  -0.009725
    12  O    0.000106  -0.000011  -0.002555  -0.009725   0.002191   0.062860
    13  H    0.512590  -0.017041   0.000760  -0.000034   0.001269  -0.001198
    14  H   -0.017041   0.512727   0.001268  -0.001160  -0.015205   0.000583
    15  H    0.000760   0.001268   0.512583  -0.001199  -0.017037  -0.000035
    16  Cl  -0.000034  -0.001160  -0.001199  17.679613   0.000583  -0.320276
    17  H    0.001269  -0.015205  -0.017037   0.000583   0.512721  -0.001161
    18  Cl  -0.001198   0.000583  -0.000035  -0.320276  -0.001161  17.679639
          Atomic-Atomic Spin Densities.
               1          2          3          4          5          6
     1  C   -0.040524  -0.011184   0.001850  -0.075765   0.057133   0.016195
     2  C   -0.011184   0.025172  -0.026781  -0.024091   0.037111   0.001848
     3  C    0.001850  -0.026781   0.025179   0.037103  -0.024097  -0.011179
     4  C   -0.075765  -0.024091   0.037103  -0.110163  -0.002923   0.057141
     5  C    0.057133   0.037111  -0.024097  -0.002923  -0.110163  -0.075768
     6  C    0.016195   0.001848  -0.011179   0.057141  -0.075768  -0.040532
     7  C    0.072400   0.014622  -0.000088   0.068517  -0.011187   0.000665
     8  C   -0.043262  -0.009920   0.019446   0.031968   0.087321   0.052827
     9  C    0.052817   0.019448  -0.009918   0.087321   0.031999  -0.043263
    10  C    0.000670  -0.000088   0.014619  -0.011174   0.068513   0.072395
    11  O    0.000278  -0.006473   0.000331  -0.033352   0.008557   0.000101
    12  O    0.000101   0.000331  -0.006472   0.008557  -0.033347   0.000280
    13  H   -0.000229  -0.000689   0.000978  -0.000207   0.000485   0.000862
    14  H    0.000069  -0.000293  -0.000465   0.000446   0.000285  -0.000146
    15  H    0.000863   0.000977  -0.000688   0.000486  -0.000207  -0.000228
    16  Cl  -0.002223  -0.000725   0.000077  -0.018982   0.011534   0.002434
    17  H   -0.000146  -0.000465  -0.000293   0.000285   0.000446   0.000069
    18  Cl   0.002434   0.000077  -0.000726   0.011537  -0.018983  -0.002225
               7          8          9         10         11         12
     1  C    0.072400  -0.043262   0.052817   0.000670   0.000278   0.000101
     2  C    0.014622  -0.009920   0.019448  -0.000088  -0.006473   0.000331
     3  C   -0.000088   0.019446  -0.009918   0.014619   0.000331  -0.006472
     4  C    0.068517   0.031968   0.087321  -0.011174  -0.033352   0.008557
     5  C   -0.011187   0.087321   0.031999   0.068513   0.008557  -0.033347
     6  C    0.000665   0.052827  -0.043263   0.072395   0.000101   0.000280
     7  C   -0.056614   0.049286   0.011674  -0.008093  -0.044352  -0.002057
     8  C    0.049286   0.043141  -0.132053   0.011692  -0.013263   0.011787
     9  C    0.011674  -0.132053   0.043156   0.049275   0.011787  -0.013259
    10  C   -0.008093   0.011692   0.049275  -0.056624  -0.002056  -0.044362
    11  O   -0.044352  -0.013263   0.011787  -0.002056   0.304421  -0.000122
    12  O   -0.002057   0.011787  -0.013259  -0.044362  -0.000122   0.304419
    13  H    0.003724  -0.003134  -0.000404   0.000720  -0.002757   0.000014
    14  H   -0.000103  -0.000016   0.000204   0.000231  -0.000008   0.000005
    15  H    0.000720  -0.000404  -0.003136   0.003725   0.000014  -0.002757
    16  Cl  -0.010667  -0.047861   0.049080  -0.001073   0.000961  -0.000167
    17  H    0.000231   0.000204  -0.000016  -0.000103   0.000005  -0.000008
    18  Cl  -0.001075   0.049086  -0.047862  -0.010672  -0.000167   0.000961
              13         14         15         16         17         18
     1  C   -0.000229   0.000069   0.000863  -0.002223  -0.000146   0.002434
     2  C   -0.000689  -0.000293   0.000977  -0.000725  -0.000465   0.000077
     3  C    0.000978  -0.000465  -0.000688   0.000077  -0.000293  -0.000726
     4  C   -0.000207   0.000446   0.000486  -0.018982   0.000285   0.011537
     5  C    0.000485   0.000285  -0.000207   0.011534   0.000446  -0.018983
     6  C    0.000862  -0.000146  -0.000228   0.002434   0.000069  -0.002225
     7  C    0.003724  -0.000103   0.000720  -0.010667   0.000231  -0.001075
     8  C   -0.003134  -0.000016  -0.000404  -0.047861   0.000204   0.049086
     9  C   -0.000404   0.000204  -0.003136   0.049080  -0.000016  -0.047862
    10  C    0.000720   0.000231   0.003725  -0.001073  -0.000103  -0.010672
    11  O   -0.002757  -0.000008   0.000014   0.000961   0.000005  -0.000167
    12  O    0.000014   0.000005  -0.002757  -0.000167  -0.000008   0.000961
    13  H   -0.001750  -0.000171  -0.000024   0.000281   0.000025  -0.000049
    14  H   -0.000171  -0.001794   0.000025  -0.000001   0.000122   0.000002
    15  H   -0.000024   0.000025  -0.001750  -0.000049  -0.000171   0.000281
    16  Cl   0.000281  -0.000001  -0.000049   0.027798   0.000002  -0.001895
    17  H    0.000025   0.000122  -0.000171   0.000002  -0.001794  -0.000001
    18  Cl  -0.000049   0.000002   0.000281  -0.001895  -0.000001   0.027803
 Mulliken charges and spin densities:
               1          2
     1  C   -0.049549   0.031475
     2  C   -0.449867   0.018874
     3  C   -0.449920   0.018875
     4  C    0.546102   0.026703
     5  C    0.546166   0.026707
     6  C   -0.049453   0.031476
     7  C   -1.809109   0.087605
     8  C    0.938867   0.106845
     9  C    0.938651   0.106851
    10  C   -1.809235   0.087595
    11  O   -0.402707   0.223907
    12  O   -0.402693   0.223905
    13  H    0.177438  -0.002325
    14  H    0.189665  -0.001607
    15  H    0.177436  -0.002326
    16  Cl   0.359264   0.008524
    17  H    0.189668  -0.001607
    18  Cl   0.359275   0.008525
 Sum of Mulliken charges =  -1.00000   1.00000
 Mulliken charges and spin densities with hydrogens summed into heavy atoms:
               1          2
     1  C    0.127889   0.029150
     2  C   -0.260202   0.017267
     3  C   -0.260252   0.017268
     4  C    0.546102   0.026703
     5  C    0.546166   0.026707
     6  C    0.127983   0.029150
     7  C   -1.809109   0.087605
     8  C    0.938867   0.106845
     9  C    0.938651   0.106851
    10  C   -1.809235   0.087595
    11  O   -0.402707   0.223907
    12  O   -0.402693   0.223905
    16  Cl   0.359264   0.008524
    18  Cl   0.359275   0.008525
 Electronic spatial extent (au):  <R**2>=           3344.8206
 Charge=             -1.0000 electrons
 Dipole moment (field-independent basis, Debye):
    X=              4.1236    Y=             -0.0001    Z=              0.0014  Tot=              4.1236
 Quadrupole moment (field-independent basis, Debye-Ang):
   XX=            -98.2885   YY=           -132.7843   ZZ=            -98.4745
   XY=              0.0004   XZ=             -0.0001   YZ=             -0.0006
 Traceless Quadrupole moment (field-independent basis, Debye-Ang):
   XX=             11.5606   YY=            -22.9352   ZZ=             11.3746
   XY=              0.0004   XZ=             -0.0001   YZ=             -0.0006
 Octapole moment (field-independent basis, Debye-Ang**2):
  XXX=             30.6653  YYY=             -0.0037  ZZZ=             -0.0024  XYY=             10.0148
  XXY=             -0.0002  XXZ=             -0.0021  XZZ=            -15.7594  YZZ=             -0.0002
  YYZ=              0.0106  XYZ=             -0.0014
 Hexadecapole moment (field-independent basis, Debye-Ang**3):
 XXXX=          -2762.6954 YYYY=          -1820.0426 ZZZZ=           -115.3708 XXXY=              0.0008
 XXXZ=             -0.0023 YYYX=              0.0055 YYYZ=             -0.0034 ZZZX=             -0.0002
 ZZZY=              0.0013 XXYY=           -706.2784 XXZZ=           -549.3650 YYZZ=           -274.6300
 XXYZ=             -0.0045 YYXZ=             -0.0006 ZZXY=             -0.0002
 N-N= 1.018017028705D+03 E-N=-5.488147368842D+03  KE= 1.450339648909D+03
                          Isotropic Fermi Contact Couplings
        Atom                 a.u.       MegaHertz       Gauss      10(-4) cm-1
     1  C(13)             -0.00131      -1.46711      -0.52350      -0.48937
     2  C(13)              0.00010       0.11327       0.04042       0.03778
     3  C(13)              0.00010       0.11344       0.04048       0.03784
     4  C(13)             -0.00393      -4.41678      -1.57602      -1.47328
     5  C(13)             -0.00393      -4.41653      -1.57593      -1.47320
     6  C(13)             -0.00131      -1.46729      -0.52357      -0.48944
     7  C(13)             -0.00582      -6.54009      -2.33367      -2.18154
     8  C(13)              0.00139       1.56638       0.55892       0.52249
     9  C(13)              0.00139       1.56729       0.55925       0.52279
    10  C(13)             -0.00582      -6.54012      -2.33368      -2.18155
    11  O(17)              0.02168     -13.14086      -4.68898      -4.38332
    12  O(17)              0.02168     -13.14053      -4.68887      -4.38321
    13  H(1)              -0.00020      -0.88573      -0.31605      -0.29545
    14  H(1)              -0.00032      -1.41233      -0.50396      -0.47110
    15  H(1)              -0.00020      -0.88560      -0.31600      -0.29541
    16  Cl(35)             0.00067       0.29197       0.10418       0.09739
    17  H(1)              -0.00032      -1.41243      -0.50399      -0.47114
    18  Cl(35)             0.00067       0.29196       0.10418       0.09739
 --------------------------------------------------------
       Center         ----  Spin Dipole Couplings  ----
                      3XX-RR        3YY-RR        3ZZ-RR
 --------------------------------------------------------
     1   Atom       -0.000691     -0.007660      0.008351
     2   Atom       -0.009265     -0.011484      0.020750
     3   Atom       -0.009266     -0.011485      0.020751
     4   Atom       -0.014772     -0.018740      0.033512
     5   Atom       -0.014771     -0.018739      0.033510
     6   Atom       -0.000689     -0.007660      0.008349
     7   Atom       -0.079602     -0.053639      0.133241
     8   Atom       -0.089239     -0.085321      0.174560
     9   Atom       -0.089242     -0.085325      0.174567
    10   Atom       -0.079601     -0.053638      0.133239
    11   Atom       -0.463397     -0.472220      0.935617
    12   Atom       -0.463389     -0.472212      0.935601
    13   Atom        0.004148     -0.000851     -0.003298
    14   Atom        0.002850     -0.001736     -0.001114
    15   Atom        0.004149     -0.000851     -0.003298
    16   Atom       -0.062290     -0.048028      0.110318
    17   Atom        0.002850     -0.001736     -0.001114
    18   Atom       -0.062292     -0.048035      0.110327
 --------------------------------------------------------
                        XY            XZ            YZ
 --------------------------------------------------------
     1   Atom       -0.000624      0.000005      0.000003
     2   Atom        0.000081     -0.000002      0.000004
     3   Atom       -0.000081     -0.000002      0.000001
     4   Atom       -0.000582      0.000035     -0.000006
     5   Atom        0.000582      0.000032      0.000017
     6   Atom        0.000624      0.000003     -0.000000
     7   Atom        0.003634     -0.000009      0.000019
     8   Atom        0.000993     -0.000055     -0.000039
     9   Atom       -0.000993     -0.000073      0.000026
    10   Atom       -0.003634     -0.000022     -0.000023
    11   Atom        0.000742      0.000032      0.000519
    12   Atom       -0.000742     -0.000055     -0.000554
    13   Atom        0.000509      0.000000     -0.000000
    14   Atom        0.001322     -0.000000      0.000000
    15   Atom       -0.000509      0.000001     -0.000000
    16   Atom        0.014126     -0.000033      0.000018
    17   Atom       -0.001322      0.000000     -0.000000
    18   Atom       -0.014127     -0.000027     -0.000009
 --------------------------------------------------------


 ---------------------------------------------------------------------------------
              Anisotropic Spin Dipole Couplings in Principal Axis System
 ---------------------------------------------------------------------------------

       Atom             a.u.   MegaHertz   Gauss  10(-4) cm-1        Axes

              Baa    -0.0077    -1.035    -0.369    -0.345  0.0885  0.9961 -0.0002
     1 C(13)  Bbb    -0.0006    -0.085    -0.030    -0.028  0.9961 -0.0885 -0.0005
              Bcc     0.0084     1.121     0.400     0.374  0.0005  0.0002  1.0000
 
              Baa    -0.0115    -1.541    -0.550    -0.514 -0.0364  0.9993 -0.0001
     2 C(13)  Bbb    -0.0093    -1.243    -0.444    -0.415  0.9993  0.0364  0.0001
              Bcc     0.0207     2.784     0.994     0.929 -0.0001  0.0001  1.0000
 
              Baa    -0.0115    -1.542    -0.550    -0.514  0.0364  0.9993 -0.0000
     3 C(13)  Bbb    -0.0093    -1.243    -0.444    -0.415  0.9993 -0.0364  0.0001
              Bcc     0.0208     2.785     0.994     0.929 -0.0001  0.0000  1.0000
 
              Baa    -0.0188    -2.526    -0.901    -0.843  0.1422  0.9898  0.0000
     4 C(13)  Bbb    -0.0147    -1.971    -0.703    -0.657  0.9898 -0.1422 -0.0007
              Bcc     0.0335     4.497     1.605     1.500  0.0007 -0.0001  1.0000
 
              Baa    -0.0188    -2.526    -0.901    -0.843 -0.1422  0.9898 -0.0002
     5 C(13)  Bbb    -0.0147    -1.971    -0.703    -0.657  0.9898  0.1422 -0.0007
              Bcc     0.0335     4.497     1.605     1.500  0.0007  0.0003  1.0000
 
              Baa    -0.0077    -1.035    -0.369    -0.345 -0.0885  0.9961  0.0000
     6 C(13)  Bbb    -0.0006    -0.085    -0.030    -0.028  0.9961  0.0885 -0.0003
              Bcc     0.0083     1.120     0.400     0.374  0.0003 -0.0000  1.0000
 
              Baa    -0.0801   -10.749    -3.835    -3.585  0.9907 -0.1360  0.0001
     7 C(13)  Bbb    -0.0531    -7.131    -2.544    -2.379  0.1360  0.9907 -0.0001
              Bcc     0.1332    17.880     6.380     5.964 -0.0000  0.0001  1.0000
 
              Baa    -0.0895   -12.007    -4.284    -4.005  0.9726 -0.2325  0.0002
     8 C(13)  Bbb    -0.0851   -11.417    -4.074    -3.808  0.2325  0.9726  0.0002
              Bcc     0.1746    23.424     8.358     7.814 -0.0002 -0.0002  1.0000
 
              Baa    -0.0895   -12.007    -4.285    -4.005  0.9726  0.2325  0.0002
     9 C(13)  Bbb    -0.0851   -11.418    -4.074    -3.809 -0.2325  0.9726 -0.0002
              Bcc     0.1746    23.425     8.359     7.814 -0.0003  0.0001  1.0000
 
              Baa    -0.0801   -10.749    -3.835    -3.585  0.9907  0.1361  0.0001
    10 C(13)  Bbb    -0.0531    -7.131    -2.544    -2.379 -0.1361  0.9907  0.0001
              Bcc     0.1332    17.879     6.380     5.964 -0.0001 -0.0001  1.0000
 
              Baa    -0.4723    34.174    12.194    11.399 -0.0832  0.9965 -0.0004
    11 O(17)  Bbb    -0.4633    33.527    11.963    11.183  0.9965  0.0832 -0.0001
              Bcc     0.9356   -67.701   -24.157   -22.582  0.0000  0.0004  1.0000
 
              Baa    -0.4723    34.173    12.194    11.399  0.0832  0.9965  0.0004
    12 O(17)  Bbb    -0.4633    33.526    11.963    11.183  0.9965 -0.0832  0.0000
              Bcc     0.9356   -67.699   -24.157   -22.582 -0.0000 -0.0004  1.0000
 
              Baa    -0.0033    -1.759    -0.628    -0.587 -0.0000  0.0001  1.0000
    13 H(1)   Bbb    -0.0009    -0.481    -0.172    -0.161 -0.1003  0.9950 -0.0001
              Bcc     0.0042     2.241     0.800     0.747  0.9950  0.1003  0.0000
 
              Baa    -0.0021    -1.115    -0.398    -0.372 -0.2585  0.9660 -0.0002
    14 H(1)   Bbb    -0.0011    -0.594    -0.212    -0.198 -0.0000  0.0002  1.0000
              Bcc     0.0032     1.709     0.610     0.570  0.9660  0.2585 -0.0000
 
              Baa    -0.0033    -1.760    -0.628    -0.587 -0.0001  0.0000  1.0000
    15 H(1)   Bbb    -0.0009    -0.482    -0.172    -0.161  0.1003  0.9950 -0.0000
              Bcc     0.0042     2.241     0.800     0.748  0.9950 -0.1003  0.0001
 
              Baa    -0.0710    -3.715    -1.326    -1.239  0.8517 -0.5241  0.0002
    16 Cl(35) Bbb    -0.0393    -2.059    -0.735    -0.687  0.5241  0.8517  0.0000
              Bcc     0.1103     5.774     2.060     1.926 -0.0002  0.0001  1.0000
 
              Baa    -0.0021    -1.115    -0.398    -0.372  0.2585  0.9660 -0.0000
    17 H(1)   Bbb    -0.0011    -0.594    -0.212    -0.198 -0.0000  0.0000  1.0000
              Bcc     0.0032     1.709     0.610     0.570  0.9660 -0.2585  0.0000
 
              Baa    -0.0710    -3.715    -1.326    -1.239  0.8516  0.5242  0.0002
    18 Cl(35) Bbb    -0.0393    -2.059    -0.735    -0.687 -0.5242  0.8516 -0.0000
              Bcc     0.1103     5.774     2.060     1.926 -0.0002 -0.0000  1.0000
 

 ---------------------------------------------------------------------------------

 No NMR shielding tensors so no spin-rotation constants.
 Leave Link  601 at Sun Jan 21 08:13:34 2024, MaxMem=  4026531840 cpu:               5.2 elap:               0.8
 (Enter /sysapps/ubuntu-applications/gaussian/Gaussian/AVX2/g16/l9999.exe)
 1\1\GINC-ACIDSGN003\SP\UB3LYP\6-311++G(d,p)\C10H4Cl2O2(1-,2)\SELHAJJ1\
 21-Jan-2024\0\\#P UB3LYP/6-311++G(d,p) SCRF=(PCM,Solvent=n,n-DiMethylF
 ormamide)\\Radical PCM in DMF\\-1,2\C,0,5.910384,-5.210952,1.072255\C,
 0,6.7834,-5.076897,0.007733\C,0,6.553107,-4.090049,-0.969207\C,0,4.786
 756,-4.371122,1.196659\C,0,4.555306,-3.37911,0.214664\C,0,5.45434,-3.2
 56607,-0.862389\C,0,3.884569,-4.552533,2.349145\C,0,2.759093,-3.642627
 ,2.389772\C,0,2.532385,-2.670746,1.427783\C,0,3.398167,-2.467465,0.285
 253\O,0,4.091315,-5.429672,3.216024\O,0,3.195896,-1.591126,-0.583492\H
 ,0,6.061213,-5.961078,1.839815\H,0,7.645443,-5.732056,-0.074431\H,0,5.
 250622,-2.487682,-1.598482\Cl,0,1.668713,-3.83781,3.753386\H,0,7.23735
 2,-3.983331,-1.805581\Cl,0,1.14609,-1.596938,1.535394\\Version=ES64L-G
 16RevA.03\State=2-A\HF=-1454.6573982\S2=0.758278\S2-1=0.\S2A=0.75003\R
 MSD=3.932e-09\Dipole=1.3338309,-0.4735711,-0.7928693\Quadrupole=7.8680
 504,-4.0718275,-3.7962228,2.8918984,-2.9507529,12.4321116\PG=C01 [X(C1
 0H4Cl2O2)]\\@


 TO DETECT ERRORS, THE PROGRAMMER MUST HAVE A CONNIVING MIND,
 ONE THAT DELIGHTS IN UNCOVERING FLAWS WHERE BEAUTY AND
 PERFECTION WERE ONCE THOUGHT TO LIE.

             -- THE PSYCHOLOGY OF COMPUTER PROGRAMMING
                GERALD M. WEINBERG
 Job cpu time:       0 days  0 hours 20 minutes 46.2 seconds.
 Elapsed time:       0 days  0 hours  2 minutes 38.7 seconds.
 File lengths (MBytes):  RWF=    172 Int=      0 D2E=      0 Chk=     10 Scr=      1
 Normal termination of Gaussian 16 at Sun Jan 21 08:13:34 2024.
