
Running Job 1 of 1 222-rad-COSMO.in
qchem 222-rad-COSMO.in_3359315.0 /expanse/lustre/scratch/selhajj/temp_project/qcscratch/28871709/qchem3359315/ 0
/cm/shared/apps/spack/cpu/opt/spack/linux-centos8-zen2/gcc-10.2.0/qchem-5.4-akfmr7b3t57bfs6qan3padb2wnb2i7cl/exe/qcprog.exe_s 222-rad-COSMO.in_3359315.0 /expanse/lustre/scratch/selhajj/temp_project/qcscratch/28871709/qchem3359315/
                  Welcome to Q-Chem
     A Quantum Leap Into The Future Of Chemistry


 Q-Chem 5.4, Q-Chem, Inc., Pleasanton, CA (2021)

 License issued to: University of California, San Diego (site)

 E. Epifanovsky,  A. T. B. Gilbert,  Xintian Feng,  Joonho Lee,  Yuezhi Mao,  
 N. Mardirossian,  P. Pokhilko,  A. White,  M. Wormit,  M. P. Coons,  
 A. L. Dempwolff,  Zhengting Gan,  D. Hait,  P. R. Horn,  L. D. Jacobson,  
 I. Kaliman,  J. Kussmann,  A. W. Lange,  Ka Un Lao,  D. S. Levine,  Jie Liu,  
 S. C. McKenzie,  A. F. Morrison,  K. Nanda,  F. Plasser,  D. R. Rehn,  
 M. L. Vidal,  Zhi-Qiang You,  Ying Zhu,  B. Alam,  B. Albrecht,  
 A. Aldossary,  E. Alguire,  J. H. Andersen,  D. Barton,  K. Begam,  A. Behn,  
 Y. A. Bernard,  E. J. Berquist,  H. Burton,  A. Carreras,  K. Carter-Fenk,  
 R. Chakraborty,  A. D. Chien,  K. D. Closser,  V. Cofer-Shabica,  
 S. Dasgupta,  Jia Deng,  M. de Wergifosse,  M. Diedenhofen,  Hainam Do,  
 S. Ehlert,  Po-Tung Fang,  S. Fatehi,  Qingguo Feng,  J. Gayvert,  
 Qinghui Ge,  G. Gidofalvi,  M. Goldey,  J. Gomes,  C. Gonzalez-Espinoza,  
 S. Gulania,  A. Gunina,  M. W. D. Hanson-Heine,  P. H. P. Harbach,  
 A. W. Hauser,  M. F. Herbst,  M. Hernandez Vera,  M. Hodecker,  
 Z. C. Holden,  S. Houck,  Xunkun Huang,  Kerwin Hui,  B. C. Huynh,  
 M. Ivanov,  Hyunjun Ji,  Hanjie Jiang,  B. Kaduk,  S. Kaehler,  
 K. Khistyaev,  Jaehoon Kim,  P. Klunzinger,  Z. Koczor-Benda,  
 Joong Hoon Koh,  D. Kosenkov,  L. Koulias,  T. Kowalczyk,  C. M. Krauter,  
 K. Kue,  A. Kunitsa,  T. Kus,  A. Landau,  K. V. Lawler,  D. Lefrancois,  
 S. Lehtola,  Rain Li,  Yi-Pei Li,  Jiashu Liang,  M. Liebenthal,  
 Hung-Hsuan Lin,  You-Sheng Lin,  Fenglai Liu,  Kuan-Yu Liu,  
 M. Loipersberger,  A. Luenser,  A. Manjanath,  P. Manohar,  E. Mansoor,  
 S. F. Manzer,  Shan-Ping Mao,  A. V. Marenich,  T. Markovich,  S. Mason,  
 S. A. Maurer,  P. F. McLaughlin,  M. F. S. J. Menger,  J.-M. Mewes,  
 S. A. Mewes,  P. Morgante,  J. W. Mullinax,  T. S. Nguyen-Beck,  
 K. J. Oosterbaan,  G. Paran,  Alexander C. Paul,  Suranjan K. Paul,  
 F. Pavosevic,  Zheng Pei,  S. Prager,  E. I. Proynov,  E. Ramos,  B. Rana,  
 A. E. Rask,  A. Rettig,  R. M. Richard,  F. Rob,  E. Rossomme,  T. Scheele,  
 M. Scheurer,  M. Schneider,  N. Sergueev,  S. M. Sharada,  W. Skomorowski,  
 D. W. Small,  C. J. Stein,  Yu-Chuan Su,  E. J. Sundstrom,  Zhen Tao,  
 J. Thirman,  T. Tsuchimochi,  N. M. Tubman,  S. P. Veccham,  O. Vydrov,  
 J. Wenzel,  J. Witte,  A. Yamada,  Kun Yao,  S. Yeganeh,  S. R. Yost,  
 A. Zech,  Igor Ying Zhang,  Xing Zhang,  Yu Zhang,  D. Zuev,  
 A. Aspuru-Guzik,  A. T. Bell,  N. A. Besley,  K. B. Bravaya,  B. R. Brooks,  
 D. Casanova,  Jeng-Da Chai,  S. Coriani,  C. J. Cramer,  
 A. E. DePrince, III,  R. A. DiStasio Jr.,  A. Dreuw,  B. D. Dunietz,  
 T. R. Furlani,  W. A. Goddard III,  S. Grimme,  S. Hammes-Schiffer,  
 T. Head-Gordon,  W. J. Hehre,  Chao-Ping Hsu,  T.-C. Jagau,  Yousung Jung,  
 A. Klamt,  Jing Kong,  D. S. Lambrecht,  WanZhen Liang,  N. J. Mayhall,  
 C. W. McCurdy,  J. B. Neaton,  C. Ochsenfeld,  J. A. Parkhill,  R. Peverati,  
 V. A. Rassolov,  Yihan Shao,  L. V. Slipchenko,  T. Stauch,  R. P. Steele,  
 J. E. Subotnik,  A. J. W. Thom,  A. Tkatchenko,  D. G. Truhlar,  
 T. Van Voorhis,  T. A. Wesolowski,  K. B. Whaley,  H. L. Woodcock III,  
 P. M. Zimmerman,  S. Faraji,  P. M. W. Gill,  M. Head-Gordon,  
 J. M. Herbert,  A. I. Krylov

 Contributors to earlier versions of Q-Chem not listed above: 
 R. D. Adamson,  B. Austin,  R. Baer,  J. Baker,  G. J. O. Beran,  
 K. Brandhorst,  S. T. Brown,  E. F. C. Byrd,  A. K. Chakraborty,  
 G. K. L. Chan,  Chun-Min Chang,  Yunqing Chen,  C.-L. Cheng,  
 Siu Hung Chien,  D. M. Chipman,  D. L. Crittenden,  H. Dachsel,  
 R. J. Doerksen,  A. D. Dutoi,  R. G. Edgar,  J. Fosso-Tande,  
 L. Fusti-Molnar,  D. Ghosh,  A. Ghysels,  A. Golubeva-Zadorozhnaya,  
 J. Gonthier,  M. S. Gordon,  S. R. Gwaltney,  G. Hawkins,  J. E. Herr,  
 A. Heyden,  S. Hirata,  E. G. Hohenstein,  G. Kedziora,  F. J. Keil,  
 C. Kelley,  Jihan Kim,  R. A. King,  R. Z. Khaliullin,  P. P. Korambath,  
 W. Kurlancheek,  A. Laurent,  A. M. Lee,  M. S. Lee,  S. V. Levchenko,  
 Ching Yeh Lin,  D. Liotard,  E. Livshits,  R. C. Lochan,  I. Lotan,  
 L. A. Martinez-Martinez,  P. E. Maslen,  N. Nair,  D. P. O'Neill,  
 D. Neuhauser,  E. Neuscamman,  C. M. Oana,  R. Olivares-Amaya,  R. Olson,  
 T. M. Perrine,  B. Peters,  P. A. Pieniazek,  A. Prociuk,  Y. M. Rhee,  
 J. Ritchie,  M. A. Rohrdanz,  E. Rosta,  N. J. Russ,  H. F. Schaefer III,  
 M. W. Schmidt,  N. E. Schultz,  S. Sharma,  N. Shenvi,  C. D. Sherrill,  
 A. C. Simmonett,  A. Sodt,  T. Stein,  D. Stuck,  K. S. Thanthiriwatte,  
 V. Vanovschi,  L. Vogt,  Tao Wang,  A. Warshel,  M. A. Watson,  
 C. F. Williams,  Q. Wu,  X. Xu,  Jun Yang,  W. Zhang,  Yan Zhao

 Please cite Q-Chem as follows:
 Y. Shao et al., Mol. Phys. 113, 184-215 (2015)
 DOI: 10.1080/00268976.2014.952696

 Q-Chem 5.4.0 for Intel X86 EM64T Linux

 Parts of Q-Chem use Armadillo 9.800.1 (Horizon Scraper).
 http://arma.sourceforge.net/

 Q-Chem begins on Thu Feb 22 07:22:36 2024  

 Host: 
0

     Scratch files written to /expanse/lustre/scratch/selhajj/temp_project/qcscratch/28871709/qchem3359315//
 May1621 |scratch|qcdevops|jenkins|workspace|build_RNUM    
 Processing $rem in /cm/shared/apps/spack/cpu/opt/spack/linux-centos8-zen2/gcc-10.2.0/qchem-5.4-akfmr7b3t57bfs6qan3padb2wnb2i7cl/config/preferences:
 Processing $rem in /home/selhajj/.qchemrc:

 Checking the input file for inconsistencies... 
 Q-Chem warning in module libgen/CheckREMs.C, line 172:

 Found a $solvent section, which is only used for PCM and Kirkwood-Onsager solvation models

	...done.

--------------------------------------------------------------
User input:
--------------------------------------------------------------
$molecule
-2 2
O                 -2.4962970000     -2.7906020000     -1.6617900000
S                 -2.9989010000     -2.3505740000     -0.3379530000
O                 -2.5734290000     -3.1546030000      0.8331650000
O                 -4.4844240000     -2.1363620000     -0.3524470000
C                 -2.3325420000     -0.6120180000     -0.0648510000
C                 -3.3466740000      0.3267470000      0.0545170000
C                 -3.0722040000      1.6888030000      0.2583800000
C                 -1.7691250000      2.1202670000      0.3411090000
C                 -0.6991810000      1.2076130000      0.2256850000
C                  0.6508790000      1.7816480000      0.3266600000
O                  0.8356240000      3.0226000000      0.5069970000
C                  1.7604350000      0.8570160000      0.2074830000
C                  3.0931020000      1.3312350000      0.2889570000
C                  4.1666090000      0.4717030000      0.1791260000
C                  3.9430880000     -0.9123920000     -0.0185340000
C                  2.6482650000     -1.3919840000     -0.0995950000
C                  1.5344790000     -0.5340840000      0.0090370000
C                  0.1813440000     -1.1234800000     -0.0867080000
O                  0.0549020000     -2.3458640000     -0.2475250000
C                 -0.9632460000     -0.1927470000      0.0212670000
H                 -4.3652320000     -0.0311790000     -0.0174780000
H                 -3.8949980000      2.3950900000      0.3478650000
H                 -1.5123330000      3.1617550000      0.4952880000
H                  3.2305820000      2.3963150000      0.4410640000
H                  5.1826370000      0.8548050000      0.2439750000
H                  4.7856280000     -1.5938550000     -0.1059810000
H                  2.4410150000     -2.4458560000     -0.2498510000
$end
$rem
MAX_SCF_CYCLES=200
BASIS  =  6-311++G(d,p)
GUI  =  2
JOB_TYPE  =  SP
METHOD  =  B3LYP
SOLVENT_METHOD = COSMO
$end
$solvent
dielectric 37.219
opticaldielectric 1.43
$end





--------------------------------------------------------------
 ----------------------------------------------------------------
             Standard Nuclear Orientation (Angstroms)
    I     Atom           X                Y                Z
 ----------------------------------------------------------------
    1      O      -2.8229801277     1.6343289925     1.2620627559
    2      S      -3.0335364188     0.8728515418     0.0072329011
    3      O      -2.8587645402     1.6225621165    -1.2602035944
    4      O      -4.3297226268     0.1163437467     0.0289748140
    5      C      -1.7507406009    -0.5039264278    -0.0034111748
    6      C      -2.3316740901    -1.7634930919    -0.0029032549
    7      C      -1.5565259225    -2.9344887323    -0.0051346237
    8      C      -0.1841229951    -2.8477120626    -0.0047280203
    9      C       0.4584603862    -1.5914769166    -0.0045213785
   10      C       1.9286812982    -1.6199763047    -0.0010013624
   11      O       2.5740796300    -2.7108795001     0.0012847336
   12      C       2.6032110507    -0.3372979968     0.0018237894
   13      C       4.0188321942    -0.2783752586     0.0100635972
   14      C       4.6848755500     0.9297870464     0.0124044962
   15      C       3.9491038357     2.1394774207     0.0061383464
   16      C       2.5665376109     2.0997442109    -0.0026865947
   17      C       1.8625235485     0.8779943615    -0.0047066537
   18      C       0.3840959996     0.9187530114    -0.0156516581
   19      O      -0.1990869133     2.0122085693    -0.0336783993
   20      C      -0.3213568146    -0.3813513753    -0.0070669810
   21      H      -3.4126181623    -1.8114392097     0.0010695897
   22      H      -2.0489703247    -3.9047141250    -0.0053714207
   23      H       0.4519002271    -3.7251426857    -0.0040124785
   24      H       4.5530661292    -1.2223077343     0.0143391414
   25      H       5.7723613987     0.9545966112     0.0190713071
   26      H       4.4692067863     3.0941506704     0.0082256801
   27      H       1.9720269647     3.0067730995    -0.0082818772
 ----------------------------------------------------------------
 Molecular Point Group                 C1    NOp =  1
 Largest Abelian Subgroup              C1    NOp =  1
 Nuclear Repulsion Energy =        1629.06613365 hartrees
 There are       75 alpha and       74 beta electrons
 Requested basis set is 6-311++G(d,p)
 There are 162 shells and 497 basis functions

 Total QAlloc Memory Limit   8000 MB
 Mega-Array Size       188 MB
 MEM_STATIC part       192 MB
 A cutoff of  1.0D-08 yielded   8763 shell pairs
 There are     87250 function pairs (     93558 Cartesian)
 Smallest overlap matrix eigenvalue = 4.55E-08

 Q-Chem warning in module stvman/mkSTV.C, line 323:

 Overlap eigenvalue is smaller than square root of threshold
 Use THRESH >= 12 to get rid of this warning

 Linear dependence detected in AO basis
 Tighter screening thresholds may be required for diffuse basis sets
 Use S2THRESH > 14 and THRESH = 14 in case of SCF convergence issues
 Number of orthogonalized atomic orbitals = 490
 Maximum deviation from orthogonality = 1.775E-10

 Scale SEOQF with 1.000000e-02/1.000000e-01/1.000000e-01

 Standard Electronic Orientation quadrupole field applied
 Nucleus-field energy     =     0.0000000313 hartrees
 Guess from superposition of atomic densities
 Warning:  Energy on first SCF cycle will be non-variational
 SAD guess density has 147.000000 electrons

 -----------------------------------------------------------------------
  General SCF calculation program by
  Eric Jon Sundstrom, Paul Horn, Yuezhi Mao, Dmitri Zuev, Alec White,
  David Stuck, Shaama M.S., Shane Yost, Joonho Lee, David Small,
  Daniel Levine, Susi Lehtola, Hugh Burton, Evgeny Epifanovsky,
  Bang C. Huynh
 -----------------------------------------------------------------------
 Exchange:     0.2000 Hartree-Fock + 0.0800 Slater + 0.7200 B88
 Correlation:  0.1900 VWN1RPA + 0.8100 LYP
 Using SG-1 standard quadrature grid
 using 8 threads for integral computing
 -------------------------------------------------------
 OpenMP Integral computing Module                
 Release: version 1.0, May 2013, Q-Chem Inc. Pittsburgh 
 -------------------------------------------------------
 A unrestricted SCF calculation will be
 performed using DIIS
 SCF converges when DIIS error is below 1.0e-05
 ---------------------------------------
  Cycle       Energy         DIIS error
 ---------------------------------------
    1   -1317.1199185536      1.54e-02  
    2   -1311.6898238038      2.44e-03  
    3   -1306.4812059544      5.75e-03  
    4   -1311.6190832421      2.19e-03  
    5   -1312.2166411771      6.62e-04  
    6   -1312.2383999679      5.55e-04  
    7   -1312.2802472422      1.61e-04  
    8   -1312.2827641997      7.22e-05  
    9   -1312.2833287349      2.78e-05  
   10   -1312.2834187656      1.49e-05  
   11   -1312.2834664821      7.12e-06  Convergence criterion met
 ---------------------------------------
 SCF time:   CPU 496.15s  wall 63.00s 
<S^2> =          0.761613251
 SCF   energy in the final basis set =    -1312.2834664821
 Total energy in the final basis set =    -1312.2834664821
 Exchange:     0.2000 Hartree-Fock + 0.0800 Slater + 0.7200 B88
 Correlation:  0.1900 VWN1RPA + 0.8100 LYP
 Using SG-1 standard quadrature grid
 in get_qchem_info
 IBasis=      401111
 IBasis=      401111
 USING 1082 GRID
 MICHARGE=          -2
 Set epsilon to    37.2190017700195     
==== cosmo data ====
outfile: 222-rad-COSMO.out.cosmo.0
phsran:    0.00000D+00
ampran:    0.10000D-04
volume:   1971.1951792
area:    940.6701527
routf:      0.8500000
rsolv [a.u]:      2.4566438
disex:     10.0000000
disex2:   4683.6439784
fepsi:      0.9731320
eps :    37.2190018
lcavity:     1
nppa:  1082
nspa:    92
nsph:    32
maxnps:  2064
natoms:    27
Atom   Radius [a.u.] nuc. charge
    1      3.2503287    8
    2      4.0818081   16
    3      3.2503287    8
    4      3.2503287    8
    5      3.7794520    6
    6      3.7794520    6
    7      3.7794520    6
    8      3.7794520    6
    9      3.7794520    6
   10      3.7794520    6
   11      3.2503287    8
   12      3.7794520    6
   13      3.7794520    6
   14      3.7794520    6
   15      3.7794520    6
   16      3.7794520    6
   17      3.7794520    6
   18      3.7794520    6
   19      3.2503287    8
   20      3.7794520    6
   21      2.4566438    1
   22      2.4566438    1
   23      2.4566438    1
   24      2.4566438    1
   25      2.4566438    1
   26      2.4566438    1
   27      2.4566438    1
=== end cosmo data ===
 number of segments:         1089
 f_epsilon=  0.973132003749614     
Ediel:   -0.2563232
 A unrestricted SCF calculation will be
 performed using Roothaan-Hall, DIIS
 SCF converges when DIIS error is below 1.0e-05
 ---------------------------------------
  Cycle       Energy         DIIS error
 ---------------------------------------
 number of segments:         1089
 f_epsilon=  0.973132003749614     
Ediel:   -0.2920612
    1   -1312.5398030540      1.62e-04  Roothaan Step
 ---------------------------------------
  Cycle       Energy         DIIS error
 ---------------------------------------
 number of segments:         1089
 f_epsilon=  0.973132003749614     
Ediel:   -0.2759800
    1   -1312.5488425572      1.85e-04  
 number of segments:         1089
 f_epsilon=  0.973132003749614     
Ediel:   -0.2866574
    2   -1312.5394689835      3.51e-04  
 number of segments:         1089
 f_epsilon=  0.973132003749614     
Ediel:   -0.2873441
    3   -1312.5530715170      3.39e-05  
 number of segments:         1089
 f_epsilon=  0.973132003749614     
Ediel:   -0.2875941
    4   -1312.5531753879      1.38e-05  
    5   -1312.5532012519      6.28e-06  Convergence criterion met
 ---------------------------------------
 SCF time:   CPU 354.32s  wall 46.00s 
<S^2> =          0.759276866
before final oc correction, ETot:     -1312.5532012519
 number of outlayer segments:          494
SCF energy after oc correction:     -1312.5639889342
 SCF   energy in the final basis set =    -1312.5639889342
 Total energy in the final basis set =    -1312.5532012519
 
 --------------------------------------------------------------
 
                    Orbital Energies (a.u.)
 --------------------------------------------------------------
 
 Alpha MOs
 -- Occupied --
-89.0425 -19.0869 -19.0869 -19.0837 -19.0755 -19.0746 -10.2275 -10.2232
-10.1988 -10.1869 -10.1764 -10.1716 -10.1709 -10.1707 -10.1706 -10.1704
-10.1701 -10.1688 -10.1680 -10.1670  -8.1009  -6.0636  -6.0636  -6.0626
 -1.1036  -1.0108  -0.9981  -0.9724  -0.9634  -0.8610  -0.8502  -0.7833
 -0.7576  -0.7478  -0.7374  -0.6678  -0.6421  -0.6178  -0.6105  -0.5709
 -0.5434  -0.5318  -0.5225  -0.4831  -0.4647  -0.4638  -0.4551  -0.4509
 -0.4496  -0.4425  -0.4226  -0.4207  -0.4148  -0.4073  -0.4031  -0.3827
 -0.3718  -0.3682  -0.3654  -0.3449  -0.3417  -0.3350  -0.3330  -0.3275
 -0.3039  -0.2898  -0.2837  -0.2686  -0.2562  -0.2543  -0.2510  -0.2481
 -0.2449  -0.2343  -0.1414
 -- Virtual --
 -0.0558  -0.0215  -0.0077   0.0018   0.0098   0.0175   0.0265   0.0284
  0.0428   0.0448   0.0487   0.0503   0.0520   0.0579   0.0642   0.0647
  0.0689   0.0722   0.0838   0.0872   0.0877   0.0902   0.0983   0.1046
  0.1128   0.1140   0.1168   0.1185   0.1191   0.1209   0.1253   0.1275
  0.1294   0.1344   0.1346   0.1363   0.1409   0.1442   0.1542   0.1559
  0.1588   0.1660   0.1702   0.1708   0.1754   0.1815   0.1821   0.1879
  0.1920   0.1930   0.2012   0.2042   0.2067   0.2188   0.2212   0.2222
  0.2240   0.2313   0.2404   0.2423   0.2465   0.2477   0.2499   0.2532
  0.2537   0.2593   0.2654   0.2666   0.2684   0.2724   0.2790   0.2843
  0.2869   0.2905   0.2940   0.3012   0.3022   0.3061   0.3097   0.3105
  0.3140   0.3177   0.3216   0.3225   0.3238   0.3299   0.3316   0.3318
  0.3413   0.3450   0.3463   0.3530   0.3570   0.3608   0.3686   0.3757
  0.3799   0.3853   0.3960   0.4042   0.4049   0.4067   0.4106   0.4183
  0.4289   0.4400   0.4418   0.4479   0.4713   0.4808   0.4869   0.5113
  0.5172   0.5267   0.5360   0.5367   0.5488   0.5594   0.5612   0.5696
  0.5705   0.5728   0.5858   0.5944   0.6003   0.6010   0.6100   0.6134
  0.6194   0.6308   0.6340   0.6451   0.6552   0.6577   0.6602   0.6677
  0.6728   0.6789   0.6867   0.6879   0.6986   0.7141   0.7285   0.7286
  0.7470   0.7535   0.7703   0.7742   0.7798   0.7883   0.7892   0.8226
  0.8246   0.8342   0.8521   0.8590   0.8685   0.8735   0.8884   0.8902
  0.9033   0.9083   0.9169   0.9305   0.9362   0.9477   0.9521   0.9550
  0.9555   0.9656   0.9821   0.9903   0.9912   0.9923   1.0066   1.0105
  1.0183   1.0290   1.0316   1.0564   1.0578   1.0609   1.0726   1.0822
  1.0936   1.0985   1.1135   1.1258   1.1284   1.1392   1.1514   1.1525
  1.1572   1.1585   1.1808   1.1877   1.1972   1.2070   1.2188   1.2221
  1.2303   1.2446   1.2520   1.2548   1.2605   1.2695   1.2741   1.2839
  1.3084   1.3263   1.3296   1.3490   1.3644   1.4074   1.4276   1.4539
  1.4897   1.4938   1.5010   1.5132   1.5228   1.5331   1.5341   1.5394
  1.5443   1.5738   1.5739   1.5865   1.5874   1.6152   1.6288   1.6376
  1.6600   1.6676   1.6814   1.6960   1.7088   1.7115   1.7218   1.7473
  1.7559   1.7664   1.7806   1.7819   1.7992   1.8194   1.8380   1.8606
  1.8629   1.8707   1.8978   1.9044   1.9113   1.9177   1.9200   1.9340
  1.9505   1.9511   1.9568   1.9669   1.9886   1.9912   1.9956   2.0019
  2.0227   2.0290   2.0338   2.0794   2.0829   2.0938   2.1033   2.1224
  2.1428   2.1757   2.1868   2.2156   2.2582   2.2875   2.2921   2.3207
  2.3456   2.3728   2.3920   2.4018   2.4348   2.4505   2.4857   2.4962
  2.5294   2.5584   2.5880   2.6343   2.6482   2.6619   2.6831   2.7058
  2.7271   2.7310   2.7448   2.7552   2.7605   2.7641   2.7704   2.7800
  2.7880   2.7915   2.8013   2.8033   2.8072   2.8092   2.8172   2.8346
  2.8433   2.8521   2.8611   2.8644   2.8778   2.8863   2.8868   2.8932
  2.9054   2.9086   2.9123   2.9351   2.9456   2.9593   2.9654   2.9784
  2.9822   3.0005   3.0400   3.0600   3.1027   3.1102   3.1345   3.1581
  3.1677   3.1716   3.2170   3.2338   3.2354   3.2558   3.2853   3.3265
  3.3302   3.3445   3.3683   3.3821   3.4207   3.4393   3.4496   3.5201
  3.5240   3.5462   3.5754   3.5799   3.5924   3.5925   3.5962   3.6229
  3.6858   3.7578   3.8355   3.8517   3.9474   4.0488   4.0638   4.0893
  4.1741   4.2049   4.2817   4.3118   4.4913   4.8027   4.8339   4.8539
  5.0232   5.0535   5.0559   5.0831   5.0836   5.1173   5.1202   5.1559
  5.1689   5.2836   5.2888   5.3216   5.3450   5.7647   5.8502   8.2154
 17.4233  17.4318  17.5201  23.5364  23.6796  23.9014  23.9175  23.9234
 23.9470  23.9534  23.9788  23.9998  24.0433  24.0968  24.1222  24.1910
 24.1976  49.8941  49.9261  49.9881  50.0655  50.1222 189.3066
 
 Beta MOs
 -- Occupied --
-89.0425 -19.0869 -19.0868 -19.0837 -19.0700 -19.0690 -10.2264 -10.2210
-10.1988 -10.1857 -10.1758 -10.1707 -10.1706 -10.1703 -10.1700 -10.1698
-10.1696 -10.1687 -10.1678 -10.1673  -8.1009  -6.0636  -6.0636  -6.0626
 -1.1035  -1.0013  -0.9882  -0.9723  -0.9633  -0.8584  -0.8490  -0.7793
 -0.7556  -0.7459  -0.7355  -0.6605  -0.6405  -0.6157  -0.6089  -0.5698
 -0.5416  -0.5297  -0.5210  -0.4810  -0.4633  -0.4628  -0.4535  -0.4505
 -0.4495  -0.4420  -0.4204  -0.4095  -0.4093  -0.4055  -0.4006  -0.3706
 -0.3651  -0.3646  -0.3595  -0.3436  -0.3346  -0.3340  -0.3279  -0.3273
 -0.3021  -0.2896  -0.2832  -0.2545  -0.2523  -0.2458  -0.2443  -0.2426
 -0.2400  -0.2293
 -- Virtual --
 -0.0823  -0.0467  -0.0110  -0.0052   0.0019   0.0098   0.0176   0.0266
  0.0284   0.0430   0.0460   0.0487   0.0503   0.0578   0.0607   0.0648
  0.0706   0.0721   0.0791   0.0839   0.0872   0.0883   0.0904   0.0993
  0.1051   0.1130   0.1141   0.1174   0.1185   0.1192   0.1243   0.1255
  0.1277   0.1296   0.1347   0.1349   0.1383   0.1412   0.1444   0.1552
  0.1560   0.1591   0.1662   0.1709   0.1714   0.1753   0.1818   0.1840
  0.1890   0.1921   0.1941   0.2041   0.2049   0.2070   0.2189   0.2214
  0.2228   0.2245   0.2324   0.2415   0.2450   0.2468   0.2483   0.2509
  0.2540   0.2565   0.2610   0.2662   0.2677   0.2695   0.2734   0.2796
  0.2858   0.2874   0.2911   0.2951   0.3019   0.3025   0.3068   0.3106
  0.3136   0.3144   0.3179   0.3224   0.3230   0.3245   0.3309   0.3328
  0.3343   0.3416   0.3458   0.3477   0.3535   0.3578   0.3613   0.3689
  0.3761   0.3807   0.3861   0.3964   0.4048   0.4059   0.4075   0.4119
  0.4187   0.4315   0.4412   0.4425   0.4489   0.4721   0.4815   0.4878
  0.5125   0.5181   0.5278   0.5368   0.5376   0.5502   0.5604   0.5628
  0.5703   0.5736   0.5759   0.5865   0.5950   0.6014   0.6026   0.6117
  0.6145   0.6200   0.6319   0.6351   0.6484   0.6562   0.6610   0.6620
  0.6694   0.6736   0.6798   0.6889   0.6907   0.7029   0.7148   0.7292
  0.7320   0.7475   0.7538   0.7727   0.7747   0.7802   0.7892   0.7900
  0.8231   0.8269   0.8355   0.8526   0.8597   0.8689   0.8743   0.8891
  0.8907   0.9040   0.9099   0.9175   0.9327   0.9375   0.9492   0.9528
  0.9567   0.9597   0.9664   0.9831   0.9921   0.9927   0.9933   1.0087
  1.0124   1.0206   1.0307   1.0323   1.0588   1.0597   1.0634   1.0730
  1.0825   1.0966   1.1035   1.1169   1.1274   1.1297   1.1447   1.1543
  1.1553   1.1589   1.1616   1.1838   1.1900   1.1980   1.2085   1.2193
  1.2235   1.2363   1.2465   1.2539   1.2608   1.2614   1.2750   1.2755
  1.2849   1.3104   1.3283   1.3311   1.3513   1.3665   1.4084   1.4294
  1.4556   1.4906   1.4984   1.5017   1.5138   1.5239   1.5372   1.5381
  1.5403   1.5451   1.5748   1.5750   1.5875   1.5881   1.6176   1.6299
  1.6392   1.6609   1.6682   1.6823   1.6966   1.7124   1.7137   1.7231
  1.7485   1.7575   1.7679   1.7819   1.7834   1.8036   1.8225   1.8392
  1.8617   1.8648   1.8720   1.8984   1.9058   1.9146   1.9203   1.9224
  1.9361   1.9520   1.9522   1.9578   1.9708   1.9901   1.9924   1.9976
  2.0064   2.0238   2.0308   2.0347   2.0813   2.0842   2.0950   2.1045
  2.1255   2.1437   2.1767   2.1884   2.2172   2.2603   2.2901   2.2951
  2.3248   2.3489   2.3737   2.3956   2.4050   2.4361   2.4511   2.4861
  2.4964   2.5301   2.5591   2.5890   2.6410   2.6500   2.6645   2.6837
  2.7100   2.7274   2.7312   2.7455   2.7555   2.7646   2.7673   2.7705
  2.7806   2.7881   2.7919   2.8017   2.8054   2.8076   2.8151   2.8178
  2.8357   2.8435   2.8542   2.8619   2.8669   2.8809   2.8866   2.8912
  2.9006   2.9065   2.9133   2.9155   2.9391   2.9546   2.9669   2.9691
  2.9854   2.9903   3.0071   3.0451   3.0603   3.1058   3.1141   3.1360
  3.1590   3.1681   3.1781   3.2184   3.2350   3.2361   3.2567   3.2864
  3.3282   3.3450   3.3453   3.3825   3.3828   3.4213   3.4400   3.4503
  3.5221   3.5260   3.5476   3.5765   3.5806   3.5925   3.5936   3.5978
  3.6233   3.6874   3.7592   3.8374   3.8565   3.9495   4.0497   4.0646
  4.0907   4.1753   4.2060   4.2843   4.3150   4.4944   4.8073   4.8351
  4.8550   5.0238   5.0538   5.0628   5.0836   5.1049   5.1202   5.1338
  5.1560   5.1690   5.2837   5.2933   5.3222   5.3491   5.7695   5.8550
  8.2154  17.4233  17.4318  17.5201  23.5371  23.6801  23.9024  23.9187
 23.9246  23.9475  23.9547  23.9802  24.0004  24.0442  24.0972  24.1225
 24.1913  24.1979  49.8941  49.9262  49.9882  50.0710  50.1277 189.3066
 --------------------------------------------------------------
 
          Ground-State Mulliken Net Atomic Charges

     Atom                 Charge (a.u.)    Spin (a.u.)
  --------------------------------------------------------
      1 O                    -0.437320      -0.000566
      2 S                     0.676359       0.006572
      3 O                    -0.435904      -0.000491
      4 O                    -0.457888       0.000354
      5 C                    -0.870496       0.011331
      6 C                     0.625392       0.037982
      7 C                    -0.328875       0.033331
      8 C                    -0.454641       0.029857
      9 C                     0.704004       0.028731
     10 C                    -0.409774       0.132824
     11 O                    -0.501924       0.203327
     12 C                    -0.000347      -0.006695
     13 C                     0.046382       0.048500
     14 C                    -0.515225       0.012753
     15 C                    -0.506977       0.057593
     16 C                     0.144626       0.007235
     17 C                     0.313545       0.050912
     18 C                    -0.865008       0.060857
     19 O                    -0.376263       0.207070
     20 C                     0.256704       0.094692
     21 H                     0.250295      -0.003228
     22 H                     0.220010      -0.002238
     23 H                     0.165754      -0.001942
     24 H                     0.177520      -0.002628
     25 H                     0.202006      -0.001482
     26 H                     0.203945      -0.004567
     27 H                     0.174097      -0.000085
  --------------------------------------------------------
  Sum of atomic charges =    -2.000000
  Sum of spin   charges =     1.000000

 -----------------------------------------------------------------
                    Cartesian Multipole Moments
 -----------------------------------------------------------------
    Charge (ESU x 10^10)
                -9.6064
    Dipole Moment (Debye)
         X      12.4590      Y      -4.9355      Z       0.0092
       Tot      13.4010
    Quadrupole Moments (Debye-Ang)
        XX    -206.6733     XY      41.3329     YY    -159.9222
        XZ       0.1786     YZ       0.1445     ZZ    -139.6881
    Octopole Moments (Debye-Ang^2)
       XXX     229.3011    XXY      -4.9730    XYY     -22.5033
       YYY      13.1152    XXZ      -0.3790    XYZ      -0.1186
       YYZ       0.2581    XZZ       9.2634    YZZ     -10.8709
       ZZZ      -0.0486
    Hexadecapole Moments (Debye-Ang^3)
      XXXX   -6532.5156   XXXY     336.2381   XXYY   -1466.5991
      XYYY     265.7284   YYYY   -2361.9749   XXXZ       5.2604
      XXYZ       1.1753   XYYZ      -0.1004   YYYZ       0.5754
      XXZZ   -1115.1753   XYZZ      14.6974   YYZZ    -474.3231
      XZZZ      -0.6245   YZZZ      -0.3621   ZZZZ    -290.8305
 -----------------------------------------------------------------
 Total job time:  112.30s(wall), 859.41s(cpu) 
 Thu Feb 22 07:24:28 2024

        *************************************************************
        *                                                           *
        *  Thank you very much for using Q-Chem.  Have a nice day.  *
        *                                                           *
        *************************************************************


