 Entering Gaussian System, Link 0=g16
 Input=264.com
 Output=264.log
 Initial command:
 /sysapps/ubuntu-applications/gaussian/Gaussian/AVX2/g16/l1.exe "/scratch/selhajj1/4407454/Gau-2257507.inp" -scrdir="/scratch/selhajj1/4407454/"
 Entering Link 1 = /sysapps/ubuntu-applications/gaussian/Gaussian/AVX2/g16/l1.exe PID=   2257509.
  
 Copyright (c) 1988,1990,1992,1993,1995,1998,2003,2009,2016,
            Gaussian, Inc.  All Rights Reserved.
  
 This is part of the Gaussian(R) 16 program.  It is based on
 the Gaussian(R) 09 system (copyright 2009, Gaussian, Inc.),
 the Gaussian(R) 03 system (copyright 2003, Gaussian, Inc.),
 the Gaussian(R) 98 system (copyright 1998, Gaussian, Inc.),
 the Gaussian(R) 94 system (copyright 1995, Gaussian, Inc.),
 the Gaussian 92(TM) system (copyright 1992, Gaussian, Inc.),
 the Gaussian 90(TM) system (copyright 1990, Gaussian, Inc.),
 the Gaussian 88(TM) system (copyright 1988, Gaussian, Inc.),
 the Gaussian 86(TM) system (copyright 1986, Carnegie Mellon
 University), and the Gaussian 82(TM) system (copyright 1983,
 Carnegie Mellon University). Gaussian is a federally registered
 trademark of Gaussian, Inc.
  
 This software contains proprietary and confidential information,
 including trade secrets, belonging to Gaussian, Inc.
  
 This software is provided under written license and may be
 used, copied, transmitted, or stored only in accord with that
 written license.
  
 The following legend is applicable only to US Government
 contracts under FAR:
  
                    RESTRICTED RIGHTS LEGEND
  
 Use, reproduction and disclosure by the US Government is
 subject to restrictions as set forth in subparagraphs (a)
 and (c) of the Commercial Computer Software - Restricted
 Rights clause in FAR 52.227-19.
  
 Gaussian, Inc.
 340 Quinnipiac St., Bldg. 40, Wallingford CT 06492
  
  
 ---------------------------------------------------------------
 Warning -- This program may not be used in any manner that
 competes with the business of Gaussian, Inc. or will provide
 assistance to any competitor of Gaussian, Inc.  The licensee
 of this program is prohibited from giving any competitor of
 Gaussian, Inc. access to this program.  By using this program,
 the user acknowledges that Gaussian, Inc. is engaged in the
 business of creating and licensing software in the field of
 computational chemistry and represents and warrants to the
 licensee that it is not a competitor of Gaussian, Inc. and that
 it will not use this program in any manner prohibited above.
 ---------------------------------------------------------------
  

 Cite this work as:
 Gaussian 16, Revision A.03,
 M. J. Frisch, G. W. Trucks, H. B. Schlegel, G. E. Scuseria, 
 M. A. Robb, J. R. Cheeseman, G. Scalmani, V. Barone, 
 G. A. Petersson, H. Nakatsuji, X. Li, M. Caricato, A. V. Marenich, 
 J. Bloino, B. G. Janesko, R. Gomperts, B. Mennucci, H. P. Hratchian, 
 J. V. Ortiz, A. F. Izmaylov, J. L. Sonnenberg, D. Williams-Young, 
 F. Ding, F. Lipparini, F. Egidi, J. Goings, B. Peng, A. Petrone, 
 T. Henderson, D. Ranasinghe, V. G. Zakrzewski, J. Gao, N. Rega, 
 G. Zheng, W. Liang, M. Hada, M. Ehara, K. Toyota, R. Fukuda, 
 J. Hasegawa, M. Ishida, T. Nakajima, Y. Honda, O. Kitao, H. Nakai, 
 T. Vreven, K. Throssell, J. A. Montgomery, Jr., J. E. Peralta, 
 F. Ogliaro, M. J. Bearpark, J. J. Heyd, E. N. Brothers, K. N. Kudin, 
 V. N. Staroverov, T. A. Keith, R. Kobayashi, J. Normand, 
 K. Raghavachari, A. P. Rendell, J. C. Burant, S. S. Iyengar, 
 J. Tomasi, M. Cossi, J. M. Millam, M. Klene, C. Adamo, R. Cammi, 
 J. W. Ochterski, R. L. Martin, K. Morokuma, O. Farkas, 
 J. B. Foresman, and D. J. Fox, Gaussian, Inc., Wallingford CT, 2016.
 
 ******************************************
 Gaussian 16:  ES64L-G16RevA.03 25-Dec-2016
                11-Feb-2024 
 ******************************************
 %chk=264.chk
 %nproc=8
 Will use up to    8 processors via shared memory.
 %mem=30GB
 ----------------------------------------------------------------------
 #P UB3LYP/6-311++G(d,p) nosym opt freq SCRF=(PCM,Solvent=n,n-DiMethylF
 ormamide)
 ----------------------------------------------------------------------
 1/18=20,19=15,26=3,38=1/1,3;
 2/9=110,12=2,15=1,17=6,18=5,40=1/2;
 3/5=4,6=6,7=1111,11=2,25=1,30=1,70=2201,71=1,72=148,74=-5,116=2/1,2,3;
 4//1;
 5/5=2,38=5,53=148/2;
 6/7=2,8=2,9=2,10=2,28=1/1;
 7/30=1/1,2,3,16;
 1/18=20,19=15,26=3/3(2);
 2/9=110,15=1/2;
 99//99;
 2/9=110,15=1/2;
 3/5=4,6=6,7=1111,11=2,25=1,30=1,70=2205,71=1,72=148,74=-5,116=2/1,2,3;
 4/5=5,16=3,69=1/1;
 5/5=2,38=5,53=148/2;
 7/30=1/1,2,3,16;
 1/18=20,19=15,26=3/3(-5);
 2/9=110,15=1/2;
 6/7=2,8=2,9=2,10=2,19=2,28=1/1;
 99/9=1/99;
 Leave Link    1 at Sun Feb 11 00:04:26 2024, MaxMem=  4026531840 cpu:               0.8 elap:               0.2
 (Enter /sysapps/ubuntu-applications/gaussian/Gaussian/AVX2/g16/l101.exe)
 --------
 Oxidized
 --------
 Symbolic Z-matrix:
 Charge =  0 Multiplicity = 1
 C                     4.90409  -1.22506  -0.0227 
 C                     3.53379  -1.04064  -0.60001 
 O                     3.25345  -0.69388  -1.7112 
 O                     2.57466  -1.34675   0.35054 
 C                     1.25234  -1.0581    0.07582 
 C                     0.42265  -2.14549  -0.17792 
 C                    -0.92951  -1.9516   -0.39292 
 C                    -1.46577  -0.66863  -0.35382 
 O                    -2.80984  -0.55639  -0.65112 
 C                    -3.69581  -0.2686    0.3731 
 C                    -5.05253   0.02556  -0.19069 
 O                    -3.37413  -0.27792   1.52641 
 C                    -0.6525    0.44612  -0.09933 
 C                    -1.22177   1.83099  -0.07596 
 O                    -2.40241   2.07496  -0.26912 
 C                    -0.29664   2.95072   0.20145 
 C                     1.00318   2.76001   0.44264 
 C                     1.6238    1.41814   0.41469 
 O                     2.8222    1.31766   0.62569 
 C                     0.73838   0.24677   0.12096 
 H                     5.64081  -1.21576  -0.82325 
 H                     5.09397  -0.39545   0.66287 
 H                     4.96437  -2.15342   0.54717 
 H                     0.85804  -3.13662  -0.20052 
 H                    -1.59061  -2.78475  -0.59594 
 H                    -5.31564  -0.69425  -0.96715 
 H                    -5.0182    1.01757  -0.64789 
 H                    -5.7894    0.0156    0.60972 
 H                    -0.75489   3.93342   0.20818 
 H                     1.6839    3.5758    0.65907 
 
 ITRead=  0  0  0  0  0  0  0  0  0  0  0  0  0  0  0  0  0  0  0  0
 ITRead=  0  0  0  0  0  0  0  0  0  0
 MicOpt= -1 -1 -1 -1 -1 -1 -1 -1 -1 -1 -1 -1 -1 -1 -1 -1 -1 -1 -1 -1
 MicOpt= -1 -1 -1 -1 -1 -1 -1 -1 -1 -1
 NAtoms=     30 NQM=       30 NQMF=       0 NMMI=      0 NMMIF=      0
                NMic=       0 NMicF=      0.
                    Isotopes and Nuclear Properties:
 (Nuclear quadrupole moments (NQMom) in fm**2, nuclear magnetic moments (NMagM)
  in nuclear magnetons)

  Atom         1           2           3           4           5           6           7           8           9          10
 IAtWgt=          12          12          16          16          12          12          12          12          16          12
 AtmWgt=  12.0000000  12.0000000  15.9949146  15.9949146  12.0000000  12.0000000  12.0000000  12.0000000  15.9949146  12.0000000
 NucSpn=           0           0           0           0           0           0           0           0           0           0
 AtZEff=  -0.0000000  -0.0000000  -0.0000000  -0.0000000  -0.0000000  -0.0000000  -0.0000000  -0.0000000  -0.0000000  -0.0000000
 NQMom=    0.0000000   0.0000000   0.0000000   0.0000000   0.0000000   0.0000000   0.0000000   0.0000000   0.0000000   0.0000000
 NMagM=    0.0000000   0.0000000   0.0000000   0.0000000   0.0000000   0.0000000   0.0000000   0.0000000   0.0000000   0.0000000
 AtZNuc=   6.0000000   6.0000000   8.0000000   8.0000000   6.0000000   6.0000000   6.0000000   6.0000000   8.0000000   6.0000000

  Atom        11          12          13          14          15          16          17          18          19          20
 IAtWgt=          12          16          12          12          16          12          12          12          16          12
 AtmWgt=  12.0000000  15.9949146  12.0000000  12.0000000  15.9949146  12.0000000  12.0000000  12.0000000  15.9949146  12.0000000
 NucSpn=           0           0           0           0           0           0           0           0           0           0
 AtZEff=  -0.0000000  -0.0000000  -0.0000000  -0.0000000  -0.0000000  -0.0000000  -0.0000000  -0.0000000  -0.0000000  -0.0000000
 NQMom=    0.0000000   0.0000000   0.0000000   0.0000000   0.0000000   0.0000000   0.0000000   0.0000000   0.0000000   0.0000000
 NMagM=    0.0000000   0.0000000   0.0000000   0.0000000   0.0000000   0.0000000   0.0000000   0.0000000   0.0000000   0.0000000
 AtZNuc=   6.0000000   8.0000000   6.0000000   6.0000000   8.0000000   6.0000000   6.0000000   6.0000000   8.0000000   6.0000000

  Atom        21          22          23          24          25          26          27          28          29          30
 IAtWgt=           1           1           1           1           1           1           1           1           1           1
 AtmWgt=   1.0078250   1.0078250   1.0078250   1.0078250   1.0078250   1.0078250   1.0078250   1.0078250   1.0078250   1.0078250
 NucSpn=           1           1           1           1           1           1           1           1           1           1
 AtZEff=  -0.0000000  -0.0000000  -0.0000000  -0.0000000  -0.0000000  -0.0000000  -0.0000000  -0.0000000  -0.0000000  -0.0000000
 NQMom=    0.0000000   0.0000000   0.0000000   0.0000000   0.0000000   0.0000000   0.0000000   0.0000000   0.0000000   0.0000000
 NMagM=    2.7928460   2.7928460   2.7928460   2.7928460   2.7928460   2.7928460   2.7928460   2.7928460   2.7928460   2.7928460
 AtZNuc=   1.0000000   1.0000000   1.0000000   1.0000000   1.0000000   1.0000000   1.0000000   1.0000000   1.0000000   1.0000000
 Leave Link  101 at Sun Feb 11 00:04:26 2024, MaxMem=  4026531840 cpu:               2.6 elap:               0.4
 (Enter /sysapps/ubuntu-applications/gaussian/Gaussian/AVX2/g16/l103.exe)

 GradGradGradGradGradGradGradGradGradGradGradGradGradGradGradGradGradGrad
 Berny optimization.
 Initialization pass.
                           ----------------------------
                           !    Initial Parameters    !
                           ! (Angstroms and Degrees)  !
 --------------------------                            --------------------------
 ! Name  Definition              Value          Derivative Info.                !
 --------------------------------------------------------------------------------
 ! R1    R(1,2)                  1.4983         estimate D2E/DX2                !
 ! R2    R(1,21)                 1.088          estimate D2E/DX2                !
 ! R3    R(1,22)                 1.0928         estimate D2E/DX2                !
 ! R4    R(1,23)                 1.091          estimate D2E/DX2                !
 ! R5    R(2,3)                  1.1973         estimate D2E/DX2                !
 ! R6    R(2,4)                  1.3846         estimate D2E/DX2                !
 ! R7    R(4,5)                  1.3811         estimate D2E/DX2                !
 ! R8    R(5,6)                  1.3911         estimate D2E/DX2                !
 ! R9    R(5,20)                 1.4032         estimate D2E/DX2                !
 ! R10   R(6,7)                  1.3828         estimate D2E/DX2                !
 ! R11   R(6,24)                 1.0828         estimate D2E/DX2                !
 ! R12   R(7,8)                  1.3911         estimate D2E/DX2                !
 ! R13   R(7,25)                 1.0828         estimate D2E/DX2                !
 ! R14   R(8,9)                  1.3811         estimate D2E/DX2                !
 ! R15   R(8,13)                 1.4031         estimate D2E/DX2                !
 ! R16   R(9,10)                 1.3845         estimate D2E/DX2                !
 ! R17   R(10,11)                1.4984         estimate D2E/DX2                !
 ! R18   R(10,12)                1.1974         estimate D2E/DX2                !
 ! R19   R(11,26)                1.091          estimate D2E/DX2                !
 ! R20   R(11,27)                1.0928         estimate D2E/DX2                !
 ! R21   R(11,28)                1.088          estimate D2E/DX2                !
 ! R22   R(13,14)                1.4975         estimate D2E/DX2                !
 ! R23   R(13,20)                1.4223         estimate D2E/DX2                !
 ! R24   R(14,15)                1.221          estimate D2E/DX2                !
 ! R25   R(14,16)                1.4787         estimate D2E/DX2                !
 ! R26   R(16,17)                1.3357         estimate D2E/DX2                !
 ! R27   R(16,29)                1.0843         estimate D2E/DX2                !
 ! R28   R(17,18)                1.4787         estimate D2E/DX2                !
 ! R29   R(17,30)                1.0843         estimate D2E/DX2                !
 ! R30   R(18,19)                1.221          estimate D2E/DX2                !
 ! R31   R(18,20)                1.4974         estimate D2E/DX2                !
 ! A1    A(2,1,21)             109.5552         estimate D2E/DX2                !
 ! A2    A(2,1,22)             107.8894         estimate D2E/DX2                !
 ! A3    A(2,1,23)             110.8869         estimate D2E/DX2                !
 ! A4    A(21,1,22)            109.7215         estimate D2E/DX2                !
 ! A5    A(21,1,23)            110.7444         estimate D2E/DX2                !
 ! A6    A(22,1,23)            107.9809         estimate D2E/DX2                !
 ! A7    A(1,2,3)              127.3987         estimate D2E/DX2                !
 ! A8    A(1,2,4)              109.9859         estimate D2E/DX2                !
 ! A9    A(3,2,4)              122.6128         estimate D2E/DX2                !
 ! A10   A(2,4,5)              118.7166         estimate D2E/DX2                !
 ! A11   A(4,5,6)              116.3568         estimate D2E/DX2                !
 ! A12   A(4,5,20)             122.5933         estimate D2E/DX2                !
 ! A13   A(6,5,20)             120.9523         estimate D2E/DX2                !
 ! A14   A(5,6,7)              120.1296         estimate D2E/DX2                !
 ! A15   A(5,6,24)             118.6523         estimate D2E/DX2                !
 ! A16   A(7,6,24)             121.218          estimate D2E/DX2                !
 ! A17   A(6,7,8)              120.1259         estimate D2E/DX2                !
 ! A18   A(6,7,25)             121.2173         estimate D2E/DX2                !
 ! A19   A(8,7,25)             118.6567         estimate D2E/DX2                !
 ! A20   A(7,8,9)              116.3625         estimate D2E/DX2                !
 ! A21   A(7,8,13)             120.9558         estimate D2E/DX2                !
 ! A22   A(9,8,13)             122.5841         estimate D2E/DX2                !
 ! A23   A(8,9,10)             118.7118         estimate D2E/DX2                !
 ! A24   A(9,10,11)            109.9919         estimate D2E/DX2                !
 ! A25   A(9,10,12)            122.6176         estimate D2E/DX2                !
 ! A26   A(11,10,12)           127.3881         estimate D2E/DX2                !
 ! A27   A(10,11,26)           110.8938         estimate D2E/DX2                !
 ! A28   A(10,11,27)           107.889          estimate D2E/DX2                !
 ! A29   A(10,11,28)           109.551          estimate D2E/DX2                !
 ! A30   A(26,11,27)           107.9826         estimate D2E/DX2                !
 ! A31   A(26,11,28)           110.7452         estimate D2E/DX2                !
 ! A32   A(27,11,28)           109.7164         estimate D2E/DX2                !
 ! A33   A(8,13,14)            121.145          estimate D2E/DX2                !
 ! A34   A(8,13,20)            118.9181         estimate D2E/DX2                !
 ! A35   A(14,13,20)           119.9314         estimate D2E/DX2                !
 ! A36   A(13,14,15)           123.361          estimate D2E/DX2                !
 ! A37   A(13,14,16)           117.7346         estimate D2E/DX2                !
 ! A38   A(15,14,16)           118.904          estimate D2E/DX2                !
 ! A39   A(14,16,17)           122.316          estimate D2E/DX2                !
 ! A40   A(14,16,29)           115.0261         estimate D2E/DX2                !
 ! A41   A(17,16,29)           122.6524         estimate D2E/DX2                !
 ! A42   A(16,17,18)           122.3157         estimate D2E/DX2                !
 ! A43   A(16,17,30)           122.6532         estimate D2E/DX2                !
 ! A44   A(18,17,30)           115.0256         estimate D2E/DX2                !
 ! A45   A(17,18,19)           118.905          estimate D2E/DX2                !
 ! A46   A(17,18,20)           117.7363         estimate D2E/DX2                !
 ! A47   A(19,18,20)           123.3583         estimate D2E/DX2                !
 ! A48   A(5,20,13)            118.9182         estimate D2E/DX2                !
 ! A49   A(5,20,18)            121.1434         estimate D2E/DX2                !
 ! A50   A(13,20,18)           119.9326         estimate D2E/DX2                !
 ! D1    D(21,1,2,3)           -12.7659         estimate D2E/DX2                !
 ! D2    D(21,1,2,4)           166.6602         estimate D2E/DX2                !
 ! D3    D(22,1,2,3)           106.6372         estimate D2E/DX2                !
 ! D4    D(22,1,2,4)           -73.9366         estimate D2E/DX2                !
 ! D5    D(23,1,2,3)          -135.3042         estimate D2E/DX2                !
 ! D6    D(23,1,2,4)            44.1219         estimate D2E/DX2                !
 ! D7    D(1,2,4,5)            170.8903         estimate D2E/DX2                !
 ! D8    D(3,2,4,5)             -9.6509         estimate D2E/DX2                !
 ! D9    D(2,4,5,6)            108.3519         estimate D2E/DX2                !
 ! D10   D(2,4,5,20)           -75.2114         estimate D2E/DX2                !
 ! D11   D(4,5,6,7)            176.6179         estimate D2E/DX2                !
 ! D12   D(4,5,6,24)            -3.2671         estimate D2E/DX2                !
 ! D13   D(20,5,6,7)             0.1184         estimate D2E/DX2                !
 ! D14   D(20,5,6,24)         -179.7666         estimate D2E/DX2                !
 ! D15   D(4,5,20,13)         -176.3543         estimate D2E/DX2                !
 ! D16   D(4,5,20,18)            2.7662         estimate D2E/DX2                !
 ! D17   D(6,5,20,13)           -0.0776         estimate D2E/DX2                !
 ! D18   D(6,5,20,18)          179.043          estimate D2E/DX2                !
 ! D19   D(5,6,7,8)             -0.1202         estimate D2E/DX2                !
 ! D20   D(5,6,7,25)           179.7452         estimate D2E/DX2                !
 ! D21   D(24,6,7,8)           179.7618         estimate D2E/DX2                !
 ! D22   D(24,6,7,25)           -0.3728         estimate D2E/DX2                !
 ! D23   D(6,7,8,9)            176.5813         estimate D2E/DX2                !
 ! D24   D(6,7,8,13)             0.0836         estimate D2E/DX2                !
 ! D25   D(25,7,8,9)            -3.2875         estimate D2E/DX2                !
 ! D26   D(25,7,8,13)         -179.7851         estimate D2E/DX2                !
 ! D27   D(7,8,9,10)           108.2328         estimate D2E/DX2                !
 ! D28   D(13,8,9,10)          -75.3318         estimate D2E/DX2                !
 ! D29   D(7,8,13,14)          179.1025         estimate D2E/DX2                !
 ! D30   D(7,8,13,20)           -0.0432         estimate D2E/DX2                !
 ! D31   D(9,8,13,14)            2.8271         estimate D2E/DX2                !
 ! D32   D(9,8,13,20)         -176.3186         estimate D2E/DX2                !
 ! D33   D(8,9,10,11)          170.9263         estimate D2E/DX2                !
 ! D34   D(8,9,10,12)           -9.6055         estimate D2E/DX2                !
 ! D35   D(9,10,11,26)          44.0262         estimate D2E/DX2                !
 ! D36   D(9,10,11,27)         -74.0383         estimate D2E/DX2                !
 ! D37   D(9,10,11,28)         166.5673         estimate D2E/DX2                !
 ! D38   D(12,10,11,26)       -135.41           estimate D2E/DX2                !
 ! D39   D(12,10,11,27)        106.5255         estimate D2E/DX2                !
 ! D40   D(12,10,11,28)        -12.8689         estimate D2E/DX2                !
 ! D41   D(8,13,14,15)           0.163          estimate D2E/DX2                !
 ! D42   D(8,13,14,16)         179.9264         estimate D2E/DX2                !
 ! D43   D(20,13,14,15)        179.3002         estimate D2E/DX2                !
 ! D44   D(20,13,14,16)         -0.9364         estimate D2E/DX2                !
 ! D45   D(8,13,20,5)            0.0397         estimate D2E/DX2                !
 ! D46   D(8,13,20,18)        -179.0918         estimate D2E/DX2                !
 ! D47   D(14,13,20,5)        -179.1167         estimate D2E/DX2                !
 ! D48   D(14,13,20,18)          1.7518         estimate D2E/DX2                !
 ! D49   D(13,14,16,17)         -0.8203         estimate D2E/DX2                !
 ! D50   D(13,14,16,29)       -179.9844         estimate D2E/DX2                !
 ! D51   D(15,14,16,17)        178.954          estimate D2E/DX2                !
 ! D52   D(15,14,16,29)         -0.2101         estimate D2E/DX2                !
 ! D53   D(14,16,17,18)          1.6932         estimate D2E/DX2                !
 ! D54   D(14,16,17,30)       -179.2026         estimate D2E/DX2                !
 ! D55   D(29,16,17,18)       -179.2065         estimate D2E/DX2                !
 ! D56   D(29,16,17,30)         -0.1023         estimate D2E/DX2                !
 ! D57   D(16,17,18,19)        178.9559         estimate D2E/DX2                !
 ! D58   D(16,17,18,20)         -0.8191         estimate D2E/DX2                !
 ! D59   D(30,17,18,19)         -0.2117         estimate D2E/DX2                !
 ! D60   D(30,17,18,20)       -179.9868         estimate D2E/DX2                !
 ! D61   D(17,18,20,5)         179.9507         estimate D2E/DX2                !
 ! D62   D(17,18,20,13)         -0.9376         estimate D2E/DX2                !
 ! D63   D(19,18,20,5)           0.1865         estimate D2E/DX2                !
 ! D64   D(19,18,20,13)        179.2982         estimate D2E/DX2                !
 --------------------------------------------------------------------------------
 Trust Radius=3.00D-01 FncErr=1.00D-07 GrdErr=1.00D-06 EigMax=2.50D+02 EigMin=1.00D-04
 Number of steps in this run=    155 maximum allowed number of steps=    180.
 GradGradGradGradGradGradGradGradGradGradGradGradGradGradGradGradGradGrad

 Leave Link  103 at Sun Feb 11 00:04:26 2024, MaxMem=  4026531840 cpu:               0.3 elap:               0.1
 (Enter /sysapps/ubuntu-applications/gaussian/Gaussian/AVX2/g16/l202.exe)
                          Input orientation:                          
 ---------------------------------------------------------------------
 Center     Atomic      Atomic             Coordinates (Angstroms)
 Number     Number       Type             X           Y           Z
 ---------------------------------------------------------------------
      1          6           0        4.904090   -1.225055   -0.022695
      2          6           0        3.533790   -1.040642   -0.600008
      3          8           0        3.253454   -0.693880   -1.711203
      4          8           0        2.574656   -1.346754    0.350538
      5          6           0        1.252337   -1.058101    0.075822
      6          6           0        0.422653   -2.145492   -0.177918
      7          6           0       -0.929512   -1.951598   -0.392918
      8          6           0       -1.465769   -0.668625   -0.353824
      9          8           0       -2.809837   -0.556393   -0.651124
     10          6           0       -3.695805   -0.268600    0.373096
     11          6           0       -5.052530    0.025555   -0.190690
     12          8           0       -3.374129   -0.277920    1.526405
     13          6           0       -0.652499    0.446116   -0.099334
     14          6           0       -1.221768    1.830991   -0.075958
     15          8           0       -2.402406    2.074957   -0.269122
     16          6           0       -0.296640    2.950716    0.201445
     17          6           0        1.003177    2.760010    0.442641
     18          6           0        1.623795    1.418143    0.414691
     19          8           0        2.822195    1.317662    0.625692
     20          6           0        0.738382    0.246772    0.120959
     21          1           0        5.640811   -1.215757   -0.823247
     22          1           0        5.093972   -0.395452    0.662868
     23          1           0        4.964371   -2.153423    0.547170
     24          1           0        0.858042   -3.136617   -0.200522
     25          1           0       -1.590606   -2.784748   -0.595938
     26          1           0       -5.315637   -0.694248   -0.967151
     27          1           0       -5.018196    1.017570   -0.647894
     28          1           0       -5.789399    0.015596    0.609717
     29          1           0       -0.754888    3.933417    0.208175
     30          1           0        1.683897    3.575800    0.659069
 ---------------------------------------------------------------------
                    Distance matrix (angstroms):
                    1          2          3          4          5
     1  C    0.000000
     2  C    1.498339   0.000000
     3  O    2.420290   1.197325   0.000000
     4  O    2.362282   1.384623   2.266669   0.000000
     5  C    3.656895   2.379512   2.707505   1.381056   0.000000
     6  C    4.577617   3.328367   3.531512   2.355497   1.391107
     7  C    5.890318   4.560021   4.562558   3.632872   2.403855
     8  C    6.402684   5.019422   4.910619   4.157044   2.779278
     9  O    7.768314   6.362288   6.156799   5.533603   4.157093
    10  C    8.661966   7.335532   7.267556   6.362516   5.019541
    11  C   10.036261   8.661940   8.474604   7.768534   6.402866
    12  O    8.475004   7.267924   7.387827   6.157362   4.910912
    13  C    5.802962   4.470586   4.376549   3.719045   2.433464
    14  C    6.846049   5.579985   5.392273   4.969185   3.806716
    15  O    8.020953   6.712292   6.460248   6.071510   4.826198
    16  C    6.673447   5.589764   5.435482   5.170572   4.299503
    17  C    5.595927   4.683596   4.651037   4.398129   3.843775
    18  C    4.235344   3.274648   3.411137   2.924535   2.526776
    19  O    3.349642   2.751419   3.113417   2.690000   2.900183
    20  C    4.420411   3.160939   3.250728   2.442117   1.403168
    21  H    1.087993   2.126038   2.600057   3.285763   4.482397
    22  H    1.092837   2.108387   3.018738   2.710992   3.942320
    23  H    1.090984   2.144962   3.187123   2.529845   3.898858
    24  H    4.478414   3.422328   3.739936   2.540480   2.133556
    25  H    6.703904   5.413073   5.392630   4.507000   3.393361
    26  H   10.276992   8.863811   8.601333   8.026132   6.660215
    27  H   10.191761   8.796306   8.513512   8.014880   6.644679
    28  H   10.783778   9.460493   9.362864   8.478242   7.143103
    29  H    7.660755   6.617188   6.415816   6.243904   5.381610
    30  H    5.820881   5.130196   5.129509   5.012004   4.690358
                    6          7          8          9         10
     6  C    0.000000
     7  C    1.382812   0.000000
     8  C    2.403792   1.391086   0.000000
     9  O    3.632926   2.355608   1.381123   0.000000
    10  C    4.559390   3.327407   2.379389   1.384482   0.000000
    11  C    5.889927   4.577041   3.656960   2.362273   1.498361
    12  O    4.561589   3.530036   2.707351   2.266629   1.197365
    13  C    2.806877   2.431452   1.403147   2.442049   3.161601
    14  C    4.304292   3.807080   2.526821   2.924445   3.275789
    15  O    5.079514   4.289276   2.900294   2.689968   2.752741
    16  C    5.160682   4.978602   3.843802   4.398050   4.684846
    17  C    4.978559   5.160688   4.299487   5.170486   5.590863
    18  C    3.807023   4.304273   3.806655   4.969089   5.580768
    19  O    4.289175   5.079462   4.826119   6.071419   6.712999
    20  C    2.431448   2.806915   2.433445   3.719011   4.471151
    21  H    5.339478   6.625390   7.143052   8.478080   9.460483
    22  H    5.058733   6.310201   6.643680   8.013905   8.795467
    23  H    4.599241   5.971797   6.660564   8.026501   8.864621
    24  H    1.082776   2.153285   3.393315   4.507098   5.412216
    25  H    2.153277   1.082775   2.133584   2.540696   3.420803
    26  H    5.971346   4.598779   3.898501   2.529409   2.145063
    27  H    6.310996   5.059477   3.943281   2.711866   2.108405
    28  H    6.624218   5.337943   4.482226   3.285526   2.126004
    29  H    6.203935   5.918210   4.690414   5.011946   5.131582
    30  H    5.918147   6.203927   5.381588   6.243819   6.618337
                   11         12         13         14         15
    11  C    0.000000
    12  O    2.420236   0.000000
    13  C    4.421028   3.251850   0.000000
    14  C    4.236449   3.412877   1.497495   0.000000
    15  O    3.351023   3.115155   2.396691   1.220958   0.000000
    16  C    5.597216   4.653015   2.547572   1.478715   2.328656
    17  C    6.674574   5.437313   2.896395   2.466253   3.545970
    18  C    6.846832   5.393680   2.527958   2.916918   4.136339
    19  O    8.021678   6.461548   3.654963   4.136358   5.354497
    20  C    5.803510   4.377594   1.422258   2.527986   3.654993
    21  H   10.783716   9.363202   6.549170   7.545602   8.707996
    22  H   10.191041   8.512828   5.857569   6.737320   7.947780
    23  H   10.277679   8.602732   6.222925   7.384589   8.533167
    24  H    6.703304   5.391261   3.889466   5.386859   6.147823
    25  H    4.477382   3.737577   3.400756   4.659557   4.937870
    26  H    1.090978   3.187570   4.878360   4.891914   4.079541
    27  H    1.092844   3.018083   4.436980   3.924491   2.846734
    28  H    1.087992   2.600000   5.203445   4.962768   4.060178
    29  H    5.822388   5.131619   3.502330   2.172304   2.529032
    30  H    7.661970   6.417714   3.978548   3.468070   4.451061
                   16         17         18         19         20
    16  C    0.000000
    17  C    1.335690   0.000000
    18  C    2.466237   1.478700   0.000000
    19  O    3.545981   2.328670   1.220975   0.000000
    20  C    2.896388   2.547540   1.497446   2.396630   0.000000
    21  H    7.325491   6.238337   4.960478   4.057368   5.202339
    22  H    6.361482   5.171078   3.923372   2.845543   4.435908
    23  H    7.338256   6.312195   4.892145   4.079646   4.878686
    24  H    6.208904   5.933374   4.659475   4.937725   3.400734
    25  H    5.933440   6.208921   5.386839   6.147761   3.889504
    26  H    6.312029   7.338039   7.384267   8.532833   6.222592
    27  H    5.172187   6.362570   6.738367   7.948824   5.858622
    28  H    6.241155   7.327947   7.547226   8.709488   6.550134
    29  H    1.084314   2.126652   3.468052   4.451069   3.978544
    30  H    2.126659   1.084313   2.172284   2.529036   3.502283
                   21         22         23         24         25
    21  H    0.000000
    22  H    1.783388   0.000000
    23  H    1.792995   1.766535   0.000000
    24  H    5.191567   5.118841   4.288083   0.000000
    25  H    7.403161   7.209501   6.683786   2.505203   0.000000
    26  H   10.969796  10.540693  10.492899   6.683352   4.287639
    27  H   10.891874  10.294206  10.542059   7.210242   5.119443
    28  H   11.585306  10.891260  10.970512   7.401446   5.188968
    29  H    8.275433   7.290749   8.359095   7.263192   6.817534
    30  H    6.388540   5.234450   6.602880   6.817439   7.263194
                   26         27         28         29         30
    26  H    0.000000
    27  H    1.766555   0.000000
    28  H    1.792998   1.783337   0.000000
    29  H    6.602810   5.235534   6.391937   0.000000
    30  H    8.358910   7.291827   8.278142   2.505767   0.000000
 Symmetry turned off by external request.
 Stoichiometry    C14H10O6
 Framework group  C1[X(C14H10O6)]
 Deg. of freedom    84
 Full point group                 C1      NOp   1
 Rotational constants (GHZ):           0.7190632           0.2347920           0.1914620
 Leave Link  202 at Sun Feb 11 00:04:26 2024, MaxMem=  4026531840 cpu:               0.3 elap:               0.1
 (Enter /sysapps/ubuntu-applications/gaussian/Gaussian/AVX2/g16/l301.exe)
 Standard basis: 6-311++G(d,p) (5D, 7F)
 Ernie: Thresh=  0.10000D-02 Tol=  0.10000D-05 Strict=F.
   510 basis functions,   810 primitive gaussians,   530 cartesian basis functions
    71 alpha electrons       71 beta electrons
       nuclear repulsion energy      1535.1882300973 Hartrees.
 IExCor=  402 DFT=T Ex+Corr=B3LYP ExCW=0 ScaHFX=  0.200000
 ScaDFX=  0.800000  0.720000  1.000000  0.810000 ScalE2=  1.000000  1.000000
 IRadAn=      5 IRanWt=     -1 IRanGd=            0 ICorTp=0 IEmpDi=  4
 NAtoms=   30 NActive=   30 NUniq=   30 SFac= 1.00D+00 NAtFMM=   60 NAOKFM=F Big=F
 Integral buffers will be    131072 words long.
 Raffenetti 2 integral format.
 Two-electron integral symmetry is turned off.
 ------------------------------------------------------------------------------
 Polarizable Continuum Model (PCM)
 =================================
 Model                : PCM.
 Atomic radii         : UFF (Universal Force Field).
 Polarization charges : Total charges.
 Charge compensation  : None.
 Solution method      : On-the-fly selection.
 Cavity type          : Scaled VdW (van der Waals Surface) (Alpha=1.100).
 Cavity algorithm     : GePol (No added spheres)
                        Default sphere list used, NSphG=   30.
                        Lebedev-Laikov grids with approx.  5.0 points / Ang**2.
                        Smoothing algorithm: York/Karplus (Gamma=1.0000).
                        Polarization charges: spherical gaussians, with
                                              point-specific exponents (IZeta= 3).
                        Self-potential: point-specific (ISelfS= 7).
                        Self-field    : sphere-specific E.n sum rule (ISelfD= 2).
 1st derivatives      : Analytical E(r).r(x)/FMM algorithm (CHGder, D1EAlg=3).
                        Cavity 1st derivative terms included.
 Solvent              : n,n-DiMethylFormamide, Eps=  37.219000 Eps(inf)=   2.046330
 ------------------------------------------------------------------------------
 GePol: Number of generator spheres                  =      30
 GePol: Total number of spheres                      =      30
 GePol: Number of exposed spheres                    =      30 (100.00%)
 GePol: Number of points                             =    2493
 GePol: Average weight of points                     =       0.13
 GePol: Minimum weight of points                     =   0.15D-10
 GePol: Maximum weight of points                     =    0.20577
 GePol: Number of points with low weight             =     164
 GePol: Fraction of low-weight points (<1% of avg)   =       6.58%
 GePol: Cavity surface area                          =    319.411 Ang**2
 GePol: Cavity volume                                =    345.575 Ang**3
 Leave Link  301 at Sun Feb 11 00:04:27 2024, MaxMem=  4026531840 cpu:               0.7 elap:               0.2
 (Enter /sysapps/ubuntu-applications/gaussian/Gaussian/AVX2/g16/l302.exe)
 NPDir=0 NMtPBC=     1 NCelOv=     1 NCel=       1 NClECP=     1 NCelD=      1
         NCelK=      1 NCelE2=     1 NClLst=     1 CellRange=     0.0.
 One-electron integrals computed using PRISM.
 NBasis=   510 RedAO= T EigKep=  1.40D-06  NBF=   510
 NBsUse=   506 1.00D-06 EigRej=  9.32D-07 NBFU=   506
 Precomputing XC quadrature grid using
 IXCGrd= 4 IRadAn=           5 IRanWt=          -1 IRanGd=           0 AccXCQ= 0.00D+00.
 Generated NRdTot=       0 NPtTot=           0 NUsed=           0 NTot=          32
 NSgBfM=   526   526   526   526   526 MxSgAt=    30 MxSgA2=    30.
 Leave Link  302 at Sun Feb 11 00:04:27 2024, MaxMem=  4026531840 cpu:               4.9 elap:               0.7
 (Enter /sysapps/ubuntu-applications/gaussian/Gaussian/AVX2/g16/l303.exe)
 DipDrv:  MaxL=1.
 Leave Link  303 at Sun Feb 11 00:04:28 2024, MaxMem=  4026531840 cpu:               1.5 elap:               0.4
 (Enter /sysapps/ubuntu-applications/gaussian/Gaussian/AVX2/g16/l401.exe)
 ExpMin= 3.60D-02 ExpMax= 8.59D+03 ExpMxC= 1.30D+03 IAcc=3 IRadAn=         5 AccDes= 0.00D+00
 Harris functional with IExCor=  402 and IRadAn=       5 diagonalized for initial guess.
 HarFok:  IExCor=  402 AccDes= 0.00D+00 IRadAn=         5 IDoV= 1 UseB2=F ITyADJ=14
 ICtDFT=  3500011 ScaDFX=  1.000000  1.000000  1.000000  1.000000
 FoFCou: FMM=F IPFlag=           0 FMFlag=      100000 FMFlg1=           0
         NFxFlg=           0 DoJE=T BraDBF=F KetDBF=T FulRan=T
         wScrn=  0.000000 ICntrl=       500 IOpCl=  0 I1Cent=   200000004 NGrid=           0
         NMat0=    1 NMatS0=      1 NMatT0=    0 NMatD0=    1 NMtDS0=    0 NMtDT0=    0
 Symmetry not used in FoFCou.
 Harris En= -991.186296873467    
 JPrj=0 DoOrth=F DoCkMO=F.
 Initial guess <Sx>= 0.0000 <Sy>= 0.0000 <Sz>= 0.0000 <S**2>=-0.0000 S=-0.0000
 Leave Link  401 at Sun Feb 11 00:04:33 2024, MaxMem=  4026531840 cpu:              36.3 elap:               4.9
 (Enter /sysapps/ubuntu-applications/gaussian/Gaussian/AVX2/g16/l502.exe)
 Two-electron integral symmetry not used.
 UHF open shell SCF:
 Using DIIS extrapolation, IDIIS=  1040.
 NGot=  4026531840 LenX=  4025962048 LenY=  4025680618
 Requested convergence on RMS density matrix=1.00D-08 within 128 cycles.
 Requested convergence on MAX density matrix=1.00D-06.
 Requested convergence on             energy=1.00D-06.
 No special actions if energy rises.
 Fock matrices will be formed incrementally for  20 cycles.

 Cycle   1  Pass 1  IDiag  1:
 FoFJK:  IHMeth= 1 ICntrl=       0 DoSepK=F KAlg= 0 I1Cent=           0 FoldK=F
 IRaf= 830000000 NMat=       1 IRICut=       1 DoRegI=T DoRafI=F ISym2E= 0 IDoP0=0 IntGTp=1.
 FoFCou: FMM=F IPFlag=           0 FMFlag=      100000 FMFlg1=           0
         NFxFlg=           0 DoJE=F BraDBF=F KetDBF=F FulRan=T
         wScrn=  0.000000 ICntrl=         0 IOpCl=  1 I1Cent=           0 NGrid=           0
         NMat0=    1 NMatS0=      1 NMatT0=    0 NMatD0=    1 NMtDS0=    0 NMtDT0=    0
 Symmetry not used in FoFCou.
 Inv3:  Mode=1 IEnd=    18645147.
 Iteration    1 A*A^-1 deviation from unit magnitude is 3.11D-15 for   1645.
 Iteration    1 A*A^-1 deviation from orthogonality  is 2.09D-15 for   1824    363.
 Iteration    1 A^-1*A deviation from unit magnitude is 3.55D-15 for   1645.
 Iteration    1 A^-1*A deviation from orthogonality  is 5.96D-14 for   1563   1545.
 E= -990.651916297109    
 DIIS: error= 2.54D-02 at cycle   1 NSaved=   1.
 NSaved= 1 IEnMin= 1 EnMin= -990.651916297109     IErMin= 1 ErrMin= 2.54D-02
 ErrMax= 2.54D-02  0.00D+00 EMaxC= 1.00D-01 BMatC= 2.77D+00 BMatP= 2.77D+00
 IDIUse=3 WtCom= 7.46D-01 WtEn= 2.54D-01
 Coeff-Com:  0.100D+01
 Coeff-En:   0.100D+01
 Coeff:      0.100D+01
 Gap=     0.158 Goal=   None    Shift=    0.000
 Gap=     0.158 Goal=   None    Shift=    0.000
 GapD=    0.158 DampG=1.000 DampE=0.500 DampFc=0.5000 IDamp=-1.
 Damping current iteration by 5.00D-01
 RMSDP=1.48D-02 MaxDP=1.15D+00              OVMax= 2.46D-01

 Cycle   2  Pass 1  IDiag  1:
 RMSU=  7.00D-03    CP:  1.04D+00
 E= -990.781962238231     Delta-E=       -0.130045941121 Rises=F Damp=T
 DIIS: error= 1.10D-02 at cycle   2 NSaved=   2.
 NSaved= 2 IEnMin= 2 EnMin= -990.781962238231     IErMin= 2 ErrMin= 1.10D-02
 ErrMax= 1.10D-02  0.00D+00 EMaxC= 1.00D-01 BMatC= 4.17D-01 BMatP= 2.77D+00
 IDIUse=3 WtCom= 8.90D-01 WtEn= 1.10D-01
 Coeff-Com:  0.211D+00 0.789D+00
 Coeff-En:   0.356D+00 0.644D+00
 Coeff:      0.227D+00 0.773D+00
 Gap=     0.162 Goal=   None    Shift=    0.000
 Gap=     0.162 Goal=   None    Shift=    0.000
 RMSDP=7.65D-03 MaxDP=8.09D-01 DE=-1.30D-01 OVMax= 2.39D-01

 Cycle   3  Pass 1  IDiag  1:
 RMSU=  3.42D-03    CP:  9.42D-01  5.32D-01
 E= -991.078667826250     Delta-E=       -0.296705588019 Rises=F Damp=F
 DIIS: error= 1.10D-02 at cycle   3 NSaved=   3.
 NSaved= 3 IEnMin= 3 EnMin= -991.078667826250     IErMin= 2 ErrMin= 1.10D-02
 ErrMax= 1.10D-02  0.00D+00 EMaxC= 1.00D-01 BMatC= 3.51D-01 BMatP= 4.17D-01
 IDIUse=3 WtCom= 8.90D-01 WtEn= 1.10D-01
 Coeff-Com:  0.470D-01 0.477D+00 0.476D+00
 Coeff-En:   0.000D+00 0.000D+00 0.100D+01
 Coeff:      0.418D-01 0.424D+00 0.534D+00
 Gap=     0.143 Goal=   None    Shift=    0.000
 Gap=     0.143 Goal=   None    Shift=    0.000
 RMSDP=5.14D-03 MaxDP=5.85D-01 DE=-2.97D-01 OVMax= 7.02D-02

 Cycle   4  Pass 1  IDiag  1:
 RMSU=  2.25D-03    CP:  1.01D+00  7.97D-01  8.09D-01
 E= -991.140462040366     Delta-E=       -0.061794214116 Rises=F Damp=F
 DIIS: error= 4.74D-03 at cycle   4 NSaved=   4.
 NSaved= 4 IEnMin= 4 EnMin= -991.140462040366     IErMin= 4 ErrMin= 4.74D-03
 ErrMax= 4.74D-03  0.00D+00 EMaxC= 1.00D-01 BMatC= 5.69D-02 BMatP= 3.51D-01
 IDIUse=3 WtCom= 9.53D-01 WtEn= 4.74D-02
 Coeff-Com:  0.240D-02 0.108D+00 0.313D+00 0.577D+00
 Coeff-En:   0.000D+00 0.000D+00 0.149D+00 0.851D+00
 Coeff:      0.228D-02 0.103D+00 0.305D+00 0.590D+00
 Gap=     0.147 Goal=   None    Shift=    0.000
 Gap=     0.147 Goal=   None    Shift=    0.000
 RMSDP=2.63D-03 MaxDP=3.06D-01 DE=-6.18D-02 OVMax= 2.19D-02

 Cycle   5  Pass 1  IDiag  1:
 RMSU=  6.53D-04    CP:  9.76D-01  6.41D-01  7.99D-01  5.65D-01
 E= -991.150720600260     Delta-E=       -0.010258559894 Rises=F Damp=F
 DIIS: error= 9.43D-04 at cycle   5 NSaved=   5.
 NSaved= 5 IEnMin= 5 EnMin= -991.150720600260     IErMin= 5 ErrMin= 9.43D-04
 ErrMax= 9.43D-04  0.00D+00 EMaxC= 1.00D-01 BMatC= 3.39D-03 BMatP= 5.69D-02
 IDIUse=3 WtCom= 9.91D-01 WtEn= 9.43D-03
 Coeff-Com: -0.224D-02 0.241D-01 0.137D+00 0.334D+00 0.507D+00
 Coeff-En:   0.000D+00 0.000D+00 0.000D+00 0.000D+00 0.100D+01
 Coeff:     -0.222D-02 0.238D-01 0.136D+00 0.331D+00 0.511D+00
 Gap=     0.140 Goal=   None    Shift=    0.000
 Gap=     0.140 Goal=   None    Shift=    0.000
 RMSDP=4.16D-04 MaxDP=3.35D-02 DE=-1.03D-02 OVMax= 4.89D-03

 Cycle   6  Pass 1  IDiag  1:
 RMSU=  1.94D-04    CP:  9.72D-01  6.63D-01  8.02D-01  6.11D-01  6.67D-01
 E= -991.151289658122     Delta-E=       -0.000569057861 Rises=F Damp=F
 DIIS: error= 4.17D-04 at cycle   6 NSaved=   6.
 NSaved= 6 IEnMin= 6 EnMin= -991.151289658122     IErMin= 6 ErrMin= 4.17D-04
 ErrMax= 4.17D-04  0.00D+00 EMaxC= 1.00D-01 BMatC= 3.34D-04 BMatP= 3.39D-03
 IDIUse=3 WtCom= 9.96D-01 WtEn= 4.17D-03
 Coeff-Com: -0.143D-02 0.241D-02 0.485D-01 0.133D+00 0.299D+00 0.518D+00
 Coeff-En:   0.000D+00 0.000D+00 0.000D+00 0.000D+00 0.171D-01 0.983D+00
 Coeff:     -0.142D-02 0.240D-02 0.483D-01 0.133D+00 0.298D+00 0.520D+00
 Gap=     0.140 Goal=   None    Shift=    0.000
 Gap=     0.140 Goal=   None    Shift=    0.000
 RMSDP=1.16D-04 MaxDP=1.11D-02 DE=-5.69D-04 OVMax= 1.93D-03

 Cycle   7  Pass 1  IDiag  1:
 RMSU=  7.12D-05    CP:  9.71D-01  6.60D-01  8.10D-01  6.03D-01  7.04D-01
                    CP:  8.26D-01
 E= -991.151342315631     Delta-E=       -0.000052657510 Rises=F Damp=F
 DIIS: error= 1.43D-04 at cycle   7 NSaved=   7.
 NSaved= 7 IEnMin= 7 EnMin= -991.151342315631     IErMin= 7 ErrMin= 1.43D-04
 ErrMax= 1.43D-04  0.00D+00 EMaxC= 1.00D-01 BMatC= 4.51D-05 BMatP= 3.34D-04
 IDIUse=3 WtCom= 9.99D-01 WtEn= 1.43D-03
 Coeff-Com: -0.578D-03-0.746D-03 0.159D-01 0.464D-01 0.132D+00 0.331D+00
 Coeff-Com:  0.476D+00
 Coeff-En:   0.000D+00 0.000D+00 0.000D+00 0.000D+00 0.000D+00 0.916D-01
 Coeff-En:   0.908D+00
 Coeff:     -0.577D-03-0.745D-03 0.159D-01 0.463D-01 0.132D+00 0.331D+00
 Coeff:      0.477D+00
 Gap=     0.140 Goal=   None    Shift=    0.000
 Gap=     0.140 Goal=   None    Shift=    0.000
 RMSDP=6.16D-05 MaxDP=6.46D-03 DE=-5.27D-05 OVMax= 5.41D-04

 Cycle   8  Pass 1  IDiag  1:
 RMSU=  1.93D-05    CP:  9.72D-01  6.60D-01  8.12D-01  6.09D-01  6.99D-01
                    CP:  7.60D-01  8.27D-01
 E= -991.151350103877     Delta-E=       -0.000007788246 Rises=F Damp=F
 DIIS: error= 3.57D-05 at cycle   8 NSaved=   8.
 NSaved= 8 IEnMin= 8 EnMin= -991.151350103877     IErMin= 8 ErrMin= 3.57D-05
 ErrMax= 3.57D-05  0.00D+00 EMaxC= 1.00D-01 BMatC= 3.77D-06 BMatP= 4.51D-05
 IDIUse=1 WtCom= 1.00D+00 WtEn= 0.00D+00
 Coeff-Com: -0.107D-03-0.743D-03 0.428D-02 0.130D-01 0.474D-01 0.145D+00
 Coeff-Com:  0.279D+00 0.512D+00
 Coeff:     -0.107D-03-0.743D-03 0.428D-02 0.130D-01 0.474D-01 0.145D+00
 Coeff:      0.279D+00 0.512D+00
 Gap=     0.140 Goal=   None    Shift=    0.000
 Gap=     0.140 Goal=   None    Shift=    0.000
 RMSDP=2.85D-05 MaxDP=2.77D-03 DE=-7.79D-06 OVMax= 1.73D-04

 Cycle   9  Pass 1  IDiag  1:
 RMSU=  1.03D-05    CP:  9.72D-01  6.59D-01  8.11D-01  6.09D-01  7.16D-01
                    CP:  7.67D-01  7.40D-01  5.23D-01
 E= -991.151350801726     Delta-E=       -0.000000697849 Rises=F Damp=F
 DIIS: error= 7.08D-06 at cycle   9 NSaved=   9.
 NSaved= 9 IEnMin= 9 EnMin= -991.151350801726     IErMin= 9 ErrMin= 7.08D-06
 ErrMax= 7.08D-06  0.00D+00 EMaxC= 1.00D-01 BMatC= 1.82D-07 BMatP= 3.77D-06
 IDIUse=1 WtCom= 1.00D+00 WtEn= 0.00D+00
 Coeff-Com:  0.367D-04-0.257D-03 0.502D-04 0.150D-03 0.477D-02 0.210D-01
 Coeff-Com:  0.515D-01 0.207D+00 0.716D+00
 Coeff:      0.367D-04-0.257D-03 0.502D-04 0.150D-03 0.477D-02 0.210D-01
 Coeff:      0.515D-01 0.207D+00 0.716D+00
 Gap=     0.140 Goal=   None    Shift=    0.000
 Gap=     0.140 Goal=   None    Shift=    0.000
 RMSDP=6.29D-06 MaxDP=6.42D-04 DE=-6.98D-07 OVMax= 8.10D-05

 Cycle  10  Pass 1  IDiag  1:
 RMSU=  1.80D-06    CP:  9.72D-01  6.59D-01  8.11D-01  6.09D-01  7.14D-01
                    CP:  7.65D-01  7.71D-01  6.74D-01  8.56D-01
 E= -991.151350830695     Delta-E=       -0.000000028969 Rises=F Damp=F
 DIIS: error= 4.03D-06 at cycle  10 NSaved=  10.
 NSaved=10 IEnMin=10 EnMin= -991.151350830695     IErMin=10 ErrMin= 4.03D-06
 ErrMax= 4.03D-06  0.00D+00 EMaxC= 1.00D-01 BMatC= 3.91D-08 BMatP= 1.82D-07
 IDIUse=1 WtCom= 1.00D+00 WtEn= 0.00D+00
 Coeff-Com:  0.272D-04-0.974D-04-0.208D-03-0.685D-03-0.310D-03 0.162D-02
 Coeff-Com:  0.930D-02 0.784D-01 0.404D+00 0.508D+00
 Coeff:      0.272D-04-0.974D-04-0.208D-03-0.685D-03-0.310D-03 0.162D-02
 Coeff:      0.930D-02 0.784D-01 0.404D+00 0.508D+00
 Gap=     0.140 Goal=   None    Shift=    0.000
 Gap=     0.140 Goal=   None    Shift=    0.000
 RMSDP=3.12D-06 MaxDP=3.95D-04 DE=-2.90D-08 OVMax= 4.98D-05

 Cycle  11  Pass 1  IDiag  1:
 RMSU=  6.29D-07    CP:  9.72D-01  6.59D-01  8.11D-01  6.09D-01  7.16D-01
                    CP:  7.68D-01  7.67D-01  6.31D-01  9.12D-01  7.11D-01
 E= -991.151350839960     Delta-E=       -0.000000009265 Rises=F Damp=F
 DIIS: error= 9.59D-07 at cycle  11 NSaved=  11.
 NSaved=11 IEnMin=11 EnMin= -991.151350839960     IErMin=11 ErrMin= 9.59D-07
 ErrMax= 9.59D-07  0.00D+00 EMaxC= 1.00D-01 BMatC= 1.54D-09 BMatP= 3.91D-08
 IDIUse=1 WtCom= 1.00D+00 WtEn= 0.00D+00
 Coeff-Com:  0.790D-05-0.172D-04-0.972D-04-0.333D-03-0.620D-03-0.145D-02
 Coeff-Com: -0.674D-03 0.146D-01 0.959D-01 0.213D+00 0.680D+00
 Coeff:      0.790D-05-0.172D-04-0.972D-04-0.333D-03-0.620D-03-0.145D-02
 Coeff:     -0.674D-03 0.146D-01 0.959D-01 0.213D+00 0.680D+00
 Gap=     0.140 Goal=   None    Shift=    0.000
 Gap=     0.140 Goal=   None    Shift=    0.000
 RMSDP=8.62D-07 MaxDP=9.56D-05 DE=-9.26D-09 OVMax= 9.82D-06

 Cycle  12  Pass 1  IDiag  1:
 RMSU=  1.41D-07    CP:  9.72D-01  6.59D-01  8.11D-01  6.09D-01  7.15D-01
                    CP:  7.67D-01  7.69D-01  6.43D-01  9.13D-01  7.71D-01
                    CP:  6.83D-01
 E= -991.151350840274     Delta-E=       -0.000000000314 Rises=F Damp=F
 DIIS: error= 3.37D-07 at cycle  12 NSaved=  12.
 NSaved=12 IEnMin=12 EnMin= -991.151350840274     IErMin=12 ErrMin= 3.37D-07
 ErrMax= 3.37D-07  0.00D+00 EMaxC= 1.00D-01 BMatC= 3.14D-10 BMatP= 1.54D-09
 IDIUse=1 WtCom= 1.00D+00 WtEn= 0.00D+00
 Coeff-Com:  0.137D-05-0.690D-06-0.303D-04-0.113D-03-0.305D-03-0.958D-03
 Coeff-Com: -0.118D-02 0.890D-03 0.137D-01 0.734D-01 0.384D+00 0.531D+00
 Coeff:      0.137D-05-0.690D-06-0.303D-04-0.113D-03-0.305D-03-0.958D-03
 Coeff:     -0.118D-02 0.890D-03 0.137D-01 0.734D-01 0.384D+00 0.531D+00
 Gap=     0.140 Goal=   None    Shift=    0.000
 Gap=     0.140 Goal=   None    Shift=    0.000
 RMSDP=8.78D-08 MaxDP=8.50D-06 DE=-3.14D-10 OVMax= 4.67D-06

 Cycle  13  Pass 1  IDiag  1:
 RMSU=  4.31D-08    CP:  9.72D-01  6.59D-01  8.11D-01  6.09D-01  7.15D-01
                    CP:  7.67D-01  7.69D-01  6.43D-01  9.13D-01  7.68D-01
                    CP:  7.41D-01  7.95D-01
 E= -991.151350840350     Delta-E=       -0.000000000076 Rises=F Damp=F
 DIIS: error= 9.06D-08 at cycle  13 NSaved=  13.
 NSaved=13 IEnMin=13 EnMin= -991.151350840350     IErMin=13 ErrMin= 9.06D-08
 ErrMax= 9.06D-08  0.00D+00 EMaxC= 1.00D-01 BMatC= 1.75D-11 BMatP= 3.14D-10
 IDIUse=1 WtCom= 1.00D+00 WtEn= 0.00D+00
 Coeff-Com: -0.160D-06 0.120D-05-0.355D-05-0.171D-04-0.744D-04-0.267D-03
 Coeff-Com: -0.394D-03-0.927D-03-0.372D-02 0.116D-01 0.883D-01 0.234D+00
 Coeff-Com:  0.672D+00
 Coeff:     -0.160D-06 0.120D-05-0.355D-05-0.171D-04-0.744D-04-0.267D-03
 Coeff:     -0.394D-03-0.927D-03-0.372D-02 0.116D-01 0.883D-01 0.234D+00
 Coeff:      0.672D+00
 Gap=     0.140 Goal=   None    Shift=    0.000
 Gap=     0.140 Goal=   None    Shift=    0.000
 RMSDP=5.39D-08 MaxDP=4.23D-06 DE=-7.64D-11 OVMax= 9.79D-07

 Cycle  14  Pass 1  IDiag  1:
 RMSU=  1.47D-08    CP:  9.72D-01  6.59D-01  8.11D-01  6.09D-01  7.15D-01
                    CP:  7.67D-01  7.69D-01  6.43D-01  9.16D-01  7.70D-01
                    CP:  7.54D-01  8.05D-01  7.64D-01
 E= -991.151350840358     Delta-E=       -0.000000000007 Rises=F Damp=F
 DIIS: error= 3.35D-08 at cycle  14 NSaved=  14.
 NSaved=14 IEnMin=14 EnMin= -991.151350840358     IErMin=14 ErrMin= 3.35D-08
 ErrMax= 3.35D-08  0.00D+00 EMaxC= 1.00D-01 BMatC= 3.22D-12 BMatP= 1.75D-11
 IDIUse=1 WtCom= 1.00D+00 WtEn= 0.00D+00
 Coeff-Com: -0.231D-06 0.724D-06 0.109D-05 0.140D-05-0.142D-04-0.669D-04
 Coeff-Com: -0.132D-03-0.724D-03-0.394D-02-0.581D-03 0.113D-01 0.845D-01
 Coeff-Com:  0.375D+00 0.535D+00
 Coeff:     -0.231D-06 0.724D-06 0.109D-05 0.140D-05-0.142D-04-0.669D-04
 Coeff:     -0.132D-03-0.724D-03-0.394D-02-0.581D-03 0.113D-01 0.845D-01
 Coeff:      0.375D+00 0.535D+00
 Gap=     0.140 Goal=   None    Shift=    0.000
 Gap=     0.140 Goal=   None    Shift=    0.000
 RMSDP=2.04D-08 MaxDP=2.32D-06 DE=-7.05D-12 OVMax= 2.62D-07

 Cycle  15  Pass 1  IDiag  1:
 RMSU=  3.96D-09    CP:  9.72D-01  6.59D-01  8.11D-01  6.09D-01  7.15D-01
                    CP:  7.67D-01  7.69D-01  6.43D-01  9.15D-01  7.73D-01
                    CP:  7.52D-01  8.11D-01  7.87D-01  8.14D-01
 E= -991.151350840361     Delta-E=       -0.000000000003 Rises=F Damp=F
 DIIS: error= 6.50D-09 at cycle  15 NSaved=  15.
 NSaved=15 IEnMin=15 EnMin= -991.151350840361     IErMin=15 ErrMin= 6.50D-09
 ErrMax= 6.50D-09  0.00D+00 EMaxC= 1.00D-01 BMatC= 9.60D-14 BMatP= 3.22D-12
 IDIUse=1 WtCom= 1.00D+00 WtEn= 0.00D+00
 Coeff-Com: -0.779D-08 0.432D-07 0.564D-06 0.138D-05 0.142D-05 0.357D-05
 Coeff-Com: -0.821D-05-0.100D-03-0.731D-03-0.816D-03-0.505D-02 0.656D-02
 Coeff-Com:  0.492D-01 0.160D+00 0.791D+00
 Coeff:     -0.779D-08 0.432D-07 0.564D-06 0.138D-05 0.142D-05 0.357D-05
 Coeff:     -0.821D-05-0.100D-03-0.731D-03-0.816D-03-0.505D-02 0.656D-02
 Coeff:      0.492D-01 0.160D+00 0.791D+00
 Gap=     0.140 Goal=   None    Shift=    0.000
 Gap=     0.140 Goal=   None    Shift=    0.000
 RMSDP=4.19D-09 MaxDP=4.47D-07 DE=-3.18D-12 OVMax= 5.99D-08

 Error on total polarization charges =  0.01538
 SCF Done:  E(UB3LYP) =  -991.151350840     A.U. after   15 cycles
            NFock= 15  Conv=0.42D-08     -V/T= 2.0038
 <Sx>= 0.0000 <Sy>= 0.0000 <Sz>= 0.0000 <S**2>=-0.0000 S=-0.0000
 <L.S>=  0.00000000000    
 KE= 9.874260092876D+02 PE=-5.389133862115D+03 EE= 1.875368271890D+03
 Annihilation of the first spin contaminant:
 S**2 before annihilation    -0.0000,   after     0.0000
 Leave Link  502 at Sun Feb 11 00:10:35 2024, MaxMem=  4026531840 cpu:            2858.6 elap:             362.3
 (Enter /sysapps/ubuntu-applications/gaussian/Gaussian/AVX2/g16/l601.exe)
 Copying SCF densities to generalized density rwf, IOpCl= 1 IROHF=0.

 **********************************************************************

            Population analysis using the SCF density.

 **********************************************************************

 Alpha  occ. eigenvalues --  -19.19253 -19.19250 -19.14400 -19.14400 -19.13784
 Alpha  occ. eigenvalues --  -19.13782 -10.32878 -10.32877 -10.29614 -10.29613
 Alpha  occ. eigenvalues --  -10.27551 -10.27549 -10.23075 -10.23030 -10.21709
 Alpha  occ. eigenvalues --  -10.21625 -10.21319 -10.21259 -10.18575 -10.18573
 Alpha  occ. eigenvalues --   -1.13716  -1.13672  -1.07840  -1.07666  -1.05663
 Alpha  occ. eigenvalues --   -1.05609  -0.90531  -0.85176  -0.81089  -0.79565
 Alpha  occ. eigenvalues --   -0.77435  -0.75065  -0.71457  -0.68069  -0.66921
 Alpha  occ. eigenvalues --   -0.64405  -0.62159  -0.56191  -0.55429  -0.54800
 Alpha  occ. eigenvalues --   -0.52255  -0.51451  -0.50977  -0.50701  -0.50555
 Alpha  occ. eigenvalues --   -0.49727  -0.49001  -0.46799  -0.46613  -0.46269
 Alpha  occ. eigenvalues --   -0.46047  -0.43882  -0.43865  -0.43165  -0.42958
 Alpha  occ. eigenvalues --   -0.42280  -0.41562  -0.41198  -0.40206  -0.39574
 Alpha  occ. eigenvalues --   -0.39546  -0.38094  -0.34845  -0.34523  -0.31548
 Alpha  occ. eigenvalues --   -0.30975  -0.30864  -0.29672  -0.29522  -0.28220
 Alpha  occ. eigenvalues --   -0.27609
 Alpha virt. eigenvalues --   -0.13632  -0.06697  -0.04822  -0.01851  -0.01684
 Alpha virt. eigenvalues --   -0.00628  -0.00030   0.00595   0.01264   0.01277
 Alpha virt. eigenvalues --    0.02627   0.02650   0.03209   0.03672   0.03717
 Alpha virt. eigenvalues --    0.04665   0.04694   0.05161   0.05968   0.06212
 Alpha virt. eigenvalues --    0.06290   0.06780   0.06956   0.07527   0.08706
 Alpha virt. eigenvalues --    0.08936   0.09112   0.09509   0.09808   0.10171
 Alpha virt. eigenvalues --    0.10358   0.10648   0.11028   0.11040   0.11810
 Alpha virt. eigenvalues --    0.12000   0.12054   0.13099   0.13117   0.13704
 Alpha virt. eigenvalues --    0.13826   0.13963   0.14440   0.14482   0.14900
 Alpha virt. eigenvalues --    0.15024   0.15562   0.15739   0.16195   0.16589
 Alpha virt. eigenvalues --    0.16918   0.16953   0.17489   0.17759   0.17946
 Alpha virt. eigenvalues --    0.18250   0.19225   0.19495   0.20155   0.20258
 Alpha virt. eigenvalues --    0.20331   0.20673   0.20911   0.21131   0.21560
 Alpha virt. eigenvalues --    0.21860   0.23227   0.23245   0.23555   0.24015
 Alpha virt. eigenvalues --    0.24471   0.24503   0.24644   0.25015   0.25250
 Alpha virt. eigenvalues --    0.26190   0.26296   0.26561   0.27680   0.27689
 Alpha virt. eigenvalues --    0.27831   0.28372   0.28674   0.28778   0.29482
 Alpha virt. eigenvalues --    0.29492   0.30000   0.30992   0.31611   0.31920
 Alpha virt. eigenvalues --    0.32218   0.32301   0.32582   0.32687   0.33266
 Alpha virt. eigenvalues --    0.33890   0.34087   0.34414   0.34611   0.34873
 Alpha virt. eigenvalues --    0.35347   0.35716   0.36597   0.37804   0.37900
 Alpha virt. eigenvalues --    0.38476   0.38510   0.39088   0.39428   0.39700
 Alpha virt. eigenvalues --    0.40384   0.41074   0.41507   0.41957   0.41994
 Alpha virt. eigenvalues --    0.43940   0.44756   0.46306   0.46861   0.47734
 Alpha virt. eigenvalues --    0.48288   0.48452   0.48759   0.49832   0.52318
 Alpha virt. eigenvalues --    0.52550   0.52788   0.53761   0.54623   0.54999
 Alpha virt. eigenvalues --    0.56668   0.58359   0.58986   0.59520   0.59826
 Alpha virt. eigenvalues --    0.60555   0.60603   0.61647   0.61801   0.62652
 Alpha virt. eigenvalues --    0.63101   0.64075   0.64624   0.64638   0.65111
 Alpha virt. eigenvalues --    0.65378   0.66292   0.66833   0.66926   0.67807
 Alpha virt. eigenvalues --    0.68223   0.69439   0.71229   0.71567   0.72619
 Alpha virt. eigenvalues --    0.72831   0.73156   0.73593   0.73733   0.75206
 Alpha virt. eigenvalues --    0.77135   0.77541   0.77675   0.78759   0.80314
 Alpha virt. eigenvalues --    0.82810   0.83066   0.83523   0.84800   0.86166
 Alpha virt. eigenvalues --    0.86480   0.87313   0.88334   0.88904   0.90074
 Alpha virt. eigenvalues --    0.90122   0.92159   0.92565   0.92774   0.94561
 Alpha virt. eigenvalues --    0.95908   0.96364   0.98084   0.99226   1.00640
 Alpha virt. eigenvalues --    1.01244   1.01817   1.02912   1.04108   1.06162
 Alpha virt. eigenvalues --    1.07110   1.08250   1.09102   1.09768   1.10061
 Alpha virt. eigenvalues --    1.10970   1.11571   1.14419   1.14644   1.15858
 Alpha virt. eigenvalues --    1.16345   1.16842   1.18550   1.18840   1.21017
 Alpha virt. eigenvalues --    1.21293   1.22515   1.23773   1.24251   1.24363
 Alpha virt. eigenvalues --    1.24835   1.25564   1.26713   1.28775   1.29849
 Alpha virt. eigenvalues --    1.30723   1.33005   1.33119   1.34469   1.36794
 Alpha virt. eigenvalues --    1.37977   1.40571   1.43440   1.43714   1.44732
 Alpha virt. eigenvalues --    1.45475   1.45956   1.48045   1.48791   1.48984
 Alpha virt. eigenvalues --    1.49488   1.51461   1.51495   1.53378   1.53688
 Alpha virt. eigenvalues --    1.54366   1.54732   1.55250   1.56841   1.57852
 Alpha virt. eigenvalues --    1.57884   1.58951   1.59466   1.62286   1.62901
 Alpha virt. eigenvalues --    1.63936   1.65815   1.65849   1.66873   1.67795
 Alpha virt. eigenvalues --    1.69459   1.70006   1.71933   1.72743   1.76063
 Alpha virt. eigenvalues --    1.77449   1.78157   1.78212   1.79420   1.80240
 Alpha virt. eigenvalues --    1.81902   1.82225   1.86191   1.86759   1.87445
 Alpha virt. eigenvalues --    1.87585   1.87989   1.88438   1.90006   1.91248
 Alpha virt. eigenvalues --    1.92397   1.92558   1.94620   1.95544   1.96545
 Alpha virt. eigenvalues --    1.99705   1.99738   2.01117   2.03586   2.03751
 Alpha virt. eigenvalues --    2.07482   2.07883   2.08720   2.10185   2.11374
 Alpha virt. eigenvalues --    2.12603   2.12931   2.13281   2.17309   2.21001
 Alpha virt. eigenvalues --    2.22643   2.25422   2.26092   2.27519   2.30848
 Alpha virt. eigenvalues --    2.31662   2.36573   2.37628   2.38066   2.43588
 Alpha virt. eigenvalues --    2.44287   2.47545   2.47577   2.51624   2.51865
 Alpha virt. eigenvalues --    2.54416   2.54575   2.56234   2.56331   2.57801
 Alpha virt. eigenvalues --    2.58533   2.60815   2.62147   2.63945   2.64065
 Alpha virt. eigenvalues --    2.65228   2.65872   2.68559   2.68645   2.69918
 Alpha virt. eigenvalues --    2.70570   2.72901   2.73569   2.73648   2.73654
 Alpha virt. eigenvalues --    2.76930   2.79228   2.79456   2.80745   2.82887
 Alpha virt. eigenvalues --    2.85089   2.87615   2.87848   2.89202   2.90490
 Alpha virt. eigenvalues --    2.91627   2.92883   2.93604   2.94884   2.95029
 Alpha virt. eigenvalues --    2.97940   2.98832   3.00204   3.00557   3.00692
 Alpha virt. eigenvalues --    3.03702   3.09649   3.10544   3.10925   3.12083
 Alpha virt. eigenvalues --    3.15266   3.16819   3.19065   3.19647   3.20052
 Alpha virt. eigenvalues --    3.20542   3.20654   3.23544   3.24493   3.25647
 Alpha virt. eigenvalues --    3.32359   3.34343   3.34864   3.37017   3.38914
 Alpha virt. eigenvalues --    3.42318   3.44717   3.46326   3.52407   3.53044
 Alpha virt. eigenvalues --    3.57054   3.57769   3.57821   3.63306   3.63474
 Alpha virt. eigenvalues --    3.66113   3.68704   3.72843   3.75812   3.79776
 Alpha virt. eigenvalues --    3.80246   3.84329   3.85674   3.86509   4.02760
 Alpha virt. eigenvalues --    4.03407   4.03615   4.08710   4.10120   4.15628
 Alpha virt. eigenvalues --    4.16055   4.19653   4.19995   4.26202   4.32956
 Alpha virt. eigenvalues --    4.68289   4.83612   5.04506   5.06255   5.06949
 Alpha virt. eigenvalues --    5.07279   5.14234   5.14325   5.19908   5.19970
 Alpha virt. eigenvalues --    5.28294   5.29372   5.36513   5.37304   5.64999
 Alpha virt. eigenvalues --    5.69920   5.73784   5.81549   5.88459   5.91488
 Alpha virt. eigenvalues --   23.53781  23.73229  23.82309  23.82916  23.84258
 Alpha virt. eigenvalues --   23.87209  23.89347  23.91620  23.95850  23.96058
 Alpha virt. eigenvalues --   23.99696  24.01789  24.15428  24.23226  49.94043
 Alpha virt. eigenvalues --   49.96448  49.98461  49.98498  50.00787  50.04550
  Beta  occ. eigenvalues --  -19.19253 -19.19250 -19.14400 -19.14400 -19.13784
  Beta  occ. eigenvalues --  -19.13782 -10.32878 -10.32877 -10.29614 -10.29613
  Beta  occ. eigenvalues --  -10.27551 -10.27549 -10.23075 -10.23030 -10.21709
  Beta  occ. eigenvalues --  -10.21625 -10.21319 -10.21259 -10.18575 -10.18573
  Beta  occ. eigenvalues --   -1.13716  -1.13672  -1.07840  -1.07666  -1.05663
  Beta  occ. eigenvalues --   -1.05609  -0.90531  -0.85176  -0.81089  -0.79565
  Beta  occ. eigenvalues --   -0.77435  -0.75065  -0.71457  -0.68069  -0.66921
  Beta  occ. eigenvalues --   -0.64405  -0.62159  -0.56191  -0.55429  -0.54800
  Beta  occ. eigenvalues --   -0.52255  -0.51451  -0.50977  -0.50701  -0.50555
  Beta  occ. eigenvalues --   -0.49727  -0.49001  -0.46799  -0.46613  -0.46269
  Beta  occ. eigenvalues --   -0.46047  -0.43882  -0.43865  -0.43165  -0.42958
  Beta  occ. eigenvalues --   -0.42280  -0.41562  -0.41198  -0.40206  -0.39574
  Beta  occ. eigenvalues --   -0.39546  -0.38094  -0.34845  -0.34523  -0.31548
  Beta  occ. eigenvalues --   -0.30975  -0.30864  -0.29672  -0.29522  -0.28220
  Beta  occ. eigenvalues --   -0.27609
  Beta virt. eigenvalues --   -0.13632  -0.06697  -0.04822  -0.01851  -0.01684
  Beta virt. eigenvalues --   -0.00628  -0.00030   0.00595   0.01264   0.01277
  Beta virt. eigenvalues --    0.02627   0.02650   0.03209   0.03672   0.03717
  Beta virt. eigenvalues --    0.04665   0.04694   0.05161   0.05968   0.06212
  Beta virt. eigenvalues --    0.06290   0.06780   0.06956   0.07527   0.08706
  Beta virt. eigenvalues --    0.08936   0.09112   0.09509   0.09808   0.10171
  Beta virt. eigenvalues --    0.10358   0.10648   0.11028   0.11040   0.11810
  Beta virt. eigenvalues --    0.12000   0.12054   0.13099   0.13117   0.13704
  Beta virt. eigenvalues --    0.13826   0.13963   0.14440   0.14482   0.14900
  Beta virt. eigenvalues --    0.15024   0.15562   0.15739   0.16195   0.16589
  Beta virt. eigenvalues --    0.16918   0.16953   0.17489   0.17759   0.17946
  Beta virt. eigenvalues --    0.18250   0.19225   0.19495   0.20155   0.20258
  Beta virt. eigenvalues --    0.20331   0.20673   0.20911   0.21131   0.21560
  Beta virt. eigenvalues --    0.21860   0.23227   0.23245   0.23555   0.24015
  Beta virt. eigenvalues --    0.24471   0.24503   0.24644   0.25015   0.25250
  Beta virt. eigenvalues --    0.26190   0.26296   0.26561   0.27680   0.27689
  Beta virt. eigenvalues --    0.27831   0.28372   0.28674   0.28778   0.29482
  Beta virt. eigenvalues --    0.29492   0.30000   0.30992   0.31611   0.31920
  Beta virt. eigenvalues --    0.32218   0.32301   0.32582   0.32687   0.33266
  Beta virt. eigenvalues --    0.33890   0.34087   0.34414   0.34611   0.34873
  Beta virt. eigenvalues --    0.35347   0.35716   0.36597   0.37804   0.37900
  Beta virt. eigenvalues --    0.38476   0.38510   0.39088   0.39428   0.39700
  Beta virt. eigenvalues --    0.40384   0.41074   0.41507   0.41957   0.41994
  Beta virt. eigenvalues --    0.43940   0.44756   0.46306   0.46861   0.47734
  Beta virt. eigenvalues --    0.48288   0.48452   0.48759   0.49832   0.52318
  Beta virt. eigenvalues --    0.52550   0.52788   0.53761   0.54623   0.54999
  Beta virt. eigenvalues --    0.56668   0.58359   0.58986   0.59520   0.59826
  Beta virt. eigenvalues --    0.60555   0.60603   0.61647   0.61801   0.62652
  Beta virt. eigenvalues --    0.63101   0.64075   0.64624   0.64638   0.65111
  Beta virt. eigenvalues --    0.65378   0.66292   0.66833   0.66926   0.67807
  Beta virt. eigenvalues --    0.68223   0.69439   0.71229   0.71567   0.72619
  Beta virt. eigenvalues --    0.72831   0.73156   0.73593   0.73733   0.75206
  Beta virt. eigenvalues --    0.77135   0.77541   0.77675   0.78759   0.80314
  Beta virt. eigenvalues --    0.82810   0.83066   0.83523   0.84800   0.86166
  Beta virt. eigenvalues --    0.86480   0.87313   0.88334   0.88904   0.90074
  Beta virt. eigenvalues --    0.90122   0.92159   0.92565   0.92774   0.94561
  Beta virt. eigenvalues --    0.95908   0.96364   0.98084   0.99226   1.00640
  Beta virt. eigenvalues --    1.01244   1.01817   1.02912   1.04108   1.06162
  Beta virt. eigenvalues --    1.07110   1.08250   1.09102   1.09768   1.10061
  Beta virt. eigenvalues --    1.10970   1.11571   1.14419   1.14644   1.15858
  Beta virt. eigenvalues --    1.16345   1.16842   1.18550   1.18840   1.21017
  Beta virt. eigenvalues --    1.21293   1.22515   1.23773   1.24251   1.24363
  Beta virt. eigenvalues --    1.24835   1.25564   1.26713   1.28775   1.29849
  Beta virt. eigenvalues --    1.30723   1.33005   1.33119   1.34469   1.36794
  Beta virt. eigenvalues --    1.37977   1.40571   1.43440   1.43714   1.44732
  Beta virt. eigenvalues --    1.45475   1.45956   1.48045   1.48791   1.48984
  Beta virt. eigenvalues --    1.49488   1.51461   1.51495   1.53378   1.53688
  Beta virt. eigenvalues --    1.54366   1.54732   1.55250   1.56841   1.57852
  Beta virt. eigenvalues --    1.57884   1.58951   1.59466   1.62286   1.62901
  Beta virt. eigenvalues --    1.63936   1.65815   1.65849   1.66873   1.67795
  Beta virt. eigenvalues --    1.69459   1.70006   1.71933   1.72743   1.76063
  Beta virt. eigenvalues --    1.77449   1.78157   1.78212   1.79420   1.80240
  Beta virt. eigenvalues --    1.81902   1.82225   1.86191   1.86759   1.87445
  Beta virt. eigenvalues --    1.87585   1.87989   1.88438   1.90006   1.91248
  Beta virt. eigenvalues --    1.92397   1.92558   1.94620   1.95544   1.96545
  Beta virt. eigenvalues --    1.99705   1.99738   2.01117   2.03586   2.03751
  Beta virt. eigenvalues --    2.07482   2.07883   2.08720   2.10185   2.11374
  Beta virt. eigenvalues --    2.12603   2.12931   2.13281   2.17309   2.21001
  Beta virt. eigenvalues --    2.22643   2.25422   2.26092   2.27519   2.30848
  Beta virt. eigenvalues --    2.31662   2.36573   2.37628   2.38066   2.43588
  Beta virt. eigenvalues --    2.44287   2.47545   2.47577   2.51624   2.51865
  Beta virt. eigenvalues --    2.54416   2.54575   2.56234   2.56331   2.57801
  Beta virt. eigenvalues --    2.58533   2.60815   2.62147   2.63945   2.64065
  Beta virt. eigenvalues --    2.65228   2.65872   2.68559   2.68645   2.69918
  Beta virt. eigenvalues --    2.70570   2.72901   2.73569   2.73648   2.73654
  Beta virt. eigenvalues --    2.76930   2.79228   2.79456   2.80745   2.82887
  Beta virt. eigenvalues --    2.85089   2.87615   2.87848   2.89202   2.90490
  Beta virt. eigenvalues --    2.91627   2.92883   2.93604   2.94884   2.95029
  Beta virt. eigenvalues --    2.97940   2.98832   3.00204   3.00557   3.00692
  Beta virt. eigenvalues --    3.03702   3.09649   3.10544   3.10925   3.12083
  Beta virt. eigenvalues --    3.15266   3.16819   3.19065   3.19647   3.20052
  Beta virt. eigenvalues --    3.20542   3.20654   3.23544   3.24493   3.25647
  Beta virt. eigenvalues --    3.32359   3.34343   3.34864   3.37017   3.38914
  Beta virt. eigenvalues --    3.42318   3.44717   3.46326   3.52407   3.53044
  Beta virt. eigenvalues --    3.57054   3.57769   3.57821   3.63306   3.63474
  Beta virt. eigenvalues --    3.66113   3.68704   3.72843   3.75812   3.79776
  Beta virt. eigenvalues --    3.80246   3.84329   3.85674   3.86509   4.02760
  Beta virt. eigenvalues --    4.03407   4.03615   4.08710   4.10120   4.15628
  Beta virt. eigenvalues --    4.16055   4.19653   4.19995   4.26202   4.32956
  Beta virt. eigenvalues --    4.68289   4.83612   5.04506   5.06255   5.06949
  Beta virt. eigenvalues --    5.07279   5.14234   5.14325   5.19908   5.19970
  Beta virt. eigenvalues --    5.28294   5.29372   5.36513   5.37304   5.64999
  Beta virt. eigenvalues --    5.69920   5.73784   5.81549   5.88459   5.91488
  Beta virt. eigenvalues --   23.53781  23.73229  23.82309  23.82916  23.84258
  Beta virt. eigenvalues --   23.87209  23.89347  23.91620  23.95850  23.96058
  Beta virt. eigenvalues --   23.99696  24.01789  24.15428  24.23226  49.94043
  Beta virt. eigenvalues --   49.96448  49.98461  49.98498  50.00787  50.04550
          Condensed to atoms (all electrons):
               1          2          3          4          5          6
     1  C    5.840279  -0.230543  -0.037478  -0.291389   0.032814  -0.058495
     2  C   -0.230543   5.892699   0.543613   0.175864  -0.380538  -0.064692
     3  O   -0.037478   0.543613   7.899470  -0.192142   0.129658  -0.032790
     4  O   -0.291389   0.175864  -0.192142   8.410858  -0.116017  -0.220738
     5  C    0.032814  -0.380538   0.129658  -0.116017  21.088077  -3.308464
     6  C   -0.058495  -0.064692  -0.032790  -0.220738  -3.308464  12.224814
     7  C   -0.005306  -0.029765  -0.002601  -0.003608  -3.181255   4.351446
     8  C    0.000016  -0.006670   0.001950  -0.064939   9.217325  -3.189784
     9  O    0.000007   0.000554   0.000178   0.001217  -0.065391  -0.003187
    10  C    0.000136   0.000036  -0.000309   0.000550  -0.006397  -0.029854
    11  C    0.000096   0.000138  -0.000017   0.000007   0.000199  -0.005386
    12  O   -0.000017  -0.000308   0.000011   0.000178   0.002056  -0.002805
    13  C    0.003958  -0.007543  -0.003095   0.061772  -5.087352  -1.311172
    14  C   -0.000603  -0.087545  -0.001998   0.017254  -0.323155   0.038214
    15  O   -0.000071  -0.000302   0.000043  -0.000018   0.013393   0.001848
    16  C   -0.001776   0.040717  -0.001339   0.011750  -0.761498  -0.537125
    17  C   -0.033736   0.065513  -0.018123   0.044101  -0.788232  -0.381801
    18  C   -0.086730  -0.300464  -0.104883   0.010134   0.119799   0.493274
    19  O   -0.009385   0.015000   0.003309   0.012979  -0.068366  -0.038015
    20  C    0.203840   0.432271   0.064828   0.124280  -9.900132  -2.497998
    21  H    0.420947  -0.052025  -0.006697   0.017638  -0.016534  -0.004702
    22  H    0.370575  -0.027269   0.003592   0.010318  -0.028254  -0.011080
    23  H    0.380989  -0.010141   0.004772  -0.003147  -0.018219   0.033552
    24  H   -0.005115   0.001146   0.000886  -0.010492  -0.125201   0.494489
    25  H   -0.000082  -0.001820   0.000089  -0.000170  -0.053250  -0.023252
    26  H   -0.000008   0.000002   0.000001  -0.000017   0.003616   0.006059
    27  H    0.000009   0.000024   0.000000   0.000005  -0.003982  -0.002309
    28  H    0.000000   0.000006  -0.000000   0.000007  -0.000326  -0.000681
    29  H    0.000172   0.000696  -0.000012   0.000135  -0.028081  -0.002916
    30  H   -0.000641  -0.001087  -0.000187   0.000378  -0.022677   0.005370
               7          8          9         10         11         12
     1  C   -0.005306   0.000016   0.000007   0.000136   0.000096  -0.000017
     2  C   -0.029765  -0.006670   0.000554   0.000036   0.000138  -0.000308
     3  O   -0.002601   0.001950   0.000178  -0.000309  -0.000017   0.000011
     4  O   -0.003608  -0.064939   0.001217   0.000550   0.000007   0.000178
     5  C   -3.181255   9.217325  -0.065391  -0.006397   0.000199   0.002056
     6  C    4.351446  -3.189784  -0.003187  -0.029854  -0.005386  -0.002805
     7  C   12.237412  -3.303895  -0.220133  -0.065761  -0.059092  -0.033114
     8  C   -3.303895  21.101295  -0.116473  -0.379400   0.032649   0.130179
     9  O   -0.220133  -0.116473   8.411081   0.175508  -0.291558  -0.192202
    10  C   -0.065761  -0.379400   0.175508   5.891746  -0.229994   0.543628
    11  C   -0.059092   0.032649  -0.291558  -0.229994   5.840752  -0.037449
    12  O   -0.033114   0.130179  -0.192202   0.543628  -0.037449   7.899407
    13  C   -2.519152  -9.903427   0.123393   0.434092   0.204303   0.065023
    14  C    0.494018   0.119687   0.010773  -0.301534  -0.086997  -0.105001
    15  O   -0.038349  -0.068614   0.013083   0.015162  -0.009463   0.003299
    16  C   -0.384693  -0.792067   0.044053   0.065252  -0.033541  -0.018032
    17  C   -0.536702  -0.760890   0.011679   0.040603  -0.001774  -0.001295
    18  C    0.040934  -0.321843   0.017360  -0.087838  -0.000657  -0.002057
    19  O    0.001933   0.013356  -0.000017  -0.000301  -0.000071   0.000043
    20  C   -1.315872  -5.091604   0.061901  -0.007453   0.003810  -0.003195
    21  H   -0.000680  -0.000317   0.000007   0.000006   0.000000  -0.000000
    22  H   -0.002285  -0.004007   0.000005   0.000024   0.000009   0.000000
    23  H    0.006047   0.003613  -0.000017   0.000002  -0.000008   0.000001
    24  H   -0.023401  -0.053010  -0.000159  -0.001803  -0.000084   0.000088
    25  H    0.495146  -0.125546  -0.010417   0.001154  -0.005145   0.000886
    26  H    0.033555  -0.018273  -0.003095  -0.010520   0.381329   0.004810
    27  H   -0.011128  -0.027773   0.010260  -0.027199   0.370297   0.003548
    28  H   -0.004738  -0.016613   0.017627  -0.051968   0.420954  -0.006700
    29  H    0.005301  -0.022811   0.000384  -0.001077  -0.000639  -0.000188
    30  H   -0.002889  -0.028037   0.000134   0.000695   0.000170  -0.000012
              13         14         15         16         17         18
     1  C    0.003958  -0.000603  -0.000071  -0.001776  -0.033736  -0.086730
     2  C   -0.007543  -0.087545  -0.000302   0.040717   0.065513  -0.300464
     3  O   -0.003095  -0.001998   0.000043  -0.001339  -0.018123  -0.104883
     4  O    0.061772   0.017254  -0.000018   0.011750   0.044101   0.010134
     5  C   -5.087352  -0.323155   0.013393  -0.761498  -0.788232   0.119799
     6  C   -1.311172   0.038214   0.001848  -0.537125  -0.381801   0.493274
     7  C   -2.519152   0.494018  -0.038349  -0.384693  -0.536702   0.040934
     8  C   -9.903427   0.119687  -0.068614  -0.792067  -0.760890  -0.321843
     9  O    0.123393   0.010773   0.013083   0.044053   0.011679   0.017360
    10  C    0.434092  -0.301534   0.015162   0.065252   0.040603  -0.087838
    11  C    0.204303  -0.086997  -0.009463  -0.033541  -0.001774  -0.000657
    12  O    0.065023  -0.105001   0.003299  -0.018032  -0.001295  -0.002057
    13  C   23.421012  -5.075129   0.092750  -1.200194   0.753479  -2.151432
    14  C   -5.075129  13.188009   0.386159  -1.145099  -1.739486   3.127825
    15  O    0.092750   0.386159   8.167274  -0.290587   0.010049  -0.065496
    16  C   -1.200194  -1.145099  -0.290587  10.251433   1.288043  -1.744701
    17  C    0.753479  -1.739486   0.010049   1.288043  10.245116  -1.140638
    18  C   -2.151432   3.127825  -0.065496  -1.744701  -1.140638  13.191716
    19  O    0.044478  -0.065300   0.000647   0.009978  -0.290978   0.386265
    20  C    7.616202  -2.150463   0.044565   0.758926  -1.205406  -5.080938
    21  H    0.000441  -0.000801  -0.000001   0.000359  -0.001423  -0.010505
    22  H    0.002344   0.001778  -0.000007  -0.000143  -0.001528   0.010235
    23  H   -0.006200  -0.000270   0.000002  -0.000516   0.002481   0.001574
    24  H    0.014606  -0.016187   0.000390  -0.001306   0.003759   0.008610
    25  H    0.010229   0.008623   0.000859   0.003724  -0.001318  -0.016168
    26  H   -0.037528   0.001585  -0.000089   0.002479  -0.000514  -0.000267
    27  H    0.022614   0.010441   0.001109  -0.001474  -0.000149   0.001778
    28  H    0.022512  -0.010557   0.000963  -0.001437   0.000358  -0.000802
    29  H   -0.047869  -0.118813  -0.014052   0.508457  -0.018954   0.023708
    30  H    0.032307   0.023845   0.001262  -0.019005   0.508278  -0.118700
              19         20         21         22         23         24
     1  C   -0.009385   0.203840   0.420947   0.370575   0.380989  -0.005115
     2  C    0.015000   0.432271  -0.052025  -0.027269  -0.010141   0.001146
     3  O    0.003309   0.064828  -0.006697   0.003592   0.004772   0.000886
     4  O    0.012979   0.124280   0.017638   0.010318  -0.003147  -0.010492
     5  C   -0.068366  -9.900132  -0.016534  -0.028254  -0.018219  -0.125201
     6  C   -0.038015  -2.497998  -0.004702  -0.011080   0.033552   0.494489
     7  C    0.001933  -1.315872  -0.000680  -0.002285   0.006047  -0.023401
     8  C    0.013356  -5.091604  -0.000317  -0.004007   0.003613  -0.053010
     9  O   -0.000017   0.061901   0.000007   0.000005  -0.000017  -0.000159
    10  C   -0.000301  -0.007453   0.000006   0.000024   0.000002  -0.001803
    11  C   -0.000071   0.003810   0.000000   0.000009  -0.000008  -0.000084
    12  O    0.000043  -0.003195  -0.000000   0.000000   0.000001   0.000088
    13  C    0.044478   7.616202   0.000441   0.002344  -0.006200   0.014606
    14  C   -0.065300  -2.150463  -0.000801   0.001778  -0.000270  -0.016187
    15  O    0.000647   0.044565  -0.000001  -0.000007   0.000002   0.000390
    16  C    0.009978   0.758926   0.000359  -0.000143  -0.000516  -0.001306
    17  C   -0.290978  -1.205406  -0.001423  -0.001528   0.002481   0.003759
    18  C    0.386265  -5.080938  -0.010505   0.010235   0.001574   0.008610
    19  O    8.167414   0.092384   0.000951   0.001121  -0.000091   0.000856
    20  C    0.092384  23.410945   0.022377   0.023069  -0.037541   0.010444
    21  H    0.000951   0.022377   0.504321  -0.025022  -0.024368   0.000086
    22  H    0.001121   0.023069  -0.025022   0.506739  -0.033470   0.000656
    23  H   -0.000091  -0.037541  -0.024368  -0.033470   0.516074  -0.001159
    24  H    0.000856   0.010444   0.000086   0.000656  -0.001159   0.474490
    25  H    0.000390   0.014588   0.000012  -0.000052   0.000036  -0.011789
    26  H    0.000002  -0.006189  -0.000000  -0.000000   0.000000   0.000036
    27  H   -0.000007   0.002337   0.000000   0.000000  -0.000000  -0.000052
    28  H   -0.000001   0.000450  -0.000000   0.000000  -0.000000   0.000012
    29  H    0.001259   0.032427   0.000016  -0.000009  -0.000018  -0.000009
    30  H   -0.014017  -0.048096  -0.000035  -0.000076   0.000007   0.000033
              25         26         27         28         29         30
     1  C   -0.000082  -0.000008   0.000009   0.000000   0.000172  -0.000641
     2  C   -0.001820   0.000002   0.000024   0.000006   0.000696  -0.001087
     3  O    0.000089   0.000001   0.000000  -0.000000  -0.000012  -0.000187
     4  O   -0.000170  -0.000017   0.000005   0.000007   0.000135   0.000378
     5  C   -0.053250   0.003616  -0.003982  -0.000326  -0.028081  -0.022677
     6  C   -0.023252   0.006059  -0.002309  -0.000681  -0.002916   0.005370
     7  C    0.495146   0.033555  -0.011128  -0.004738   0.005301  -0.002889
     8  C   -0.125546  -0.018273  -0.027773  -0.016613  -0.022811  -0.028037
     9  O   -0.010417  -0.003095   0.010260   0.017627   0.000384   0.000134
    10  C    0.001154  -0.010520  -0.027199  -0.051968  -0.001077   0.000695
    11  C   -0.005145   0.381329   0.370297   0.420954  -0.000639   0.000170
    12  O    0.000886   0.004810   0.003548  -0.006700  -0.000188  -0.000012
    13  C    0.010229  -0.037528   0.022614   0.022512  -0.047869   0.032307
    14  C    0.008623   0.001585   0.010441  -0.010557  -0.118813   0.023845
    15  O    0.000859  -0.000089   0.001109   0.000963  -0.014052   0.001262
    16  C    0.003724   0.002479  -0.001474  -0.001437   0.508457  -0.019005
    17  C   -0.001318  -0.000514  -0.000149   0.000358  -0.018954   0.508278
    18  C   -0.016168  -0.000267   0.001778  -0.000802   0.023708  -0.118700
    19  O    0.000390   0.000002  -0.000007  -0.000001   0.001259  -0.014017
[...]
 383,0.00002052,0.00009160,-0.00002528,0.00001452,0.00001685,0.00002508
 ,-0.00002717,-0.00032081,-0.00027071,-0.00006065,0.00160804,-0.0001252
 9,0.00020431,-0.00054720,0.00010302,-0.00007247,-0.00357561,-0.0023720
 9,-0.00125501,0.00000515,-0.00000309,-0.00000941,0.00000705,-0.0000029
 5,-0.00000883,0.00000965,-0.00000283,-0.00000145,-0.11107949,0.3140033
 0,0.00005442,0.00001059,-0.00010718,0.00066195,0.00002099,0.00057068,-
 0.00028766,0.00003602,-0.00017446,0.00152754,0.00040726,-0.00392129,0.
 00092902,-0.00534591,0.00551060,-0.00217006,-0.00513721,-0.03936928,-0
 .00200257,0.00482407,0.00465654,-0.00218027,-0.00070948,0.00739809,-0.
 00013288,0.00053136,-0.00026786,0.00003823,-0.00012936,-0.00011029,-0.
 00002411,-0.00001489,0.00000492,0.00004996,0.00003992,0.00004147,-0.00
 019519,-0.00014249,-0.00127080,-0.00003187,0.00014504,-0.00052861,0.00
 010842,0.00002784,-0.00001452,-0.00007024,-0.00002531,0.00034643,-0.00
 004172,-0.00004192,-0.00016612,0.00024472,-0.00020615,0.00023172,-0.00
 002342,0.00002284,0.00004570,-0.00138148,-0.00120661,0.00447825,0.0000
 2925,-0.00000309,0.00001999,0.00000120,0.00000437,0.00000379,-0.000000
 57,0.00000258,0.00000088,0.00382068,0.00644557,0.02692413,-0.00009092,
 0.00003408,0.00010943,0.00042973,0.00011965,-0.00111953,-0.00003350,-0
 .00012313,0.00043655,-0.00202564,-0.00100763,0.00033851,-0.00260524,0.
 00235807,-0.00182591,-0.01311180,-0.02408389,-0.00577708,-0.16016822,-
 0.13364659,-0.03717447,0.00913713,0.01133422,0.00184552,0.00177632,-0.
 00052410,0.00076406,-0.00039665,0.00034702,0.00053415,0.00002477,-0.00
 001560,0.00001095,0.00005248,-0.00000353,-0.00018441,-0.00041960,0.002
 30099,-0.00071637,0.00044342,0.00062193,0.00013719,0.00011875,-0.00015
 013,-0.00001213,-0.00011962,0.00019820,0.00001823,-0.00003326,-0.00003
 166,-0.00007647,0.00010251,0.00005916,0.00013285,-0.00004778,-0.000053
 63,-0.00001025,-0.00066594,0.00045994,0.00015971,-0.00005411,0.0000168
 9,-0.00001361,0.00000339,-0.00000005,0.00001169,-0.00001083,0.00000147
 ,0.00000258,0.00109876,0.00003644,0.00104072,0.16652953,0.00001422,-0.
 00001981,-0.00001506,0.00006723,-0.00001860,0.00009494,-0.00002212,0.0
 0002100,-0.00001975,0.00036655,0.00035075,0.00002525,0.00206114,0.0009
 8389,-0.00033146,0.00514094,0.00890458,0.00142386,-0.13186360,-0.22998
 954,-0.04494664,-0.01883525,-0.01772355,-0.00595989,-0.00189411,0.0028
 7897,0.00070041,0.00075904,-0.00035927,-0.00084397,-0.00005118,-0.0000
 5991,-0.00003704,-0.00004311,0.00008538,0.00039872,0.00325320,-0.00403
 377,-0.00043198,-0.00175412,0.00011939,-0.00027966,0.00052465,0.000007
 36,0.00007245,0.00028321,-0.00041256,0.00001689,0.00001427,0.00004251,
 -0.00003286,0.00000428,-0.00017027,0.00004361,-0.00009083,0.00003183,-
 0.00000604,0.00091841,0.00019134,0.00031232,0.00000649,-0.00000323,-0.
 00000020,-0.00000281,0.00000053,-0.00000217,0.00000254,-0.00000083,0.0
 0000027,-0.00042463,0.00053274,0.00045751,0.14172604,0.23875697,-0.000
 02026,0.00001527,0.00000872,0.00010751,0.00014253,-0.00009442,0.000030
 52,-0.00006006,0.00004099,-0.00023318,-0.00035962,-0.00037656,-0.00180
 084,-0.00029396,0.00750353,-0.00246093,-0.00387860,0.00370195,-0.03703
 466,-0.04545891,-0.05016895,-0.00224999,-0.00040830,0.00538989,0.00114
 673,0.00081882,-0.00390633,0.00080029,-0.00041744,0.00040610,0.0000443
 3,-0.00001293,-0.00011966,-0.00029520,0.00009823,-0.00009776,-0.000430
 11,-0.00051860,0.00468915,-0.00013150,0.00013796,0.00021210,0.00010384
 ,-0.00003618,0.00005833,0.00003937,-0.00000427,-0.00015044,-0.00007195
 ,-0.00003555,0.00034433,-0.00003963,-0.00003466,-0.00054706,0.00007185
 ,-0.00004584,-0.00002747,0.00007421,0.00055777,-0.00114929,-0.00001033
 ,0.00000356,0.00000051,0.00000158,0.00000171,0.00000368,-0.00000378,0.
 00000040,0.00000104,0.00097204,0.00044481,-0.00415877,0.04134218,0.049
 35561,0.03855996,-0.00000192,-0.00000023,0.00000127,0.00001916,0.00000
 309,-0.00002484,-0.00000199,-0.00000165,0.00001326,-0.00003393,0.00000
 338,0.00000723,0.00002344,0.00002391,0.00000803,-0.00002919,0.00002759
 ,-0.00001094,-0.00010200,-0.00006350,-0.00004291,0.00068714,0.00051250
 ,0.00017447,-0.00024918,0.00163958,0.00094777,-0.00264437,-0.02615350,
 -0.02110804,-0.06023870,-0.03748115,-0.03609061,-0.00460605,0.00453066
 ,-0.00303953,0.00011096,-0.00001768,0.00000182,0.00020312,-0.00005505,
 0.00002754,-0.00027226,-0.00002968,0.00004826,-0.00003409,0.00000864,-
 0.00002926,-0.00000715,-0.00000730,0.00000485,0.00003586,-0.00000973,0
 .00000493,-0.00002433,0.00000538,-0.00000404,0.00002894,0.00000775,0.0
 0001695,-0.00000124,0.00000012,-0.00000006,0.00000029,0.00000018,0.000
 00021,-0.00000030,-0.00000017,-0.00000003,-0.00000998,0.00000096,-0.00
 000377,-0.00000260,-0.00000841,-0.00000372,0.06105987,-0.00000053,-0.0
 0000012,0.00000060,0.00000689,0.00000166,-0.00001183,-0.00000015,-0.00
 000107,0.00000680,-0.00001126,0.00000113,0.00000351,0.00001000,0.00001
 661,0.00000145,-0.00001279,-0.00000436,-0.00000116,0.00000043,-0.00001
 317,0.00000145,-0.00030684,0.00011907,0.00014579,0.00006028,0.00001892
 ,0.00040229,0.00229166,0.00465551,0.00556697,-0.03919716,-0.16651516,-
 0.13243134,0.00159255,-0.00156266,0.00141108,-0.00000064,0.00002313,0.
 00001005,0.00011599,-0.00011716,0.00001100,-0.00031361,0.00003393,0.00
 001528,-0.00004328,0.00001201,-0.00001631,-0.00000675,-0.00000569,-0.0
 0000346,0.00001661,-0.00002008,-0.00000315,-0.00001380,0.00000657,0.00
 000122,0.00000893,0.00000987,-0.00001300,-0.00000045,0.00000009,0.0000
 0004,0.00000021,0.00000006,0.00000008,0.00000022,-0.00000008,0.0000000
 5,0.00000005,-0.00000025,0.00000019,0.00000415,-0.00000182,-0.00000256
 ,0.04030936,0.18022172,0.00000169,0.00000054,-0.00000068,-0.00001623,-
 0.00000326,0.00001882,0.00000318,0.00000172,-0.00001023,0.00002888,-0.
 00000346,-0.00000325,-0.00001794,-0.00000165,-0.00000278,0.00000468,0.
 00000252,-0.00000320,-0.00003454,-0.00004748,-0.00000819,-0.00040726,0
 .00068642,0.00009749,0.00205695,0.00010769,0.00045591,-0.00244676,-0.0
 0732484,-0.01248287,-0.03761869,-0.13278805,-0.17756595,-0.00329876,0.
 00126138,0.00046510,0.00020564,-0.00002443,0.00002940,0.00001944,-0.00
 002864,0.00000530,0.00007074,0.00000175,0.00001672,0.00001286,0.000005
 12,-0.00000453,0.00000084,0.00000667,0.00000223,-0.00001326,-0.0000284
 1,-0.00000414,0.00002874,0.00001029,0.00000558,0.00002216,0.00007052,-
 0.00000402,0.00000094,-0.00000026,0.00000012,0.00000001,-0.00000008,-0
 .00000022,0.00000003,0.,-0.00000030,0.00000236,-0.00000128,0.00000076,
 -0.00000862,0.00000431,0.00000030,0.04402070,0.14296650,0.19172853,-0.
 00000154,-0.00000095,0.00000157,0.00001375,0.00000875,-0.00001660,-0.0
 0000328,-0.00000454,0.00000997,-0.00003174,-0.00000065,0.00000207,-0.0
 0001158,-0.00010094,-0.00000647,0.00008325,-0.00002014,0.00002163,0.00
 010623,0.00005837,0.00000011,0.00052788,-0.00126121,0.00030166,-0.0014
 6566,-0.00137680,0.00061925,0.00216458,0.03285937,-0.01307698,-0.04583
 051,0.00700276,-0.00089581,-0.00392691,-0.00393927,-0.00221288,-0.0001
 4753,-0.00005561,-0.00004718,-0.00063199,0.00054602,-0.00005785,0.0009
 1517,-0.00016409,0.00028503,0.00017024,-0.00004291,0.00000848,0.000025
 89,0.00000755,0.00000499,-0.00002584,0.00013576,-0.00000633,-0.0000002
 3,-0.00004329,0.00000324,-0.00010270,-0.00006797,-0.00006861,-0.000001
 03,0.00000013,-0.00000021,-0.00000063,0.00000034,-0.00000013,0.0000001
 9,-0.00000025,-0.00000004,0.00000374,0.00000170,0.00000173,0.00000883,
 -0.00001212,-0.00000150,-0.00012301,-0.00630446,0.00364574,0.04674707,
 -0.00000098,-0.00000044,0.00000018,0.00001019,0.00000066,-0.00000710,-
 0.00000256,-0.00000003,0.00000358,-0.00001652,0.00000315,-0.00000084,0
 .00000600,-0.00000408,-0.00000034,-0.00000104,0.00001230,0.00002087,-0
 .00010034,0.00001534,0.00000360,0.00044688,0.00030416,-0.00007792,-0.0
 0004510,0.00045910,-0.00018908,0.00117694,-0.00448315,0.00323290,0.005
 95406,-0.26173425,0.10502018,-0.00008337,-0.00043779,-0.00142262,0.000
 00957,-0.00008986,0.00000671,0.00006340,-0.00005036,-0.00001830,-0.000
 45421,-0.00004193,-0.00002785,-0.00003615,0.00000603,-0.00001176,-0.00
 000341,-0.00000433,-0.00000408,0.00001760,-0.00001523,0.00000584,-0.00
 001446,0.00000593,-0.00000247,-0.00000016,0.00002571,0.00000498,-0.000
 00050,0.00000016,-0.00000015,-0.00000015,0.00000002,0.00000028,-0.0000
 0026,0.00000013,0.00000014,-0.00000336,0.00000091,-0.00000291,0.000000
 77,-0.00000216,-0.00000607,0.00080480,-0.01875314,0.00943956,-0.007049
 91,0.28380095,0.00000270,0.00000067,-0.00000162,-0.00003090,-0.0000031
 8,0.00003634,0.00000595,0.00000173,-0.00001947,0.00005348,-0.00000752,
 -0.00000774,-0.00003438,-0.00001091,-0.00000819,0.00002055,-0.00003086
 ,-0.00001454,0.00014114,0.00000322,0.00002423,-0.00046643,-0.00022691,
 -0.00003839,0.00138772,-0.00068955,0.00013254,-0.00133265,0.01241266,-
 0.00968101,-0.00024747,0.10617400,-0.08949170,-0.00297253,-0.00183463,
 0.00011436,0.00006444,0.00000822,-0.00002300,-0.00027138,0.00016515,-0
 .00000384,0.00059271,-0.00003953,-0.00004919,0.00008540,-0.00001507,0.
 00002730,0.00001431,0.00001187,0.00000025,-0.00005302,0.00002277,-0.00
 000150,0.00005187,-0.00000745,0.00000699,0.00000420,0.00000536,0.00000
 927,0.00000185,-0.00000042,0.00000022,-0.00000019,-0.00000014,-0.00000
 050,0.00000021,-0.00000007,-0.00000022,0.00001133,-0.00000170,0.000003
 07,-0.00000566,0.00000958,0.00000425,0.00140190,-0.02101696,0.01077664
 ,0.00400652,-0.11510607,0.09690282,-0.00001465,-0.00000309,0.00000835,
 0.00013763,0.00002388,-0.00014455,-0.00002958,-0.00001245,0.00007719,-
 0.00026233,0.00002623,0.00003245,0.00011413,-0.00011593,0.00001829,0.0
 0006317,0.00015725,-0.00002526,-0.00064466,0.00003855,-0.00009897,0.00
 094975,0.00037747,0.00110131,-0.00839798,0.00113432,-0.00149042,-0.017
 81986,-0.00258295,0.02502565,-0.17289284,-0.00824262,0.13266636,0.0035
 3177,0.00007678,-0.00003417,-0.00018834,-0.00001590,-0.00004889,0.0000
 0686,0.00031042,0.00006507,-0.00000798,-0.00022469,-0.00005477,-0.0000
 3907,-0.00003937,-0.00000385,-0.00000160,-0.00002118,-0.00000517,0.000
 15874,0.00016266,0.00003712,-0.00018090,-0.00005072,-0.00002827,-0.000
 15773,-0.00010754,-0.00008231,-0.00000868,0.00000170,-0.00000167,-0.00
 000104,0.00000042,0.00000187,-0.00000128,0.00000044,0.00000104,-0.0000
 5561,0.00001019,-0.00001050,0.00001280,-0.00001955,0.00002623,0.006218
 19,0.00179745,-0.00626552,0.00152883,-0.00067411,-0.00243937,0.1879948
 0,0.00000139,0.00000046,-0.00000112,-0.00001248,-0.00000304,0.00001292
 ,0.00000306,0.00000116,-0.00000732,0.00002682,-0.00000402,-0.00000354,
 -0.00000642,0.00003332,0.00000203,-0.00002761,0.00001183,0.00000909,-0
 .00005754,-0.00002683,-0.00000697,0.00029487,0.00075180,-0.00016000,0.
 00190836,0.00069744,0.00031866,0.00443619,-0.00275211,-0.00415544,-0.0
 0960039,-0.04653046,0.00893821,-0.00080937,-0.00019553,-0.00062603,0.0
 0014821,-0.00001725,0.00004971,0.00019188,-0.00013929,-0.00001176,-0.0
 0031106,0.00000631,-0.00008636,-0.00004057,0.00001307,0.00001162,-0.00
 000580,-0.00000113,-0.00000624,0.00000138,-0.00004534,0.00000371,0.000
 01497,0.00001570,0.00000105,0.00004137,0.00004508,0.00002633,0.0000009
 0,-0.00000001,0.00000024,0.00000018,-0.00000003,-0.00000008,0.00000021
 ,-0.00000005,0.,0.00000034,-0.00000138,-0.00000131,-0.00000229,-0.0000
 0086,-0.00000970,0.01595191,0.00187315,-0.01431704,-0.02016422,0.00098
 261,0.02017553,0.00801786,0.04528146,-0.00000283,-0.00000067,0.0000022
 4,0.00002682,0.00000626,-0.00003167,-0.00000434,-0.00000361,0.00001730
 ,-0.00005411,0.00000369,0.00001008,0.00002181,-0.00002823,0.00000562,0
 .00001411,0.00004815,-0.00003971,-0.00014748,-0.00001710,-0.00003885,-
 0.00037341,0.00034372,0.00053431,-0.00319072,0.00070621,0.00039388,-0.
 01043125,-0.00126223,0.00851148,0.14094983,0.00821163,-0.20050634,0.00
 032235,0.00001777,0.00148862,0.00002466,-0.00002797,0.00001641,-0.0000
 6219,0.00010495,0.00002417,0.00011788,-0.00004319,0.00001219,0.0000081
 8,-0.00001128,-0.00000320,0.00000182,-0.00000287,0.00000017,0.00002796
 ,0.00003653,0.00000445,-0.00003148,-0.00001081,-0.00000334,-0.00003111
 ,-0.00000917,-0.00004745,-0.00000178,0.00000031,-0.00000031,-0.0000001
 8,0.00000017,0.00000028,-0.00000009,-0.00000007,0.00000013,-0.00001535
 ,0.00000357,0.00000022,-0.00000016,0.00000329,0.00002062,0.01367761,0.
 00295504,-0.01351439,0.00747682,-0.00086333,-0.00869766,-0.14832190,-0
 .01015502,0.21184223,0.00000039,0.00000608,-0.00000504,0.00005585,-0.0
 0011784,-0.00006263,-0.00001428,0.00004553,0.00002751,0.00003079,0.000
 06349,0.00003922,0.00016394,-0.00008351,0.00004439,0.00000947,0.000059
 35,-0.00006420,-0.00022430,-0.00023147,-0.00004522,0.00091816,-0.00056
 050,-0.00003263,-0.00005017,0.00009556,0.00008040,0.00010919,-0.000024
 84,-0.00011682,-0.00000991,0.00000759,0.00000812,-0.00002441,-0.000000
 51,0.00006151,-0.00292720,-0.00228385,-0.00097690,0.00851789,-0.020121
 44,-0.00115747,0.00218784,0.00166366,0.00065128,-0.10366494,0.10820812
 ,0.00064408,-0.00853321,0.03010780,0.00026662,-0.00207987,-0.00355945,
 -0.00330474,-0.00239554,0.00199977,0.00049375,-0.00034412,0.00059367,0
 .00045908,-0.00000298,0.00000420,0.00000160,0.00001521,-0.00000220,0.0
 0000924,-0.00000335,0.00000509,0.00000240,0.00001734,0.00001953,0.0000
 0806,0.00003943,-0.00009652,0.00002499,-0.00000015,0.00000155,0.000000
 58,-0.00000675,-0.00000002,-0.00000207,-0.00000622,0.00000134,-0.00000
 160,0.10733134,0.00001616,0.00000523,-0.00001094,-0.00015900,-0.000045
 77,0.00018885,0.00002871,0.00002644,-0.00009198,0.00028909,-0.00006037
 ,-0.00004250,-0.00013921,-0.00023168,-0.00004596,0.00017917,0.00008116
 ,0.00000493,-0.00043694,-0.00016365,-0.00008687,0.00145008,-0.00069261
 ,0.00011390,-0.00046836,0.00015125,0.00011484,0.00027231,-0.00005646,-
 0.00032662,-0.00002842,0.00001312,0.00001887,-0.00005322,0.00000273,0.
 00016468,-0.00389013,-0.00186618,-0.00097511,0.01302449,-0.01903275,-0
 .00025440,0.00014918,0.00378029,0.00050296,0.10689836,-0.29268539,-0.0
 0796715,-0.00079547,0.00268686,-0.00082581,-0.00112827,0.00138813,-0.0
 0148953,0.00035855,-0.00000095,0.00036277,-0.00023923,0.00074884,0.000
 30536,0.00000997,-0.00000200,0.00000160,0.00000087,-0.00000007,-0.0000
 0139,0.00000086,0.00000021,-0.00000127,0.00001467,-0.00000564,0.000002
 11,0.00004214,-0.00011756,0.00000907,-0.00000195,0.00000027,0.00000308
 ,-0.00000577,-0.00000103,0.00000073,-0.00001704,0.00000185,-0.00000374
 ,-0.11541100,0.30537272,-0.00000301,-0.00000302,0.00000090,0.00001337,
 0.00009032,-0.00004921,0.00000959,-0.00005464,0.00001753,0.00000353,0.
 00001432,-0.00002296,0.00007496,0.00007795,-0.00010061,-0.00009503,-0.
 00004878,0.00032222,-0.00002061,-0.00005858,-0.00017473,0.00020898,-0.
 00021226,0.00063796,-0.00007595,0.00003299,0.00005083,0.00003062,-0.00
 002188,-0.00003230,-0.00000496,0.00000215,0.00000337,-0.00000749,-0.00
 000212,0.00001498,-0.00119096,-0.00082826,0.00174854,0.00215973,-0.005
 60699,0.00293242,0.00058191,0.00090503,-0.00126654,0.00055780,-0.00825
 520,-0.04063886,-0.00269176,0.00469167,0.00875428,-0.00278245,-0.00200
 242,0.01318342,-0.00010222,0.00069425,-0.00286477,0.00029348,0.0003580
 5,-0.00235285,0.00000046,0.00000119,0.00000123,0.00000385,-0.00000101,
 -0.00000195,0.00000099,-0.00000079,0.00000065,0.00000575,0.00000252,-0
 .00000392,0.00003953,-0.00001019,-0.00014365,-0.00000017,-0.00000020,0
 .00000083,-0.00000189,0.00000119,0.00000196,-0.00000318,0.,-0.00000188
 ,0.00170903,0.00952893,0.02655871,-0.00000386,-0.00000399,0.00000231,0
 .00004373,0.00000702,-0.00003422,-0.00001117,-0.00000111,0.00002089,0.
 00004730,-0.00007836,0.00003299,0.00061534,0.00023998,-0.00000183,-0.0
 0006599,0.00020370,0.00002931,-0.00003591,-0.00001394,-0.00007920,0.00
 019043,-0.00003055,0.00005716,-0.00005698,-0.00007452,0.00003075,0.000
 11667,0.00010395,-0.00007888,-0.00000441,-0.00000314,-0.00000314,-0.00
 003032,-0.00004320,0.00003798,-0.00038644,-0.00040639,0.00034472,-0.00
 062810,0.00468859,-0.00219912,-0.00281102,-0.00134854,0.00006955,-0.01
 460727,-0.02491602,-0.00643250,-0.16423126,-0.13558158,-0.03487674,0.0
 0847863,0.01300434,0.00230138,0.00181676,-0.00125281,0.00031667,-0.001
 37724,0.00227841,-0.00026741,-0.00000211,-0.00000007,-0.00000072,-0.00
 000452,0.00000151,-0.00000190,-0.00000009,-0.00000133,-0.00000051,0.00
 004108,0.00004888,0.00004038,0.00000787,-0.00002385,0.00000192,-0.0000
 0454,-0.00000460,0.00000144,0.00001529,-0.00000361,0.00000975,-0.00000
 630,-0.00000347,0.00000014,0.00089055,0.00003938,0.00128610,0.17200386
 ,0.00003363,0.00001104,-0.00001716,-0.00030561,-0.00007240,0.00032460,
 0.00006301,0.00002942,-0.00016859,0.00050110,0.00008461,-0.00010660,-0
 .00177624,-0.00033826,-0.00039815,0.00039808,-0.00035289,0.00006330,-0
 .00012262,0.00012457,-0.00004289,0.00001523,-0.00023638,0.00000079,-0.
 00028064,0.00002269,0.00003453,0.00012060,-0.00004295,-0.00016136,-0.0
 0001283,0.00000616,0.00001277,-0.00002100,0.00000931,0.00007913,0.0004
 4710,0.00078052,0.00038597,0.00217662,-0.00031930,-0.00103397,0.000401
 60,0.00048853,0.00037318,0.00599824,0.00972191,0.00115961,-0.13433296,
 -0.22246016,-0.04177125,-0.02011289,-0.01905627,-0.00553681,0.00022832
 ,0.00422528,0.00072512,0.00389101,-0.00363064,-0.00003223,0.00001810,-
 0.00000358,0.00000414,0.00000695,-0.00000247,-0.00000087,0.00000242,0.
 00000098,-0.00000299,-0.00009045,-0.00012002,-0.00001161,-0.00001896,0
 .00000651,-0.00000247,0.00000018,0.00000106,0.00000080,-0.00000563,0.0
 0000060,-0.00000050,-0.00000851,0.00000210,-0.00000201,-0.00038919,0.0
 0070299,0.00070580,0.14317532,0.23041703,0.00000260,0.00000090,-0.0000
 0114,-0.00003679,0.00000349,0.00005093,0.00000696,0.00000820,-0.000024
 77,0.00003938,-0.00000662,0.00001953,-0.00018099,-0.00008157,0.0005852
 5,0.00009703,0.00002304,-0.00014281,-0.00012458,0.00002267,0.00032465,
 0.00006807,-0.00012930,-0.00012105,-0.00007041,-0.00000657,-0.00001702
 ,0.00002527,-0.00008663,-0.00011399,-0.00000551,0.00000491,0.00000497,
 0.00001660,0.00004728,0.00005118,0.00037970,0.00034694,-0.00234585,-0.
 00217438,-0.00058738,0.01344734,-0.00016807,0.00014593,-0.00294069,-0.
 00308258,-0.00440716,0.00776920,-0.03456552,-0.04149402,-0.05001278,-0
 .00130810,-0.00016639,0.00294938,0.00053475,0.00030587,-0.00130859,-0.
 00011349,-0.00016839,0.00197531,0.00000128,0.00000039,-0.00000068,-0.0
 0000054,-0.00000171,0.00000139,0.00000041,0.00000018,0.00000004,0.0000
 2521,0.00000744,-0.00014412,0.00000084,-0.00000213,-0.00000509,0.00000
 111,0.00000057,0.00000102,0.00000367,0.00000088,-0.00000168,-0.0000021
 4,-0.00000117,0.00000041,0.00123748,0.00080060,-0.00657563,0.03939274,
 0.04541974,0.03657529\\-0.00000398,-0.00000165,-0.00002329,-0.00004423
 ,0.00000309,-0.00002874,0.00002180,-0.00000811,0.00004936,-0.00003141,
 0.00001699,-0.00001591,0.00004977,-0.00001048,0.00000966,-0.00005647,0
 .00000657,-0.00001138,0.00005269,-0.00000757,0.00000546,-0.00004787,0.
 00000608,-0.00001246,0.00002739,-0.00000505,0.00002962,0.00004838,-0.0
 0000081,0.00000417,-0.00000020,-0.00000528,0.00002408,-0.00002280,0.00
 000221,-0.00003984,-0.00005551,0.00001024,-0.00000390,0.00005280,-0.00
 001143,-0.00000500,-0.00002319,0.00003072,0.00000459,-0.00006951,-0.00
 001878,-0.00000097,0.00006086,-0.00003579,0.00002391,-0.00005081,0.000
 00175,-0.00005208,0.00003231,0.00001741,0.00001704,0.00005531,-0.00000
 834,0.00002407,0.00001038,0.00000419,-0.00000329,0.00000177,-0.0000001
 5,-0.00000067,0.00000564,-0.00000394,0.00000841,0.00000597,-0.00000054
 ,-0.00000245,-0.00000681,0.00000127,0.00000081,-0.00000801,0.00000120,
 -0.00000969,0.00000115,0.00000114,-0.00000009,-0.00000871,0.00000622,0
 .00000356,0.00000909,0.00000374,0.00000395,-0.00000581,0.00000509,0.00
 000108\\\@


 IT IS NOT EASY TO DESCRIBE
     THE SEA WITH THE MOUTH

                   -- KOKYU
 Job cpu time:       0 days  9 hours  3 minutes 54.4 seconds.
 Elapsed time:       0 days  1 hours  9 minutes  9.7 seconds.
 File lengths (MBytes):  RWF=   1543 Int=      0 D2E=      0 Chk=     40 Scr=      1
 Normal termination of Gaussian 16 at Sun Feb 11 03:20:57 2024.
