 Entering Gaussian System, Link 0=g16
 Input=190-PCM.com
 Output=190-PCM.log
 Initial command:
 /sysapps/ubuntu-applications/gaussian/Gaussian/AVX2/g16/l1.exe "/scratch/selhajj1/4293305/Gau-2617917.inp" -scrdir="/scratch/selhajj1/4293305/"
 Entering Link 1 = /sysapps/ubuntu-applications/gaussian/Gaussian/AVX2/g16/l1.exe PID=   2617922.
  
 Copyright (c) 1988,1990,1992,1993,1995,1998,2003,2009,2016,
            Gaussian, Inc.  All Rights Reserved.
  
 This is part of the Gaussian(R) 16 program.  It is based on
 the Gaussian(R) 09 system (copyright 2009, Gaussian, Inc.),
 the Gaussian(R) 03 system (copyright 2003, Gaussian, Inc.),
 the Gaussian(R) 98 system (copyright 1998, Gaussian, Inc.),
 the Gaussian(R) 94 system (copyright 1995, Gaussian, Inc.),
 the Gaussian 92(TM) system (copyright 1992, Gaussian, Inc.),
 the Gaussian 90(TM) system (copyright 1990, Gaussian, Inc.),
 the Gaussian 88(TM) system (copyright 1988, Gaussian, Inc.),
 the Gaussian 86(TM) system (copyright 1986, Carnegie Mellon
 University), and the Gaussian 82(TM) system (copyright 1983,
 Carnegie Mellon University). Gaussian is a federally registered
 trademark of Gaussian, Inc.
  
 This software contains proprietary and confidential information,
 including trade secrets, belonging to Gaussian, Inc.
  
 This software is provided under written license and may be
 used, copied, transmitted, or stored only in accord with that
 written license.
  
 The following legend is applicable only to US Government
 contracts under FAR:
  
                    RESTRICTED RIGHTS LEGEND
  
 Use, reproduction and disclosure by the US Government is
 subject to restrictions as set forth in subparagraphs (a)
 and (c) of the Commercial Computer Software - Restricted
 Rights clause in FAR 52.227-19.
  
 Gaussian, Inc.
 340 Quinnipiac St., Bldg. 40, Wallingford CT 06492
  
  
 ---------------------------------------------------------------
 Warning -- This program may not be used in any manner that
 competes with the business of Gaussian, Inc. or will provide
 assistance to any competitor of Gaussian, Inc.  The licensee
 of this program is prohibited from giving any competitor of
 Gaussian, Inc. access to this program.  By using this program,
 the user acknowledges that Gaussian, Inc. is engaged in the
 business of creating and licensing software in the field of
 computational chemistry and represents and warrants to the
 licensee that it is not a competitor of Gaussian, Inc. and that
 it will not use this program in any manner prohibited above.
 ---------------------------------------------------------------
  

 Cite this work as:
 Gaussian 16, Revision A.03,
 M. J. Frisch, G. W. Trucks, H. B. Schlegel, G. E. Scuseria, 
 M. A. Robb, J. R. Cheeseman, G. Scalmani, V. Barone, 
 G. A. Petersson, H. Nakatsuji, X. Li, M. Caricato, A. V. Marenich, 
 J. Bloino, B. G. Janesko, R. Gomperts, B. Mennucci, H. P. Hratchian, 
 J. V. Ortiz, A. F. Izmaylov, J. L. Sonnenberg, D. Williams-Young, 
 F. Ding, F. Lipparini, F. Egidi, J. Goings, B. Peng, A. Petrone, 
 T. Henderson, D. Ranasinghe, V. G. Zakrzewski, J. Gao, N. Rega, 
 G. Zheng, W. Liang, M. Hada, M. Ehara, K. Toyota, R. Fukuda, 
 J. Hasegawa, M. Ishida, T. Nakajima, Y. Honda, O. Kitao, H. Nakai, 
 T. Vreven, K. Throssell, J. A. Montgomery, Jr., J. E. Peralta, 
 F. Ogliaro, M. J. Bearpark, J. J. Heyd, E. N. Brothers, K. N. Kudin, 
 V. N. Staroverov, T. A. Keith, R. Kobayashi, J. Normand, 
 K. Raghavachari, A. P. Rendell, J. C. Burant, S. S. Iyengar, 
 J. Tomasi, M. Cossi, J. M. Millam, M. Klene, C. Adamo, R. Cammi, 
 J. W. Ochterski, R. L. Martin, K. Morokuma, O. Farkas, 
 J. B. Foresman, and D. J. Fox, Gaussian, Inc., Wallingford CT, 2016.
 
 ******************************************
 Gaussian 16:  ES64L-G16RevA.03 25-Dec-2016
                16-Jan-2024 
 ******************************************
 %chk=190-PCM.chk
 %nproc=8
 Will use up to    8 processors via shared memory.
 %mem=30GB
 ----------------------------------------------------------------
 #P UB3LYP/6-311++G(d,p) SCRF=(PCM,Solvent=n,n-DiMethylFormamide)
 ----------------------------------------------------------------
 1/38=1,172=1/1;
 2/12=2,17=6,18=5,40=1/2;
 3/5=4,6=6,7=1111,11=2,25=1,30=1,70=2201,72=148,74=-5,116=2/1,2,3;
 4//1;
 5/5=2,38=5,53=148/2;
 6/7=2,8=2,9=2,10=2,28=1/1;
 99/5=1,9=1/99;
 Leave Link    1 at Tue Jan 16 06:39:59 2024, MaxMem=  4026531840 cpu:               0.5 elap:               0.1
 (Enter /sysapps/ubuntu-applications/gaussian/Gaussian/AVX2/g16/l101.exe)
 ------------------
 Quinone PCM in DMF
 ------------------
 Symbolic Z-matrix:
 Charge = -1 Multiplicity = 1
 O                     1.49835  -2.86701  -0.55908 
 C                     1.47251  -1.54478  -0.28612 
 C                     2.73296  -0.90766  -0.13185 
 O                     3.79784  -1.71165  -0.28269 
 C                     2.80599   0.45772   0.14026 
 C                     1.62903   1.19148   0.26139 
 C                     0.38484   0.58472   0.12162 
 C                    -0.81462   1.4355    0.26615 
 O                    -0.74958   2.63614   0.50351 
 C                    -2.14956   0.77901   0.10918 
 C                    -3.30945   1.55224   0.2337 
 C                    -4.56026   0.96568   0.09183 
 C                    -4.66332  -0.40329  -0.17682 
 C                    -3.51569  -1.17589  -0.30161 
 C                    -2.25159  -0.59211  -0.16031 
 C                    -1.03561  -1.46549  -0.30278 
 O                    -1.18295  -2.658    -0.53057 
 C                     0.28443  -0.81463  -0.15577 
 S                     4.42758   1.2618    0.40194 
 O                     5.3761    0.22227  -0.16188 
 O                     4.39706   2.50705  -0.37989 
 O                     4.55559   1.42262   1.86094 
 H                     2.43889  -3.10652  -0.60691 
 H                     4.61921  -1.10147  -0.2512 
 H                     1.67379   2.25417   0.46207 
 H                    -3.1979    2.6093    0.44225 
 H                    -5.45658   1.56908   0.18928 
 H                    -5.63996  -0.86256  -0.28774 
 H                    -3.56708  -2.23772  -0.5089 
 
 ITRead=  0  0  0  0  0  0  0  0  0  0  0  0  0  0  0  0  0  0  0  0
 ITRead=  0  0  0  0  0  0  0  0  0
 MicOpt= -1 -1 -1 -1 -1 -1 -1 -1 -1 -1 -1 -1 -1 -1 -1 -1 -1 -1 -1 -1
 MicOpt= -1 -1 -1 -1 -1 -1 -1 -1 -1
 NAtoms=     29 NQM=       29 NQMF=       0 NMMI=      0 NMMIF=      0
                NMic=       0 NMicF=      0.
                    Isotopes and Nuclear Properties:
 (Nuclear quadrupole moments (NQMom) in fm**2, nuclear magnetic moments (NMagM)
  in nuclear magnetons)

  Atom         1           2           3           4           5           6           7           8           9          10
 IAtWgt=          16          12          12          16          12          12          12          12          16          12
 AtmWgt=  15.9949146  12.0000000  12.0000000  15.9949146  12.0000000  12.0000000  12.0000000  12.0000000  15.9949146  12.0000000
 NucSpn=           0           0           0           0           0           0           0           0           0           0
 AtZEff=  -0.0000000  -0.0000000  -0.0000000  -0.0000000  -0.0000000  -0.0000000  -0.0000000  -0.0000000  -0.0000000  -0.0000000
 NQMom=    0.0000000   0.0000000   0.0000000   0.0000000   0.0000000   0.0000000   0.0000000   0.0000000   0.0000000   0.0000000
 NMagM=    0.0000000   0.0000000   0.0000000   0.0000000   0.0000000   0.0000000   0.0000000   0.0000000   0.0000000   0.0000000
 AtZNuc=   8.0000000   6.0000000   6.0000000   8.0000000   6.0000000   6.0000000   6.0000000   6.0000000   8.0000000   6.0000000

  Atom        11          12          13          14          15          16          17          18          19          20
 IAtWgt=          12          12          12          12          12          12          16          12          32          16
 AtmWgt=  12.0000000  12.0000000  12.0000000  12.0000000  12.0000000  12.0000000  15.9949146  12.0000000  31.9720718  15.9949146
 NucSpn=           0           0           0           0           0           0           0           0           0           0
 AtZEff=  -0.0000000  -0.0000000  -0.0000000  -0.0000000  -0.0000000  -0.0000000  -0.0000000  -0.0000000  -0.0000000  -0.0000000
 NQMom=    0.0000000   0.0000000   0.0000000   0.0000000   0.0000000   0.0000000   0.0000000   0.0000000   0.0000000   0.0000000
 NMagM=    0.0000000   0.0000000   0.0000000   0.0000000   0.0000000   0.0000000   0.0000000   0.0000000   0.0000000   0.0000000
 AtZNuc=   6.0000000   6.0000000   6.0000000   6.0000000   6.0000000   6.0000000   8.0000000   6.0000000  16.0000000   8.0000000

  Atom        21          22          23          24          25          26          27          28          29
 IAtWgt=          16          16           1           1           1           1           1           1           1
 AtmWgt=  15.9949146  15.9949146   1.0078250   1.0078250   1.0078250   1.0078250   1.0078250   1.0078250   1.0078250
 NucSpn=           0           0           1           1           1           1           1           1           1
 AtZEff=  -0.0000000  -0.0000000  -0.0000000  -0.0000000  -0.0000000  -0.0000000  -0.0000000  -0.0000000  -0.0000000
 NQMom=    0.0000000   0.0000000   0.0000000   0.0000000   0.0000000   0.0000000   0.0000000   0.0000000   0.0000000
 NMagM=    0.0000000   0.0000000   2.7928460   2.7928460   2.7928460   2.7928460   2.7928460   2.7928460   2.7928460
 AtZNuc=   8.0000000   8.0000000   1.0000000   1.0000000   1.0000000   1.0000000   1.0000000   1.0000000   1.0000000
 Leave Link  101 at Tue Jan 16 06:40:00 2024, MaxMem=  4026531840 cpu:               1.3 elap:               0.2
 (Enter /sysapps/ubuntu-applications/gaussian/Gaussian/AVX2/g16/l202.exe)
                          Input orientation:                          
 ---------------------------------------------------------------------
 Center     Atomic      Atomic             Coordinates (Angstroms)
 Number     Number       Type             X           Y           Z
 ---------------------------------------------------------------------
      1          8           0        1.498347   -2.867008   -0.559080
      2          6           0        1.472514   -1.544782   -0.286123
      3          6           0        2.732962   -0.907658   -0.131849
      4          8           0        3.797840   -1.711647   -0.282688
      5          6           0        2.805987    0.457719    0.140261
      6          6           0        1.629026    1.191476    0.261385
      7          6           0        0.384840    0.584715    0.121617
      8          6           0       -0.814617    1.435502    0.266149
      9          8           0       -0.749582    2.636140    0.503514
     10          6           0       -2.149559    0.779012    0.109180
     11          6           0       -3.309445    1.552240    0.233695
     12          6           0       -4.560264    0.965684    0.091828
     13          6           0       -4.663321   -0.403293   -0.176817
     14          6           0       -3.515685   -1.175885   -0.301609
     15          6           0       -2.251590   -0.592111   -0.160313
     16          6           0       -1.035610   -1.465493   -0.302779
     17          8           0       -1.182950   -2.657996   -0.530568
     18          6           0        0.284427   -0.814631   -0.155770
     19         16           0        4.427575    1.261798    0.401939
     20          8           0        5.376095    0.222270   -0.161883
     21          8           0        4.397059    2.507053   -0.379885
     22          8           0        4.555589    1.422617    1.860943
     23          1           0        2.438890   -3.106524   -0.606907
     24          1           0        4.619211   -1.101469   -0.251200
     25          1           0        1.673789    2.254174    0.462070
     26          1           0       -3.197901    2.609296    0.442247
     27          1           0       -5.456581    1.569079    0.189284
     28          1           0       -5.639963   -0.862556   -0.287738
     29          1           0       -3.567083   -2.237719   -0.508903
 ---------------------------------------------------------------------
                    Distance matrix (angstroms):
                    1          2          3          4          5
     1  O    0.000000
     2  C    1.350353   0.000000
     3  C    2.354963   1.420724   0.000000
     4  O    2.588227   2.331308   1.342802   0.000000
     5  C    3.640441   2.443351   1.394142   2.422562   0.000000
     6  C    4.142648   2.794883   2.404095   3.664409   1.392231
     7  C    3.690208   2.425705   2.793761   4.133438   2.424547
     8  C    4.954028   3.797113   4.270143   5.610751   3.752423
     9  O    6.038785   4.800140   5.009022   6.340380   4.185635
    10  C    5.200697   4.321539   5.171263   6.459760   4.966048
    11  C    6.578230   5.720917   6.534172   7.837928   6.213309
    12  C    7.198609   6.545204   7.533299   8.784433   7.383903
    13  C    6.646967   6.242068   7.413596   8.562374   7.525453
    14  C    5.297802   5.001845   6.256705   7.333147   6.544268
    15  C    4.404112   3.846084   4.994611   6.153368   5.174125
    16  C    2.907038   2.509432   3.813467   4.839756   4.318900
    17  O    2.689582   2.889721   4.307787   5.075952   5.105811
    18  C    2.418370   1.400594   2.450418   3.628335   2.839855
    19  S    5.152764   4.133123   2.804137   3.115551   1.828815
    20  O    4.973765   4.286707   2.874681   2.499103   2.598496
    21  O    6.108615   4.997912   3.806704   4.262152   2.646097
    22  O    5.796906   4.787557   3.566983   3.872073   2.636832
    23  H    0.971739   1.864356   2.268738   1.974220   3.660171
    24  H    3.598848   3.177963   1.899932   1.023699   2.423240
    25  H    5.224943   3.877160   3.387000   4.560043   2.147716
    26  H    7.283358   6.292826   6.919081   8.254482   6.384916
    27  H    8.283112   7.611472   8.561890   9.830068   8.337119
    28  H    7.419361   7.145122   8.374498   9.475922   8.559228
    29  H    5.104616   5.091889   6.449946   7.387152   6.950023
                    6          7          8          9         10
     6  C    0.000000
     7  C    1.391292   0.000000
     8  C    2.455802   1.477642   0.000000
     9  O    2.793467   2.375101   1.225603   0.000000
    10  C    3.804076   2.541866   1.495891   2.358889   0.000000
    11  C    4.951708   3.820525   2.497769   2.792945   1.399543
    12  C    6.195728   4.959847   3.779019   4.181053   2.417984
    13  C    6.506069   5.152587   4.288346   5.001835   2.792604
    14  C    5.691170   4.300340   3.799666   4.778188   2.420056
    15  C    4.291642   2.900891   2.521503   3.621919   1.401076
    16  C    3.805003   2.530048   2.964505   4.189906   2.539369
    17  O    4.832477   3.660394   4.186544   5.411563   3.627208
    18  C    2.450802   1.430103   2.539490   3.662192   2.921333
    19  S    2.802959   4.108616   5.246827   5.357433   6.601324
    20  O    3.893461   5.012421   6.322979   6.617661   7.551086
    21  O    3.131130   4.477141   5.359771   5.223502   6.788484
    22  O    3.343170   4.595920   5.602022   5.608930   6.960022
    23  H    4.458993   4.286620   5.654868   6.661650   6.055083
    24  H    3.802834   4.572976   6.019166   6.585078   7.034368
    25  H    1.082407   2.136444   2.626932   2.453639   4.113226
    26  H    5.034099   4.127683   2.662489   2.449233   2.135391
    27  H    7.096028   5.924167   4.644522   4.836652   3.401032
    28  H    7.573558   6.209703   5.373251   6.064881   3.877526
    29  H    6.273139   4.897079   4.655032   5.719948   3.389995
                   11         12         13         14         15
    11  C    0.000000
    12  C    1.388784   0.000000
    13  C    2.413630   1.398888   0.000000
    14  C    2.787786   2.415006   1.389079   0.000000
    15  C    2.423333   2.796476   2.419167   1.399533   0.000000
    16  C    3.816391   4.299944   3.782119   2.496927   1.503895
    17  O    4.778302   4.992463   4.161948   2.773216   2.355199
    18  C    4.320842   5.167384   4.964862   3.820029   2.545765
    19  S    7.744297   8.998061   9.260231   8.338624   6.954448
    20  O    8.795675   9.967360  10.058898   9.002117   7.671036
    21  O    7.789631   9.101207   9.518500   8.728212   7.338771
    22  O    8.032652   9.297168   9.616377   8.750675   7.381212
    23  H    7.446748   8.127685   7.611428   6.267179   5.340629
    24  H    8.375015   9.415601   9.309048   8.135393   6.890255
    25  H    5.037607   6.376575   6.901396   6.267308   4.888486
    26  H    1.083191   2.163397   3.406815   3.870646   3.392284
    27  H    2.147661   1.084881   2.157207   3.397482   3.881356
    28  H    3.396240   2.156915   1.084922   2.147306   3.401536
    29  H    3.870610   3.407210   2.162669   1.083099   2.135430
                   16         17         18         19         20
    16  C    0.000000
    17  O    1.222972   0.000000
    18  C    1.479098   2.385721   0.000000
    19  S    6.146636   6.907412   4.667791   0.000000
    20  O    6.631618   7.173070   5.196180   1.515983   0.000000
    21  O    6.730599   7.605060   5.291272   1.470660   2.495249
    22  O    6.654651   7.436502   5.226398   1.473412   2.491162
    23  H    3.854559   3.650305   3.177736   4.904577   4.461624
    24  H    5.666760   6.013809   4.345312   2.459338   1.527461
    25  H    4.664950   5.768510   3.424853   2.927757   4.269077
    26  H    4.672737   5.722828   4.920113   7.743724   8.920553
    27  H    5.384769   6.053947   6.225778   9.891217  10.921725
    28  H    4.643687   4.811189   5.926053  10.312316  11.070060
    29  H    2.654652   2.420990   4.121166   8.774441   9.281832
                   21         22         23         24         25
    21  O    0.000000
    22  O    2.494483   0.000000
    23  H    5.949640   5.575286   0.000000
    24  H    3.617643   3.291839   2.983383   0.000000
    25  H    2.861649   3.309547   5.519527   4.521571   0.000000
    26  H    7.640011   7.971042   8.095970   8.680892   4.884656
    27  H    9.914533  10.151820   9.210518  10.432998   7.168399
    28  H   10.587944  10.667152   8.390776  10.262021   7.985436
    29  H    9.271303   9.219112   6.069278   8.268790   6.970411
                   26         27         28         29
    26  H    0.000000
    27  H    2.499535   0.000000
    28  H    4.307006   2.484759   0.000000
    29  H    4.953235   4.306899   2.497362   0.000000
 Stoichiometry    C14H7O7S(1-)
 Framework group  C1[X(C14H7O7S)]
 Deg. of freedom    81
 Full point group                 C1      NOp   1
 Largest Abelian subgroup         C1      NOp   1
 Largest concise Abelian subgroup C1      NOp   1
                         Standard orientation:                         
 ---------------------------------------------------------------------
 Center     Atomic      Atomic             Coordinates (Angstroms)
 Number     Number       Type             X           Y           Z
 ---------------------------------------------------------------------
      1          8           0       -0.432179    3.083652   -0.015938
      2          6           0       -0.537545    1.737418   -0.013634
      3          6           0       -1.855811    1.207727   -0.021368
      4          8           0       -2.836303    2.125115   -0.033599
      5          6           0       -2.063394   -0.170840   -0.030980
      6          6           0       -0.963760   -1.024721   -0.030999
      7          6           0        0.334959   -0.525938   -0.015557
      8          6           0        1.445408   -1.500785   -0.015614
      9          8           0        1.262137   -2.712564   -0.025960
     10          6           0        2.839657   -0.958899   -0.004807
     11          6           0        3.918596   -1.850295   -0.009852
     12          6           0        5.222183   -1.371450   -0.000362
     13          6           0        5.459822    0.007031    0.014100
     14          6           0        4.393026    0.896673    0.019046
     15          6           0        3.076505    0.421942    0.009231
     16          6           0        1.951564    1.420024    0.015447
     17          8           0        2.215579    2.613990    0.035549
     18          6           0        0.573085    0.884151   -0.003619
     19         16           0       -3.760699   -0.849582    0.024096
     20          8           0       -4.586277    0.367916   -0.342407
     21          8           0       -3.808749   -1.912671   -0.990976
     22          8           0       -3.965807   -1.282460    1.417469
     23          1           0       -1.344329    3.417996   -0.037652
     24          1           0       -3.709944    1.603382   -0.145430
     25          1           0       -1.112831   -2.096662   -0.049059
     26          1           0        3.703246   -2.911808   -0.020707
     27          1           0        6.055363   -2.066261   -0.004231
     28          1           0        6.477787    0.382192    0.021619
     29          1           0        4.548908    1.968433    0.030622
 ---------------------------------------------------------------------
 Rotational constants (GHZ):           0.5850341           0.1588058           0.1280581
 Leave Link  202 at Tue Jan 16 06:40:00 2024, MaxMem=  4026531840 cpu:               0.2 elap:               0.1
 (Enter /sysapps/ubuntu-applications/gaussian/Gaussian/AVX2/g16/l301.exe)
 Standard basis: 6-311++G(d,p) (5D, 7F)
 Ernie: Thresh=  0.10000D-02 Tol=  0.10000D-05 Strict=F.
 There are   563 symmetry adapted cartesian basis functions of A   symmetry.
 There are   541 symmetry adapted basis functions of A   symmetry.
   541 basis functions,   869 primitive gaussians,   563 cartesian basis functions
    82 alpha electrons       82 beta electrons
       nuclear repulsion energy      1906.8718415086 Hartrees.
 IExCor=  402 DFT=T Ex+Corr=B3LYP ExCW=0 ScaHFX=  0.200000
 ScaDFX=  0.800000  0.720000  1.000000  0.810000 ScalE2=  1.000000  1.000000
 IRadAn=      5 IRanWt=     -1 IRanGd=            0 ICorTp=0 IEmpDi=  4
 NAtoms=   29 NActive=   29 NUniq=   29 SFac= 1.00D+00 NAtFMM=   60 NAOKFM=F Big=F
 Integral buffers will be    131072 words long.
 Raffenetti 2 integral format.
 Two-electron integral symmetry is turned on.
 ------------------------------------------------------------------------------
 Polarizable Continuum Model (PCM)
 =================================
 Model                : PCM.
 Atomic radii         : UFF (Universal Force Field).
 Polarization charges : Total charges.
 Charge compensation  : None.
 Solution method      : On-the-fly selection.
 Cavity type          : Scaled VdW (van der Waals Surface) (Alpha=1.100).
 Cavity algorithm     : GePol (No added spheres)
                        Default sphere list used, NSphG=   29.
                        Lebedev-Laikov grids with approx.  5.0 points / Ang**2.
                        Smoothing algorithm: York/Karplus (Gamma=1.0000).
                        Polarization charges: spherical gaussians, with
                                              point-specific exponents (IZeta= 3).
                        Self-potential: point-specific (ISelfS= 7).
                        Self-field    : sphere-specific E.n sum rule (ISelfD= 2).
 Solvent              : n,n-DiMethylFormamide, Eps=  37.219000 Eps(inf)=   2.046330
 ------------------------------------------------------------------------------
 GePol: Number of generator spheres                  =      29
 GePol: Total number of spheres                      =      29
 GePol: Number of exposed spheres                    =      29 (100.00%)
 GePol: Number of points                             =    2544
 GePol: Average weight of points                     =       0.13
 GePol: Minimum weight of points                     =   0.24D-10
 GePol: Maximum weight of points                     =    0.20577
 GePol: Number of points with low weight             =     155
 GePol: Fraction of low-weight points (<1% of avg)   =       6.09%
 GePol: Cavity surface area                          =    318.455 Ang**2
 GePol: Cavity volume                                =    353.798 Ang**3
 Leave Link  301 at Tue Jan 16 06:40:00 2024, MaxMem=  4026531840 cpu:               0.8 elap:               0.1
 (Enter /sysapps/ubuntu-applications/gaussian/Gaussian/AVX2/g16/l302.exe)
 NPDir=0 NMtPBC=     1 NCelOv=     1 NCel=       1 NClECP=     1 NCelD=      1
         NCelK=      1 NCelE2=     1 NClLst=     1 CellRange=     0.0.
 One-electron integrals computed using PRISM.
 One-electron integral symmetry used in STVInt
 NBasis=   541 RedAO= T EigKep=  1.06D-06  NBF=   541
 NBsUse=   534 1.00D-06 EigRej=  6.82D-07 NBFU=   534
 Precomputing XC quadrature grid using
 IXCGrd= 4 IRadAn=           5 IRanWt=          -1 IRanGd=           0 AccXCQ= 0.00D+00.
 Generated NRdTot=       0 NPtTot=           0 NUsed=           0 NTot=          32
 NSgBfM=   558   558   558   558   558 MxSgAt=    29 MxSgA2=    29.
 Leave Link  302 at Tue Jan 16 06:40:01 2024, MaxMem=  4026531840 cpu:               5.1 elap:               0.8
 (Enter /sysapps/ubuntu-applications/gaussian/Gaussian/AVX2/g16/l303.exe)
 DipDrv:  MaxL=1.
 Leave Link  303 at Tue Jan 16 06:40:01 2024, MaxMem=  4026531840 cpu:               0.7 elap:               0.2
 (Enter /sysapps/ubuntu-applications/gaussian/Gaussian/AVX2/g16/l401.exe)
 ExpMin= 3.60D-02 ExpMax= 9.34D+04 ExpMxC= 3.17D+03 IAcc=3 IRadAn=         5 AccDes= 0.00D+00
 Harris functional with IExCor=  402 and IRadAn=       5 diagonalized for initial guess.
 HarFok:  IExCor=  402 AccDes= 0.00D+00 IRadAn=         5 IDoV= 1 UseB2=F ITyADJ=14
 ICtDFT=  3500011 ScaDFX=  1.000000  1.000000  1.000000  1.000000
 FoFCou: FMM=F IPFlag=           0 FMFlag=      100000 FMFlg1=           0
         NFxFlg=           0 DoJE=T BraDBF=F KetDBF=T FulRan=T
         wScrn=  0.000000 ICntrl=       500 IOpCl=  0 I1Cent=   200000004 NGrid=           0
         NMat0=    1 NMatS0=      1 NMatT0=    0 NMatD0=    1 NMtDS0=    0 NMtDT0=    0
 Petite list used in FoFCou.
 Harris En= -1463.02949093586    
 JPrj=0 DoOrth=F DoCkMO=F.
 Initial guess <Sx>= 0.0000 <Sy>= 0.0000 <Sz>= 0.0000 <S**2>= 0.0000 S= 0.0000
 Leave Link  401 at Tue Jan 16 06:40:03 2024, MaxMem=  4026531840 cpu:              16.2 elap:               2.1
 (Enter /sysapps/ubuntu-applications/gaussian/Gaussian/AVX2/g16/l502.exe)
 Integral symmetry usage will be decided dynamically.
 UHF open shell SCF:
 Using DIIS extrapolation, IDIIS=  1040.
 NGot=  4026531840 LenX=  4025888234 LenY=  4025570702
 Requested convergence on RMS density matrix=1.00D-08 within 128 cycles.
 Requested convergence on MAX density matrix=1.00D-06.
 Requested convergence on             energy=1.00D-06.
 No special actions if energy rises.
 Fock matrices will be formed incrementally for  20 cycles.

 Cycle   1  Pass 1  IDiag  1:
 FoFJK:  IHMeth= 1 ICntrl=       0 DoSepK=F KAlg= 0 I1Cent=           0 FoldK=F
 IRaf= 810000000 NMat=       1 IRICut=       1 DoRegI=T DoRafI=F ISym2E= 0 IDoP0=0 IntGTp=1.
 FoFCou: FMM=F IPFlag=           0 FMFlag=      100000 FMFlg1=           0
         NFxFlg=           0 DoJE=F BraDBF=F KetDBF=F FulRan=T
         wScrn=  0.000000 ICntrl=         0 IOpCl=  1 I1Cent=           0 NGrid=           0
         NMat0=    1 NMatS0=      1 NMatT0=    0 NMatD0=    1 NMtDS0=    0 NMtDT0=    0
 Symmetry not used in FoFCou.
 Inv3:  Mode=1 IEnd=    19415808.
 Iteration    1 A*A^-1 deviation from unit magnitude is 3.33D-15 for   2003.
 Iteration    1 A*A^-1 deviation from orthogonality  is 2.12D-15 for   1358    421.
 Iteration    1 A^-1*A deviation from unit magnitude is 3.55D-15 for   2003.
 Iteration    1 A^-1*A deviation from orthogonality  is 2.72D-15 for   1924    211.
 E= -1462.25442695706    
 DIIS: error= 3.94D-02 at cycle   1 NSaved=   1.
 NSaved= 1 IEnMin= 1 EnMin= -1462.25442695706     IErMin= 1 ErrMin= 3.94D-02
 ErrMax= 3.94D-02  0.00D+00 EMaxC= 1.00D-01 BMatC= 4.00D+00 BMatP= 4.00D+00
 IDIUse=3 WtCom= 6.06D-01 WtEn= 3.94D-01
 Coeff-Com:  0.100D+01
 Coeff-En:   0.100D+01
 Coeff:      0.100D+01
 Gap=     0.134 Goal=   None    Shift=    0.000
 Gap=     0.134 Goal=   None    Shift=    0.000
 GapD=    0.134 DampG=1.000 DampE=0.500 DampFc=0.5000 IDamp=-1.
 Damping current iteration by 5.00D-01
 RMSDP=2.07D-01 MaxDP=2.11D+01              OVMax= 2.49D-01

 Cycle   2  Pass 1  IDiag  1:
 RMSU=  6.32D-02    CP:  1.76D+00
 E= -1462.40010213996     Delta-E=       -0.145675182901 Rises=F Damp=T
 DIIS: error= 1.59D-02 at cycle   2 NSaved=   2.
 NSaved= 2 IEnMin= 2 EnMin= -1462.40010213996     IErMin= 2 ErrMin= 1.59D-02
 ErrMax= 1.59D-02  0.00D+00 EMaxC= 1.00D-01 BMatC= 5.93D-01 BMatP= 4.00D+00
 IDIUse=3 WtCom= 8.41D-01 WtEn= 1.59D-01
 Coeff-Com:  0.230D+00 0.770D+00
 Coeff-En:   0.393D+00 0.607D+00
 Coeff:      0.256D+00 0.744D+00
 Gap=     0.172 Goal=   None    Shift=    0.000
 Gap=     0.172 Goal=   None    Shift=    0.000
 RMSDP=7.43D-02 MaxDP=7.73D+00 DE=-1.46D-01 OVMax= 2.41D-01

 Cycle   3  Pass 1  IDiag  1:
 RMSU=  8.68D-03    CP:  1.20D+00  3.35D-01
 E= -1462.87580107522     Delta-E=       -0.475698935263 Rises=F Damp=F
 DIIS: error= 1.16D-02 at cycle   3 NSaved=   3.
 NSaved= 3 IEnMin= 3 EnMin= -1462.87580107522     IErMin= 3 ErrMin= 1.16D-02
 ErrMax= 1.16D-02  0.00D+00 EMaxC= 1.00D-01 BMatC= 2.51D-01 BMatP= 5.93D-01
 IDIUse=3 WtCom= 8.84D-01 WtEn= 1.16D-01
 Coeff-Com:  0.663D-01 0.403D+00 0.530D+00
 Coeff-En:   0.000D+00 0.000D+00 0.100D+01
 Coeff:      0.586D-01 0.356D+00 0.585D+00
 Gap=     0.133 Goal=   None    Shift=    0.000
 Gap=     0.133 Goal=   None    Shift=    0.000
 RMSDP=1.00D-02 MaxDP=9.11D-01 DE=-4.76D-01 OVMax= 7.67D-02

 Cycle   4  Pass 1  IDiag  1:
 RMSU=  4.89D-03    CP:  1.26D+00  3.87D-01  5.75D-01
 E= -1462.91695770826     Delta-E=       -0.041156633034 Rises=F Damp=F
 DIIS: error= 7.96D-03 at cycle   4 NSaved=   4.
 NSaved= 4 IEnMin= 4 EnMin= -1462.91695770826     IErMin= 4 ErrMin= 7.96D-03
 ErrMax= 7.96D-03  0.00D+00 EMaxC= 1.00D-01 BMatC= 8.35D-02 BMatP= 2.51D-01
 IDIUse=3 WtCom= 9.20D-01 WtEn= 7.96D-02
 Coeff-Com:  0.133D-01 0.128D+00 0.381D+00 0.478D+00
 Coeff-En:   0.000D+00 0.000D+00 0.258D+00 0.742D+00
 Coeff:      0.122D-01 0.117D+00 0.371D+00 0.499D+00
 Gap=     0.126 Goal=   None    Shift=    0.000
 Gap=     0.126 Goal=   None    Shift=    0.000
 RMSDP=3.16D-03 MaxDP=2.71D-01 DE=-4.12D-02 OVMax= 3.22D-02

 Cycle   5  Pass 1  IDiag  1:
 RMSU=  9.95D-04    CP:  1.27D+00  4.18D-01  7.01D-01  6.22D-01
 E= -1462.93327768823     Delta-E=       -0.016319979973 Rises=F Damp=F
 DIIS: error= 1.58D-03 at cycle   5 NSaved=   5.
 NSaved= 5 IEnMin= 5 EnMin= -1462.93327768823     IErMin= 5 ErrMin= 1.58D-03
 ErrMax= 1.58D-03  0.00D+00 EMaxC= 1.00D-01 BMatC= 7.04D-03 BMatP= 8.35D-02
 IDIUse=3 WtCom= 9.84D-01 WtEn= 1.58D-02
 Coeff-Com: -0.104D-02 0.230D-01 0.159D+00 0.302D+00 0.517D+00
 Coeff-En:   0.000D+00 0.000D+00 0.000D+00 0.000D+00 0.100D+01
 Coeff:     -0.103D-02 0.226D-01 0.156D+00 0.297D+00 0.525D+00
 Gap=     0.126 Goal=   None    Shift=    0.000
 Gap=     0.126 Goal=   None    Shift=    0.000
 RMSDP=2.72D-03 MaxDP=2.78D-01 DE=-1.63D-02 OVMax= 7.90D-03

 Cycle   6  Pass 1  IDiag  1:
 RMSU=  4.44D-04    CP:  1.25D+00  3.98D-01  6.80D-01  6.58D-01  5.87D-01
 E= -1462.93445199155     Delta-E=       -0.001174303315 Rises=F Damp=F
 DIIS: error= 4.04D-04 at cycle   6 NSaved=   6.
 NSaved= 6 IEnMin= 6 EnMin= -1462.93445199155     IErMin= 6 ErrMin= 4.04D-04
 ErrMax= 4.04D-04  0.00D+00 EMaxC= 1.00D-01 BMatC= 5.58D-04 BMatP= 7.04D-03
 IDIUse=3 WtCom= 9.96D-01 WtEn= 4.04D-03
 Coeff-Com: -0.155D-02 0.239D-02 0.573D-01 0.127D+00 0.301D+00 0.514D+00
 Coeff-En:   0.000D+00 0.000D+00 0.000D+00 0.000D+00 0.000D+00 0.100D+01
 Coeff:     -0.155D-02 0.238D-02 0.571D-01 0.127D+00 0.299D+00 0.516D+00
 Gap=     0.127 Goal=   None    Shift=    0.000
 Gap=     0.127 Goal=   None    Shift=    0.000
 RMSDP=2.89D-04 MaxDP=1.98D-02 DE=-1.17D-03 OVMax= 3.14D-03

 Cycle   7  Pass 1  IDiag  1:
 RMSU=  1.72D-04    CP:  1.25D+00  4.00D-01  6.85D-01  6.73D-01  6.51D-01
                    CP:  8.24D-01
 E= -1462.93455379423     Delta-E=       -0.000101802678 Rises=F Damp=F
 DIIS: error= 1.43D-04 at cycle   7 NSaved=   7.
 NSaved= 7 IEnMin= 7 EnMin= -1462.93455379423     IErMin= 7 ErrMin= 1.43D-04
 ErrMax= 1.43D-04  0.00D+00 EMaxC= 1.00D-01 BMatC= 5.74D-05 BMatP= 5.58D-04
 IDIUse=3 WtCom= 9.99D-01 WtEn= 1.43D-03
 Coeff-Com: -0.584D-03-0.551D-03 0.169D-01 0.418D-01 0.116D+00 0.305D+00
 Coeff-Com:  0.521D+00
 Coeff-En:   0.000D+00 0.000D+00 0.000D+00 0.000D+00 0.000D+00 0.882D-01
 Coeff-En:   0.912D+00
 Coeff:     -0.583D-03-0.550D-03 0.169D-01 0.417D-01 0.116D+00 0.305D+00
 Coeff:      0.521D+00
 Gap=     0.127 Goal=   None    Shift=    0.000
 Gap=     0.127 Goal=   None    Shift=    0.000
 RMSDP=1.24D-04 MaxDP=8.16D-03 DE=-1.02D-04 OVMax= 1.60D-03

 Cycle   8  Pass 1  IDiag  1:
 RMSU=  4.67D-05    CP:  1.25D+00  3.99D-01  6.89D-01  6.64D-01  6.54D-01
                    CP:  7.15D-01  8.00D-01
 E= -1462.93456715243     Delta-E=       -0.000013358202 Rises=F Damp=F
 DIIS: error= 4.47D-05 at cycle   8 NSaved=   8.
 NSaved= 8 IEnMin= 8 EnMin= -1462.93456715243     IErMin= 8 ErrMin= 4.47D-05
 ErrMax= 4.47D-05  0.00D+00 EMaxC= 1.00D-01 BMatC= 5.97D-06 BMatP= 5.74D-05
 IDIUse=1 WtCom= 1.00D+00 WtEn= 0.00D+00
 Coeff-Com: -0.179D-03-0.680D-03 0.456D-02 0.128D-01 0.423D-01 0.136D+00
 Coeff-Com:  0.307D+00 0.497D+00
 Coeff:     -0.179D-03-0.680D-03 0.456D-02 0.128D-01 0.423D-01 0.136D+00
 Coeff:      0.307D+00 0.497D+00
 Gap=     0.127 Goal=   None    Shift=    0.000
 Gap=     0.127 Goal=   None    Shift=    0.000
 RMSDP=3.95D-05 MaxDP=3.48D-03 DE=-1.34D-05 OVMax= 4.50D-04

 Cycle   9  Pass 1  IDiag  1:
 RMSU=  1.34D-05    CP:  1.25D+00  3.99D-01  6.89D-01  6.67D-01  6.49D-01
                    CP:  7.47D-01  8.03D-01  6.16D-01
 E= -1462.93456854218     Delta-E=       -0.000001389756 Rises=F Damp=F
 DIIS: error= 9.37D-06 at cycle   9 NSaved=   9.
 NSaved= 9 IEnMin= 9 EnMin= -1462.93456854218     IErMin= 9 ErrMin= 9.37D-06
 ErrMax= 9.37D-06  0.00D+00 EMaxC= 1.00D-01 BMatC= 2.74D-07 BMatP= 5.97D-06
 IDIUse=1 WtCom= 1.00D+00 WtEn= 0.00D+00
 Coeff-Com:  0.129D-04-0.213D-03-0.226D-03-0.732D-04 0.355D-02 0.204D-01
 Coeff-Com:  0.606D-01 0.205D+00 0.711D+00
 Coeff:      0.129D-04-0.213D-03-0.226D-03-0.732D-04 0.355D-02 0.204D-01
 Coeff:      0.606D-01 0.205D+00 0.711D+00
 Gap=     0.127 Goal=   None    Shift=    0.000
 Gap=     0.127 Goal=   None    Shift=    0.000
 RMSDP=1.34D-05 MaxDP=1.19D-03 DE=-1.39D-06 OVMax= 8.07D-05

 Cycle  10  Pass 1  IDiag  1:
 RMSU=  8.07D-06    CP:  1.25D+00  3.99D-01  6.89D-01  6.66D-01  6.52D-01
                    CP:  7.40D-01  7.90D-01  6.64D-01  6.93D-01
 E= -1462.93456858628     Delta-E=       -0.000000044096 Rises=F Damp=F
 DIIS: error= 6.10D-06 at cycle  10 NSaved=  10.
 NSaved=10 IEnMin=10 EnMin= -1462.93456858628     IErMin=10 ErrMin= 6.10D-06
 ErrMax= 6.10D-06  0.00D+00 EMaxC= 1.00D-01 BMatC= 8.18D-08 BMatP= 2.74D-07
 IDIUse=1 WtCom= 1.00D+00 WtEn= 0.00D+00
 Coeff-Com:  0.158D-04-0.854D-04-0.365D-03-0.755D-03-0.144D-03 0.433D-02
 Coeff-Com:  0.167D-01 0.910D-01 0.437D+00 0.452D+00
 Coeff:      0.158D-04-0.854D-04-0.365D-03-0.755D-03-0.144D-03 0.433D-02
 Coeff:      0.167D-01 0.910D-01 0.437D+00 0.452D+00
 Gap=     0.127 Goal=   None    Shift=    0.000
 Gap=     0.127 Goal=   None    Shift=    0.000
 RMSDP=4.74D-06 MaxDP=5.20D-04 DE=-4.41D-08 OVMax= 5.36D-05

 Cycle  11  Pass 1  IDiag  1:
 RMSU=  1.87D-06    CP:  1.25D+00  3.99D-01  6.89D-01  6.67D-01  6.51D-01
                    CP:  7.42D-01  7.95D-01  6.49D-01  8.71D-01  8.47D-01
 E= -1462.93456860383     Delta-E=       -0.000000017550 Rises=F Damp=F
 DIIS: error= 1.28D-06 at cycle  11 NSaved=  11.
 NSaved=11 IEnMin=11 EnMin= -1462.93456860383     IErMin=11 ErrMin= 1.28D-06
 ErrMax= 1.28D-06  0.00D+00 EMaxC= 1.00D-01 BMatC= 4.60D-09 BMatP= 8.18D-08
 IDIUse=1 WtCom= 1.00D+00 WtEn= 0.00D+00
 Coeff-Com:  0.482D-05-0.107D-04-0.164D-03-0.426D-03-0.602D-03-0.695D-03
 Coeff-Com:  0.688D-04 0.192D-01 0.125D+00 0.224D+00 0.634D+00
 Coeff:      0.482D-05-0.107D-04-0.164D-03-0.426D-03-0.602D-03-0.695D-03
 Coeff:      0.688D-04 0.192D-01 0.125D+00 0.224D+00 0.634D+00
 Gap=     0.127 Goal=   None    Shift=    0.000
 Gap=     0.127 Goal=   None    Shift=    0.000
 RMSDP=1.48D-06 MaxDP=9.71D-05 DE=-1.76D-08 OVMax= 9.19D-06

 Cycle  12  Pass 1  IDiag  1:
 RMSU=  5.03D-07    CP:  1.25D+00  3.99D-01  6.89D-01  6.66D-01  6.51D-01
                    CP:  7.41D-01  7.95D-01  6.59D-01  8.40D-01  8.64D-01
                    CP:  7.95D-01
 E= -1462.93456860466     Delta-E=       -0.000000000828 Rises=F Damp=F
 DIIS: error= 4.94D-07 at cycle  12 NSaved=  12.
 NSaved=12 IEnMin=12 EnMin= -1462.93456860466     IErMin=12 ErrMin= 4.94D-07
 ErrMax= 4.94D-07  0.00D+00 EMaxC= 1.00D-01 BMatC= 8.12D-10 BMatP= 4.60D-09
 IDIUse=1 WtCom= 1.00D+00 WtEn= 0.00D+00
 Coeff-Com:  0.505D-06 0.367D-05-0.565D-04-0.170D-03-0.350D-03-0.986D-03
 Coeff-Com: -0.210D-02 0.443D-03 0.184D-01 0.741D-01 0.362D+00 0.548D+00
 Coeff:      0.505D-06 0.367D-05-0.565D-04-0.170D-03-0.350D-03-0.986D-03
 Coeff:     -0.210D-02 0.443D-03 0.184D-01 0.741D-01 0.362D+00 0.548D+00
 Gap=     0.127 Goal=   None    Shift=    0.000
 Gap=     0.127 Goal=   None    Shift=    0.000
 RMSDP=4.53D-07 MaxDP=3.42D-05 DE=-8.28D-10 OVMax= 3.80D-06

 Cycle  13  Pass 1  IDiag  1:
 RMSU=  1.38D-07    CP:  1.25D+00  3.99D-01  6.89D-01  6.66D-01  6.51D-01
                    CP:  7.41D-01  7.95D-01  6.57D-01  8.59D-01  8.78D-01
                    CP:  8.76D-01  7.88D-01
 E= -1462.93456860482     Delta-E=       -0.000000000163 Rises=F Damp=F
 DIIS: error= 1.95D-07 at cycle  13 NSaved=  13.
 NSaved=13 IEnMin=13 EnMin= -1462.93456860482     IErMin=13 ErrMin= 1.95D-07
 ErrMax= 1.95D-07  0.00D+00 EMaxC= 1.00D-01 BMatC= 8.65D-11 BMatP= 8.12D-10
 IDIUse=1 WtCom= 1.00D+00 WtEn= 0.00D+00
 Coeff-Com: -0.419D-06 0.261D-05-0.116D-04-0.421D-04-0.111D-03-0.407D-03
 Coeff-Com: -0.103D-02-0.125D-02-0.360D-02 0.141D-01 0.116D+00 0.294D+00
 Coeff-Com:  0.582D+00
 Coeff:     -0.419D-06 0.261D-05-0.116D-04-0.421D-04-0.111D-03-0.407D-03
 Coeff:     -0.103D-02-0.125D-02-0.360D-02 0.141D-01 0.116D+00 0.294D+00
 Coeff:      0.582D+00
 Gap=     0.127 Goal=   None    Shift=    0.000
 Gap=     0.127 Goal=   None    Shift=    0.000
 RMSDP=1.27D-07 MaxDP=1.03D-05 DE=-1.63D-10 OVMax= 2.45D-06

 Cycle  14  Pass 1  IDiag  1:
 RMSU=  5.15D-08    CP:  1.25D+00  3.99D-01  6.89D-01  6.66D-01  6.51D-01
                    CP:  7.41D-01  7.95D-01  6.58D-01  8.56D-01  8.81D-01
                    CP:  8.68D-01  7.98D-01  7.79D-01
 E= -1462.93456860486     Delta-E=       -0.000000000046 Rises=F Damp=F
 DIIS: error= 7.49D-08 at cycle  14 NSaved=  14.
 NSaved=14 IEnMin=14 EnMin= -1462.93456860486     IErMin=14 ErrMin= 7.49D-08
 ErrMax= 7.49D-08  0.00D+00 EMaxC= 1.00D-01 BMatC= 1.50D-11 BMatP= 8.65D-11
 IDIUse=1 WtCom= 1.00D+00 WtEn= 0.00D+00
 Coeff-Com: -0.298D-06 0.107D-05 0.244D-05 0.251D-05-0.126D-04-0.900D-04
 Coeff-Com: -0.305D-03-0.825D-03-0.615D-02-0.467D-02 0.578D-02 0.811D-01
 Coeff-Com:  0.343D+00 0.582D+00
 Coeff:     -0.298D-06 0.107D-05 0.244D-05 0.251D-05-0.126D-04-0.900D-04
 Coeff:     -0.305D-03-0.825D-03-0.615D-02-0.467D-02 0.578D-02 0.811D-01
 Coeff:      0.343D+00 0.582D+00
 Gap=     0.127 Goal=   None    Shift=    0.000
 Gap=     0.127 Goal=   None    Shift=    0.000
 RMSDP=8.71D-08 MaxDP=6.47D-06 DE=-4.57D-11 OVMax= 5.37D-07

 Cycle  15  Pass 1  IDiag  1:
 RMSU=  2.00D-08    CP:  1.25D+00  3.99D-01  6.89D-01  6.66D-01  6.51D-01
                    CP:  7.41D-01  7.95D-01  6.58D-01  8.56D-01  8.85D-01
                    CP:  8.76D-01  8.15D-01  7.75D-01  7.65D-01
 E= -1462.93456860486     Delta-E=        0.000000000003 Rises=F Damp=F
 DIIS: error= 1.95D-08 at cycle  15 NSaved=  15.
 NSaved=15 IEnMin=14 EnMin= -1462.93456860486     IErMin=15 ErrMin= 1.95D-08
 ErrMax= 1.95D-08  0.00D+00 EMaxC= 1.00D-01 BMatC= 1.13D-12 BMatP= 1.50D-11
 IDIUse=1 WtCom= 1.00D+00 WtEn= 0.00D+00
 Coeff-Com: -0.886D-07 0.339D-06 0.216D-05 0.426D-05 0.160D-05-0.184D-04
 Coeff-Com: -0.928D-04-0.319D-03-0.303D-02-0.326D-02-0.528D-02 0.208D-01
 Coeff-Com:  0.144D+00 0.312D+00 0.535D+00
 Coeff:     -0.886D-07 0.339D-06 0.216D-05 0.426D-05 0.160D-05-0.184D-04
 Coeff:     -0.928D-04-0.319D-03-0.303D-02-0.326D-02-0.528D-02 0.208D-01
 Coeff:      0.144D+00 0.312D+00 0.535D+00
 Gap=     0.127 Goal=   None    Shift=    0.000
 Gap=     0.127 Goal=   None    Shift=    0.000
 RMSDP=1.41D-08 MaxDP=1.49D-06 DE= 2.96D-12 OVMax= 2.67D-07

 Cycle  16  Pass 1  IDiag  1:
 RMSU=  6.45D-09    CP:  1.25D+00  3.99D-01  6.89D-01  6.66D-01  6.51D-01
                    CP:  7.41D-01  7.95D-01  6.58D-01  8.57D-01  8.85D-01
                    CP:  8.77D-01  8.12D-01  8.04D-01  7.83D-01  8.71D-01
 E= -1462.93456860487     Delta-E=       -0.000000000010 Rises=F Damp=F
 DIIS: error= 7.33D-09 at cycle  16 NSaved=  16.
 NSaved=16 IEnMin=16 EnMin= -1462.93456860487     IErMin=16 ErrMin= 7.33D-09
 ErrMax= 7.33D-09  0.00D+00 EMaxC= 1.00D-01 BMatC= 2.13D-13 BMatP= 1.13D-12
 IDIUse=1 WtCom= 1.00D+00 WtEn= 0.00D+00
 Coeff-Com:  0.212D-07-0.278D-07 0.839D-06 0.198D-05 0.318D-05 0.493D-05
 Coeff-Com: -0.231D-05-0.290D-04-0.687D-03-0.957D-03-0.420D-02-0.325D-02
 Coeff-Com:  0.242D-01 0.800D-01 0.326D+00 0.579D+00
 Coeff:      0.212D-07-0.278D-07 0.839D-06 0.198D-05 0.318D-05 0.493D-05
 Coeff:     -0.231D-05-0.290D-04-0.687D-03-0.957D-03-0.420D-02-0.325D-02
 Coeff:      0.242D-01 0.800D-01 0.326D+00 0.579D+00
 Gap=     0.127 Goal=   None    Shift=    0.000
 Gap=     0.127 Goal=   None    Shift=    0.000
 RMSDP=6.69D-09 MaxDP=5.10D-07 DE=-1.02D-11 OVMax= 6.83D-08

 Error on total polarization charges =  0.01925
 SCF Done:  E(UB3LYP) =  -1462.93456860     A.U. after   16 cycles
            NFock= 16  Conv=0.67D-08     -V/T= 2.0031
 <Sx>= 0.0000 <Sy>= 0.0000 <Sz>= 0.0000 <S**2>=-0.0000 S=-0.0000
 <L.S>=  0.00000000000    
 KE= 1.458463516735D+03 PE=-7.272841871690D+03 EE= 2.444571944842D+03
 Annihilation of the first spin contaminant:
 S**2 before annihilation    -0.0000,   after    -0.0000
 Leave Link  502 at Tue Jan 16 06:44:04 2024, MaxMem=  4026531840 cpu:            1836.9 elap:             241.2
 (Enter /sysapps/ubuntu-applications/gaussian/Gaussian/AVX2/g16/l601.exe)
 Copying SCF densities to generalized density rwf, IOpCl= 1 IROHF=0.

 **********************************************************************

            Population analysis using the SCF density.

 **********************************************************************

 Orbital symmetries:
 Alpha Orbitals:
       Occupied  (A) (A) (A) (A) (A) (A) (A) (A) (A) (A) (A) (A)
                 (A) (A) (A) (A) (A) (A) (A) (A) (A) (A) (A) (A)
                 (A) (A) (A) (A) (A) (A) (A) (A) (A) (A) (A) (A)
                 (A) (A) (A) (A) (A) (A) (A) (A) (A) (A) (A) (A)
                 (A) (A) (A) (A) (A) (A) (A) (A) (A) (A) (A) (A)
                 (A) (A) (A) (A) (A) (A) (A) (A) (A) (A) (A) (A)
                 (A) (A) (A) (A) (A) (A) (A) (A) (A) (A)
       Virtual   (A) (A) (A) (A) (A) (A) (A) (A) (A) (A) (A) (A)
                 (A) (A) (A) (A) (A) (A) (A) (A) (A) (A) (A) (A)
                 (A) (A) (A) (A) (A) (A) (A) (A) (A) (A) (A) (A)
                 (A) (A) (A) (A) (A) (A) (A) (A) (A) (A) (A) (A)
                 (A) (A) (A) (A) (A) (A) (A) (A) (A) (A) (A) (A)
                 (A) (A) (A) (A) (A) (A) (A) (A) (A) (A) (A) (A)
                 (A) (A) (A) (A) (A) (A) (A) (A) (A) (A) (A) (A)
                 (A) (A) (A) (A) (A) (A) (A) (A) (A) (A) (A) (A)
                 (A) (A) (A) (A) (A) (A) (A) (A) (A) (A) (A) (A)
                 (A) (A) (A) (A) (A) (A) (A) (A) (A) (A) (A) (A)
                 (A) (A) (A) (A) (A) (A) (A) (A) (A) (A) (A) (A)
                 (A) (A) (A) (A) (A) (A) (A) (A) (A) (A) (A) (A)
                 (A) (A) (A) (A) (A) (A) (A) (A) (A) (A) (A) (A)
                 (A) (A) (A) (A) (A) (A) (A) (A) (A) (A) (A) (A)
                 (A) (A) (A) (A) (A) (A) (A) (A) (A) (A) (A) (A)
                 (A) (A) (A) (A) (A) (A) (A) (A) (A) (A) (A) (A)
                 (A) (A) (A) (A) (A) (A) (A) (A) (A) (A) (A) (A)
                 (A) (A) (A) (A) (A) (A) (A) (A) (A) (A) (A) (A)
                 (A) (A) (A) (A) (A) (A) (A) (A) (A) (A) (A) (A)
                 (A) (A) (A) (A) (A) (A) (A) (A) (A) (A) (A) (A)
                 (A) (A) (A) (A) (A) (A) (A) (A) (A) (A) (A) (A)
                 (A) (A) (A) (A) (A) (A) (A) (A) (A) (A) (A) (A)
                 (A) (A) (A) (A) (A) (A) (A) (A) (A) (A) (A) (A)
                 (A) (A) (A) (A) (A) (A) (A) (A) (A) (A) (A) (A)
                 (A) (A) (A) (A) (A) (A) (A) (A) (A) (A) (A) (A)
                 (A) (A) (A) (A) (A) (A) (A) (A) (A) (A) (A) (A)
                 (A) (A) (A) (A) (A) (A) (A) (A) (A) (A) (A) (A)
                 (A) (A) (A) (A) (A) (A) (A) (A) (A) (A) (A) (A)
                 (A) (A) (A) (A) (A) (A) (A) (A) (A) (A) (A) (A)
                 (A) (A) (A) (A) (A) (A) (A) (A) (A) (A) (A) (A)
                 (A) (A) (A) (A) (A) (A) (A) (A) (A) (A) (A) (A)
                 (A) (A) (A) (A) (A) (A) (A) (A) (A) (A) (A) (A)
                 (A) (A) (A) (A) (A) (A) (A) (A) (A) (A) (A) (A)
                 (A) (A) (A) (A) (A) (A) (A) (A) (A) (A) (A) (A)
                 (A) (A) (A) (A) (A) (A) (A) (A) (A) (A) (A) (A)
                 (A) (A) (A) (A) (A) (A) (A) (A) (A) (A) (A) (A)
                 (A) (A) (A) (A) (A) (A) (A) (A) (A) (A) (A) (A)
                 (A) (A) (A) (A) (A) (A) (A) (A)
 Beta  Orbitals:
       Occupied  (A) (A) (A) (A) (A) (A) (A) (A) (A) (A) (A) (A)
                 (A) (A) (A) (A) (A) (A) (A) (A) (A) (A) (A) (A)
                 (A) (A) (A) (A) (A) (A) (A) (A) (A) (A) (A) (A)
                 (A) (A) (A) (A) (A) (A) (A) (A) (A) (A) (A) (A)
                 (A) (A) (A) (A) (A) (A) (A) (A) (A) (A) (A) (A)
                 (A) (A) (A) (A) (A) (A) (A) (A) (A) (A) (A) (A)
                 (A) (A) (A) (A) (A) (A) (A) (A) (A) (A)
       Virtual   (A) (A) (A) (A) (A) (A) (A) (A) (A) (A) (A) (A)
                 (A) (A) (A) (A) (A) (A) (A) (A) (A) (A) (A) (A)
                 (A) (A) (A) (A) (A) (A) (A) (A) (A) (A) (A) (A)
                 (A) (A) (A) (A) (A) (A) (A) (A) (A) (A) (A) (A)
                 (A) (A) (A) (A) (A) (A) (A) (A) (A) (A) (A) (A)
                 (A) (A) (A) (A) (A) (A) (A) (A) (A) (A) (A) (A)
                 (A) (A) (A) (A) (A) (A) (A) (A) (A) (A) (A) (A)
                 (A) (A) (A) (A) (A) (A) (A) (A) (A) (A) (A) (A)
                 (A) (A) (A) (A) (A) (A) (A) (A) (A) (A) (A) (A)
                 (A) (A) (A) (A) (A) (A) (A) (A) (A) (A) (A) (A)
                 (A) (A) (A) (A) (A) (A) (A) (A) (A) (A) (A) (A)
                 (A) (A) (A) (A) (A) (A) (A) (A) (A) (A) (A) (A)
                 (A) (A) (A) (A) (A) (A) (A) (A) (A) (A) (A) (A)
                 (A) (A) (A) (A) (A) (A) (A) (A) (A) (A) (A) (A)
                 (A) (A) (A) (A) (A) (A) (A) (A) (A) (A) (A) (A)
                 (A) (A) (A) (A) (A) (A) (A) (A) (A) (A) (A) (A)
                 (A) (A) (A) (A) (A) (A) (A) (A) (A) (A) (A) (A)
                 (A) (A) (A) (A) (A) (A) (A) (A) (A) (A) (A) (A)
                 (A) (A) (A) (A) (A) (A) (A) (A) (A) (A) (A) (A)
                 (A) (A) (A) (A) (A) (A) (A) (A) (A) (A) (A) (A)
                 (A) (A) (A) (A) (A) (A) (A) (A) (A) (A) (A) (A)
                 (A) (A) (A) (A) (A) (A) (A) (A) (A) (A) (A) (A)
                 (A) (A) (A) (A) (A) (A) (A) (A) (A) (A) (A) (A)
                 (A) (A) (A) (A) (A) (A) (A) (A) (A) (A) (A) (A)
                 (A) (A) (A) (A) (A) (A) (A) (A) (A) (A) (A) (A)
                 (A) (A) (A) (A) (A) (A) (A) (A) (A) (A) (A) (A)
                 (A) (A) (A) (A) (A) (A) (A) (A) (A) (A) (A) (A)
                 (A) (A) (A) (A) (A) (A) (A) (A) (A) (A) (A) (A)
                 (A) (A) (A) (A) (A) (A) (A) (A) (A) (A) (A) (A)
                 (A) (A) (A) (A) (A) (A) (A) (A) (A) (A) (A) (A)
                 (A) (A) (A) (A) (A) (A) (A) (A) (A) (A) (A) (A)
                 (A) (A) (A) (A) (A) (A) (A) (A) (A) (A) (A) (A)
                 (A) (A) (A) (A) (A) (A) (A) (A) (A) (A) (A) (A)
                 (A) (A) (A) (A) (A) (A) (A) (A) (A) (A) (A) (A)
                 (A) (A) (A) (A) (A) (A) (A) (A) (A) (A) (A) (A)
                 (A) (A) (A) (A) (A) (A) (A) (A) (A) (A) (A) (A)
                 (A) (A) (A) (A) (A) (A) (A) (A) (A) (A) (A) (A)
                 (A) (A) (A) (A) (A) (A) (A) (A)
 The electronic state is 1-A.
 Alpha  occ. eigenvalues --  -89.06770 -19.17379 -19.16399 -19.12447 -19.12357
 Alpha  occ. eigenvalues --  -19.11503 -19.11063 -19.10925 -10.28116 -10.27791
 Alpha  occ. eigenvalues --  -10.26907 -10.26805 -10.21923 -10.21245 -10.20646
 Alpha  occ. eigenvalues --  -10.20468 -10.20388 -10.20241 -10.19593 -10.19539
 Alpha  occ. eigenvalues --  -10.19395 -10.19360  -8.12640  -6.08927  -6.08879
 Alpha  occ. eigenvalues --   -6.08829  -1.13343  -1.10477  -1.07029  -1.05848
 Alpha  occ. eigenvalues --   -1.05680  -0.99802  -0.99393  -0.89198  -0.88000
 Alpha  occ. eigenvalues --   -0.81362  -0.78038  -0.77408  -0.76689  -0.70115
 Alpha  occ. eigenvalues --   -0.67588  -0.65930  -0.62320  -0.62084  -0.60139
 Alpha  occ. eigenvalues --   -0.58708  -0.56304  -0.53376  -0.52324  -0.51747
 Alpha  occ. eigenvalues --   -0.50206  -0.49237  -0.47698  -0.47457  -0.46423
 Alpha  occ. eigenvalues --   -0.45967  -0.45488  -0.45148  -0.44867  -0.44538
 Alpha  occ. eigenvalues --   -0.43946  -0.42124  -0.41590  -0.40405  -0.39392
 Alpha  occ. eigenvalues --   -0.39019  -0.37958  -0.37870  -0.36545  -0.35917
 Alpha  occ. eigenvalues --   -0.35286  -0.34926  -0.32131  -0.32073  -0.30969
 Alpha  occ. eigenvalues --   -0.28305  -0.28165  -0.27699  -0.27529  -0.26858
 Alpha  occ. eigenvalues --   -0.26713  -0.24018
 Alpha virt. eigenvalues --   -0.11343  -0.07087  -0.03553  -0.02055  -0.00622
 Alpha virt. eigenvalues --    0.00047   0.00971   0.01999   0.02056   0.03307
 Alpha virt. eigenvalues --    0.03753   0.03882   0.04046   0.04532   0.04737
 Alpha virt. eigenvalues --    0.05338   0.05416   0.06329   0.06432   0.07157
 Alpha virt. eigenvalues --    0.07681   0.07786   0.08489   0.08869   0.09100
 Alpha virt. eigenvalues --    0.09778   0.10050   0.10451   0.10773   0.10987
 Alpha virt. eigenvalues --    0.11092   0.11369   0.11708   0.11963   0.12268
 Alpha virt. eigenvalues --    0.12551   0.12905   0.13213   0.13367   0.14135
 Alpha virt. eigenvalues --    0.14800   0.14929   0.15206   0.15300   0.16224
 Alpha virt. eigenvalues --    0.16327   0.16930   0.17307   0.17620   0.18071
 Alpha virt. eigenvalues --    0.18362   0.18672   0.19160   0.19577   0.19653
 Alpha virt. eigenvalues --    0.19842   0.20515   0.20767   0.21206   0.21468
 Alpha virt. eigenvalues --    0.22096   0.22405   0.22823   0.23043   0.23554
 Alpha virt. eigenvalues --    0.23893   0.24102   0.24338   0.24893   0.25101
 Alpha virt. eigenvalues --    0.25760   0.25987   0.26332   0.26476   0.26617
 Alpha virt. eigenvalues --    0.26807   0.27267   0.27613   0.28279   0.28526
 Alpha virt. eigenvalues --    0.28780   0.28965   0.29485   0.29926   0.30276
 Alpha virt. eigenvalues --    0.30702   0.30899   0.31165   0.31226   0.31679
 Alpha virt. eigenvalues --    0.31862   0.32223   0.32799   0.32839   0.33320
 Alpha virt. eigenvalues --    0.33600   0.33697   0.34365   0.34933   0.35282
 Alpha virt. eigenvalues --    0.35542   0.36324   0.36590   0.36856   0.37587
 Alpha virt. eigenvalues --    0.38090   0.38444   0.39259   0.39824   0.39912
 Alpha virt. eigenvalues --    0.40816   0.41161   0.41310   0.42111   0.42429
 Alpha virt. eigenvalues --    0.43304   0.45012   0.45851   0.46557   0.48167
 Alpha virt. eigenvalues --    0.48611   0.49251   0.49515   0.50887   0.51569
 Alpha virt. eigenvalues --    0.53030   0.53729   0.54078   0.54531   0.55234
 Alpha virt. eigenvalues --    0.55550   0.56613   0.57507   0.57830   0.58886
 Alpha virt. eigenvalues --    0.59602   0.59763   0.60762   0.60980   0.61759
 Alpha virt. eigenvalues --    0.63106   0.63532   0.63858   0.64456   0.65206
 Alpha virt. eigenvalues --    0.65355   0.66178   0.66411   0.67563   0.67834
 Alpha virt. eigenvalues --    0.68047   0.68491   0.69693   0.71692   0.72021
 Alpha virt. eigenvalues --    0.72566   0.73324   0.74651   0.76290   0.76803
 Alpha virt. eigenvalues --    0.77241   0.77782   0.79035   0.79470   0.82053
 Alpha virt. eigenvalues --    0.82808   0.84071   0.85709   0.86220   0.87216
 Alpha virt. eigenvalues --    0.87775   0.89257   0.89525   0.90492   0.91854
 Alpha virt. eigenvalues --    0.92117   0.92663   0.92774   0.93660   0.94633
 Alpha virt. eigenvalues --    0.95004   0.96252   0.97395   0.97736   0.98343
 Alpha virt. eigenvalues --    0.98687   0.99883   1.00421   1.00802   1.01683
 Alpha virt. eigenvalues --    1.02019   1.02380   1.03843   1.05582   1.05993
 Alpha virt. eigenvalues --    1.06743   1.07239   1.09263   1.09769   1.10278
 Alpha virt. eigenvalues --    1.11724   1.12462   1.13416   1.13654   1.14573
 Alpha virt. eigenvalues --    1.14777   1.15502   1.16316   1.16996   1.17957
 Alpha virt. eigenvalues --    1.18180   1.18710   1.20284   1.20707   1.21569
 Alpha virt. eigenvalues --    1.21851   1.22498   1.22804   1.23078   1.23767
 Alpha virt. eigenvalues --    1.24197   1.24852   1.25763   1.27168   1.29469
 Alpha virt. eigenvalues --    1.30140   1.31406   1.33255   1.34116   1.35694
 Alpha virt. eigenvalues --    1.38551   1.40432   1.41307   1.42955   1.45141
 Alpha virt. eigenvalues --    1.46173   1.46782   1.49235   1.50123   1.50298
 Alpha virt. eigenvalues --    1.51043   1.51325   1.53810   1.55158   1.55782
 Alpha virt. eigenvalues --    1.56947   1.57843   1.58480   1.59986   1.61657
 Alpha virt. eigenvalues --    1.61888   1.64315   1.65483   1.66407   1.66702
 Alpha virt. eigenvalues --    1.68829   1.71189   1.71542   1.73313   1.73434
 Alpha virt. eigenvalues --    1.74245   1.74335   1.76070   1.77370   1.77970
 Alpha virt. eigenvalues --    1.80191   1.82454   1.83993   1.86393   1.87424
 Alpha virt. eigenvalues --    1.87723   1.89084   1.89347   1.90062   1.90162
 Alpha virt. eigenvalues --    1.91074   1.92048   1.92887   1.94580   1.95644
 Alpha virt. eigenvalues --    1.96652   1.97118   1.97469   1.98582   2.00508
 Alpha virt. eigenvalues --    2.02785   2.03603   2.04265   2.05824   2.08222
 Alpha virt. eigenvalues --    2.10494   2.12839   2.13698   2.15574   2.15813
 Alpha virt. eigenvalues --    2.16520   2.18910   2.25090   2.25843   2.27947
 Alpha virt. eigenvalues --    2.30208   2.31480   2.31764   2.35421   2.35892
 Alpha virt. eigenvalues --    2.38718   2.40805   2.43483   2.47617   2.50938
 Alpha virt. eigenvalues --    2.51376   2.59237   2.60012   2.61405   2.62797
 Alpha virt. eigenvalues --    2.65660   2.66279   2.68547   2.71108   2.71432
 Alpha virt. eigenvalues --    2.73508   2.73818   2.74372   2.74993   2.75364
 Alpha virt. eigenvalues --    2.76188   2.76443   2.76960   2.78298   2.79860
 Alpha virt. eigenvalues --    2.81671   2.82729   2.83030   2.83078   2.83856
 Alpha virt. eigenvalues --    2.84576   2.85509   2.86050   2.86479   2.87022
 Alpha virt. eigenvalues --    2.87772   2.88851   2.91816   2.92620   2.93002
 Alpha virt. eigenvalues --    2.95060   2.95611   2.97410   2.99643   3.01009
 Alpha virt. eigenvalues --    3.03868   3.06709   3.07446   3.07707   3.08339
 Alpha virt. eigenvalues --    3.08917   3.10176   3.12304   3.13576   3.14980
 Alpha virt. eigenvalues --    3.15273   3.16299   3.19362   3.20604   3.21861
 Alpha virt. eigenvalues --    3.22346   3.23060   3.25474   3.28649   3.33070
 Alpha virt. eigenvalues --    3.34452   3.35422   3.36480   3.40048   3.41028
 Alpha virt. eigenvalues --    3.42440   3.47431   3.50158   3.51636   3.54359
 Alpha virt. eigenvalues --    3.55571   3.57216   3.57732   3.58805   3.60186
 Alpha virt. eigenvalues --    3.60897   3.66090   3.70035   3.79290   3.81751
 Alpha virt. eigenvalues --    3.84896   3.88486   3.89431   3.96100   4.03039
 Alpha virt. eigenvalues --    4.06447   4.17118   4.18344   4.20848   4.23701
 Alpha virt. eigenvalues --    4.27314   4.44918   4.74311   4.83256   4.85463
 Alpha virt. eigenvalues --    4.96517   5.00753   5.03530   5.04276   5.04971
 Alpha virt. eigenvalues --    5.05459   5.06083   5.06444   5.08634   5.10829
 Alpha virt. eigenvalues --    5.12240   5.25130   5.27128   5.28212   5.29012
 Alpha virt. eigenvalues --    5.49353   5.53494   5.69509   5.75019   5.81033
 Alpha virt. eigenvalues --    5.84183   8.19692  17.39216  17.41606  17.48471
 Alpha virt. eigenvalues --   23.48538  23.62261  23.85247  23.86890  23.89570
 Alpha virt. eigenvalues --   23.92851  23.94561  23.95435  24.00134  24.01050
 Alpha virt. eigenvalues --   24.06127  24.08622  24.13030  24.17435  49.87383
 Alpha virt. eigenvalues --   49.89479  49.92089  49.96435  50.00264  50.03957
 Alpha virt. eigenvalues --   50.08951 189.28821
  Beta  occ. eigenvalues --  -89.06770 -19.17379 -19.16399 -19.12447 -19.12357
  Beta  occ. eigenvalues --  -19.11503 -19.11063 -19.10925 -10.28116 -10.27791
  Beta  occ. eigenvalues --  -10.26907 -10.26805 -10.21923 -10.21245 -10.20646
  Beta  occ. eigenvalues --  -10.20468 -10.20388 -10.20241 -10.19593 -10.19539
  Beta  occ. eigenvalues --  -10.19395 -10.19360  -8.12640  -6.08927  -6.08879
  Beta  occ. eigenvalues --   -6.08829  -1.13343  -1.10477  -1.07029  -1.05848
  Beta  occ. eigenvalues --   -1.05680  -0.99802  -0.99393  -0.89198  -0.88000
  Beta  occ. eigenvalues --   -0.81362  -0.78038  -0.77408  -0.76689  -0.70115
  Beta  occ. eigenvalues --   -0.67588  -0.65930  -0.62320  -0.62084  -0.60139
  Beta  occ. eigenvalues --   -0.58708  -0.56304  -0.53376  -0.52324  -0.51747
  Beta  occ. eigenvalues --   -0.50206  -0.49237  -0.47698  -0.47457  -0.46423
  Beta  occ. eigenvalues --   -0.45967  -0.45488  -0.45148  -0.44867  -0.44538
  Beta  occ. eigenvalues --   -0.43946  -0.42124  -0.41590  -0.40405  -0.39392
  Beta  occ. eigenvalues --   -0.39019  -0.37958  -0.37870  -0.36545  -0.35917
  Beta  occ. eigenvalues --   -0.35286  -0.34926  -0.32131  -0.32073  -0.30969
  Beta  occ. eigenvalues --   -0.28305  -0.28165  -0.27699  -0.27529  -0.26858
  Beta  occ. eigenvalues --   -0.26713  -0.24018
  Beta virt. eigenvalues --   -0.11343  -0.07087  -0.03553  -0.02055  -0.00622
  Beta virt. eigenvalues --    0.00047   0.00971   0.01999   0.02056   0.03307
  Beta virt. eigenvalues --    0.03753   0.03882   0.04046   0.04532   0.04737
  Beta virt. eigenvalues --    0.05338   0.05416   0.06329   0.06432   0.07157
  Beta virt. eigenvalues --    0.07681   0.07786   0.08489   0.08869   0.09100
  Beta virt. eigenvalues --    0.09778   0.10050   0.10451   0.10773   0.10987
  Beta virt. eigenvalues --    0.11092   0.11369   0.11708   0.11963   0.12268
  Beta virt. eigenvalues --    0.12551   0.12905   0.13213   0.13367   0.14135
  Beta virt. eigenvalues --    0.14800   0.14929   0.15206   0.15300   0.16224
  Beta virt. eigenvalues --    0.16327   0.16930   0.17307   0.17620   0.18071
  Beta virt. eigenvalues --    0.18362   0.18672   0.19160   0.19577   0.19653
  Beta virt. eigenvalues --    0.19842   0.20515   0.20767   0.21206   0.21468
  Beta virt. eigenvalues --    0.22096   0.22405   0.22823   0.23043   0.23554
  Beta virt. eigenvalues --    0.23893   0.24102   0.24338   0.24893   0.25101
  Beta virt. eigenvalues --    0.25760   0.25987   0.26332   0.26476   0.26617
  Beta virt. eigenvalues --    0.26807   0.27267   0.27613   0.28279   0.28526
  Beta virt. eigenvalues --    0.28780   0.28965   0.29485   0.29926   0.30276
  Beta virt. eigenvalues --    0.30702   0.30899   0.31165   0.31226   0.31679
  Beta virt. eigenvalues --    0.31862   0.32223   0.32799   0.32839   0.33320
  Beta virt. eigenvalues --    0.33600   0.33697   0.34365   0.34933   0.35282
  Beta virt. eigenvalues --    0.35542   0.36324   0.36590   0.36856   0.37587
  Beta virt. eigenvalues --    0.38090   0.38444   0.39259   0.39824   0.39912
  Beta virt. eigenvalues --    0.40816   0.41161   0.41310   0.42111   0.42429
  Beta virt. eigenvalues --    0.43304   0.45012   0.45851   0.46557   0.48167
  Beta virt. eigenvalues --    0.48611   0.49251   0.49515   0.50887   0.51569
  Beta virt. eigenvalues --    0.53030   0.53729   0.54078   0.54531   0.55234
  Beta virt. eigenvalues --    0.55550   0.56613   0.57507   0.57830   0.58886
  Beta virt. eigenvalues --    0.59602   0.59763   0.60762   0.60980   0.61759
  Beta virt. eigenvalues --    0.63106   0.63532   0.63858   0.64456   0.65206
  Beta virt. eigenvalues --    0.65355   0.66178   0.66411   0.67563   0.67834
  Beta virt. eigenvalues --    0.68047   0.68491   0.69693   0.71692   0.72021
  Beta virt. eigenvalues --    0.72566   0.73324   0.74651   0.76290   0.76803
  Beta virt. eigenvalues --    0.77241   0.77782   0.79035   0.79470   0.82053
  Beta virt. eigenvalues --    0.82808   0.84071   0.85709   0.86220   0.87216
  Beta virt. eigenvalues --    0.87775   0.89257   0.89525   0.90492   0.91854
  Beta virt. eigenvalues --    0.92117   0.92663   0.92774   0.93660   0.94633
  Beta virt. eigenvalues --    0.95004   0.96252   0.97395   0.97736   0.98343
  Beta virt. eigenvalues --    0.98687   0.99883   1.00421   1.00802   1.01683
  Beta virt. eigenvalues --    1.02019   1.02380   1.03843   1.05582   1.05993
  Beta virt. eigenvalues --    1.06743   1.07239   1.09263   1.09769   1.10278
  Beta virt. eigenvalues --    1.11724   1.12462   1.13416   1.13654   1.14573
  Beta virt. eigenvalues --    1.14777   1.15502   1.16316   1.16996   1.17957
  Beta virt. eigenvalues --    1.18180   1.18710   1.20284   1.20707   1.21569
  Beta virt. eigenvalues --    1.21851   1.22498   1.22804   1.23078   1.23767
  Beta virt. eigenvalues --    1.24197   1.24852   1.25763   1.27168   1.29469
  Beta virt. eigenvalues --    1.30140   1.31406   1.33255   1.34116   1.35694
  Beta virt. eigenvalues --    1.38551   1.40432   1.41307   1.42955   1.45141
  Beta virt. eigenvalues --    1.46173   1.46782   1.49235   1.50123   1.50298
  Beta virt. eigenvalues --    1.51043   1.51325   1.53810   1.55158   1.55782
  Beta virt. eigenvalues --    1.56947   1.57843   1.58480   1.59986   1.61657
  Beta virt. eigenvalues --    1.61888   1.64315   1.65483   1.66407   1.66702
  Beta virt. eigenvalues --    1.68829   1.71189   1.71542   1.73313   1.73434
  Beta virt. eigenvalues --    1.74245   1.74335   1.76070   1.77370   1.77970
  Beta virt. eigenvalues --    1.80191   1.82454   1.83993   1.86393   1.87424
  Beta virt. eigenvalues --    1.87723   1.89084   1.89347   1.90062   1.90162
  Beta virt. eigenvalues --    1.91074   1.92048   1.92887   1.94580   1.95644
  Beta virt. eigenvalues --    1.96652   1.97118   1.97469   1.98582   2.00508
  Beta virt. eigenvalues --    2.02785   2.03603   2.04265   2.05824   2.08222
  Beta virt. eigenvalues --    2.10494   2.12839   2.13698   2.15574   2.15813
  Beta virt. eigenvalues --    2.16520   2.18910   2.25090   2.25843   2.27947
  Beta virt. eigenvalues --    2.30208   2.31480   2.31764   2.35421   2.35892
  Beta virt. eigenvalues --    2.38718   2.40805   2.43483   2.47617   2.50938
  Beta virt. eigenvalues --    2.51376   2.59237   2.60012   2.61405   2.62797
  Beta virt. eigenvalues --    2.65660   2.66279   2.68547   2.71108   2.71432
  Beta virt. eigenvalues --    2.73508   2.73818   2.74372   2.74993   2.75364
  Beta virt. eigenvalues --    2.76188   2.76443   2.76960   2.78298   2.79860
  Beta virt. eigenvalues --    2.81671   2.82729   2.83030   2.83078   2.83856
  Beta virt. eigenvalues --    2.84576   2.85509   2.86050   2.86479   2.87022
  Beta virt. eigenvalues --    2.87772   2.88851   2.91816   2.92620   2.93002
  Beta virt. eigenvalues --    2.95060   2.95611   2.97410   2.99643   3.01009
  Beta virt. eigenvalues --    3.03868   3.06709   3.07446   3.07707   3.08339
  Beta virt. eigenvalues --    3.08917   3.10176   3.12304   3.13576   3.14980
  Beta virt. eigenvalues --    3.15273   3.16299   3.19362   3.20604   3.21861
  Beta virt. eigenvalues --    3.22346   3.23060   3.25474   3.28649   3.33070
  Beta virt. eigenvalues --    3.34452   3.35422   3.36480   3.40048   3.41028
  Beta virt. eigenvalues --    3.42440   3.47431   3.50158   3.51636   3.54359
  Beta virt. eigenvalues --    3.55571   3.57216   3.57732   3.58805   3.60186
  Beta virt. eigenvalues --    3.60897   3.66090   3.70035   3.79290   3.81751
  Beta virt. eigenvalues --    3.84896   3.88486   3.89431   3.96100   4.03039
  Beta virt. eigenvalues --    4.06447   4.17118   4.18344   4.20848   4.23701
  Beta virt. eigenvalues --    4.27314   4.44918   4.74311   4.83256   4.85463
  Beta virt. eigenvalues --    4.96517   5.00753   5.03530   5.04276   5.04971
  Beta virt. eigenvalues --    5.05459   5.06083   5.06444   5.08634   5.10829
  Beta virt. eigenvalues --    5.12240   5.25130   5.27128   5.28212   5.29012
  Beta virt. eigenvalues --    5.49353   5.53494   5.69509   5.75019   5.81033
  Beta virt. eigenvalues --    5.84183   8.19692  17.39216  17.41606  17.48471
  Beta virt. eigenvalues --   23.48538  23.62261  23.85247  23.86890  23.89570
  Beta virt. eigenvalues --   23.92851  23.94561  23.95435  24.00134  24.01050
  Beta virt. eigenvalues --   24.06127  24.08622  24.13030  24.17435  49.87383
  Beta virt. eigenvalues --   49.89479  49.92089  49.96435  50.00264  50.03957
  Beta virt. eigenvalues --   50.08951 189.28821
          Condensed to atoms (all electrons):
               1          2          3          4          5          6
     1  O    8.079993   0.354130   0.244712   0.010694  -0.006693  -0.003790
     2  C    0.354130  28.468866   4.789995  -1.428668 -15.327923  -0.181055
     3  C    0.244712   4.789995  44.411147  -0.033448 -10.848891  -9.632119
     4  O    0.010694  -1.428668  -0.033448   8.385563   1.620693   0.111997
     5  C   -0.006693 -15.327923 -10.848891   1.620693  55.773167   5.539743
     6  C   -0.003790  -0.181055  -9.632119   0.111997   5.539743  25.546128
     7  C   -0.132951  -2.273523 -15.379984   0.088552  -7.530124   5.550694
     8  C   -0.007055  -1.355090  -0.840439  -0.035127  -3.415026  -9.786828
     9  O    0.000030  -0.018909   0.013488  -0.000045   0.188989   0.338545
    10  C   -0.005576  -3.917584   0.149826  -0.007940   0.726330   1.908872
    11  C   -0.000311  -0.782436  -0.456837  -0.000753  -0.607600  -1.744797
    12  C    0.001689  -0.622597  -0.007374  -0.000230   0.036252   0.244745
    13  C   -0.002918   0.295880   0.107187   0.000185  -0.007270  -0.508183
    14  C    0.008404  -0.531432  -0.254130   0.001287  -0.381292  -1.126436
    15  C    0.093353  -2.560723   0.122324   0.003678  -2.105244  -3.411991
    16  C   -0.070728  -5.205249  -1.038053  -0.049637  -6.724099  -3.348768
    17  O    0.029134  -0.009983   0.079706   0.000685  -0.008789  -0.031575
    18  C   -0.522091   6.110140  -5.517391  -0.400919 -10.817342  -3.542138
    19  S    0.009693  -0.312474   0.158032  -0.003597   0.181758   0.571373
    20  O   -0.000306  -0.411875  -1.005662   0.127150   1.451910   0.288372
    21  O    0.000270   0.143475   0.805989  -0.027953  -0.378535  -0.468346
    22  O    0.000144  -0.037791   0.182418  -0.001443   0.357760  -0.280947
    23  H    0.154693   0.352153  -0.320225   0.035788  -0.039672   0.022533
    24  H    0.001755   0.557972   0.433842   0.056758  -1.099073   0.015590
    25  H    0.000223   0.122092   0.344897  -0.006249  -0.258055   0.214110
    26  H   -0.000002   0.007016  -0.015109   0.000028  -0.023853  -0.047698
    27  H    0.000009  -0.003442   0.000671  -0.000001   0.000410   0.011616
    28  H   -0.000002   0.006837   0.000535   0.000002   0.000461  -0.004109
    29  H   -0.000275  -0.021269  -0.004865  -0.000024  -0.004696   0.007941
               7          8          9         10         11         12
     1  O   -0.132951  -0.007055   0.000030  -0.005576  -0.000311   0.001689
     2  C   -2.273523  -1.355090  -0.018909  -3.917584  -0.782436  -0.622597
     3  C  -15.379984  -0.840439   0.013488   0.149826  -0.456837  -0.007374
     4  O    0.088552  -0.035127  -0.000045  -0.007940  -0.000753  -0.000230
     5  C   -7.530124  -3.415026   0.188989   0.726330  -0.607600   0.036252
     6  C    5.550694  -9.786828   0.338545   1.908872  -1.744797   0.244745
     7  C   41.160153  -1.226776  -0.241430  -4.940643   0.017674  -0.994431
     8  C   -1.226776  19.286217   0.502197  -4.660834   1.030298  -2.357010
     9  O   -0.241430   0.502197   8.232438  -0.143543   0.118976   0.055336
    10  C   -4.940643  -4.660834  -0.143543  33.372642  -6.178769   2.717832
    11  C    0.017674   1.030298   0.118976  -6.178769  15.940378  -2.704861
    12  C   -0.994431  -2.357010   0.055336   2.717832  -2.704861  10.606561
    13  C   -0.122833   0.144342  -0.005368   2.140667  -1.162618  -0.048280
    14  C   -1.085932   0.349829  -0.028805  -6.124317   4.329126  -0.833618
    15  C   -5.268732   1.631138  -0.401622  -0.697173  -2.348664   1.710623
    16  C   -0.601635   3.227877  -0.022881  -0.288395   0.785371  -0.674659
    17  O   -0.299448   0.006706  -0.000009  -0.336085  -0.012436  -0.012108
    18  C   -0.016771   4.402910  -0.302387  -7.863402  -0.686514  -0.867601
    19  S   -1.000880  -0.252317   0.013390  -0.021797  -0.030649  -0.005853
    20  O    0.126221  -0.082722   0.000181  -0.005387  -0.000735  -0.000040
    21  O   -0.226289   0.057925  -0.000716   0.002808   0.000228  -0.000001
    22  O   -0.180497  -0.020820  -0.000019  -0.002259  -0.000664  -0.000067
    23  H    0.021627  -0.023473   0.000084  -0.003245  -0.002413  -0.000202
    24  H    0.028974   0.009687  -0.000044   0.001831   0.000365  -0.000028
    25  H   -0.148558  -0.068250  -0.006154  -0.051639  -0.041730   0.015717
    26  H    0.003418   0.131500  -0.010603  -0.298576   0.551541  -0.240352
    27  H    0.004887  -0.007634   0.002706   0.065667  -0.157266   0.519564
    28  H   -0.007675  -0.001598  -0.000311  -0.014713  -0.000123  -0.066504
    29  H    0.025077  -0.007649   0.000607   0.104198   0.029950   0.009789
              13         14         15         16         17         18
     1  O   -0.002918   0.008404   0.093353  -0.070728   0.029134  -0.522091
     2  C    0.295880  -0.531432  -2.560723  -5.205249  -0.009983   6.110140
     3  C    0.107187  -0.254130   0.122324  -1.038053   0.079706  -5.517391
     4  O    0.000185   0.001287   0.003678  -0.049637   0.000685  -0.400919
     5  C   -0.007270  -0.381292  -2.105244  -6.724099  -0.008789 -10.817342
     6  C   -0.508183  -1.126436  -3.411991  -3.348768  -0.031575  -3.542138
     7  C   -0.122833  -1.085932  -5.268732  -0.601635  -0.299448  -0.016771
     8  C    0.144342   0.349829   1.631138   3.227877   0.006706   4.402910
     9  O   -0.005368  -0.028805  -0.401622  -0.022881  -0.000009  -0.302387
    10  C    2.140667  -6.124317  -0.697173  -0.288395  -0.336085  -7.863402
    11  C   -1.162618   4.329126  -2.348664   0.785371  -0.012436  -0.686514
    12  C   -0.048280  -0.833618   1.710623  -0.674659  -0.012108  -0.867601
    13  C   10.206873  -1.257929  -1.766389  -0.986155   0.053559  -0.855920
    14  C   -1.257929  12.311246  -0.055809  -0.396643   0.164336   0.442539
    15  C   -1.766389  -0.055809  22.642311   0.405734  -0.202472  -1.821705
    16  C   -0.986155  -0.396643   0.405734  18.061059   0.758791   2.838173
    17  O    0.053559   0.164336  -0.202472   0.758791   8.196202  -0.080107
    18  C   -0.855920   0.442539  -1.821705   2.838173  -0.080107  25.053333
    19  S    0.000457  -0.011574  -0.075650  -0.238611  -0.000058  -0.462448
    20  O   -0.000028  -0.000243  -0.004546  -0.045308   0.000015  -0.213099
    21  O    0.000001  -0.000042  -0.000783   0.009779   0.000006   0.065135
    22  O   -0.000007  -0.000156  -0.002709  -0.011420   0.000003  -0.017472
    23  H   -0.000514  -0.009657  -0.036531  -0.083303  -0.004099   0.156698
    24  H   -0.000240   0.000605   0.000175   0.034828   0.000139   0.170330
    25  H   -0.003236  -0.014101   0.018691   0.039176   0.000641   0.162834
    26  H   -0.005089   0.080930   0.121076   0.028913   0.000459   0.046746
    27  H   -0.073365  -0.000494   0.003632  -0.023043  -0.000348  -0.012122
    28  H    0.496581  -0.107564   0.000022   0.018483   0.002821   0.007924
    29  H   -0.121846   0.361350  -0.023446   0.029147  -0.009972  -0.038082
              19         20         21         22         23         24
     1  O    0.009693  -0.000306   0.000270   0.000144   0.154693   0.001755
     2  C   -0.312474  -0.411875   0.143475  -0.037791   0.352153   0.557972
     3  C    0.158032  -1.005662   0.805989   0.182418  -0.320225   0.433842
     4  O   -0.003597   0.127150  -0.027953  -0.001443   0.035788   0.056758
     5  C    0.181758   1.451910  -0.378535   0.357760  -0.039672  -1.099073
     6  C    0.571373   0.288372  -0.468346  -0.280947   0.022533   0.015590
     7  C   -1.000880   0.126221  -0.226289  -0.180497   0.021627   0.028974
     8  C   -0.252317  -0.082722   0.057925  -0.020820  -0.023473   0.009687
     9  O    0.013390   0.000181  -0.000716  -0.000019   0.000084  -0.000044
    10  C   -0.021797  -0.005387   0.002808  -0.002259  -0.003245   0.001831
    11  C   -0.030649  -0.000735   0.000228  -0.000664  -0.002413   0.000365
    12  C   -0.005853  -0.000040  -0.000001  -0.000067  -0.000202  -0.000028
    13  C    0.000457  -0.000028   0.000001  -0.000007  -0.000514  -0.000240
    14  C   -0.011574  -0.000243  -0.000042  -0.000156  -0.009657   0.000605
    15  C   -0.075650  -0.004546  -0.000783  -0.002709  -0.036531   0.000175
    16  C   -0.238611  -0.045308   0.009779  -0.011420  -0.083303   0.034828
    17  O   -0.000058   0.000015   0.000006   0.000003  -0.004099   0.000139
    18  C   -0.462448  -0.213099   0.065135  -0.017472   0.156698   0.170330
    19  S   16.895903  -0.248028  -0.070976   0.168745  -0.008337  -0.046567
    20  O   -0.248028   8.870013  -0.213337  -0.118059   0.004622  -0.067103
    21  O   -0.070976  -0.213337   8.858394  -0.306779  -0.000332   0.021286
    22  O    0.168745  -0.118059  -0.306779   8.550462   0.000758  -0.016154
    23  H   -0.008337   0.004622  -0.000332   0.000758   0.461621  -0.004615
    24  H   -0.046567  -0.067103   0.021286  -0.016154  -0.004615   0.429186
    25  H   -0.113190   0.014933   0.029925  -0.004288   0.001618   0.001779
    26  H    0.000324   0.000015  -0.000045  -0.000010  -0.000041   0.000013
    27  H   -0.000039  -0.000000  -0.000000  -0.000000   0.000004   0.000002
    28  H    0.000019  -0.000000  -0.000000   0.000000  -0.000005  -0.000002
    29  H   -0.000163  -0.000004   0.000002  -0.000002  -0.000053   0.000006
              25         26         27         28         29
     1  O    0.000223  -0.000002   0.000009  -0.000002  -0.000275
     2  C    0.122092   0.007016  -0.003442   0.006837  -0.021269
     3  C    0.344897  -0.015109   0.000671   0.000535  -0.004865
     4  O   -0.006249   0.000028  -0.000001   0.000002  -0.000024
     5  C   -0.258055  -0.023853   0.000410   0.000461  -0.004696
     6  C    0.214110  -0.047698   0.011616  -0.004109   0.007941
     7  C   -0.148558   0.003418   0.004887  -0.007675   0.025077
     8  C   -0.068250   0.131500  -0.007634  -0.001598  -0.007649
     9  O   -0.006154  -0.010603   0.002706  -0.000311   0.000607
    10  C   -0.051639  -0.298576   0.065667  -0.014713   0.104198
    11  C   -0.041730   0.551541  -0.157266  -0.000123   0.029950
    12  C    0.015717  -0.240352   0.519564  -0.066504   0.009789
    13  C   -0.003236  -0.005089  -0.073365   0.496581  -0.121846
    14  C   -0.014101   0.080930  -0.000494  -0.107564   0.361350
    15  C    0.018691   0.121076   0.003632   0.000022  -0.023446
    16  C    0.039176   0.028913  -0.023043   0.018483   0.029147
    17  O    0.000641   0.000459  -0.000348   0.002821  -0.009972
    18  C    0.162834   0.046746  -0.012122   0.007924  -0.038082
    19  S   -0.113190   0.000324  -0.000039   0.000019  -0.000163
    20  O    0.014933   0.000015  -0.000000  -0.000000  -0.000004
    21  O    0.029925  -0.000045  -0.000000  -0.000000   0.000002
    22  O   -0.004288  -0.000010  -0.000000   0.000000  -0.000002
    23  H    0.001618  -0.000041   0.000004  -0.000005  -0.000053
    24  H    0.001779   0.000013   0.000002  -0.000002   0.000006
    25  H    0.557858  -0.001978   0.000129  -0.000096   0.000062
    26  H   -0.001978   0.506123  -0.015933   0.001570   0.000716
    27  H    0.000129  -0.015933   0.491243  -0.014258   0.001200
    28  H   -0.000096   0.001570  -0.014258   0.490381  -0.013710
    29  H    0.000062   0.000716   0.001200  -0.013710   0.493787
          Atomic-Atomic Spin Densities.
               1          2          3          4          5          6
     1  O   -0.000000   0.000000  -0.000000  -0.000000  -0.000000  -0.000000
     2  C    0.000000   0.000000   0.000000   0.000000   0.000000   0.000000
     3  C   -0.000000   0.000000   0.000000  -0.000000   0.000000  -0.000000
     4  O   -0.000000   0.000000  -0.000000  -0.000000   0.000000   0.000000
     5  C   -0.000000   0.000000   0.000000   0.000000   0.000000   0.000000
     6  C   -0.000000   0.000000  -0.000000   0.000000   0.000000   0.000000
     7  C   -0.000000  -0.000000  -0.000000   0.000000  -0.000000   0.000000
     8  C    0.000000  -0.000000  -0.000000  -0.000000  -0.000000  -0.000000
     9  O   -0.000000   0.000000   0.000000   0.000000   0.000000   0.000000
    10  C    0.000000  -0.000000  -0.000000  -0.000000  -0.000000  -0.000000
    11  C    0.000000  -0.000000  -0.000000  -0.000000  -0.000000  -0.000000
    12  C   -0.000000  -0.000000   0.000000  -0.000000  -0.000000  -0.000000
    13  C    0.000000  -0.000000  -0.000000   0.000000  -0.000000  -0.000000
    14  C   -0.000000  -0.000000  -0.000000  -0.000000  -0.000000  -0.000000
    15  C   -0.000000  -0.000000  -0.000000  -0.000000  -0.000000  -0.000000
    16  C   -0.000000  -0.000000  -0.000000  -0.000000  -0.000000  -0.000000
    17  O    0.000000  -0.000000  -0.000000   0.000000   0.000000   0.000000
    18  C    0.000000  -0.000000   0.000000  -0.000000  -0.000000  -0.000000
    19  S    0.000000  -0.000000   0.000000   0.000000   0.000000  -0.000000
    20  O   -0.000000  -0.000000  -0.000000  -0.000000   0.000000   0.000000
    21  O    0.000000  -0.000000   0.000000   0.000000   0.000000  -0.000000
    22  O    0.000000  -0.000000   0.000000   0.000000   0.000000  -0.000000
    23  H    0.000000  -0.000000   0.000000  -0.000000   0.000000   0.000000
    24  H   -0.000000   0.000000  -0.000000   0.000000  -0.000000   0.000000
    25  H   -0.000000   0.000000   0.000000   0.000000   0.000000   0.000000
    26  H   -0.000000  -0.000000  -0.000000   0.000000  -0.000000  -0.000000
    27  H   -0.000000   0.000000   0.000000  -0.000000  -0.000000   0.000000
    28  H    0.000000  -0.000000  -0.000000   0.000000   0.000000  -0.000000
    29  H   -0.000000   0.000000  -0.000000  -0.000000  -0.000000  -0.000000
               7          8          9         10         11         12
     1  O   -0.000000   0.000000  -0.000000   0.000000   0.000000  -0.000000
     2  C   -0.000000  -0.000000   0.000000  -0.000000  -0.000000  -0.000000
     3  C   -0.000000  -0.000000   0.000000  -0.000000  -0.000000   0.000000
     4  O    0.000000  -0.000000   0.000000  -0.000000  -0.000000  -0.000000
     5  C   -0.000000  -0.000000   0.000000  -0.000000  -0.000000  -0.000000
     6  C    0.000000  -0.000000   0.000000  -0.000000  -0.000000  -0.000000
     7  C    0.000000   0.000000   0.000000   0.000000   0.000000  -0.000000
     8  C    0.000000   0.000000  -0.000000  -0.000000   0.000000  -0.000000
     9  O    0.000000  -0.000000  -0.000000  -0.000000  -0.000000   0.000000
    10  C    0.000000  -0.000000  -0.000000  -0.000000  -0.000000   0.000000
    11  C    0.000000   0.000000  -0.000000  -0.000000   0.000000  -0.000000
[...]
    20  O    0.000000  -0.000000   0.000000  -0.000000  -0.000000
    21  O   -0.000000   0.000000  -0.000000   0.000000  -0.000000
    22  O    0.000000  -0.000000  -0.000000  -0.000000  -0.000000
    23  H    0.000000  -0.000000   0.000000  -0.000000   0.000000
    24  H   -0.000000   0.000000  -0.000000  -0.000000   0.000000
    25  H   -0.000000  -0.000000   0.000000  -0.000000   0.000000
    26  H   -0.000000   0.000000  -0.000000   0.000000   0.000000
    27  H    0.000000  -0.000000   0.000000  -0.000000   0.000000
    28  H   -0.000000   0.000000  -0.000000   0.000000  -0.000000
    29  H    0.000000   0.000000   0.000000  -0.000000   0.000000
 Mulliken charges and spin densities:
               1          2
     1  O   -0.236225  -0.000000
     2  C   -0.206536   0.000000
     3  C   -0.490242  -0.000000
     4  O   -0.447023  -0.000000
     5  C   -0.293293  -0.000000
     6  C   -0.253478   0.000000
     7  C    0.651835   0.000000
     8  C   -0.631978   0.000000
     9  O   -0.284119  -0.000000
    10  C    0.371203   0.000000
    11  C    0.116266  -0.000000
    12  C   -0.482291  -0.000000
    13  C   -0.517542   0.000000
    14  C    0.170521   0.000000
    15  C    0.031432  -0.000000
    16  C   -0.428745  -0.000000
    17  O   -0.285712  -0.000000
    18  C    0.580752   0.000000
    19  S    0.903510  -0.000000
    20  O   -0.466950  -0.000000
    21  O   -0.301087  -0.000000
    22  O   -0.258729  -0.000000
    23  H    0.324520  -0.000000
    24  H    0.468703   0.000000
    25  H    0.192839  -0.000000
    26  H    0.178903  -0.000000
    27  H    0.206206  -0.000000
    28  H    0.205036  -0.000000
    29  H    0.182225  -0.000000
 Sum of Mulliken charges =  -1.00000   0.00000
 Mulliken charges and spin densities with hydrogens summed into heavy atoms:
               1          2
     1  O    0.088294  -0.000000
     2  C   -0.206536   0.000000
     3  C   -0.490242  -0.000000
     4  O    0.021679   0.000000
     5  C   -0.293293  -0.000000
     6  C   -0.060639   0.000000
     7  C    0.651835   0.000000
     8  C   -0.631978   0.000000
     9  O   -0.284119  -0.000000
    10  C    0.371203   0.000000
    11  C    0.295169  -0.000000
    12  C   -0.276085  -0.000000
    13  C   -0.312506   0.000000
    14  C    0.352746   0.000000
    15  C    0.031432  -0.000000
    16  C   -0.428745  -0.000000
    17  O   -0.285712  -0.000000
    18  C    0.580752   0.000000
    19  S    0.903510  -0.000000
    20  O   -0.466950  -0.000000
    21  O   -0.301087  -0.000000
    22  O   -0.258729  -0.000000
 Electronic spatial extent (au):  <R**2>=           7797.6977
 Charge=             -1.0000 electrons
 Dipole moment (field-independent basis, Debye):
    X=             16.4513    Y=              3.4975    Z=             -0.3780  Tot=             16.8232
 Quadrupole moment (field-independent basis, Debye-Ang):
   XX=           -185.9862   YY=           -163.5435   ZZ=           -143.3457
   XY=            -27.4583   XZ=              1.1461   YZ=             -0.5330
 Traceless Quadrupole moment (field-independent basis, Debye-Ang):
   XX=            -21.6944   YY=              0.7483   ZZ=             20.9461
   XY=            -27.4583   XZ=              1.1461   YZ=             -0.5330
 Octapole moment (field-independent basis, Debye-Ang**2):
  XXX=            427.3365  YYY=             23.7999  ZZZ=             -5.1997  XYY=             -3.1067
  XXY=             49.7361  XXZ=             -2.9866  XZZ=              8.5489  YZZ=             17.7352
  YYZ=              2.5443  XYZ=             -0.2397
 Hexadecapole moment (field-independent basis, Debye-Ang**3):
 XXXX=          -8445.6145 YYYY=          -2275.8040 ZZZZ=           -275.3462 XXXY=           -387.1521
 XXXZ=              6.7364 YYYX=           -191.3641 YYYZ=            -15.7659 ZZZX=             20.7269
 ZZZY=              4.8301 XXYY=          -1790.5844 XXZZ=          -1576.8204 YYZZ=           -413.4470
 XXYZ=              5.0371 YYXZ=            -11.0957 ZZXY=            -38.2691
 N-N= 1.906871841509D+03 E-N=-7.272841872590D+03  KE= 1.458463516735D+03
                          Isotropic Fermi Contact Couplings
        Atom                 a.u.       MegaHertz       Gauss      10(-4) cm-1
     1  O(17)             -0.00000       0.00000       0.00000       0.00000
     2  C(13)             -0.00000      -0.00000      -0.00000      -0.00000
     3  C(13)              0.00000       0.00000       0.00000       0.00000
     4  O(17)              0.00000      -0.00000      -0.00000      -0.00000
     5  C(13)              0.00000       0.00000       0.00000       0.00000
     6  C(13)             -0.00000      -0.00000      -0.00000      -0.00000
     7  C(13)              0.00000       0.00000       0.00000       0.00000
     8  C(13)              0.00000       0.00000       0.00000       0.00000
     9  O(17)              0.00000      -0.00000      -0.00000      -0.00000
    10  C(13)             -0.00000      -0.00000      -0.00000      -0.00000
    11  C(13)              0.00000       0.00000       0.00000       0.00000
    12  C(13)              0.00000       0.00000       0.00000       0.00000
    13  C(13)              0.00000       0.00000       0.00000       0.00000
    14  C(13)              0.00000       0.00000       0.00000       0.00000
    15  C(13)              0.00000       0.00000       0.00000       0.00000
    16  C(13)              0.00000       0.00000       0.00000       0.00000
    17  O(17)              0.00000      -0.00000      -0.00000      -0.00000
    18  C(13)             -0.00000      -0.00000      -0.00000      -0.00000
    19  S(33)             -0.00000      -0.00000      -0.00000      -0.00000
    20  O(17)             -0.00000       0.00000       0.00000       0.00000
    21  O(17)             -0.00000       0.00000       0.00000       0.00000
    22  O(17)              0.00000      -0.00000      -0.00000      -0.00000
    23  H(1)              -0.00000      -0.00000      -0.00000      -0.00000
    24  H(1)              -0.00000      -0.00000      -0.00000      -0.00000
    25  H(1)              -0.00000      -0.00000      -0.00000      -0.00000
    26  H(1)              -0.00000      -0.00000      -0.00000      -0.00000
    27  H(1)               0.00000       0.00000       0.00000       0.00000
    28  H(1)               0.00000       0.00000       0.00000       0.00000
    29  H(1)              -0.00000      -0.00000      -0.00000      -0.00000
 --------------------------------------------------------
       Center         ----  Spin Dipole Couplings  ----
                      3XX-RR        3YY-RR        3ZZ-RR
 --------------------------------------------------------
     1   Atom       -0.000000      0.000000      0.000000
     2   Atom        0.000000     -0.000000      0.000000
     3   Atom       -0.000000      0.000000     -0.000000
     4   Atom       -0.000000     -0.000000      0.000000
     5   Atom        0.000000     -0.000000     -0.000000
     6   Atom       -0.000000      0.000000     -0.000000
     7   Atom        0.000000     -0.000000     -0.000000
     8   Atom       -0.000000      0.000000     -0.000000
     9   Atom        0.000000     -0.000000     -0.000000
    10   Atom       -0.000000      0.000000      0.000000
    11   Atom       -0.000000      0.000000     -0.000000
    12   Atom        0.000000      0.000000     -0.000000
    13   Atom        0.000000     -0.000000      0.000000
    14   Atom       -0.000000      0.000000      0.000000
    15   Atom       -0.000000      0.000000     -0.000000
    16   Atom        0.000000     -0.000000     -0.000000
    17   Atom        0.000000     -0.000000     -0.000000
    18   Atom        0.000000     -0.000000     -0.000000
    19   Atom       -0.000000      0.000000      0.000000
    20   Atom       -0.000000      0.000000      0.000000
    21   Atom       -0.000000      0.000000     -0.000000
    22   Atom       -0.000000     -0.000000      0.000000
    23   Atom        0.000000     -0.000000     -0.000000
    24   Atom       -0.000000      0.000000     -0.000000
    25   Atom       -0.000000      0.000000      0.000000
    26   Atom       -0.000000      0.000000      0.000000
    27   Atom        0.000000      0.000000     -0.000000
    28   Atom       -0.000000      0.000000      0.000000
    29   Atom       -0.000000     -0.000000      0.000000
 --------------------------------------------------------
                        XY            XZ            YZ
 --------------------------------------------------------
     1   Atom        0.000000      0.000000     -0.000000
     2   Atom        0.000000      0.000000     -0.000000
     3   Atom       -0.000000      0.000000     -0.000000
     4   Atom       -0.000000      0.000000     -0.000000
     5   Atom        0.000000      0.000000      0.000000
     6   Atom        0.000000     -0.000000      0.000000
     7   Atom        0.000000     -0.000000     -0.000000
     8   Atom        0.000000     -0.000000     -0.000000
     9   Atom       -0.000000      0.000000     -0.000000
    10   Atom        0.000000      0.000000     -0.000000
    11   Atom       -0.000000     -0.000000      0.000000
    12   Atom        0.000000      0.000000     -0.000000
    13   Atom        0.000000     -0.000000      0.000000
    14   Atom        0.000000      0.000000     -0.000000
    15   Atom        0.000000     -0.000000      0.000000
    16   Atom       -0.000000      0.000000      0.000000
    17   Atom       -0.000000     -0.000000      0.000000
    18   Atom       -0.000000     -0.000000      0.000000
    19   Atom       -0.000000     -0.000000     -0.000000
    20   Atom       -0.000000      0.000000      0.000000
    21   Atom       -0.000000      0.000000      0.000000
    22   Atom        0.000000      0.000000      0.000000
    23   Atom        0.000000     -0.000000      0.000000
    24   Atom       -0.000000      0.000000     -0.000000
    25   Atom        0.000000     -0.000000     -0.000000
    26   Atom       -0.000000     -0.000000     -0.000000
    27   Atom       -0.000000     -0.000000      0.000000
    28   Atom       -0.000000      0.000000     -0.000000
    29   Atom        0.000000     -0.000000      0.000000
 --------------------------------------------------------


 ---------------------------------------------------------------------------------
              Anisotropic Spin Dipole Couplings in Principal Axis System
 ---------------------------------------------------------------------------------

       Atom             a.u.   MegaHertz   Gauss  10(-4) cm-1        Axes

              Baa    -0.0000     0.000     0.000     0.000  0.8234 -0.1174 -0.5552
     1 O(17)  Bbb     0.0000    -0.000    -0.000    -0.000  0.4892  0.6427  0.5896
              Bcc     0.0000    -0.000    -0.000    -0.000 -0.2876  0.7571 -0.5866
 
              Baa    -0.0000    -0.000    -0.000    -0.000 -0.6358  0.7716  0.0192
     2 C(13)  Bbb     0.0000     0.000     0.000     0.000  0.0017 -0.0235  0.9997
              Bcc     0.0000     0.000     0.000     0.000  0.7719  0.6356  0.0136
 
              Baa    -0.0000    -0.000    -0.000    -0.000  0.9408  0.1623 -0.2977
     3 C(13)  Bbb    -0.0000    -0.000    -0.000    -0.000  0.2768  0.1393  0.9508
              Bcc     0.0000     0.000     0.000     0.000 -0.1958  0.9769 -0.0861
 
              Baa    -0.0000     0.000     0.000     0.000  0.7223  0.6780  0.1365
     4 O(17)  Bbb     0.0000    -0.000    -0.000    -0.000 -0.4422  0.3011  0.8448
              Bcc     0.0000    -0.000    -0.000    -0.000 -0.5317  0.6706 -0.5173
 
              Baa    -0.0000    -0.000    -0.000    -0.000 -0.3085  0.9357 -0.1713
     5 C(13)  Bbb    -0.0000    -0.000    -0.000    -0.000 -0.1856  0.1175  0.9756
              Bcc     0.0000     0.000     0.000     0.000  0.9330  0.3327  0.1374
 
              Baa    -0.0000    -0.000    -0.000    -0.000  0.8586 -0.2316  0.4573
     6 C(13)  Bbb    -0.0000    -0.000    -0.000    -0.000 -0.4941 -0.1365  0.8586
              Bcc     0.0000     0.000     0.000     0.000  0.1364  0.9632  0.2316
 
              Baa    -0.0000    -0.000    -0.000    -0.000 -0.4817  0.8761 -0.0176
     7 C(13)  Bbb    -0.0000    -0.000    -0.000    -0.000  0.0693  0.0581  0.9959
              Bcc     0.0000     0.000     0.000     0.000  0.8736  0.4785 -0.0887
 
              Baa    -0.0000    -0.000    -0.000    -0.000  0.9941 -0.0979 -0.0472
     8 C(13)  Bbb    -0.0000    -0.000    -0.000    -0.000  0.0675  0.2166  0.9739
              Bcc     0.0000     0.000     0.000     0.000  0.0852  0.9713 -0.2219
 
              Baa    -0.0000     0.000     0.000     0.000 -0.0383  0.9565  0.2891
     9 O(17)  Bbb    -0.0000     0.000     0.000     0.000 -0.1838 -0.2911  0.9389
              Bcc     0.0000    -0.000    -0.000    -0.000  0.9822 -0.0172  0.1869
 
              Baa    -0.0000    -0.000    -0.000    -0.000  0.8765 -0.3802 -0.2953
    10 C(13)  Bbb    -0.0000    -0.000    -0.000    -0.000  0.4551  0.4544  0.7658
              Bcc     0.0000     0.000     0.000     0.000  0.1570  0.8056 -0.5713
 
              Baa    -0.0000    -0.000    -0.000    -0.000  0.9063 -0.0173  0.4224
    11 C(13)  Bbb    -0.0000    -0.000    -0.000    -0.000 -0.4216 -0.1099  0.9001
              Bcc     0.0000     0.000     0.000     0.000 -0.0308  0.9938  0.1069
 
              Baa    -0.0000    -0.000    -0.000    -0.000 -0.0556  0.0149  0.9983
    12 C(13)  Bbb     0.0000     0.000     0.000     0.000  0.9884 -0.1407  0.0571
              Bcc     0.0000     0.000     0.000     0.000  0.1414  0.9899 -0.0069
 
              Baa    -0.0000    -0.000    -0.000    -0.000 -0.6196  0.7809 -0.0789
    13 C(13)  Bbb     0.0000     0.000     0.000     0.000 -0.0125  0.0906  0.9958
              Bcc     0.0000     0.000     0.000     0.000  0.7848  0.6180 -0.0464
 
              Baa    -0.0000    -0.000    -0.000    -0.000  0.9500 -0.3118 -0.0142
    14 C(13)  Bbb     0.0000     0.000     0.000     0.000  0.0184  0.0106  0.9998
              Bcc     0.0000     0.000     0.000     0.000  0.3116  0.9501 -0.0159
 
              Baa    -0.0000    -0.000    -0.000    -0.000  0.5366 -0.2431  0.8081
    15 C(13)  Bbb     0.0000     0.000     0.000     0.000  0.7172 -0.3733 -0.5885
              Bcc     0.0000     0.000     0.000     0.000  0.4447  0.8953 -0.0259
 
              Baa    -0.0000    -0.000    -0.000    -0.000 -0.0293 -0.2095  0.9774
    16 C(13)  Bbb    -0.0000    -0.000    -0.000    -0.000  0.1648  0.9634  0.2115
              Bcc     0.0000     0.000     0.000     0.000  0.9859 -0.1673 -0.0063
 
              Baa    -0.0000     0.000     0.000     0.000  0.6089  0.7833  0.1255
    17 O(17)  Bbb    -0.0000     0.000     0.000     0.000  0.0505 -0.1961  0.9793
              Bcc     0.0000    -0.000    -0.000    -0.000  0.7917 -0.5899 -0.1589
 
              Baa    -0.0000    -0.000    -0.000    -0.000  0.0758  0.9801 -0.1832
    18 C(13)  Bbb    -0.0000    -0.000    -0.000    -0.000  0.0958  0.1757  0.9798
              Bcc     0.0000     0.000     0.000     0.000  0.9925 -0.0918 -0.0806
 
              Baa    -0.0000    -0.000    -0.000    -0.000  0.9046  0.3793  0.1946
    19 S(33)  Bbb     0.0000     0.000     0.000     0.000 -0.3397  0.3655  0.8666
              Bcc     0.0000     0.000     0.000     0.000 -0.2576  0.8500 -0.4594
 
              Baa    -0.0000     0.000     0.000     0.000  0.8660  0.4419 -0.2339
    20 O(17)  Bbb     0.0000    -0.000    -0.000    -0.000 -0.4922  0.6712 -0.5543
              Bcc     0.0000    -0.000    -0.000    -0.000 -0.0879  0.5952  0.7988
 
              Baa    -0.0000     0.000     0.000     0.000  0.6654  0.5637 -0.4893
    21 O(17)  Bbb     0.0000    -0.000    -0.000    -0.000  0.3222  0.3744  0.8695
              Bcc     0.0000    -0.000    -0.000    -0.000 -0.6734  0.7362 -0.0675
 
              Baa    -0.0000     0.000     0.000     0.000  0.9338 -0.1746 -0.3122
    22 O(17)  Bbb    -0.0000     0.000     0.000     0.000  0.0989  0.9648 -0.2437
              Bcc     0.0000    -0.000    -0.000    -0.000  0.3438  0.1967  0.9182
 
              Baa    -0.0000    -0.000    -0.000    -0.000 -0.2171  0.7100 -0.6699
    23 H(1)   Bbb     0.0000     0.000     0.000     0.000 -0.3728  0.5739  0.7291
              Bcc     0.0000     0.000     0.000     0.000  0.9021  0.4081  0.1401
 
              Baa    -0.0000    -0.000    -0.000    -0.000  0.8209  0.5706 -0.0215
    24 H(1)   Bbb    -0.0000    -0.000    -0.000    -0.000 -0.0546  0.1158  0.9918
              Bcc     0.0000     0.000     0.000     0.000 -0.5684  0.8130 -0.1262
 
              Baa    -0.0000    -0.000    -0.000    -0.000  0.7960 -0.5701  0.2034
    25 H(1)   Bbb     0.0000     0.000     0.000     0.000  0.1525  0.5141  0.8440
              Bcc     0.0000     0.000     0.000     0.000  0.5858  0.6408 -0.4962
 
              Baa    -0.0000    -0.000    -0.000    -0.000  0.9971  0.0689  0.0324
    26 H(1)   Bbb     0.0000     0.000     0.000     0.000 -0.0360  0.0527  0.9980
              Bcc     0.0000     0.000     0.000     0.000 -0.0670  0.9962 -0.0550
 
              Baa    -0.0000    -0.000    -0.000    -0.000 -0.0101 -0.3416  0.9398
    27 H(1)   Bbb     0.0000     0.000     0.000     0.000  0.4841  0.8207  0.3035
              Bcc     0.0000     0.000     0.000     0.000  0.8749 -0.4580 -0.1571
 
              Baa    -0.0000    -0.000    -0.000    -0.000  0.9914  0.0864 -0.0987
    28 H(1)   Bbb     0.0000     0.000     0.000     0.000  0.0317  0.5722  0.8195
              Bcc     0.0000     0.000     0.000     0.000 -0.1272  0.8156 -0.5645
 
              Baa    -0.0000    -0.000    -0.000    -0.000 -0.6224  0.7794 -0.0713
    29 H(1)   Bbb     0.0000     0.000     0.000     0.000  0.7668  0.5890 -0.2551
              Bcc     0.0000     0.000     0.000     0.000  0.1569  0.2135  0.9643
 

 ---------------------------------------------------------------------------------

 No NMR shielding tensors so no spin-rotation constants.
 Leave Link  601 at Tue Jan 16 06:44:05 2024, MaxMem=  4026531840 cpu:               4.3 elap:               0.7
 (Enter /sysapps/ubuntu-applications/gaussian/Gaussian/AVX2/g16/l9999.exe)
 1\1\GINC-ACIDSCN027\SP\UB3LYP\6-311++G(d,p)\C14H7O7S1(1-)\SELHAJJ1\16-
 Jan-2024\0\\#P UB3LYP/6-311++G(d,p) SCRF=(PCM,Solvent=n,n-DiMethylForm
 amide)\\Quinone PCM in DMF\\-1,1\O,0,1.498347,-2.867008,-0.55908\C,0,1
 .472514,-1.544782,-0.286123\C,0,2.732962,-0.907658,-0.131849\O,0,3.797
 84,-1.711647,-0.282688\C,0,2.805987,0.457719,0.140261\C,0,1.629026,1.1
 91476,0.261385\C,0,0.38484,0.584715,0.121617\C,0,-0.814617,1.435502,0.
 266149\O,0,-0.749582,2.63614,0.503514\C,0,-2.149559,0.779012,0.10918\C
 ,0,-3.309445,1.55224,0.233695\C,0,-4.560264,0.965684,0.091828\C,0,-4.6
 63321,-0.403293,-0.176817\C,0,-3.515685,-1.175885,-0.301609\C,0,-2.251
 59,-0.592111,-0.160313\C,0,-1.03561,-1.465493,-0.302779\O,0,-1.18295,-
 2.657996,-0.530568\C,0,0.284427,-0.814631,-0.15577\S,0,4.427575,1.2617
 98,0.401939\O,0,5.376095,0.22227,-0.161883\O,0,4.397059,2.507053,-0.37
 9885\O,0,4.555589,1.422617,1.860943\H,0,2.43889,-3.106524,-0.606907\H,
 0,4.619211,-1.101469,-0.2512\H,0,1.673789,2.254174,0.46207\H,0,-3.1979
 01,2.609296,0.442247\H,0,-5.456581,1.569079,0.189284\H,0,-5.639963,-0.
 862556,-0.287738\H,0,-3.567083,-2.237719,-0.508903\\Version=ES64L-G16R
 evA.03\State=1-A\HF=-1462.9345686\S2=0.\S2-1=0.\S2A=0.\RMSD=6.685e-09\
 Dipole=-6.3028021,-1.8960707,-0.6981663\Quadrupole=-11.9684459,-2.6893
 081,14.657754,-20.8878498,-5.877648,-3.9516767\PG=C01 [X(C14H7O7S1)]\\
 @


 SIGN SEEN IN A RESTAURANT-
 WE RESERVE THE RIGHT TO SERVE REFUSE TO ANYONE.
 Job cpu time:       0 days  0 hours 31 minutes  6.9 seconds.
 Elapsed time:       0 days  0 hours  4 minutes  5.8 seconds.
 File lengths (MBytes):  RWF=    391 Int=      0 D2E=      0 Chk=     22 Scr=      1
 Normal termination of Gaussian 16 at Tue Jan 16 06:44:05 2024.
