 Entering Gaussian System, Link 0=g16
 Input=181.com
 Output=181.log
 Initial command:
 /sysapps/ubuntu-applications/gaussian/Gaussian/AVX2/g16/l1.exe "/scratch/selhajj1/4234682/Gau-2621261.inp" -scrdir="/scratch/selhajj1/4234682/"
 Entering Link 1 = /sysapps/ubuntu-applications/gaussian/Gaussian/AVX2/g16/l1.exe PID=   2621276.
  
 Copyright (c) 1988,1990,1992,1993,1995,1998,2003,2009,2016,
            Gaussian, Inc.  All Rights Reserved.
  
 This is part of the Gaussian(R) 16 program.  It is based on
 the Gaussian(R) 09 system (copyright 2009, Gaussian, Inc.),
 the Gaussian(R) 03 system (copyright 2003, Gaussian, Inc.),
 the Gaussian(R) 98 system (copyright 1998, Gaussian, Inc.),
 the Gaussian(R) 94 system (copyright 1995, Gaussian, Inc.),
 the Gaussian 92(TM) system (copyright 1992, Gaussian, Inc.),
 the Gaussian 90(TM) system (copyright 1990, Gaussian, Inc.),
 the Gaussian 88(TM) system (copyright 1988, Gaussian, Inc.),
 the Gaussian 86(TM) system (copyright 1986, Carnegie Mellon
 University), and the Gaussian 82(TM) system (copyright 1983,
 Carnegie Mellon University). Gaussian is a federally registered
 trademark of Gaussian, Inc.
  
 This software contains proprietary and confidential information,
 including trade secrets, belonging to Gaussian, Inc.
  
 This software is provided under written license and may be
 used, copied, transmitted, or stored only in accord with that
 written license.
  
 The following legend is applicable only to US Government
 contracts under FAR:
  
                    RESTRICTED RIGHTS LEGEND
  
 Use, reproduction and disclosure by the US Government is
 subject to restrictions as set forth in subparagraphs (a)
 and (c) of the Commercial Computer Software - Restricted
 Rights clause in FAR 52.227-19.
  
 Gaussian, Inc.
 340 Quinnipiac St., Bldg. 40, Wallingford CT 06492
  
  
 ---------------------------------------------------------------
 Warning -- This program may not be used in any manner that
 competes with the business of Gaussian, Inc. or will provide
 assistance to any competitor of Gaussian, Inc.  The licensee
 of this program is prohibited from giving any competitor of
 Gaussian, Inc. access to this program.  By using this program,
 the user acknowledges that Gaussian, Inc. is engaged in the
 business of creating and licensing software in the field of
 computational chemistry and represents and warrants to the
 licensee that it is not a competitor of Gaussian, Inc. and that
 it will not use this program in any manner prohibited above.
 ---------------------------------------------------------------
  

 Cite this work as:
 Gaussian 16, Revision A.03,
 M. J. Frisch, G. W. Trucks, H. B. Schlegel, G. E. Scuseria, 
 M. A. Robb, J. R. Cheeseman, G. Scalmani, V. Barone, 
 G. A. Petersson, H. Nakatsuji, X. Li, M. Caricato, A. V. Marenich, 
 J. Bloino, B. G. Janesko, R. Gomperts, B. Mennucci, H. P. Hratchian, 
 J. V. Ortiz, A. F. Izmaylov, J. L. Sonnenberg, D. Williams-Young, 
 F. Ding, F. Lipparini, F. Egidi, J. Goings, B. Peng, A. Petrone, 
 T. Henderson, D. Ranasinghe, V. G. Zakrzewski, J. Gao, N. Rega, 
 G. Zheng, W. Liang, M. Hada, M. Ehara, K. Toyota, R. Fukuda, 
 J. Hasegawa, M. Ishida, T. Nakajima, Y. Honda, O. Kitao, H. Nakai, 
 T. Vreven, K. Throssell, J. A. Montgomery, Jr., J. E. Peralta, 
 F. Ogliaro, M. J. Bearpark, J. J. Heyd, E. N. Brothers, K. N. Kudin, 
 V. N. Staroverov, T. A. Keith, R. Kobayashi, J. Normand, 
 K. Raghavachari, A. P. Rendell, J. C. Burant, S. S. Iyengar, 
 J. Tomasi, M. Cossi, J. M. Millam, M. Klene, C. Adamo, R. Cammi, 
 J. W. Ochterski, R. L. Martin, K. Morokuma, O. Farkas, 
 J. B. Foresman, and D. J. Fox, Gaussian, Inc., Wallingford CT, 2016.
 
 ******************************************
 Gaussian 16:  ES64L-G16RevA.03 25-Dec-2016
                27-Dec-2023 
 ******************************************
 %chk=181.chk
 %nproc=8
 Will use up to    8 processors via shared memory.
 %mem=30GB
 --------------------------------------
 #P UB3LYP/6-311++G(d,p) nosym opt freq
 --------------------------------------
 1/18=20,19=15,26=3,38=1/1,3;
 2/9=110,12=2,15=1,17=6,18=5,40=1/2;
 3/5=4,6=6,7=1111,11=2,25=1,30=1,71=1,74=-5,116=2/1,2,3;
 4//1;
 5/5=2,38=5/2;
 6/7=2,8=2,9=2,10=2,28=1/1;
 7/30=1/1,2,3,16;
 1/18=20,19=15,26=3/3(2);
 2/9=110,15=1/2;
 99//99;
 2/9=110,15=1/2;
 3/5=4,6=6,7=1111,11=2,25=1,30=1,71=1,74=-5,116=2/1,2,3;
 4/5=5,16=3,69=1/1;
 5/5=2,38=5/2;
 7/30=1/1,2,3,16;
 1/18=20,19=15,26=3/3(-5);
 2/9=110,15=1/2;
 6/7=2,8=2,9=2,10=2,19=2,28=1/1;
 99/9=1/99;
 Leave Link    1 at Wed Dec 27 19:44:46 2023, MaxMem=  4026531840 cpu:               1.0 elap:               0.2
 (Enter /sysapps/ubuntu-applications/gaussian/Gaussian/AVX2/g16/l101.exe)
 --------
 Oxidized
 --------
 Symbolic Z-matrix:
 Charge =  0 Multiplicity = 1
 N                    -2.59149  -2.27688   0.43208 
 C                    -2.33396  -0.96688   0.16107 
 C                    -3.42525  -0.08776  -0.03224 
 C                    -3.22765   1.24541  -0.28102 
 C                    -1.93482   1.79815  -0.35246 
 O                    -1.78989   3.12754  -0.59667 
 C                    -0.8212    0.96732  -0.173 
 C                     0.55589   1.53663  -0.24849 
 O                     0.7699    2.72176  -0.44492 
 C                     1.7045    0.59803  -0.07406 
 C                     3.00711   1.10398  -0.15002 
 C                     4.09509   0.25579   0.00641 
 C                     3.89299  -1.10858   0.24146 
 C                     2.604    -1.61765   0.31885 
 C                     1.5023   -0.76702   0.16142 
 C                     0.13186  -1.33257   0.25128 
 O                    -0.0036   -2.54445   0.46261 
 C                    -1.01914  -0.43134   0.08221 
 H                    -3.5332   -2.62152   0.35942 
 H                    -1.80603  -2.91284   0.49381 
 H                    -4.43428  -0.48267   0.02314 
 H                    -4.08606   1.89603  -0.42484 
 H                    -2.66318   3.52307  -0.69438 
 H                     3.13715   2.16328  -0.33259 
 H                     5.10265   0.65184  -0.05364 
 H                     4.74377  -1.76948   0.36368 
 H                     2.42253  -2.6692    0.50089 
 
 ITRead=  0  0  0  0  0  0  0  0  0  0  0  0  0  0  0  0  0  0  0  0
 ITRead=  0  0  0  0  0  0  0
 MicOpt= -1 -1 -1 -1 -1 -1 -1 -1 -1 -1 -1 -1 -1 -1 -1 -1 -1 -1 -1 -1
 MicOpt= -1 -1 -1 -1 -1 -1 -1
 NAtoms=     27 NQM=       27 NQMF=       0 NMMI=      0 NMMIF=      0
                NMic=       0 NMicF=      0.
                    Isotopes and Nuclear Properties:
 (Nuclear quadrupole moments (NQMom) in fm**2, nuclear magnetic moments (NMagM)
  in nuclear magnetons)

  Atom         1           2           3           4           5           6           7           8           9          10
 IAtWgt=          14          12          12          12          12          16          12          12          16          12
 AtmWgt=  14.0030740  12.0000000  12.0000000  12.0000000  12.0000000  15.9949146  12.0000000  12.0000000  15.9949146  12.0000000
 NucSpn=           2           0           0           0           0           0           0           0           0           0
 AtZEff=  -0.0000000  -0.0000000  -0.0000000  -0.0000000  -0.0000000  -0.0000000  -0.0000000  -0.0000000  -0.0000000  -0.0000000
 NQMom=    2.0440000   0.0000000   0.0000000   0.0000000   0.0000000   0.0000000   0.0000000   0.0000000   0.0000000   0.0000000
 NMagM=    0.4037610   0.0000000   0.0000000   0.0000000   0.0000000   0.0000000   0.0000000   0.0000000   0.0000000   0.0000000
 AtZNuc=   7.0000000   6.0000000   6.0000000   6.0000000   6.0000000   8.0000000   6.0000000   6.0000000   8.0000000   6.0000000

  Atom        11          12          13          14          15          16          17          18          19          20
 IAtWgt=          12          12          12          12          12          12          16          12           1           1
 AtmWgt=  12.0000000  12.0000000  12.0000000  12.0000000  12.0000000  12.0000000  15.9949146  12.0000000   1.0078250   1.0078250
 NucSpn=           0           0           0           0           0           0           0           0           1           1
 AtZEff=  -0.0000000  -0.0000000  -0.0000000  -0.0000000  -0.0000000  -0.0000000  -0.0000000  -0.0000000  -0.0000000  -0.0000000
 NQMom=    0.0000000   0.0000000   0.0000000   0.0000000   0.0000000   0.0000000   0.0000000   0.0000000   0.0000000   0.0000000
 NMagM=    0.0000000   0.0000000   0.0000000   0.0000000   0.0000000   0.0000000   0.0000000   0.0000000   2.7928460   2.7928460
 AtZNuc=   6.0000000   6.0000000   6.0000000   6.0000000   6.0000000   6.0000000   8.0000000   6.0000000   1.0000000   1.0000000

  Atom        21          22          23          24          25          26          27
 IAtWgt=           1           1           1           1           1           1           1
 AtmWgt=   1.0078250   1.0078250   1.0078250   1.0078250   1.0078250   1.0078250   1.0078250
 NucSpn=           1           1           1           1           1           1           1
 AtZEff=  -0.0000000  -0.0000000  -0.0000000  -0.0000000  -0.0000000  -0.0000000  -0.0000000
 NQMom=    0.0000000   0.0000000   0.0000000   0.0000000   0.0000000   0.0000000   0.0000000
 NMagM=    2.7928460   2.7928460   2.7928460   2.7928460   2.7928460   2.7928460   2.7928460
 AtZNuc=   1.0000000   1.0000000   1.0000000   1.0000000   1.0000000   1.0000000   1.0000000
 Leave Link  101 at Wed Dec 27 19:44:47 2023, MaxMem=  4026531840 cpu:               2.8 elap:               0.7
 (Enter /sysapps/ubuntu-applications/gaussian/Gaussian/AVX2/g16/l103.exe)

 GradGradGradGradGradGradGradGradGradGradGradGradGradGradGradGradGradGrad
 Berny optimization.
 Initialization pass.
                           ----------------------------
                           !    Initial Parameters    !
                           ! (Angstroms and Degrees)  !
 --------------------------                            --------------------------
 ! Name  Definition              Value          Derivative Info.                !
 --------------------------------------------------------------------------------
 ! R1    R(1,2)                  1.3623         estimate D2E/DX2                !
 ! R2    R(1,19)                 1.0054         estimate D2E/DX2                !
 ! R3    R(1,20)                 1.0125         estimate D2E/DX2                !
 ! R4    R(2,3)                  1.4146         estimate D2E/DX2                !
 ! R5    R(2,18)                 1.4219         estimate D2E/DX2                !
 ! R6    R(3,4)                  1.3705         estimate D2E/DX2                !
 ! R7    R(3,21)                 1.085          estimate D2E/DX2                !
 ! R8    R(4,5)                  1.4079         estimate D2E/DX2                !
 ! R9    R(4,22)                 1.0867         estimate D2E/DX2                !
 ! R10   R(5,6)                  1.3594         estimate D2E/DX2                !
 ! R11   R(5,7)                  1.4009         estimate D2E/DX2                !
 ! R12   R(6,23)                 0.9637         estimate D2E/DX2                !
 ! R13   R(7,8)                  1.492          estimate D2E/DX2                !
 ! R14   R(7,18)                 1.4355         estimate D2E/DX2                !
 ! R15   R(8,9)                  1.2202         estimate D2E/DX2                !
 ! R16   R(8,10)                 1.4936         estimate D2E/DX2                !
 ! R17   R(10,11)                1.3995         estimate D2E/DX2                !
 ! R18   R(10,15)                1.3999         estimate D2E/DX2                !
 ! R19   R(11,12)                1.3884         estimate D2E/DX2                !
 ! R20   R(11,24)                1.0827         estimate D2E/DX2                !
 ! R21   R(12,13)                1.3991         estimate D2E/DX2                !
 ! R22   R(12,25)                1.0843         estimate D2E/DX2                !
 ! R23   R(13,14)                1.388          estimate D2E/DX2                !
 ! R24   R(13,26)                1.0842         estimate D2E/DX2                !
 ! R25   R(14,15)                1.4007         estimate D2E/DX2                !
 ! R26   R(14,27)                1.0825         estimate D2E/DX2                !
 ! R27   R(15,16)                1.4853         estimate D2E/DX2                !
 ! R28   R(16,17)                1.2376         estimate D2E/DX2                !
 ! R29   R(16,18)                1.4716         estimate D2E/DX2                !
 ! A1    A(2,1,19)             119.4926         estimate D2E/DX2                !
 ! A2    A(2,1,20)             117.9993         estimate D2E/DX2                !
 ! A3    A(19,1,20)            121.0436         estimate D2E/DX2                !
 ! A4    A(1,2,3)              118.6169         estimate D2E/DX2                !
 ! A5    A(1,2,18)             123.231          estimate D2E/DX2                !
 ! A6    A(3,2,18)             118.145          estimate D2E/DX2                !
 ! A7    A(2,3,4)              121.2057         estimate D2E/DX2                !
 ! A8    A(2,3,21)             118.9641         estimate D2E/DX2                !
 ! A9    A(4,3,21)             119.8297         estimate D2E/DX2                !
 ! A10   A(3,4,5)              121.5695         estimate D2E/DX2                !
 ! A11   A(3,4,22)             119.5086         estimate D2E/DX2                !
 ! A12   A(5,4,22)             118.9217         estimate D2E/DX2                !
 ! A13   A(4,5,6)              119.4047         estimate D2E/DX2                !
 ! A14   A(4,5,7)              119.3814         estimate D2E/DX2                !
 ! A15   A(6,5,7)              121.2137         estimate D2E/DX2                !
 ! A16   A(5,6,23)             108.8439         estimate D2E/DX2                !
 ! A17   A(5,7,8)              120.059          estimate D2E/DX2                !
 ! A18   A(5,7,18)             119.4068         estimate D2E/DX2                !
 ! A19   A(8,7,18)             120.5341         estimate D2E/DX2                !
 ! A20   A(7,8,9)              122.7259         estimate D2E/DX2                !
 ! A21   A(7,8,10)             117.6516         estimate D2E/DX2                !
 ! A22   A(9,8,10)             119.6224         estimate D2E/DX2                !
 ! A23   A(8,10,11)            118.8342         estimate D2E/DX2                !
 ! A24   A(8,10,15)            121.4236         estimate D2E/DX2                !
 ! A25   A(11,10,15)           119.7422         estimate D2E/DX2                !
 ! A26   A(10,11,12)           120.1595         estimate D2E/DX2                !
 ! A27   A(10,11,24)           118.3361         estimate D2E/DX2                !
 ! A28   A(12,11,24)           121.5045         estimate D2E/DX2                !
 ! A29   A(11,12,13)           120.0975         estimate D2E/DX2                !
 ! A30   A(11,12,25)           119.9204         estimate D2E/DX2                !
 ! A31   A(13,12,25)           119.9821         estimate D2E/DX2                !
 ! A32   A(12,13,14)           120.076          estimate D2E/DX2                !
 ! A33   A(12,13,26)           119.9999         estimate D2E/DX2                !
 ! A34   A(14,13,26)           119.9241         estimate D2E/DX2                !
 ! A35   A(13,14,15)           120.0928         estimate D2E/DX2                !
 ! A36   A(13,14,27)           121.4209         estimate D2E/DX2                !
 ! A37   A(15,14,27)           118.4863         estimate D2E/DX2                !
 ! A38   A(10,15,14)           119.832          estimate D2E/DX2                !
 ! A39   A(10,15,16)           120.9801         estimate D2E/DX2                !
 ! A40   A(14,15,16)           119.1877         estimate D2E/DX2                !
 ! A41   A(15,16,17)           118.9585         estimate D2E/DX2                !
 ! A42   A(15,16,18)           118.7858         estimate D2E/DX2                !
 ! A43   A(17,16,18)           122.2555         estimate D2E/DX2                !
 ! A44   A(2,18,7)             120.2883         estimate D2E/DX2                !
 ! A45   A(2,18,16)            119.0925         estimate D2E/DX2                !
 ! A46   A(7,18,16)            120.616          estimate D2E/DX2                !
 ! D1    D(19,1,2,3)             8.7532         estimate D2E/DX2                !
 ! D2    D(19,1,2,18)         -172.2364         estimate D2E/DX2                !
 ! D3    D(20,1,2,3)           175.0963         estimate D2E/DX2                !
 ! D4    D(20,1,2,18)           -5.8933         estimate D2E/DX2                !
 ! D5    D(1,2,3,4)            178.6793         estimate D2E/DX2                !
 ! D6    D(1,2,3,21)            -1.0572         estimate D2E/DX2                !
 ! D7    D(18,2,3,4)            -0.3819         estimate D2E/DX2                !
 ! D8    D(18,2,3,21)          179.8815         estimate D2E/DX2                !
 ! D9    D(1,2,18,7)          -178.365          estimate D2E/DX2                !
 ! D10   D(1,2,18,16)            2.2855         estimate D2E/DX2                !
 ! D11   D(3,2,18,7)             0.6498         estimate D2E/DX2                !
 ! D12   D(3,2,18,16)         -178.6997         estimate D2E/DX2                !
 ! D13   D(2,3,4,5)             -0.1269         estimate D2E/DX2                !
 ! D14   D(2,3,4,22)          -179.9732         estimate D2E/DX2                !
 ! D15   D(21,3,4,5)           179.6073         estimate D2E/DX2                !
 ! D16   D(21,3,4,22)           -0.2389         estimate D2E/DX2                !
 ! D17   D(3,4,5,6)           -179.7515         estimate D2E/DX2                !
 ! D18   D(3,4,5,7)              0.3672         estimate D2E/DX2                !
 ! D19   D(22,4,5,6)             0.0955         estimate D2E/DX2                !
 ! D20   D(22,4,5,7)          -179.7857         estimate D2E/DX2                !
 ! D21   D(4,5,6,23)            -0.1651         estimate D2E/DX2                !
 ! D22   D(7,5,6,23)           179.7139         estimate D2E/DX2                !
 ! D23   D(4,5,7,8)            179.8704         estimate D2E/DX2                !
 ! D24   D(4,5,7,18)            -0.0891         estimate D2E/DX2                !
 ! D25   D(6,5,7,8)             -0.0087         estimate D2E/DX2                !
 ! D26   D(6,5,7,18)          -179.9681         estimate D2E/DX2                !
 ! D27   D(5,7,8,9)              1.0728         estimate D2E/DX2                !
 ! D28   D(5,7,8,10)          -178.8986         estimate D2E/DX2                !
 ! D29   D(18,7,8,9)          -178.9682         estimate D2E/DX2                !
 ! D30   D(18,7,8,10)            1.0604         estimate D2E/DX2                !
 ! D31   D(5,7,18,2)            -0.4206         estimate D2E/DX2                !
 ! D32   D(5,7,18,16)          178.919          estimate D2E/DX2                !
 ! D33   D(8,7,18,2)           179.6202         estimate D2E/DX2                !
 ! D34   D(8,7,18,16)           -1.0403         estimate D2E/DX2                !
 ! D35   D(7,8,10,11)          179.5378         estimate D2E/DX2                !
 ! D36   D(7,8,10,15)           -0.4337         estimate D2E/DX2                !
 ! D37   D(9,8,10,11)           -0.4345         estimate D2E/DX2                !
 ! D38   D(9,8,10,15)          179.594          estimate D2E/DX2                !
 ! D39   D(8,10,11,12)        -179.9213         estimate D2E/DX2                !
 ! D40   D(8,10,11,24)           0.0522         estimate D2E/DX2                !
 ! D41   D(15,10,11,12)          0.0507         estimate D2E/DX2                !
 ! D42   D(15,10,11,24)       -179.9757         estimate D2E/DX2                !
 ! D43   D(8,10,15,14)         179.9427         estimate D2E/DX2                !
 ! D44   D(8,10,15,16)          -0.2132         estimate D2E/DX2                !
 ! D45   D(11,10,15,14)         -0.0286         estimate D2E/DX2                !
 ! D46   D(11,10,15,16)        179.8155         estimate D2E/DX2                !
 ! D47   D(10,11,12,13)         -0.0366         estimate D2E/DX2                !
 ! D48   D(10,11,12,25)        179.971          estimate D2E/DX2                !
 ! D49   D(24,11,12,13)        179.9907         estimate D2E/DX2                !
 ! D50   D(24,11,12,25)         -0.0018         estimate D2E/DX2                !
 ! D51   D(11,12,13,14)          0.0002         estimate D2E/DX2                !
 ! D52   D(11,12,13,26)       -179.9812         estimate D2E/DX2                !
 ! D53   D(25,12,13,14)        179.9927         estimate D2E/DX2                !
 ! D54   D(25,12,13,26)          0.0112         estimate D2E/DX2                !
 ! D55   D(12,13,14,15)          0.0218         estimate D2E/DX2                !
 ! D56   D(12,13,14,27)       -179.9328         estimate D2E/DX2                !
 ! D57   D(26,13,14,15)       -179.9967         estimate D2E/DX2                !
 ! D58   D(26,13,14,27)          0.0486         estimate D2E/DX2                !
 ! D59   D(13,14,15,10)         -0.0075         estimate D2E/DX2                !
 ! D60   D(13,14,15,16)       -179.8544         estimate D2E/DX2                !
 ! D61   D(27,14,15,10)        179.9485         estimate D2E/DX2                !
 ! D62   D(27,14,15,16)          0.1016         estimate D2E/DX2                !
 ! D63   D(10,15,16,17)       -179.8946         estimate D2E/DX2                !
 ! D64   D(10,15,16,18)          0.2588         estimate D2E/DX2                !
 ! D65   D(14,15,16,17)         -0.0495         estimate D2E/DX2                !
 ! D66   D(14,15,16,18)       -179.8961         estimate D2E/DX2                !
 ! D67   D(15,16,18,2)         179.7232         estimate D2E/DX2                !
 ! D68   D(15,16,18,7)           0.3758         estimate D2E/DX2                !
 ! D69   D(17,16,18,2)          -0.1181         estimate D2E/DX2                !
 ! D70   D(17,16,18,7)        -179.4655         estimate D2E/DX2                !
 --------------------------------------------------------------------------------
 Trust Radius=3.00D-01 FncErr=1.00D-07 GrdErr=1.00D-06 EigMax=2.50D+02 EigMin=1.00D-04
 Number of steps in this run=    155 maximum allowed number of steps=    162.
 GradGradGradGradGradGradGradGradGradGradGradGradGradGradGradGradGradGrad

 Leave Link  103 at Wed Dec 27 19:44:47 2023, MaxMem=  4026531840 cpu:               0.3 elap:               0.1
 (Enter /sysapps/ubuntu-applications/gaussian/Gaussian/AVX2/g16/l202.exe)
                          Input orientation:                          
 ---------------------------------------------------------------------
 Center     Atomic      Atomic             Coordinates (Angstroms)
 Number     Number       Type             X           Y           Z
 ---------------------------------------------------------------------
      1          7           0       -2.591494   -2.276877    0.432078
      2          6           0       -2.333964   -0.966880    0.161072
      3          6           0       -3.425249   -0.087756   -0.032235
      4          6           0       -3.227654    1.245405   -0.281016
      5          6           0       -1.934819    1.798152   -0.352460
      6          8           0       -1.789888    3.127541   -0.596672
      7          6           0       -0.821197    0.967316   -0.173004
      8          6           0        0.555887    1.536632   -0.248489
      9          8           0        0.769901    2.721759   -0.444922
     10          6           0        1.704497    0.598033   -0.074059
     11          6           0        3.007106    1.103985   -0.150019
     12          6           0        4.095094    0.255786    0.006408
     13          6           0        3.892991   -1.108579    0.241458
     14          6           0        2.604004   -1.617646    0.318854
     15          6           0        1.502303   -0.767019    0.161416
     16          6           0        0.131861   -1.332568    0.251275
     17          8           0       -0.003595   -2.544450    0.462613
     18          6           0       -1.019141   -0.431343    0.082212
     19          1           0       -3.533198   -2.621521    0.359418
     20          1           0       -1.806034   -2.912836    0.493811
     21          1           0       -4.434279   -0.482673    0.023143
     22          1           0       -4.086062    1.896031   -0.424844
     23          1           0       -2.663177    3.523071   -0.694382
     24          1           0        3.137152    2.163275   -0.332587
     25          1           0        5.102648    0.651841   -0.053644
     26          1           0        4.743774   -1.769480    0.363681
     27          1           0        2.422531   -2.669199    0.500894
 ---------------------------------------------------------------------
                    Distance matrix (angstroms):
                    1          2          3          4          5
     1  N    0.000000
     2  C    1.362299   0.000000
     3  C    2.388092   1.414613   0.000000
     4  C    3.649613   2.426588   1.370494   0.000000
     5  C    4.201498   2.840499   2.424990   1.407855   0.000000
     6  O    5.559553   4.199343   3.651182   2.389403   1.359382
     7  C    3.744978   2.478141   2.813197   2.424878   1.400945
     8  C    4.991195   3.845329   4.305211   3.794872   2.506555
     9  O    6.087238   4.858731   5.065863   4.264614   2.859565
    10  C    5.193922   4.337442   5.175553   4.978758   3.842189
    11  C    6.566078   5.736923   6.542882   6.237739   4.994544
    12  C    7.162823   6.546115   7.528285   7.394903   6.234383
    13  C    6.591646   6.229086   7.394161   7.517832   6.539510
    14  C    5.238378   4.983164   6.230226   6.524197   5.720075
    15  C    4.371739   3.841470   4.977918   5.159272   4.319488
    16  C    2.888091   2.494425   3.779281   4.267976   3.799614
    17  O    2.601874   2.830243   4.241219   5.030958   4.822050
    18  C    2.449632   1.421893   2.433209   2.796596   2.449092
    19  H    1.005418   2.053129   2.566127   3.931492   4.753430
    20  H    1.012523   2.043568   3.298433   4.462323   4.788128
    21  H    2.604276   2.159816   1.084974   2.129486   3.404488
    22  H    4.514555   3.407258   2.127493   1.086676   2.154685
    23  H    5.908760   4.582559   3.749302   2.382702   1.903355
    24  H    7.288144   6.322553   6.944239   6.430855   5.085135
    25  H    8.247008   7.613774   8.559935   8.354517   7.136474
    26  H    7.353114   7.125980   8.349723   8.546861   7.605555
    27  H    5.029821   5.063360   6.414406   6.918099   6.298566
                    6          7          8          9         10
     6  O    0.000000
     7  C    2.405084   0.000000
     8  C    2.855676   1.492039   0.000000
     9  O    2.596191   2.384031   1.220211   0.000000
    10  C    4.345372   2.554465   1.493552   2.349728   0.000000
    11  C    5.225460   3.830811   2.491055   2.776553   1.399481
    12  C    6.575994   4.970753   3.772469   4.164328   2.416312
    13  C    7.137387   5.167658   4.286427   4.989619   2.793131
    14  C    6.531560   4.319254   3.803437   4.772601   2.423371
    15  C    5.155659   2.918631   2.523992   3.616024   1.399892
    16  C    4.929980   2.525430   2.943106   4.162854   2.511224
    17  O    6.040233   3.661282   4.180181   5.399525   3.616738
    18  C    3.704131   1.435466   2.542243   3.663413   2.915860
    19  H    6.083170   4.529699   5.863480   6.907551   6.163350
    20  H    6.138043   4.058340   5.091900   6.266205   4.997250
    21  H    4.517811   3.898115   5.390096   6.129515   6.233935
    22  H    2.611237   3.403715   4.659180   4.925709   5.944613
    23  H    0.963652   3.193213   3.808823   3.534170   5.293130
    24  H    5.027452   4.138153   2.657571   2.434831   2.137597
    25  H    7.343774   5.933440   4.636147   4.817713   3.398638
    26  H    8.221425   6.224708   5.370617   6.051176   3.877362
    27  H    7.249229   4.919365   4.662076   5.717358   3.394252
                   11         12         13         14         15
    11  C    0.000000
    12  C    1.388391   0.000000
    13  C    2.415261   1.399138   0.000000
    14  C    2.790987   2.414688   1.388030   0.000000
    15  C    2.421173   2.791545   2.416290   1.400749   0.000000
    16  C    3.790100   4.276686   3.767807   2.489443   1.485272
    17  O    4.769771   4.984847   4.158608   2.771138   2.348980
    18  C    4.315302   5.160745   4.961154   3.819751   2.544923
    19  H    7.544170   8.160536   7.579656   6.218895   5.369791
    20  H    6.302038   6.715731   5.983136   4.599626   3.957286
    21  H    7.610629   8.561297   8.353613   7.135337   5.944996
    22  H    7.142541   8.355100   8.552013   7.593155   6.218148
    23  H    6.188733   7.539263   8.081542   7.429456   6.040570
    24  H    1.082746   2.161269   3.406736   3.873498   3.391665
    25  H    2.145931   1.084265   2.156255   3.395961   3.875809
    26  H    3.396572   2.156416   1.084233   2.145618   3.398967
    27  H    3.873285   3.405513   2.159883   1.082513   2.140176
                   16         17         18         19         20
    16  C    0.000000
    17  O    1.237607   0.000000
    18  C    1.471596   2.375134   0.000000
    19  H    3.886612   3.531952   3.345774   0.000000
    20  H    2.512271   1.839964   2.635607   1.756708   0.000000
    21  H    4.650161   4.906630   3.416034   2.345144   3.610387
    22  H    5.354611   6.096883   3.883269   4.618333   5.400709
    23  H    5.681878   6.725089   4.352395   6.294715   6.600560
    24  H    4.646890   5.714832   4.917202   8.238126   7.133367
    25  H    5.360931   6.046198   6.218364   9.244639   7.793364
    26  H    4.633926   4.811224   5.922924   8.320713   6.650126
    27  H    2.663843   2.429633   4.126548   5.957600   4.235584
                   21         22         23         24         25
    21  H    0.000000
    22  H    2.445441   0.000000
    23  H    4.438201   2.178190   0.000000
    24  H    8.028334   7.228745   5.968564   0.000000
    25  H    9.604478   9.279989   8.304369   2.495078   0.000000
    26  H    9.274077   9.592901   9.164798   4.304949   2.483092
    27  H    7.212835   8.003755   8.101686   4.955621   4.303469
                   26         27
    26  H    0.000000
    27  H    2.493289   0.000000
 Symmetry turned off by external request.
 Stoichiometry    C14H9NO3
 Framework group  C1[X(C14H9NO3)]
 Deg. of freedom    75
 Full point group                 C1      NOp   1
 Rotational constants (GHZ):           0.7131785           0.3804665           0.2481251
 Leave Link  202 at Wed Dec 27 19:44:48 2023, MaxMem=  4026531840 cpu:               0.4 elap:               0.3
 (Enter /sysapps/ubuntu-applications/gaussian/Gaussian/AVX2/g16/l301.exe)
 Standard basis: 6-311++G(d,p) (5D, 7F)
 Ernie: Thresh=  0.10000D-02 Tol=  0.10000D-05 Strict=F.
   459 basis functions,   729 primitive gaussians,   477 cartesian basis functions
    62 alpha electrons       62 beta electrons
       nuclear repulsion energy      1234.4093641764 Hartrees.
 IExCor=  402 DFT=T Ex+Corr=B3LYP ExCW=0 ScaHFX=  0.200000
 ScaDFX=  0.800000  0.720000  1.000000  0.810000 ScalE2=  1.000000  1.000000
 IRadAn=      5 IRanWt=     -1 IRanGd=            0 ICorTp=0 IEmpDi=  4
 NAtoms=   27 NActive=   27 NUniq=   27 SFac= 1.00D+00 NAtFMM=   60 NAOKFM=F Big=F
 Integral buffers will be    131072 words long.
 Raffenetti 2 integral format.
 Two-electron integral symmetry is turned off.
 Leave Link  301 at Wed Dec 27 19:44:48 2023, MaxMem=  4026531840 cpu:               0.7 elap:               0.2
 (Enter /sysapps/ubuntu-applications/gaussian/Gaussian/AVX2/g16/l302.exe)
 NPDir=0 NMtPBC=     1 NCelOv=     1 NCel=       1 NClECP=     1 NCelD=      1
         NCelK=      1 NCelE2=     1 NClLst=     1 CellRange=     0.0.
 One-electron integrals computed using PRISM.
 NBasis=   459 RedAO= T EigKep=  1.27D-06  NBF=   459
 NBsUse=   452 1.00D-06 EigRej=  6.63D-07 NBFU=   452
 Precomputing XC quadrature grid using
 IXCGrd= 4 IRadAn=           5 IRanWt=          -1 IRanGd=           0 AccXCQ= 0.00D+00.
 Generated NRdTot=       0 NPtTot=           0 NUsed=           0 NTot=          32
 NSgBfM=   476   476   476   476   476 MxSgAt=    27 MxSgA2=    27.
 Leave Link  302 at Wed Dec 27 19:44:51 2023, MaxMem=  4026531840 cpu:              15.1 elap:               3.5
 (Enter /sysapps/ubuntu-applications/gaussian/Gaussian/AVX2/g16/l303.exe)
 DipDrv:  MaxL=1.
 Leave Link  303 at Wed Dec 27 19:44:52 2023, MaxMem=  4026531840 cpu:               1.6 elap:               0.5
 (Enter /sysapps/ubuntu-applications/gaussian/Gaussian/AVX2/g16/l401.exe)
 ExpMin= 3.60D-02 ExpMax= 8.59D+03 ExpMxC= 1.30D+03 IAcc=3 IRadAn=         5 AccDes= 0.00D+00
 Harris functional with IExCor=  402 and IRadAn=       5 diagonalized for initial guess.
 HarFok:  IExCor=  402 AccDes= 0.00D+00 IRadAn=         5 IDoV= 1 UseB2=F ITyADJ=14
 ICtDFT=  3500011 ScaDFX=  1.000000  1.000000  1.000000  1.000000
 FoFCou: FMM=F IPFlag=           0 FMFlag=      100000 FMFlg1=           0
         NFxFlg=           0 DoJE=T BraDBF=F KetDBF=T FulRan=T
         wScrn=  0.000000 ICntrl=       500 IOpCl=  0 I1Cent=   200000004 NGrid=           0
         NMat0=    1 NMatS0=      1 NMatT0=    0 NMatD0=    1 NMtDS0=    0 NMtDT0=    0
 Symmetry not used in FoFCou.
 Harris En= -819.592155790576    
 JPrj=0 DoOrth=F DoCkMO=F.
 Initial guess <Sx>= 0.0000 <Sy>= 0.0000 <Sz>= 0.0000 <S**2>=-0.0000 S=-0.0000
 Leave Link  401 at Wed Dec 27 19:44:59 2023, MaxMem=  4026531840 cpu:              50.2 elap:               6.8
 (Enter /sysapps/ubuntu-applications/gaussian/Gaussian/AVX2/g16/l502.exe)
 Two-electron integral symmetry not used.
 UHF open shell SCF:
 Using DIIS extrapolation, IDIIS=  1040.
 NGot=  4026531840 LenX=  4026069626 LenY=  4025841620
 Requested convergence on RMS density matrix=1.00D-08 within 128 cycles.
 Requested convergence on MAX density matrix=1.00D-06.
 Requested convergence on             energy=1.00D-06.
 No special actions if energy rises.
 Fock matrices will be formed incrementally for  20 cycles.

 Cycle   1  Pass 1  IDiag  1:
 FoFJK:  IHMeth= 1 ICntrl=       0 DoSepK=F KAlg= 0 I1Cent=           0 FoldK=F
 IRaf= 860000000 NMat=       1 IRICut=       1 DoRegI=T DoRafI=F ISym2E= 0 IDoP0=0 IntGTp=1.
 FoFCou: FMM=F IPFlag=           0 FMFlag=      100000 FMFlg1=           0
         NFxFlg=           0 DoJE=F BraDBF=F KetDBF=F FulRan=T
         wScrn=  0.000000 ICntrl=         0 IOpCl=  1 I1Cent=           0 NGrid=           0
         NMat0=    1 NMatS0=      1 NMatT0=    0 NMatD0=    1 NMtDS0=    0 NMtDT0=    0
 Symmetry not used in FoFCou.
 E= -819.170177056767    
 DIIS: error= 3.50D-02 at cycle   1 NSaved=   1.
 NSaved= 1 IEnMin= 1 EnMin= -819.170177056767     IErMin= 1 ErrMin= 3.50D-02
 ErrMax= 3.50D-02  0.00D+00 EMaxC= 1.00D-01 BMatC= 2.07D+00 BMatP= 2.07D+00
 IDIUse=3 WtCom= 6.50D-01 WtEn= 3.50D-01
 Coeff-Com:  0.100D+01
 Coeff-En:   0.100D+01
 Coeff:      0.100D+01
 Gap=     0.112 Goal=   None    Shift=    0.000
 Gap=     0.112 Goal=   None    Shift=    0.000
 GapD=    0.112 DampG=1.000 DampE=0.500 DampFc=0.5000 IDamp=-1.
 Damping current iteration by 5.00D-01
 RMSDP=2.43D-02 MaxDP=1.95D+00              OVMax= 2.58D-01

 Cycle   2  Pass 1  IDiag  1:
 RMSU=  1.17D-02    CP:  1.05D+00
 E= -819.288908020008     Delta-E=       -0.118730963241 Rises=F Damp=T
 DIIS: error= 1.39D-02 at cycle   2 NSaved=   2.
 NSaved= 2 IEnMin= 2 EnMin= -819.288908020008     IErMin= 2 ErrMin= 1.39D-02
 ErrMax= 1.39D-02  0.00D+00 EMaxC= 1.00D-01 BMatC= 3.14D-01 BMatP= 2.07D+00
 IDIUse=3 WtCom= 8.61D-01 WtEn= 1.39D-01
 Coeff-Com:  0.189D+00 0.811D+00
 Coeff-En:   0.316D+00 0.684D+00
 Coeff:      0.207D+00 0.793D+00
 Gap=     0.245 Goal=   None    Shift=    0.000
 Gap=     0.245 Goal=   None    Shift=    0.000
 RMSDP=1.06D-02 MaxDP=6.25D-01 DE=-1.19D-01 OVMax= 2.49D-01

 Cycle   3  Pass 1  IDiag  1:
 RMSU=  7.52D-03    CP:  1.06D+00  3.63D-01
 E= -819.489197705420     Delta-E=       -0.200289685412 Rises=F Damp=F
 DIIS: error= 1.95D-02 at cycle   3 NSaved=   3.
 NSaved= 3 IEnMin= 3 EnMin= -819.489197705420     IErMin= 2 ErrMin= 1.39D-02
 ErrMax= 1.95D-02  0.00D+00 EMaxC= 1.00D-01 BMatC= 3.94D-01 BMatP= 3.14D-01
 IDIUse=2 WtCom= 0.00D+00 WtEn= 1.00D+00
 Coeff-En:   0.000D+00 0.000D+00 0.100D+01
 Coeff:      0.000D+00 0.000D+00 0.100D+01
 Gap=     0.115 Goal=   None    Shift=    0.000
 Gap=     0.115 Goal=   None    Shift=    0.000
 RMSDP=1.30D-02 MaxDP=6.58D-01 DE=-2.00D-01 OVMax= 2.61D-01

 Cycle   4  Pass 1  IDiag  1:
 RMSU=  7.95D-03    CP:  1.06D+00  9.70D-01 -1.09D-03
 E= -819.001964324994     Delta-E=        0.487233380426 Rises=F Damp=F
 DIIS: error= 6.47D-02 at cycle   4 NSaved=   4.
 NSaved= 4 IEnMin= 3 EnMin= -819.489197705420     IErMin= 2 ErrMin= 1.39D-02
 ErrMax= 6.47D-02  0.00D+00 EMaxC= 1.00D-01 BMatC= 2.82D+00 BMatP= 3.14D-01
 IDIUse=2 WtCom= 0.00D+00 WtEn= 1.00D+00
 Coeff-En:   0.000D+00 0.000D+00 0.815D+00 0.185D+00
 Coeff:      0.000D+00 0.000D+00 0.815D+00 0.185D+00
 Gap=     0.126 Goal=   None    Shift=    0.000
 Gap=     0.126 Goal=   None    Shift=    0.000
 RMSDP=7.40D-03 MaxDP=5.07D-01 DE= 4.87D-01 OVMax= 1.20D-01

 Cycle   5  Pass 1  IDiag  1:
 RMSU=  1.20D-03    CP:  1.04D+00  5.73D-01  5.01D-01  4.95D-01
 E= -819.524372856406     Delta-E=       -0.522408531412 Rises=F Damp=F
 DIIS: error= 1.71D-02 at cycle   5 NSaved=   5.
 NSaved= 5 IEnMin= 5 EnMin= -819.524372856406     IErMin= 2 ErrMin= 1.39D-02
 ErrMax= 1.71D-02  0.00D+00 EMaxC= 1.00D-01 BMatC= 2.36D-01 BMatP= 3.14D-01
 IDIUse=3 WtCom= 8.29D-01 WtEn= 1.71D-01
 Coeff-Com:  0.429D-03 0.323D-01 0.326D+00-0.105D+00 0.746D+00
 Coeff-En:   0.000D+00 0.000D+00 0.402D+00 0.000D+00 0.598D+00
 Coeff:      0.356D-03 0.268D-01 0.339D+00-0.867D-01 0.721D+00
 Gap=     0.109 Goal=   None    Shift=    0.000
 Gap=     0.109 Goal=   None    Shift=    0.000
 RMSDP=2.81D-03 MaxDP=1.82D-01 DE=-5.22D-01 OVMax= 4.59D-02

 Cycle   6  Pass 1  IDiag  1:
 RMSU=  4.05D-04    CP:  1.03D+00  4.57D-01  6.94D-01  2.64D-01  7.44D-01
 E= -819.572479528247     Delta-E=       -0.048106671840 Rises=F Damp=F
 DIIS: error= 4.74D-04 at cycle   6 NSaved=   6.
 NSaved= 6 IEnMin= 6 EnMin= -819.572479528247     IErMin= 6 ErrMin= 4.74D-04
 ErrMax= 4.74D-04  0.00D+00 EMaxC= 1.00D-01 BMatC= 3.45D-04 BMatP= 2.36D-01
 IDIUse=3 WtCom= 9.95D-01 WtEn= 4.74D-03
 Coeff-Com: -0.214D-02 0.122D-01 0.131D+00-0.522D-01 0.343D+00 0.569D+00
 Coeff-En:   0.000D+00 0.000D+00 0.000D+00 0.000D+00 0.000D+00 0.100D+01
 Coeff:     -0.213D-02 0.122D-01 0.130D+00-0.519D-01 0.341D+00 0.571D+00
 Gap=     0.109 Goal=   None    Shift=    0.000
 Gap=     0.109 Goal=   None    Shift=    0.000
 RMSDP=1.43D-04 MaxDP=9.21D-03 DE=-4.81D-02 OVMax= 5.05D-03

 Cycle   7  Pass 1  IDiag  1:
 RMSU=  1.10D-04    CP:  1.03D+00  4.60D-01  6.92D-01  2.71D-01  7.50D-01
                    CP:  9.51D-01
 E= -819.572535416166     Delta-E=       -0.000055887919 Rises=F Damp=F
 DIIS: error= 2.92D-04 at cycle   7 NSaved=   7.
 NSaved= 7 IEnMin= 7 EnMin= -819.572535416166     IErMin= 7 ErrMin= 2.92D-04
 ErrMax= 2.92D-04  0.00D+00 EMaxC= 1.00D-01 BMatC= 8.75D-05 BMatP= 3.45D-04
 IDIUse=3 WtCom= 9.97D-01 WtEn= 2.92D-03
 Coeff-Com: -0.399D-03-0.555D-03 0.275D-01-0.101D-01 0.707D-01 0.342D+00
 Coeff-Com:  0.571D+00
 Coeff-En:   0.000D+00 0.000D+00 0.000D+00 0.000D+00 0.000D+00 0.252D+00
 Coeff-En:   0.748D+00
 Coeff:     -0.398D-03-0.553D-03 0.274D-01-0.101D-01 0.705D-01 0.342D+00
 Coeff:      0.571D+00
 Gap=     0.109 Goal=   None    Shift=    0.000
 Gap=     0.109 Goal=   None    Shift=    0.000
 RMSDP=9.00D-05 MaxDP=4.58D-03 DE=-5.59D-05 OVMax= 2.34D-03

 Cycle   8  Pass 1  IDiag  1:
 RMSU=  3.75D-05    CP:  1.03D+00  4.57D-01  6.96D-01  2.73D-01  7.59D-01
                    CP:  8.50D-01  4.92D-01
 E= -819.572555454894     Delta-E=       -0.000020038728 Rises=F Damp=F
 DIIS: error= 8.70D-05 at cycle   8 NSaved=   8.
 NSaved= 8 IEnMin= 8 EnMin= -819.572555454894     IErMin= 8 ErrMin= 8.70D-05
 ErrMax= 8.70D-05  0.00D+00 EMaxC= 1.00D-01 BMatC= 5.03D-06 BMatP= 8.75D-05
 IDIUse=1 WtCom= 1.00D+00 WtEn= 0.00D+00
 Coeff-Com: -0.113D-03-0.607D-03 0.118D-01-0.465D-02 0.308D-01 0.173D+00
 Coeff-Com:  0.321D+00 0.468D+00
 Coeff:     -0.113D-03-0.607D-03 0.118D-01-0.465D-02 0.308D-01 0.173D+00
 Coeff:      0.321D+00 0.468D+00
 Gap=     0.109 Goal=   None    Shift=    0.000
 Gap=     0.109 Goal=   None    Shift=    0.000
 RMSDP=2.14D-05 MaxDP=1.10D-03 DE=-2.00D-05 OVMax= 9.32D-04

 Cycle   9  Pass 1  IDiag  1:
 RMSU=  9.13D-06    CP:  1.03D+00  4.57D-01  6.96D-01  2.72D-01  7.52D-01
                    CP:  8.77D-01  5.58D-01  7.24D-01
 E= -819.572556581105     Delta-E=       -0.000001126212 Rises=F Damp=F
 DIIS: error= 3.36D-05 at cycle   9 NSaved=   9.
 NSaved= 9 IEnMin= 9 EnMin= -819.572556581105     IErMin= 9 ErrMin= 3.36D-05
 ErrMax= 3.36D-05  0.00D+00 EMaxC= 1.00D-01 BMatC= 1.09D-06 BMatP= 5.03D-06
 IDIUse=1 WtCom= 1.00D+00 WtEn= 0.00D+00
 Coeff-Com:  0.744D-04-0.403D-03 0.331D-03-0.117D-03 0.202D-03 0.347D-01
 Coeff-Com:  0.868D-01 0.329D+00 0.549D+00
 Coeff:      0.744D-04-0.403D-03 0.331D-03-0.117D-03 0.202D-03 0.347D-01
 Coeff:      0.868D-01 0.329D+00 0.549D+00
 Gap=     0.109 Goal=   None    Shift=    0.000
 Gap=     0.109 Goal=   None    Shift=    0.000
 RMSDP=1.01D-05 MaxDP=5.98D-04 DE=-1.13D-06 OVMax= 2.48D-04

 Cycle  10  Pass 1  IDiag  1:
 RMSU=  5.71D-06    CP:  1.03D+00  4.57D-01  6.96D-01  2.72D-01  7.55D-01
                    CP:  8.71D-01  5.37D-01  7.80D-01  7.90D-01
 E= -819.572556818520     Delta-E=       -0.000000237414 Rises=F Damp=F
 DIIS: error= 6.13D-06 at cycle  10 NSaved=  10.
 NSaved=10 IEnMin=10 EnMin= -819.572556818520     IErMin=10 ErrMin= 6.13D-06
 ErrMax= 6.13D-06  0.00D+00 EMaxC= 1.00D-01 BMatC= 5.27D-08 BMatP= 1.09D-06
 IDIUse=1 WtCom= 1.00D+00 WtEn= 0.00D+00
 Coeff-Com:  0.362D-04-0.114D-03-0.365D-03 0.635D-04-0.106D-02 0.875D-02
 Coeff-Com:  0.262D-01 0.158D+00 0.298D+00 0.510D+00
 Coeff:      0.362D-04-0.114D-03-0.365D-03 0.635D-04-0.106D-02 0.875D-02
 Coeff:      0.262D-01 0.158D+00 0.298D+00 0.510D+00
 Gap=     0.109 Goal=   None    Shift=    0.000
 Gap=     0.109 Goal=   None    Shift=    0.000
 RMSDP=2.03D-06 MaxDP=1.65D-04 DE=-2.37D-07 OVMax= 8.22D-05

 Cycle  11  Pass 1  IDiag  1:
 RMSU=  1.08D-06    CP:  1.03D+00  4.57D-01  6.96D-01  2.72D-01  7.55D-01
                    CP:  8.71D-01  5.41D-01  7.86D-01  7.10D-01  8.23D-01
 E= -819.572556829756     Delta-E=       -0.000000011236 Rises=F Damp=F
 DIIS: error= 3.44D-06 at cycle  11 NSaved=  11.
 NSaved=11 IEnMin=11 EnMin= -819.572556829756     IErMin=11 ErrMin= 3.44D-06
 ErrMax= 3.44D-06  0.00D+00 EMaxC= 1.00D-01 BMatC= 1.19D-08 BMatP= 5.27D-08
 IDIUse=1 WtCom= 1.00D+00 WtEn= 0.00D+00
 Coeff-Com:  0.799D-05-0.122D-04-0.311D-03 0.838D-04-0.781D-03 0.203D-03
 Coeff-Com:  0.195D-02 0.479D-01 0.876D-01 0.333D+00 0.530D+00
 Coeff:      0.799D-05-0.122D-04-0.311D-03 0.838D-04-0.781D-03 0.203D-03
 Coeff:      0.195D-02 0.479D-01 0.876D-01 0.333D+00 0.530D+00
 Gap=     0.109 Goal=   None    Shift=    0.000
 Gap=     0.109 Goal=   None    Shift=    0.000
 RMSDP=8.74D-07 MaxDP=5.50D-05 DE=-1.12D-08 OVMax= 2.11D-05

 Cycle  12  Pass 1  IDiag  1:
 RMSU=  4.60D-07    CP:  1.03D+00  4.57D-01  6.96D-01  2.72D-01  7.55D-01
                    CP:  8.71D-01  5.38D-01  7.91D-01  7.29D-01  8.39D-01
                    CP:  7.38D-01
 E= -819.572556832696     Delta-E=       -0.000000002940 Rises=F Damp=F
 DIIS: error= 9.48D-07 at cycle  12 NSaved=  12.
 NSaved=12 IEnMin=12 EnMin= -819.572556832696     IErMin=12 ErrMin= 9.48D-07
 ErrMax= 9.48D-07  0.00D+00 EMaxC= 1.00D-01 BMatC= 1.19D-09 BMatP= 1.19D-08
 IDIUse=1 WtCom= 1.00D+00 WtEn= 0.00D+00
 Coeff-Com: -0.143D-05 0.595D-05-0.143D-03 0.434D-04-0.327D-03-0.800D-03
 Coeff-Com: -0.215D-02 0.115D-01 0.147D-01 0.144D+00 0.279D+00 0.554D+00
 Coeff:     -0.143D-05 0.595D-05-0.143D-03 0.434D-04-0.327D-03-0.800D-03
 Coeff:     -0.215D-02 0.115D-01 0.147D-01 0.144D+00 0.279D+00 0.554D+00
 Gap=     0.109 Goal=   None    Shift=    0.000
 Gap=     0.109 Goal=   None    Shift=    0.000
 RMSDP=2.98D-07 MaxDP=2.35D-05 DE=-2.94D-09 OVMax= 7.33D-06

 Cycle  13  Pass 1  IDiag  1:
 RMSU=  2.12D-07    CP:  1.03D+00  4.57D-01  6.96D-01  2.72D-01  7.55D-01
                    CP:  8.70D-01  5.38D-01  7.94D-01  7.29D-01  8.48D-01
                    CP:  7.08D-01  8.48D-01
 E= -819.572556832954     Delta-E=       -0.000000000258 Rises=F Damp=F
 DIIS: error= 3.43D-07 at cycle  13 NSaved=  13.
 NSaved=13 IEnMin=13 EnMin= -819.572556832954     IErMin=13 ErrMin= 3.43D-07
 ErrMax= 3.43D-07  0.00D+00 EMaxC= 1.00D-01 BMatC= 1.82D-10 BMatP= 1.19D-09
 IDIUse=1 WtCom= 1.00D+00 WtEn= 0.00D+00
 Coeff-Com: -0.339D-05 0.720D-05-0.952D-05 0.238D-05 0.662D-05-0.356D-03
 Coeff-Com: -0.149D-02-0.220D-02-0.106D-01 0.129D-01 0.208D-01 0.264D+00
 Coeff-Com:  0.717D+00
 Coeff:     -0.339D-05 0.720D-05-0.952D-05 0.238D-05 0.662D-05-0.356D-03
 Coeff:     -0.149D-02-0.220D-02-0.106D-01 0.129D-01 0.208D-01 0.264D+00
 Coeff:      0.717D+00
 Gap=     0.109 Goal=   None    Shift=    0.000
 Gap=     0.109 Goal=   None    Shift=    0.000
 RMSDP=1.36D-07 MaxDP=8.02D-06 DE=-2.58D-10 OVMax= 2.76D-06

 Cycle  14  Pass 1  IDiag  1:
 RMSU=  4.20D-08    CP:  1.03D+00  4.57D-01  6.96D-01  2.72D-01  7.55D-01
                    CP:  8.70D-01  5.38D-01  7.94D-01  7.28D-01  8.62D-01
                    CP:  7.08D-01  9.48D-01  9.67D-01
 E= -819.572556833000     Delta-E=       -0.000000000046 Rises=F Damp=F
 DIIS: error= 1.84D-07 at cycle  14 NSaved=  14.
 NSaved=14 IEnMin=14 EnMin= -819.572556833000     IErMin=14 ErrMin= 1.84D-07
 ErrMax= 1.84D-07  0.00D+00 EMaxC= 1.00D-01 BMatC= 2.23D-11 BMatP= 1.82D-10
 IDIUse=1 WtCom= 1.00D+00 WtEn= 0.00D+00
 Coeff-Com: -0.188D-05 0.413D-05 0.998D-06-0.921D-06 0.196D-04-0.171D-03
 Coeff-Com: -0.766D-03-0.186D-02-0.753D-02-0.176D-02-0.102D-01 0.113D+00
 Coeff-Com:  0.427D+00 0.483D+00
 Coeff:     -0.188D-05 0.413D-05 0.998D-06-0.921D-06 0.196D-04-0.171D-03
 Coeff:     -0.766D-03-0.186D-02-0.753D-02-0.176D-02-0.102D-01 0.113D+00
 Coeff:      0.427D+00 0.483D+00
 Gap=     0.109 Goal=   None    Shift=    0.000
 Gap=     0.109 Goal=   None    Shift=    0.000
 RMSDP=3.48D-08 MaxDP=1.83D-06 DE=-4.59D-11 OVMax= 1.03D-06

 Cycle  15  Pass 1  IDiag  1:
 RMSU=  1.83D-08    CP:  1.03D+00  4.57D-01  6.96D-01  2.72D-01  7.55D-01
                    CP:  8.70D-01  5.38D-01  7.94D-01  7.28D-01  8.64D-01
                    CP:  7.12D-01  9.56D-01  9.60D-01  7.39D-01
 E= -819.572556833019     Delta-E=       -0.000000000019 Rises=F Damp=F
 DIIS: error= 3.85D-08 at cycle  15 NSaved=  15.
 NSaved=15 IEnMin=15 EnMin= -819.572556833019     IErMin=15 ErrMin= 3.85D-08
 ErrMax= 3.85D-08  0.00D+00 EMaxC= 1.00D-01 BMatC= 2.27D-12 BMatP= 2.23D-11
 IDIUse=1 WtCom= 1.00D+00 WtEn= 0.00D+00
 Coeff-Com: -0.436D-06 0.114D-05 0.333D-05-0.142D-05 0.126D-04-0.387D-04
 Coeff-Com: -0.193D-03-0.663D-03-0.276D-02-0.354D-02-0.112D-01 0.150D-01
 Coeff-Com:  0.108D+00 0.250D+00 0.645D+00
 Coeff:     -0.436D-06 0.114D-05 0.333D-05-0.142D-05 0.126D-04-0.387D-04
 Coeff:     -0.193D-03-0.663D-03-0.276D-02-0.354D-02-0.112D-01 0.150D-01
 Coeff:      0.108D+00 0.250D+00 0.645D+00
 Gap=     0.109 Goal=   None    Shift=    0.000
 Gap=     0.109 Goal=   None    Shift=    0.000
 RMSDP=1.70D-08 MaxDP=1.17D-06 DE=-1.91D-11 OVMax= 2.60D-07

 Cycle  16  Pass 1  IDiag  1:
 RMSU=  6.26D-09    CP:  1.03D+00  4.57D-01  6.96D-01  2.72D-01  7.55D-01
                    CP:  8.70D-01  5.37D-01  7.94D-01  7.27D-01  8.64D-01
                    CP:  7.10D-01  9.68D-01  9.84D-01  8.07D-01  9.16D-01
 E= -819.572556833021     Delta-E=       -0.000000000002 Rises=F Damp=F
 DIIS: error= 1.49D-08 at cycle  16 NSaved=  16.
 NSaved=16 IEnMin=16 EnMin= -819.572556833021     IErMin=16 ErrMin= 1.49D-08
 ErrMax= 1.49D-08  0.00D+00 EMaxC= 1.00D-01 BMatC= 3.25D-13 BMatP= 2.27D-12
 IDIUse=1 WtCom= 1.00D+00 WtEn= 0.00D+00
 Coeff-Com: -0.244D-07 0.956D-07 0.186D-05-0.629D-06 0.496D-05-0.137D-05
 Coeff-Com: -0.304D-04-0.134D-03-0.849D-03-0.160D-02-0.535D-02-0.141D-02
 Coeff-Com:  0.218D-01 0.984D-01 0.367D+00 0.522D+00
 Coeff:     -0.244D-07 0.956D-07 0.186D-05-0.629D-06 0.496D-05-0.137D-05
 Coeff:     -0.304D-04-0.134D-03-0.849D-03-0.160D-02-0.535D-02-0.141D-02
 Coeff:      0.218D-01 0.984D-01 0.367D+00 0.522D+00
 Gap=     0.109 Goal=   None    Shift=    0.000
 Gap=     0.109 Goal=   None    Shift=    0.000
 RMSDP=4.88D-09 MaxDP=4.59D-07 DE=-1.82D-12 OVMax= 7.40D-08

 SCF Done:  E(UB3LYP) =  -819.572556833     A.U. after   16 cycles
            NFock= 16  Conv=0.49D-08     -V/T= 2.0040
 <Sx>= 0.0000 <Sy>= 0.0000 <Sz>= 0.0000 <S**2>=-0.0000 S=-0.0000
 <L.S>=  0.00000000000    
 KE= 8.163243715747D+02 PE=-4.381686270485D+03 EE= 1.511379977901D+03
 Annihilation of the first spin contaminant:
 S**2 before annihilation    -0.0000,   after     0.0000
 Leave Link  502 at Wed Dec 27 19:50:26 2023, MaxMem=  4026531840 cpu:            2523.2 elap:             326.6
 (Enter /sysapps/ubuntu-applications/gaussian/Gaussian/AVX2/g16/l601.exe)
 Copying SCF densities to generalized density rwf, IOpCl= 1 IROHF=0.

 **********************************************************************

            Population analysis using the SCF density.

 **********************************************************************

 Alpha  occ. eigenvalues --  -19.16681 -19.11595 -19.10649 -14.33452 -10.26976
 Alpha  occ. eigenvalues --  -10.26446 -10.25819 -10.24596 -10.20636 -10.20410
 Alpha  occ. eigenvalues --  -10.20305 -10.20229 -10.19717 -10.19580 -10.19199
 Alpha  occ. eigenvalues --  -10.19146 -10.18824 -10.18699  -1.08329  -1.04946
 Alpha  occ. eigenvalues --   -1.04161  -0.94475  -0.88135  -0.86437  -0.80871
 Alpha  occ. eigenvalues --   -0.76947  -0.76802  -0.75315  -0.68516  -0.66744
 Alpha  occ. eigenvalues --   -0.65095  -0.61727  -0.59056  -0.57729  -0.57170
 Alpha  occ. eigenvalues --   -0.54028  -0.52435  -0.50029  -0.49213  -0.48172
 Alpha  occ. eigenvalues --   -0.47369  -0.45826  -0.45314  -0.44134  -0.43865
 Alpha  occ. eigenvalues --   -0.43518  -0.42039  -0.41485  -0.40664  -0.40602
 Alpha  occ. eigenvalues --   -0.38303  -0.38112  -0.37234  -0.36467  -0.35979
 Alpha  occ. eigenvalues --   -0.31115  -0.28450  -0.27216  -0.27115  -0.26816
 Alpha  occ. eigenvalues --   -0.25329  -0.21469
 Alpha virt. eigenvalues --   -0.10550  -0.05817  -0.03525  -0.02088  -0.00973
 Alpha virt. eigenvalues --   -0.00799  -0.00206   0.01164   0.01910   0.02422
 Alpha virt. eigenvalues --    0.03597   0.03832   0.04243   0.04674   0.05192
 Alpha virt. eigenvalues --    0.05822   0.05907   0.06491   0.06894   0.07015
 Alpha virt. eigenvalues --    0.08115   0.08597   0.08845   0.09137   0.09440
 Alpha virt. eigenvalues --    0.10031   0.10901   0.10985   0.11208   0.11855
 Alpha virt. eigenvalues --    0.12203   0.12464   0.12532   0.12673   0.13500
 Alpha virt. eigenvalues --    0.13530   0.13894   0.14101   0.14856   0.15182
 Alpha virt. eigenvalues --    0.16166   0.16313   0.16803   0.16965   0.17218
 Alpha virt. eigenvalues --    0.17269   0.18235   0.18281   0.19047   0.19419
 Alpha virt. eigenvalues --    0.19461   0.19824   0.19895   0.20956   0.21714
 Alpha virt. eigenvalues --    0.21975   0.22213   0.22656   0.22954   0.23282
 Alpha virt. eigenvalues --    0.23742   0.23923   0.24359   0.24547   0.25105
 Alpha virt. eigenvalues --    0.25988   0.26264   0.26739   0.26961   0.27207
 Alpha virt. eigenvalues --    0.27426   0.27742   0.27956   0.28671   0.29019
 Alpha virt. eigenvalues --    0.29289   0.29984   0.30421   0.30791   0.30981
 Alpha virt. eigenvalues --    0.31492   0.31777   0.31938   0.32583   0.33226
 Alpha virt. eigenvalues --    0.33589   0.34011   0.34583   0.34648   0.35678
 Alpha virt. eigenvalues --    0.36229   0.36987   0.37515   0.38239   0.38945
 Alpha virt. eigenvalues --    0.39559   0.40193   0.41236   0.41590   0.43010
 Alpha virt. eigenvalues --    0.43819   0.45116   0.47453   0.48648   0.49533
 Alpha virt. eigenvalues --    0.49961   0.51142   0.52372   0.52911   0.54216
 Alpha virt. eigenvalues --    0.54713   0.55068   0.55311   0.56509   0.57237
 Alpha virt. eigenvalues --    0.57617   0.58309   0.59532   0.59581   0.59775
 Alpha virt. eigenvalues --    0.60502   0.60933   0.61626   0.62473   0.63210
 Alpha virt. eigenvalues --    0.64501   0.64783   0.65266   0.65750   0.65920
 Alpha virt. eigenvalues --    0.66784   0.67031   0.68671   0.68868   0.69255
 Alpha virt. eigenvalues --    0.71460   0.71777   0.72738   0.73000   0.73811
 Alpha virt. eigenvalues --    0.75729   0.76692   0.76922   0.78766   0.79177
 Alpha virt. eigenvalues --    0.80697   0.82051   0.82553   0.83878   0.84917
 Alpha virt. eigenvalues --    0.85489   0.86412   0.86982   0.87260   0.88188
 Alpha virt. eigenvalues --    0.89089   0.89719   0.91262   0.91344   0.92355
 Alpha virt. eigenvalues --    0.93244   0.94551   0.94920   0.95965   0.96802
 Alpha virt. eigenvalues --    0.97701   0.98412   0.99062   0.99421   1.00502
 Alpha virt. eigenvalues --    1.01454   1.01559   1.03374   1.04269   1.06520
 Alpha virt. eigenvalues --    1.06733   1.07563   1.08108   1.08890   1.10720
 Alpha virt. eigenvalues --    1.11026   1.12225   1.12725   1.14701   1.15102
 Alpha virt. eigenvalues --    1.16429   1.18330   1.19291   1.20372   1.21954
 Alpha virt. eigenvalues --    1.23264   1.24149   1.25272   1.26374   1.28327
 Alpha virt. eigenvalues --    1.30500   1.32904   1.33974   1.35359   1.39333
 Alpha virt. eigenvalues --    1.40306   1.40812   1.42906   1.45398   1.46196
 Alpha virt. eigenvalues --    1.46841   1.49139   1.50254   1.50315   1.50591
 Alpha virt. eigenvalues --    1.51376   1.52312   1.53302   1.55315   1.56066
 Alpha virt. eigenvalues --    1.57097   1.58460   1.60378   1.60704   1.62709
 Alpha virt. eigenvalues --    1.64961   1.66191   1.66378   1.68335   1.69245
 Alpha virt. eigenvalues --    1.70259   1.72356   1.73492   1.73763   1.75048
 Alpha virt. eigenvalues --    1.75243   1.75594   1.79979   1.80261   1.82850
 Alpha virt. eigenvalues --    1.84104   1.85102   1.86129   1.86703   1.86989
 Alpha virt. eigenvalues --    1.89527   1.89690   1.90723   1.91185   1.92911
 Alpha virt. eigenvalues --    1.93444   1.94320   1.96460   1.97026   1.97368
 Alpha virt. eigenvalues --    1.98690   1.99548   2.01401   2.02567   2.05798
 Alpha virt. eigenvalues --    2.06519   2.07656   2.07867   2.10763   2.11401
 Alpha virt. eigenvalues --    2.12281   2.14937   2.15662   2.19013   2.24493
 Alpha virt. eigenvalues --    2.28276   2.28966   2.29033   2.30718   2.35899
 Alpha virt. eigenvalues --    2.36011   2.37076   2.40990   2.42780   2.45625
 Alpha virt. eigenvalues --    2.46581   2.47783   2.48654   2.51654   2.54776
 Alpha virt. eigenvalues --    2.60083   2.60340   2.61480   2.62876   2.63501
 Alpha virt. eigenvalues --    2.63663   2.67583   2.69197   2.70511   2.71597
 Alpha virt. eigenvalues --    2.72149   2.73468   2.73786   2.74376   2.75995
 Alpha virt. eigenvalues --    2.76723   2.76892   2.77955   2.78206   2.79169
 Alpha virt. eigenvalues --    2.81677   2.83684   2.84315   2.85605   2.86200
 Alpha virt. eigenvalues --    2.87651   2.88812   2.90289   2.91296   2.93914
 Alpha virt. eigenvalues --    2.94350   2.96723   2.99922   3.00380   3.04754
 Alpha virt. eigenvalues --    3.07257   3.09057   3.09403   3.10727   3.12851
 Alpha virt. eigenvalues --    3.14839   3.17457   3.18109   3.19640   3.22758
 Alpha virt. eigenvalues --    3.23753   3.26477   3.32866   3.33071   3.34902
 Alpha virt. eigenvalues --    3.36537   3.36937   3.40274   3.41931   3.45509
 Alpha virt. eigenvalues --    3.49654   3.52249   3.53138   3.54992   3.56916
 Alpha virt. eigenvalues --    3.58433   3.58787   3.65395   3.68545   3.80163
 Alpha virt. eigenvalues --    3.82934   3.85344   3.88548   3.91624   3.97551
 Alpha virt. eigenvalues --    4.03352   4.06173   4.07985   4.15922   4.19820
 Alpha virt. eigenvalues --    4.24974   4.28373   4.45728   4.75466   4.81280
 Alpha virt. eigenvalues --    4.82907   4.85539   5.00029   5.05232   5.05701
 Alpha virt. eigenvalues --    5.07895   5.27378   5.33986   5.51030   5.73870
 Alpha virt. eigenvalues --    5.78970   5.84752  23.51383  23.65261  23.86884
 Alpha virt. eigenvalues --   23.88589  23.90258  23.94188  23.95051  23.96167
 Alpha virt. eigenvalues --   23.98316  24.00992  24.06999  24.09272  24.16745
 Alpha virt. eigenvalues --   24.18036  35.67944  49.95327  50.05112  50.10118
  Beta  occ. eigenvalues --  -19.16681 -19.11595 -19.10649 -14.33452 -10.26976
  Beta  occ. eigenvalues --  -10.26446 -10.25819 -10.24596 -10.20636 -10.20410
  Beta  occ. eigenvalues --  -10.20305 -10.20229 -10.19717 -10.19580 -10.19199
  Beta  occ. eigenvalues --  -10.19146 -10.18824 -10.18699  -1.08329  -1.04946
  Beta  occ. eigenvalues --   -1.04161  -0.94475  -0.88135  -0.86437  -0.80871
  Beta  occ. eigenvalues --   -0.76947  -0.76802  -0.75315  -0.68516  -0.66744
  Beta  occ. eigenvalues --   -0.65095  -0.61727  -0.59056  -0.57729  -0.57170
  Beta  occ. eigenvalues --   -0.54028  -0.52435  -0.50029  -0.49213  -0.48172
  Beta  occ. eigenvalues --   -0.47369  -0.45826  -0.45314  -0.44134  -0.43865
  Beta  occ. eigenvalues --   -0.43518  -0.42039  -0.41485  -0.40664  -0.40602
  Beta  occ. eigenvalues --   -0.38303  -0.38112  -0.37234  -0.36467  -0.35979
  Beta  occ. eigenvalues --   -0.31115  -0.28450  -0.27216  -0.27115  -0.26816
  Beta  occ. eigenvalues --   -0.25329  -0.21469
  Beta virt. eigenvalues --   -0.10550  -0.05817  -0.03525  -0.02088  -0.00973
  Beta virt. eigenvalues --   -0.00799  -0.00206   0.01164   0.01910   0.02422
  Beta virt. eigenvalues --    0.03597   0.03832   0.04243   0.04674   0.05192
  Beta virt. eigenvalues --    0.05822   0.05907   0.06491   0.06894   0.07015
  Beta virt. eigenvalues --    0.08115   0.08597   0.08845   0.09137   0.09440
  Beta virt. eigenvalues --    0.10031   0.10901   0.10985   0.11208   0.11855
  Beta virt. eigenvalues --    0.12203   0.12464   0.12532   0.12673   0.13500
  Beta virt. eigenvalues --    0.13530   0.13894   0.14101   0.14856   0.15182
  Beta virt. eigenvalues --    0.16166   0.16313   0.16803   0.16965   0.17218
  Beta virt. eigenvalues --    0.17269   0.18235   0.18281   0.19047   0.19419
  Beta virt. eigenvalues --    0.19461   0.19824   0.19895   0.20956   0.21714
  Beta virt. eigenvalues --    0.21975   0.22213   0.22656   0.22954   0.23282
  Beta virt. eigenvalues --    0.23742   0.23923   0.24359   0.24547   0.25105
  Beta virt. eigenvalues --    0.25988   0.26264   0.26739   0.26961   0.27207
  Beta virt. eigenvalues --    0.27426   0.27742   0.27956   0.28671   0.29019
  Beta virt. eigenvalues --    0.29289   0.29984   0.30421   0.30791   0.30981
  Beta virt. eigenvalues --    0.31492   0.31777   0.31938   0.32583   0.33226
  Beta virt. eigenvalues --    0.33589   0.34011   0.34583   0.34648   0.35678
  Beta virt. eigenvalues --    0.36229   0.36987   0.37515   0.38239   0.38945
  Beta virt. eigenvalues --    0.39559   0.40193   0.41236   0.41590   0.43010
  Beta virt. eigenvalues --    0.43819   0.45116   0.47453   0.48648   0.49533
  Beta virt. eigenvalues --    0.49961   0.51142   0.52372   0.52911   0.54216
  Beta virt. eigenvalues --    0.54713   0.55068   0.55311   0.56509   0.57237
  Beta virt. eigenvalues --    0.57617   0.58309   0.59532   0.59581   0.59775
  Beta virt. eigenvalues --    0.60502   0.60933   0.61626   0.62473   0.63210
  Beta virt. eigenvalues --    0.64501   0.64783   0.65266   0.65750   0.65920
  Beta virt. eigenvalues --    0.66784   0.67031   0.68671   0.68868   0.69255
  Beta virt. eigenvalues --    0.71460   0.71777   0.72738   0.73000   0.73811
  Beta virt. eigenvalues --    0.75729   0.76692   0.76922   0.78766   0.79177
  Beta virt. eigenvalues --    0.80697   0.82051   0.82553   0.83878   0.84917
  Beta virt. eigenvalues --    0.85489   0.86412   0.86982   0.87260   0.88188
  Beta virt. eigenvalues --    0.89089   0.89719   0.91262   0.91344   0.92355
  Beta virt. eigenvalues --    0.93244   0.94551   0.94920   0.95965   0.96802
  Beta virt. eigenvalues --    0.97701   0.98412   0.99062   0.99421   1.00502
  Beta virt. eigenvalues --    1.01454   1.01559   1.03374   1.04269   1.06520
  Beta virt. eigenvalues --    1.06733   1.07563   1.08108   1.08890   1.10720
  Beta virt. eigenvalues --    1.11026   1.12225   1.12725   1.14701   1.15102
  Beta virt. eigenvalues --    1.16429   1.18330   1.19291   1.20372   1.21954
  Beta virt. eigenvalues --    1.23264   1.24149   1.25272   1.26374   1.28327
  Beta virt. eigenvalues --    1.30500   1.32904   1.33974   1.35359   1.39333
  Beta virt. eigenvalues --    1.40306   1.40812   1.42906   1.45398   1.46196
  Beta virt. eigenvalues --    1.46841   1.49139   1.50254   1.50315   1.50591
  Beta virt. eigenvalues --    1.51376   1.52312   1.53302   1.55315   1.56066
  Beta virt. eigenvalues --    1.57097   1.58460   1.60378   1.60704   1.62709
  Beta virt. eigenvalues --    1.64961   1.66191   1.66378   1.68335   1.69245
  Beta virt. eigenvalues --    1.70259   1.72356   1.73492   1.73763   1.75048
  Beta virt. eigenvalues --    1.75243   1.75594   1.79979   1.80261   1.82850
  Beta virt. eigenvalues --    1.84104   1.85102   1.86129   1.86703   1.86989
  Beta virt. eigenvalues --    1.89527   1.89690   1.90723   1.91185   1.92911
  Beta virt. eigenvalues --    1.93444   1.94320   1.96460   1.97026   1.97368
  Beta virt. eigenvalues --    1.98690   1.99548   2.01401   2.02567   2.05798
  Beta virt. eigenvalues --    2.06519   2.07656   2.07867   2.10763   2.11401
  Beta virt. eigenvalues --    2.12281   2.14937   2.15662   2.19013   2.24493
  Beta virt. eigenvalues --    2.28276   2.28966   2.29033   2.30718   2.35899
  Beta virt. eigenvalues --    2.36011   2.37076   2.40990   2.42780   2.45625
  Beta virt. eigenvalues --    2.46581   2.47783   2.48654   2.51654   2.54776
  Beta virt. eigenvalues --    2.60083   2.60340   2.61480   2.62876   2.63501
  Beta virt. eigenvalues --    2.63663   2.67583   2.69197   2.70511   2.71597
  Beta virt. eigenvalues --    2.72149   2.73468   2.73786   2.74376   2.75995
  Beta virt. eigenvalues --    2.76723   2.76892   2.77955   2.78206   2.79169
  Beta virt. eigenvalues --    2.81677   2.83684   2.84315   2.85605   2.86200
  Beta virt. eigenvalues --    2.87651   2.88812   2.90289   2.91296   2.93914
  Beta virt. eigenvalues --    2.94350   2.96723   2.99922   3.00380   3.04754
  Beta virt. eigenvalues --    3.07257   3.09057   3.09403   3.10727   3.12851
  Beta virt. eigenvalues --    3.14839   3.17457   3.18109   3.19640   3.22758
  Beta virt. eigenvalues --    3.23753   3.26477   3.32866   3.33071   3.34902
  Beta virt. eigenvalues --    3.36537   3.36937   3.40274   3.41931   3.45509
  Beta virt. eigenvalues --    3.49654   3.52249   3.53138   3.54992   3.56916
  Beta virt. eigenvalues --    3.58433   3.58787   3.65395   3.68545   3.80163
  Beta virt. eigenvalues --    3.82934   3.85344   3.88548   3.91624   3.97551
  Beta virt. eigenvalues --    4.03352   4.06173   4.07985   4.15922   4.19820
  Beta virt. eigenvalues --    4.24974   4.28373   4.45728   4.75466   4.81280
  Beta virt. eigenvalues --    4.82907   4.85539   5.00029   5.05232   5.05701
  Beta virt. eigenvalues --    5.07895   5.27378   5.33986   5.51030   5.73870
  Beta virt. eigenvalues --    5.78970   5.84752  23.51383  23.65261  23.86884
  Beta virt. eigenvalues --   23.88589  23.90258  23.94188  23.95051  23.96167
  Beta virt. eigenvalues --   23.98316  24.00992  24.06999  24.09272  24.16745
  Beta virt. eigenvalues --   24.18036  35.67944  49.95327  50.05112  50.10118
          Condensed to atoms (all electrons):
               1          2          3          4          5          6
     1  N    6.864677  -0.208058  -0.255335  -0.023396  -0.002530   0.000732
     2  C   -0.208058  12.766395  -0.651662  -0.286733   1.467145   0.015459
     3  C   -0.255335  -0.651662  12.248469   1.834196  -1.393554   0.072614
     4  C   -0.023396  -0.286733   1.834196  12.321630  -1.104553   0.448467
     5  C   -0.002530   1.467145  -1.393554  -1.104553  13.958037  -0.040489
     6  O    0.000732   0.015459   0.072614   0.448467  -0.040489   8.094638
     7  C    0.085252  -0.614763  -0.664254  -3.456396   2.594364  -0.567473
     8  C    0.064221  -1.355920  -1.534271  -1.157409  -3.773670   0.033650
     9  O    0.000005  -0.024458  -0.010179  -0.028080   0.063282   0.033528
    10  C    0.060211  -2.675496  -0.855970  -0.298142  -0.221548   0.084440
    11  C    0.001823  -0.189002  -0.112253  -0.026751   0.021081   0.021333
    12  C    0.001944  -0.205481  -0.042109   0.086201   0.277232  -0.002156
    13  C   -0.001557   0.063381   0.023300  -0.020096  -0.131008   0.000292
    14  C   -0.017409   0.280749   0.015021  -0.166449  -0.533666  -0.000385
    15  C   -0.006277  -0.769177   0.370678  -0.293670  -2.592959  -0.021810
    16  C    0.178371  -3.414798  -1.137171  -1.391875  -1.039790   0.010245
    17  O   -0.005981  -0.063420  -0.093148   0.001860  -0.015403  -0.000103
    18  C    0.001730   1.999897  -2.095611  -0.130088  -1.555332  -0.100859
    19  H    0.316392   0.038624  -0.135761   0.015730   0.009273  -0.000134
    20  H    0.349627  -0.097480  -0.031678  -0.014328   0.006189   0.000280
    21  H   -0.004746  -0.300963   0.612708   0.012122   0.033120  -0.000750
    22  H   -0.004827   0.043322  -0.025021   0.428282  -0.218751  -0.024021
    23  H   -0.000204   0.015458  -0.035991  -0.444732   0.389411   0.099599
    24  H   -0.000011   0.006279   0.002067   0.000410  -0.013422  -0.000123
    25  H   -0.000038  -0.000167   0.000298   0.000201   0.002964  -0.000002
    26  H    0.000065   0.002577   0.000287   0.000308  -0.000494  -0.000013
    27  H   -0.000774  -0.008240  -0.000026  -0.003725  -0.002855   0.000045
               7          8          9         10         11         12
     1  N    0.085252   0.064221   0.000005   0.060211   0.001823   0.001944
     2  C   -0.614763  -1.355920  -0.024458  -2.675496  -0.189002  -0.205481
     3  C   -0.664254  -1.534271  -0.010179  -0.855970  -0.112253  -0.042109
     4  C   -3.456396  -1.157409  -0.028080  -0.298142  -0.026751   0.086201
     5  C    2.594364  -3.773670   0.063282  -0.221548   0.021081   0.277232
     6  O   -0.567473   0.033650   0.033528   0.084440   0.021333  -0.002156
     7  C   17.012753  -1.123512   0.017195   1.331080  -0.782260  -0.475033
     8  C   -1.123512  13.205653   0.803059   0.765354  -1.681612  -0.624207
     9  O    0.017195   0.803059   8.098171  -0.120553   0.139127   0.038424
    10  C    1.331080   0.765354  -0.120553  24.465909   0.810113  -2.175806
    11  C   -0.782260  -1.681612   0.139127   0.810113  10.211623  -0.838964
    12  C   -0.475033  -0.624207   0.038424  -2.175806  -0.838964   9.238687
    13  C   -0.020316  -0.029955  -0.005939   1.697895  -0.378096  -0.477686
    14  C   -1.788079  -0.798763  -0.023213  -3.808645   2.163250  -0.444231
    15  C   -6.242659   0.526789  -0.444536  -6.804149  -1.429606   1.880045
    16  C    1.006865   2.030682  -0.002323   1.281949  -1.283306   0.047465
    17  O   -0.223488  -0.000233  -0.000142  -0.420225  -0.001648   0.000275
    18  C   -0.736340   1.056491  -0.311781  -7.091115  -1.068866  -0.196758
    19  H   -0.003144   0.000968  -0.000026  -0.003182   0.001093   0.000178
    20  H    0.025712   0.006071   0.000168   0.038267  -0.001729   0.001559
    21  H    0.021300  -0.038436  -0.000096  -0.007482  -0.000865  -0.000416
    22  H   -0.026010   0.068657   0.001081   0.010822   0.000746   0.000217
    23  H    0.214892  -0.054208  -0.003619  -0.028272  -0.005124   0.000422
    24  H   -0.034918   0.057197  -0.013472  -0.081732   0.329232  -0.132412
    25  H    0.009435   0.010926   0.002601  -0.008408  -0.129903   0.511439
    26  H   -0.006302  -0.008348  -0.000305  -0.003201  -0.011731  -0.063560
    27  H    0.009531   0.005065   0.000530   0.089815   0.041409   0.005906
              13         14         15         16         17         18
     1  N   -0.001557  -0.017409  -0.006277   0.178371  -0.005981   0.001730
     2  C    0.063381   0.280749  -0.769177  -3.414798  -0.063420   1.999897
     3  C    0.023300   0.015021   0.370678  -1.137171  -0.093148  -2.095611
     4  C   -0.020096  -0.166449  -0.293670  -1.391875   0.001860  -0.130088
     5  C   -0.131008  -0.533666  -2.592959  -1.039790  -0.015403  -1.555332
     6  O    0.000292  -0.000385  -0.021810   0.010245  -0.000103  -0.100859
     7  C   -0.020316  -1.788079  -6.242659   1.006865  -0.223488  -0.736340
     8  C   -0.029955  -0.798763   0.526789   2.030682  -0.000233   1.056491
     9  O   -0.005939  -0.023213  -0.444536  -0.002323  -0.000142  -0.311781
    10  C    1.697895  -3.808645  -6.804149   1.281949  -0.420225  -7.091115
    11  C   -0.378096   2.163250  -1.429606  -1.283306  -0.001648  -1.068866
    12  C   -0.477686  -0.444231   1.880045   0.047465   0.000275  -0.196758
    13  C    8.475290  -0.473877  -2.630285   0.237286   0.042806  -0.180152
    14  C   -0.473877  10.811150   1.938207  -2.070539   0.184301   0.149109
    15  C   -2.630285   1.938207  20.410886   0.696270  -0.418822   1.515554
    16  C    0.237286  -2.070539   0.696270  11.091938   0.726108  -0.684971
    17  O    0.042806   0.184301  -0.418822   0.726108   8.186450   0.332814
    18  C   -0.180152   0.149109   1.515554  -0.684971   0.332814  14.764945
    19  H   -0.001421  -0.000097  -0.002966   0.016010   0.007749   0.051060
    20  H   -0.001281  -0.018754   0.004480   0.099558   0.031519  -0.044839
    21  H   -0.000061   0.000199   0.009806   0.020939   0.000439  -0.060046
    22  H    0.000149   0.000475   0.003874  -0.001501  -0.000045   0.039078
    23  H   -0.000350  -0.000810  -0.011574  -0.001383   0.000058   0.018067
    24  H   -0.001546   0.037646   0.136841   0.003747   0.000529   0.042478
    25  H   -0.054809   0.000541  -0.002583  -0.011793  -0.000196  -0.007900
    26  H    0.489090  -0.107484  -0.001183   0.024484   0.001907   0.009140
    27  H   -0.172586   0.390725   0.073543  -0.018604  -0.011742  -0.063695
              19         20         21         22         23         24
     1  N    0.316392   0.349627  -0.004746  -0.004827  -0.000204  -0.000011
     2  C    0.038624  -0.097480  -0.300963   0.043322   0.015458   0.006279
     3  C   -0.135761  -0.031678   0.612708  -0.025021  -0.035991   0.002067
     4  C    0.015730  -0.014328   0.012122   0.428282  -0.444732   0.000410
     5  C    0.009273   0.006189   0.033120  -0.218751   0.389411  -0.013422
     6  O   -0.000134   0.000280  -0.000750  -0.024021   0.099599  -0.000123
     7  C   -0.003144   0.025712   0.021300  -0.026010   0.214892  -0.034918
     8  C    0.000968   0.006071  -0.038436   0.068657  -0.054208   0.057197
     9  O   -0.000026   0.000168  -0.000096   0.001081  -0.003619  -0.013472
    10  C   -0.003182   0.038267  -0.007482   0.010822  -0.028272  -0.081732
    11  C    0.001093  -0.001729  -0.000865   0.000746  -0.005124   0.329232
    12  C    0.000178   0.001559  -0.000416   0.000217   0.000422  -0.132412
    13  C   -0.001421  -0.001281  -0.000061   0.000149  -0.000350  -0.001546
    14  C   -0.000097  -0.018754   0.000199   0.000475  -0.000810   0.037646
    15  C   -0.002966   0.004480   0.009806   0.003874  -0.011574   0.136841
    16  C    0.016010   0.099558   0.020939  -0.001501  -0.001383   0.003747
    17  O    0.007749   0.031519   0.000439  -0.000045   0.000058   0.000529
    18  C    0.051060  -0.044839  -0.060046   0.039078   0.018067   0.042478
    19  H    0.456696  -0.025007  -0.001008   0.001027  -0.000005   0.000010
    20  H   -0.025007   0.346019   0.002615  -0.000482   0.000046  -0.000097
    21  H   -0.001008   0.002615   0.564922  -0.020932   0.000333  -0.000009
    22  H    0.001027  -0.000482  -0.020932   0.584949   0.002845  -0.000064
    23  H   -0.000005   0.000046   0.000333   0.002845   0.586871  -0.000173
    24  H    0.000010  -0.000097  -0.000009  -0.000064  -0.000173   0.496150
    25  H    0.000003  -0.000003   0.000002  -0.000005   0.000003  -0.014345
    26  H   -0.000015  -0.000147  -0.000005   0.000003  -0.000003   0.000809
    27  H    0.000157   0.000590  -0.000010  -0.000034  -0.000011   0.000999
              25         26         27
     1  N   -0.000038   0.000065  -0.000774
     2  C   -0.000167   0.002577  -0.008240
     3  C    0.000298   0.000287  -0.000026
     4  C    0.000201   0.000308  -0.003725
     5  C    0.002964  -0.000494  -0.002855
     6  O   -0.000002  -0.000013   0.000045
     7  C    0.009435  -0.006302   0.009531
     8  C    0.010926  -0.008348   0.005065
     9  O    0.002601  -0.000305   0.000530
    10  C   -0.008408  -0.003201   0.089815
    11  C   -0.129903  -0.011731   0.041409
    12  C    0.511439  -0.063560   0.005906
    13  C   -0.054809   0.489090  -0.172586
    14  C    0.000541  -0.107484   0.390725
    15  C   -0.002583  -0.001183   0.073543
    16  C   -0.011793   0.024484  -0.018604
    17  O   -0.000196   0.001907  -0.011742
    18  C   -0.007900   0.009140  -0.063695
    19  H    0.000003  -0.000015   0.000157
    20  H   -0.000003  -0.000147   0.000590
    21  H    0.000002  -0.000005  -0.000010
    22  H   -0.000005   0.000003  -0.000034
    23  H    0.000003  -0.000003  -0.000011
    24  H   -0.014345   0.000809   0.000999
    25  H    0.535747  -0.016357   0.000945
    26  H   -0.016357   0.536769  -0.016270
    27  H    0.000945  -0.016270   0.497801
          Atomic-Atomic Spin Densities.
               1          2          3          4          5          6
     1  N    0.000000  -0.000000   0.000000   0.000000  -0.000000   0.000000
     2  C   -0.000000  -0.000000   0.000000  -0.000000   0.000000  -0.000000
     3  C    0.000000   0.000000   0.000000   0.000000   0.000000   0.000000
     4  C    0.000000  -0.000000   0.000000  -0.000000   0.000000  -0.000000
     5  C   -0.000000   0.000000   0.000000   0.000000  -0.000000  -0.000000
     6  O    0.000000  -0.000000   0.000000  -0.000000  -0.000000   0.000000
     7  C   -0.000000   0.000000   0.000000   0.000000   0.000000   0.000000
     8  C    0.000000  -0.000000  -0.000000  -0.000000  -0.000000   0.000000
     9  O   -0.000000   0.000000  -0.000000   0.000000  -0.000000  -0.000000
    10  C   -0.000000   0.000000   0.000000   0.000000  -0.000000  -0.000000
    11  C   -0.000000   0.000000  -0.000000   0.000000  -0.000000  -0.000000
    12  C    0.000000  -0.000000   0.000000  -0.000000  -0.000000   0.000000
    13  C    0.000000  -0.000000  -0.000000   0.000000   0.000000  -0.000000
    14  C    0.000000  -0.000000  -0.000000   0.000000   0.000000  -0.000000
    15  C    0.000000  -0.000000  -0.000000  -0.000000   0.000000   0.000000
    16  C    0.000000  -0.000000  -0.000000   0.000000  -0.000000   0.000000
    17  O    0.000000  -0.000000  -0.000000  -0.000000   0.000000   0.000000
    18  C    0.000000  -0.000000  -0.000000  -0.000000   0.000000   0.000000
    19  H   -0.000000  -0.000000   0.000000   0.000000   0.000000  -0.000000
    20  H   -0.000000   0.000000   0.000000   0.000000  -0.000000   0.000000
    21  H   -0.000000   0.000000   0.000000   0.000000  -0.000000   0.000000
    22  H    0.000000   0.000000  -0.000000  -0.000000   0.000000  -0.000000
    23  H   -0.000000   0.000000   0.000000   0.000000  -0.000000  -0.000000
    24  H    0.000000  -0.000000  -0.000000  -0.000000   0.000000  -0.000000
    25  H   -0.000000   0.000000   0.000000   0.000000  -0.000000  -0.000000
    26  H    0.000000  -0.000000  -0.000000  -0.000000   0.000000   0.000000
    27  H   -0.000000   0.000000   0.000000   0.000000  -0.000000  -0.000000
               7          8          9         10         11         12
     1  N   -0.000000   0.000000  -0.000000  -0.000000  -0.000000   0.000000
     2  C    0.000000  -0.000000   0.000000   0.000000   0.000000  -0.000000
     3  C    0.000000  -0.000000  -0.000000   0.000000  -0.000000   0.000000
     4  C    0.000000  -0.000000   0.000000   0.000000   0.000000  -0.000000
     5  C    0.000000  -0.000000  -0.000000  -0.000000  -0.000000  -0.000000
     6  O    0.000000   0.000000  -0.000000  -0.000000  -0.000000   0.000000
     7  C   -0.000000  -0.000000  -0.000000  -0.000000  -0.000000   0.000000
     8  C   -0.000000   0.000000   0.000000   0.000000   0.000000  -0.000000
     9  O   -0.000000   0.000000  -0.000000  -0.000000  -0.000000  -0.000000
    10  C   -0.000000   0.000000  -0.000000  -0.000000  -0.000000   0.000000
    11  C   -0.000000   0.000000  -0.000000  -0.000000  -0.000000  -0.000000
    12  C    0.000000  -0.000000  -0.000000   0.000000  -0.000000  -0.000000
    13  C   -0.000000  -0.000000  -0.000000  -0.000000  -0.000000   0.000000
    14  C   -0.000000  -0.000000   0.000000  -0.000000   0.000000  -0.000000
    15  C    0.000000  -0.000000   0.000000   0.000000   0.000000  -0.000000
    16  C   -0.000000   0.000000  -0.000000   0.000000   0.000000   0.000000
    17  O    0.000000  -0.000000   0.000000   0.000000   0.000000   0.000000
    18  C    0.000000  -0.000000   0.000000   0.000000   0.000000  -0.000000
    19  H   -0.000000  -0.000000   0.000000   0.000000   0.000000  -0.000000
    20  H   -0.000000   0.000000  -0.000000  -0.000000  -0.000000   0.000000
    21  H   -0.000000  -0.000000  -0.000000  -0.000000  -0.000000  -0.000000
    22  H    0.000000   0.000000   0.000000   0.000000   0.000000   0.000000
    23  H   -0.000000  -0.000000   0.000000  -0.000000  -0.000000  -0.000000
    24  H    0.000000  -0.000000   0.000000   0.000000   0.000000  -0.000000
    25  H    0.000000   0.000000  -0.000000   0.000000  -0.000000  -0.000000
    26  H   -0.000000  -0.000000   0.000000  -0.000000  -0.000000   0.000000
    27  H   -0.000000   0.000000  -0.000000  -0.000000  -0.000000  -0.000000
              13         14         15         16         17         18
     1  N    0.000000   0.000000   0.000000   0.000000   0.000000   0.000000
     2  C   -0.000000  -0.000000  -0.000000  -0.000000  -0.000000  -0.000000
     3  C   -0.000000  -0.000000  -0.000000  -0.000000  -0.000000  -0.000000
     4  C    0.000000   0.000000  -0.000000   0.000000  -0.000000  -0.000000
     5  C    0.000000   0.000000   0.000000  -0.000000   0.000000   0.000000
     6  O   -0.000000  -0.000000   0.000000   0.000000   0.000000   0.000000
     7  C   -0.000000  -0.000000   0.000000  -0.000000   0.000000   0.000000
     8  C   -0.000000  -0.000000  -0.000000   0.000000  -0.000000  -0.000000
     9  O   -0.000000   0.000000   0.000000  -0.000000   0.000000   0.000000
    10  C   -0.000000  -0.000000   0.000000   0.000000   0.000000   0.000000
    11  C   -0.000000   0.000000   0.000000   0.000000   0.000000   0.000000
    12  C    0.000000  -0.000000  -0.000000   0.000000   0.000000  -0.000000
    13  C   -0.000000  -0.000000   0.000000   0.000000  -0.000000   0.000000
    14  C   -0.000000   0.000000  -0.000000  -0.000000  -0.000000   0.000000
    15  C    0.000000  -0.000000  -0.000000  -0.000000   0.000000  -0.000000
    16  C    0.000000  -0.000000  -0.000000  -0.000000  -0.000000   0.000000
    17  O   -0.000000  -0.000000   0.000000  -0.000000  -0.000000  -0.000000
    18  C    0.000000   0.000000  -0.000000   0.000000  -0.000000  -0.000000
    19  H    0.000000   0.000000   0.000000   0.000000  -0.000000  -0.000000
    20  H    0.000000  -0.000000   0.000000  -0.000000   0.000000   0.000000
    21  H   -0.000000  -0.000000  -0.000000  -0.000000   0.000000  -0.000000
    22  H    0.000000   0.000000  -0.000000   0.000000  -0.000000   0.000000
    23  H    0.000000   0.000000   0.000000  -0.000000   0.000000   0.000000
    24  H   -0.000000   0.000000  -0.000000  -0.000000  -0.000000  -0.000000
    25  H    0.000000  -0.000000  -0.000000   0.000000   0.000000   0.000000
    26  H   -0.000000   0.000000   0.000000  -0.000000  -0.000000  -0.000000
[...]
 06462,-0.00001520,-0.00003316,-0.00001607,0.00000306,0.00019822,0.0001
 2857,-0.00003562,0.00018152,-0.00025086,0.00020708,-0.00518492,-0.0016
 9250,0.00005275,0.00562984,-0.00412207,0.00010274,0.00103430,0.0007835
 8,-0.00005132,-0.01419297,0.01543432,-0.00185290,-0.18999204,0.2352057
 5,-0.01261309,0.01450110,-0.00484497,-0.00596136,0.00749702,-0.0041390
 9,0.00110006,0.00111290,0.00347061,-0.00015699,0.00091360,0.00160876,-
 0.00054318,0.00019851,0.00026164,0.00007654,-0.00029902,-0.00008029,0.
 00007596,-0.00042732,-0.00076202,0.00019620,0.00006340,-0.00015470,-0.
 00008918,-0.00014602,0.00009117,0.00003900,0.00000849,0.00005252,-0.00
 003242,0.00000981,-0.00015617,-0.00001183,-0.00002558,0.00000186,0.000
 01385,-0.00000368,-0.00004886,-0.00004337,-0.00003137,-0.00008832,0.00
 002987,0.00045643,0.00189628,0.00131814,-0.00058017,0.00045584,-0.0006
 4044,0.00042873,-0.00643461,-0.00107180,-0.00043389,-0.00160674,-0.001
 08189,0.00081369,-0.00552838,0.01933577,-0.02392987,0.01696821,0.00213
 839,-0.00118491,0.00012494,-0.01874284,-0.01323350,0.00209462,-0.29691
 890,-0.09109700,0.01215348,-0.00084114,0.00013410,-0.00012914,0.002564
 73,0.00013762,-0.00013268,-0.00025782,-0.00033646,0.00006390,0.0004371
 2,0.00094044,-0.00013787,-0.00010398,-0.00000803,0.00002738,-0.0000226
 9,-0.00001611,-0.00000175,0.00000758,0.00003761,-0.00001768,-0.0000045
 6,0.00000095,-0.00000171,-0.00001677,0.00000497,0.00000016,-0.00003763
 ,0.00002276,-0.00000609,-0.00008359,-0.00014310,0.00002898,-0.00031178
 ,0.00044309,-0.00007457,-0.00051523,-0.00172749,0.00028258,0.00031339,
 0.00055134,-0.00009000,-0.00206782,0.00414803,-0.00092861,-0.00011839,
 0.00165131,-0.00015868,-0.00009284,0.00025872,0.00004557,0.31387049,0.
 00119321,0.00173367,-0.00054403,0.01772073,0.00895382,-0.00052775,-0.0
 9124239,-0.09291788,0.00952396,-0.03026844,-0.00736343,0.00132133,0.00
 115766,-0.00423093,0.00244006,-0.00152759,-0.00108867,0.00013651,0.000
 07135,-0.00099485,0.00001583,0.00032875,0.00011609,-0.00016526,-0.0001
 1357,-0.00009518,0.00002280,-0.00005518,-0.00001881,0.00008473,-0.0000
 4460,0.00003481,-0.00001483,0.00001515,-0.00002922,0.00000118,0.000036
 80,0.00001318,-0.00000317,0.00002220,0.00006940,-0.00003086,0.00019954
 ,-0.00027726,0.00003351,0.00096413,0.00030343,-0.00007911,-0.00011183,
 0.00029175,-0.00004368,0.00237780,-0.00166351,0.00117422,-0.00043502,-
 0.00045909,-0.00001029,0.00007480,0.00001352,-0.00017655,0.09950575,0.
 09658734,0.00026286,-0.00073104,-0.00232865,-0.00385260,-0.00137253,0.
 00473623,0.01226054,0.00986049,-0.03531645,0.00561252,0.00183247,0.002
 67726,-0.00029788,0.00233676,0.00777524,0.00028343,0.00018899,-0.00010
 604,0.00001405,0.00012323,-0.00083119,-0.00008095,-0.00015896,-0.00075
 862,0.00003053,0.00001844,0.00004145,0.00001847,0.00007911,0.00041164,
 0.00000379,-0.00001545,-0.00003870,-0.00000278,-0.00000239,-0.00002744
 ,-0.00000505,-0.00000087,-0.00000865,-0.00000648,-0.00003606,-0.000077
 46,-0.00005081,0.00005978,-0.00007410,-0.00019669,-0.00017930,-0.00021
 825,0.00003937,-0.00002228,0.00007982,-0.00066680,0.00121910,0.0038651
 5,-0.00021763,0.00010670,0.00064790,0.00001764,-0.00014281,-0.00070945
 ,-0.01326619,-0.01208291,0.02462428,0.00016883,0.00026574,-0.00009445,
 0.00140770,-0.00217063,0.00027184,0.00688572,-0.00396214,0.00084217,-0
 .22938323,0.12642974,-0.02870076,-0.01779010,0.02132968,-0.00453824,0.
 00233374,0.00069830,0.00000533,-0.00447091,-0.00373706,0.00047725,0.00
 001328,0.00211306,-0.00037842,0.00010675,-0.00060940,0.00010857,-0.000
 47507,-0.00039273,0.00006536,-0.00005846,0.00018668,-0.00002803,-0.000
 04050,-0.00002345,0.00000251,-0.00000934,0.00001416,-0.00000097,-0.000
 01278,0.00001314,-0.00000215,0.00003517,-0.00005135,-0.00000148,-0.000
 24128,0.00015476,-0.00002020,-0.00001034,-0.00004742,0.00001280,0.0003
 2884,-0.00118216,0.00024581,-0.00002052,-0.00001535,0.00000968,0.00008
 786,-0.00010256,0.00004253,0.00085804,0.00020578,0.00008834,0.24113646
 ,0.00170464,-0.00057586,0.00004047,-0.00277095,-0.00410040,0.00239986,
 0.02637105,-0.01433592,0.00391525,0.12601793,-0.15184616,0.02537305,-0
 .01004584,0.00547226,-0.00058488,-0.00162264,0.00360050,-0.00127375,-0
 .00215562,0.00027528,0.00063583,-0.00065046,0.00006166,-0.00001772,0.0
 0016635,0.00037291,-0.00005687,-0.00012917,-0.00009601,-0.00000880,0.0
 0001753,0.00002023,-0.00002130,-0.00000710,0.00002969,-0.00000722,-0.0
 0001397,-0.00000820,-0.00000182,0.00003887,0.00002996,-0.00001121,0.00
 005516,-0.00002151,0.00007076,-0.00038233,0.00036094,-0.00016359,0.000
 10302,-0.00022049,0.00002789,-0.00020757,-0.00078762,-0.00000546,0.000
 00682,0.00007616,0.00003116,-0.00028739,-0.00036727,0.00004895,-0.0001
 9124,0.00073518,-0.00104088,-0.13687423,0.16127934,-0.00026626,0.00006
 748,0.00002150,0.00042174,0.00238561,0.00793107,-0.00485829,0.00326442
 ,0.00240602,-0.02862041,0.02534831,-0.03909716,0.00135601,0.00024287,0
 .00380539,0.00044335,-0.00123940,-0.00276436,0.00018605,0.00055959,0.0
 0379333,0.00013206,0.00005208,0.00006034,-0.00003386,-0.00008936,0.000
 02764,0.00001367,-0.00001216,-0.00013866,-0.00000317,-0.00001694,-0.00
 010616,-0.00000046,-0.00000595,0.00000386,0.00000312,-0.00000468,-0.00
 002970,-0.00000808,-0.00000684,-0.00002110,-0.00001730,0.00006947,0.00
 038274,0.00007866,-0.00016854,-0.00049781,-0.00001384,0.00003132,-0.00
 010551,0.00005728,-0.00004022,-0.00070106,-0.00003295,-0.00000076,0.00
 013479,0.00001996,0.00002762,-0.00032995,0.00014076,-0.00103519,-0.004
 45013,0.03120839,-0.02949512,0.02900522,-0.00040209,-0.00051294,0.0001
 7446,0.00126313,0.00028336,-0.00006610,-0.00118662,0.00054073,-0.00009
 057,0.00342132,-0.00745862,0.00150575,0.00257164,-0.00279776,0.0006527
 0,-0.43597903,0.19216334,-0.04762763,0.00388654,-0.00250912,0.00051402
 ,-0.00178013,-0.00305389,0.00050551,-0.00257322,0.00230132,-0.00053876
 ,-0.00015730,0.00029635,-0.00000336,0.00003509,0.00002000,0.00001113,-
 0.00001541,0.00005129,-0.00002011,-0.00003614,-0.00004049,0.00001031,0
 .00007328,0.00002056,-0.00000706,-0.00023136,-0.00000782,-0.00001327,0
 .00010868,0.00008902,-0.00002815,-0.00010218,-0.00027834,0.00006338,-0
 .00076929,-0.00075593,0.00006507,0.00005688,-0.00005737,-0.00002190,0.
 00004855,0.00002828,-0.00002912,-0.00003078,-0.00009171,0.00001757,-0.
 00082720,0.00086320,-0.00020686,0.43260507,-0.00010912,0.00019343,-0.0
 0003970,-0.00068951,0.00024573,0.00000209,0.00014318,-0.00100306,-0.00
 006932,0.00294517,0.00336221,-0.00061012,0.04400755,-0.02931632,0.0061
 4657,0.13817153,-0.10823439,0.02350288,-0.00430755,-0.00610647,0.00138
 929,0.00078014,-0.00005867,-0.00004642,-0.00133335,0.00013020,0.000058
 63,-0.00003941,0.00012952,-0.00019893,-0.00009311,0.00010552,-0.000059
 56,0.00002398,-0.00005833,0.00003500,0.00002978,0.00005683,-0.00000602
 ,-0.00009978,-0.00002074,0.00000306,-0.00003882,-0.00004455,0.00006498
 ,0.00044160,-0.00098267,0.00023473,0.00003276,0.00045414,-0.00012828,0
 .00138184,0.00103214,0.00009084,0.00001259,-0.00008094,0.00002733,-0.0
 0001666,-0.00000526,-0.00000208,0.00010590,0.00027906,-0.00004516,-0.0
 0225638,0.00003600,0.00006077,-0.17910110,0.13987184,-0.00000377,-0.00
 005352,-0.00001907,0.00016236,0.00004031,0.00034296,-0.00002689,-0.000
 05633,-0.00132749,-0.00046172,-0.00087474,-0.00020427,-0.00809296,0.00
 479461,-0.00389138,-0.03755538,0.02505154,-0.00853852,0.00088881,0.001
 41161,0.00158054,-0.00019196,-0.00016466,-0.00029092,0.00011917,0.0001
 6265,0.00066303,0.00000293,-0.00017784,-0.00093583,0.00002283,-0.00006
 781,-0.00025240,-0.00000639,0.00004599,0.00016374,-0.00000825,-0.00001
 824,-0.00000600,0.00002587,0.00001205,0.00003730,-0.00000212,0.0000571
 8,0.00026061,-0.00007998,0.00025749,0.00022183,-0.00001404,-0.00014118
 ,-0.00018748,-0.00029279,0.00001928,0.00137434,0.00000966,0.00001342,0
 .00004448,-0.00000066,0.00000704,0.00000707,-0.00001774,-0.00004704,0.
 00004548,0.00038782,0.00013985,0.00063194,0.04513572,-0.03041760,0.010
 22739,-0.00009604,0.00013870,-0.00003129,0.00028267,-0.00002644,0.0000
 1417,-0.00000925,0.00018101,-0.00003138,-0.00011231,-0.00000867,-0.000
 00243,-0.00007807,0.00014599,-0.00002705,0.00004521,-0.00008658,0.0000
 1760,0.00061054,0.00032094,-0.00003782,-0.00044658,-0.00294592,0.00052
 256,0.00053696,0.00231813,-0.00040017,0.00154884,-0.02919126,0.0050614
 6,-0.06244982,-0.03559405,0.00594578,0.00733570,0.02487512,-0.00428331
 ,-0.00365350,0.00269390,-0.00056519,-0.00105697,0.00021118,-0.00003730
 ,-0.00586942,-0.00085807,0.00003900,0.00163215,-0.00130807,0.00023746,
 -0.00095031,-0.00054353,0.00008831,-0.00024714,-0.00002465,-0.00000380
 ,-0.00001277,0.00000783,-0.00000146,0.00015420,-0.00000900,0.00000861,
 -0.00000723,0.00001699,-0.00000469,0.00001551,0.00000056,0.00000050,0.
 00002633,0.00003495,-0.00000460,0.06153596,-0.00002832,-0.00005297,0.0
 0001148,-0.00001254,0.00005296,-0.00001404,0.00000490,-0.00004126,0.00
 001036,0.00001718,0.00004161,-0.00001215,-0.00007080,-0.00011497,0.000
 02199,0.00000408,0.00006033,-0.00001493,-0.00031760,-0.00007576,0.0000
 4378,0.00102722,-0.00251385,-0.00023309,0.00296883,0.00056534,-0.00010
 983,-0.00331238,-0.00810082,0.00205442,-0.03661359,-0.32676137,0.04943
 036,-0.00432670,-0.01112829,0.00264028,0.00285956,0.00016721,0.0013107
 4,0.00036287,0.00054791,-0.00027733,-0.00162188,0.00127092,0.00090748,
 0.00037178,-0.00011043,0.00015731,-0.00015136,-0.00023681,-0.00003201,
 -0.00008620,0.00004723,-0.00001045,0.00000463,0.00000590,-0.00000034,0
 .00002268,0.00000568,-0.00000368,-0.00000471,-0.00000253,0.00000099,-0
 .00001067,0.00000502,-0.00000073,0.00000423,-0.00000559,0.00000692,0.0
 3907187,0.34634019,0.00000545,0.00000333,-0.00002737,0.00000313,-0.000
 01602,-0.00002875,-0.00000311,0.00001363,0.00002645,-0.00000128,-0.000
 01500,-0.00003467,0.00001536,0.00001532,0.00002057,-0.00000142,-0.0000
 0616,-0.00002551,0.00004078,0.00004720,0.00019782,-0.00013082,-0.00027
 796,-0.00381445,-0.00049301,-0.00013124,-0.00026165,0.00051554,0.00184
 434,0.00360558,0.00614940,0.04944091,-0.04853217,0.00078634,0.00288927
 ,0.00383257,-0.00058708,0.00132480,0.00737762,-0.00007011,-0.00027443,
 -0.00103474,0.00017251,0.00091544,0.00644937,-0.00005754,0.00014094,0.
 00076290,0.00002126,-0.00003782,-0.00040852,0.00001433,-0.00000142,0.0
 0001819,-0.00000054,0.00000192,0.00001295,-0.00000494,-0.00000080,-0.0
 0000867,0.00000081,0.00000125,0.00000291,0.00000168,-0.00000029,0.0000
 0350,-0.00000161,0.00000758,0.00003762,-0.00645901,-0.05497757,0.03688
 941,-0.00002886,-0.00011226,0.00003591,-0.00005538,0.00012567,-0.00003
 009,0.00002221,-0.00009363,0.00001682,0.00003598,0.00010363,-0.0000181
 1,-0.00012180,-0.00029049,0.00005156,-0.00000729,0.00016204,-0.0000312
 5,-0.00037581,0.00035610,-0.00006457,-0.00035148,-0.00155271,0.0002632
 6,0.00008858,0.00042138,-0.00006997,-0.00209249,0.00396058,-0.00076518
 ,-0.01825833,-0.01101269,0.00171569,-0.29746195,-0.09398625,0.01407273
 ,-0.00019391,0.00091461,-0.00018939,0.00180665,-0.00058594,0.00005816,
 0.00047008,0.00072362,-0.00011943,0.00001870,-0.00000533,0.00001484,-0
 .00006401,-0.00007162,0.00001031,-0.00000596,0.00009615,-0.00001990,0.
 00000647,0.00000712,-0.00000594,0.00000990,0.00001159,-0.00000640,-0.0
 0000649,-0.00000630,0.00000143,-0.00002412,0.00000338,-0.00000180,0.00
 000076,-0.00002816,0.00000585,0.00098139,0.00013507,0.00002195,0.31503
 480,-0.00002258,-0.00000816,0.00000062,-0.00001560,0.00003170,0.000011
 03,0.00001594,-0.00002090,-0.00000437,0.00004220,0.00000172,0.00000209
 ,0.00002942,0.00008702,-0.00003959,-0.00000455,0.00000857,-0.00000225,
 0.00024225,-0.00030555,0.00001703,0.00080167,0.00094148,-0.00012633,-0
 .00020756,-0.00013904,0.00004879,0.00339391,-0.00169904,0.00161320,0.0
 1938273,0.01091896,-0.00100596,-0.09398905,-0.09575021,0.00914854,-0.0
 2970299,-0.00594437,0.00139184,0.00001102,-0.00547912,0.00217031,0.000
 77536,-0.00102224,0.00006966,0.00003830,-0.00027927,-0.00019249,-0.000
 22386,0.00023284,-0.00001108,-0.00012236,-0.00000438,0.00003739,-0.000
 00040,0.00000642,-0.00000355,0.00004003,0.00000561,0.00000167,-0.00000
 240,0.00000058,0.00000067,0.00001227,0.00000542,0.00000513,0.00000372,
 0.00000050,0.00000165,-0.00055914,0.00065811,-0.00086549,0.10091290,0.
 09713958,0.00000555,0.00000061,-0.00001592,-0.00000118,0.00001003,0.00
 008722,-0.00000255,-0.00000515,-0.00004547,-0.00000703,0.00000198,0.00
 000610,-0.00000409,-0.00004492,-0.00013483,0.00000110,-0.00000036,-0.0
 0000154,-0.00004373,0.00000871,-0.00021897,-0.00014135,-0.00014635,0.0
 0017845,0.00003903,0.00005038,0.00015104,-0.00066754,0.00162871,0.0071
 8073,-0.00355798,-0.00126110,0.00435863,0.01407077,0.00914373,-0.03986
 120,0.00511588,0.00166139,0.00333607,-0.00003836,0.00215916,0.00663920
 ,-0.00012796,0.00006972,-0.00066640,0.00000071,-0.00019485,-0.00135907
 ,0.00003577,-0.00000942,0.00018459,0.00002127,0.00004370,0.00019731,-0
 .00000075,-0.00000292,-0.00000679,-0.00000662,0.00000058,0.00001476,0.
 00000064,0.00000057,0.00000580,-0.00000308,0.00000530,0.00003197,-0.00
 000039,0.00000185,0.00000901,0.00014162,-0.00085788,-0.00415533,-0.015
 01455,-0.01151857,0.02762032,-0.00006777,-0.00014838,0.00005163,-0.000
 03289,0.00033091,-0.00007494,0.00000406,-0.00010810,0.00002672,0.00005
 634,0.00009314,-0.00002049,-0.00010967,-0.00008550,0.00001827,0.000002
 71,0.00011937,-0.00002227,0.00002998,-0.00013923,0.00002145,-0.0000155
 8,-0.00007015,0.00002257,0.00004509,0.00012666,-0.00002186,-0.00006460
 ,-0.00098287,0.00017351,0.00132225,-0.00153606,0.00021530,0.00731634,-
 0.00488308,0.00087946,-0.22898890,0.13210485,-0.02460808,-0.01822444,0
 .01959728,-0.00360235,-0.00404794,-0.00336545,0.00049267,-0.00009464,0
 .00176509,-0.00031290,-0.00000817,-0.00043035,0.00007180,-0.00055615,-
 0.00026840,0.00004808,0.00000455,0.00001293,-0.00001000,0.00004784,0.0
 0003175,-0.00001061,-0.00002425,0.00000556,-0.00000244,-0.00000370,0.0
 0000987,-0.00000181,0.00000272,-0.00001838,0.00000296,0.00019517,-0.00
 029090,0.00005309,0.00068254,0.00045584,-0.00004095,0.24144669,0.00002
 167,0.00005117,-0.00001876,-0.00000246,-0.00000656,-0.00001906,-0.0000
 3512,0.00004284,-0.00000339,-0.00003917,-0.00004131,0.00000039,0.00004
 591,0.00006265,-0.00000221,0.00000315,-0.00005447,0.00001115,0.0001091
 5,-0.00002231,0.00004212,-0.00009330,-0.00023701,-0.00019556,0.0002724
 1,0.00013695,0.00001244,-0.00105930,-0.00051840,-0.00004171,-0.0021499
 3,-0.00503996,0.00207229,0.02576199,-0.01316675,0.00311958,0.13214646,
 -0.16154644,0.02258342,-0.01086810,0.01082438,-0.00127794,-0.00277883,
 0.00027501,0.00123639,-0.00054629,0.00063579,-0.00007789,0.00016274,-0
 .00005156,0.00003467,-0.00014437,-0.00015473,-0.00001767,-0.00000509,-
 0.00000452,0.00000408,-0.00000922,-0.00000104,0.00000504,-0.00000388,0
 .00000704,0.00000317,0.00000434,-0.00000273,0.00000101,-0.00000080,0.0
 0001222,-0.00000315,0.00117577,-0.00052120,0.00008653,-0.00035409,0.00
 085774,-0.00077535,-0.14210892,0.16790237,-0.00000738,-0.00001039,-0.0
 0000825,0.00000148,-0.00001900,-0.00011775,0.00000530,-0.00000537,0.00
 003085,0.00000930,0.00000094,-0.00004278,-0.00001163,-0.00000014,0.000
 05624,-0.00000100,0.00001171,0.00000547,-0.00002075,0.00003533,0.00019
 003,0.00003660,-0.00019729,-0.00132135,-0.00004916,0.00001061,0.000194
 95,0.00019412,-0.00002808,-0.00067960,0.00031687,0.00207238,0.00663613
 ,-0.00443662,0.00284547,0.00297287,-0.02461857,0.02259082,-0.04233954,
 0.00169174,-0.00100728,0.00421268,0.00038442,0.00123317,0.00730600,0.0
 0008752,-0.00005725,0.00024362,-0.00003193,0.00002919,0.00012512,0.000
 02439,-0.00002814,-0.00026400,0.00000122,0.00000225,0.00000276,0.00000
 326,0.00000261,0.00001768,-0.00000032,0.00000450,0.00002643,-0.0000008
 5,0.00000076,0.00000145,0.00000016,-0.00000385,-0.00000661,-0.00020217
 ,0.00007463,-0.00009461,0.00009794,-0.00076718,-0.00345167,0.02656833,
 -0.02593273,0.03048825,0.00021004,0.00005648,-0.00003689,-0.00006365,-
 0.00014367,0.00003594,-0.00011519,0.00007345,-0.00001469,-0.00011086,-
 0.00020588,0.00003345,0.00032329,-0.00002909,0.00001669,-0.00003842,-0
 .00016006,0.00002872,-0.00019951,0.00023025,-0.00004182,0.00180969,0.0
 0062208,-0.00010543,-0.00067129,0.00072182,-0.00012067,-0.00462663,0.0
 0257390,-0.00055297,-0.00108037,0.00027409,-0.00004451,-0.00494272,-0.
 00130439,0.00012099,0.00012763,-0.02840344,0.00491205,-0.06463256,-0.0
 4396247,0.00748020,0.00963222,0.02376232,-0.00410423,0.00005006,0.0023
 5990,-0.00038538,-0.00098081,-0.00191991,0.00033604,0.00056871,-0.0006
 1386,0.00010965,0.00002613,-0.00005020,0.00001565,-0.00035865,-0.00004
 802,0.00000958,0.00001498,0.00000041,0.00000044,-0.00001035,-0.0000198
 6,0.00000354,-0.00000923,0.00002033,-0.00000474,0.00008879,-0.00000727
 ,0.00000884,-0.00011019,-0.00130706,0.00022576,0.00108241,0.00049527,-
 0.00004229,0.06401648,-0.00007397,0.00003977,-0.00001467,0.00005915,-0
 .00008632,0.00002307,0.00003234,0.00002112,-0.00000287,0.00001621,0.00
 002218,-0.00000551,-0.00007983,0.00007197,-0.00000738,0.00002214,-0.00
 002068,-0.00000114,0.00016585,-0.00002906,-0.00000079,-0.00105381,-0.0
 0013453,0.00014981,0.00029887,-0.00052429,0.00001630,0.00338969,0.0000
 9882,0.00116011,0.00011007,0.00055857,-0.00028770,-0.00151959,0.001368
 12,0.00108678,0.00092746,-0.00430514,0.00151016,-0.04284812,-0.3249414
 1,0.04944687,-0.00232050,-0.01589066,0.00340138,-0.00158847,-0.0028554
 3,-0.00014753,-0.00260883,0.00192474,-0.00041593,0.00008882,0.00003491
 ,0.00001686,-0.00001300,0.00001439,0.00000277,0.00008542,0.00005317,-0
 .00000012,0.00000626,0.00000248,0.00000074,0.00000787,0.00000161,0.000
 00017,0.00000050,0.00000766,0.00000051,-0.00003757,-0.00010256,-0.0001
 2824,0.00016562,-0.00024397,0.00003045,-0.00021748,0.00056083,-0.00085
 768,0.04698488,0.34435372,0.00001717,-0.00000504,-0.00004449,-0.000013
 01,0.00000222,0.00002358,-0.00000757,-0.00000070,-0.00000894,-0.000004
 49,-0.00000661,-0.00000030,0.00001727,-0.00000605,0.00003174,-0.000003
 07,-0.00000517,-0.00003464,-0.00003185,0.00000116,-0.00003612,0.000194
 76,0.00015818,0.00077238,-0.00005671,0.00002666,-0.00043544,-0.0006939
 6,0.00113807,0.00634766,-0.00000104,-0.00028731,-0.00104629,0.00014604
 ,0.00109450,0.00744908,-0.00022183,0.00123769,0.00412599,0.00730967,0.
 04946755,-0.04815895,0.00046974,0.00362876,0.00311362,0.00028701,-0.00
 013803,-0.00367978,0.00044160,-0.00039762,-0.00025037,-0.00000952,0.00
 001969,0.00015669,-0.00000020,0.00000342,0.00004042,-0.00002052,-0.000
 00005,0.00004583,-0.00000079,0.00000024,0.00000555,-0.00000145,-0.0000
 0023,0.00000083,-0.00000090,0.00000144,0.00001263,0.00001460,-0.000126
 72,-0.00081105,-0.00002989,0.00001722,-0.00008401,0.00008285,-0.000846
 83,-0.00418437,-0.00788394,-0.05497643,0.03664879\\0.00000301,0.000008
 97,-0.00000041,-0.00000251,-0.00000985,0.00000217,0.00000018,0.0000043
 1,0.00000357,-0.00000271,-0.00000420,0.00000203,0.00000056,0.00000107,
 0.00000009,0.00000045,0.00000017,0.00000281,0.00000308,-0.00000279,-0.
 00000294,0.00000210,0.00000086,0.00000445,-0.00000186,0.00000194,-0.00
 000227,-0.00000147,-0.00000219,-0.00000246,0.00000195,-0.00000059,-0.0
 0000024,0.00000169,0.00000007,-0.00000066,-0.00000188,0.00000033,-0.00
 000145,-0.00000072,0.,0.00000101,0.00000576,0.00000985,-0.00000115,-0.
 00000541,-0.00002343,-0.00000121,0.00000086,0.00001249,-0.00000023,-0.
 00000261,0.00000714,0.00000165,0.00000077,-0.00000402,0.00000113,-0.00
 000035,-0.00000360,0.00000049,-0.00000015,-0.00000131,0.00000064,0.000
 00029,-0.00000032,-0.00000272,-0.00000117,0.00000112,0.00000011,-0.000
 00109,0.00000116,-0.00000151,-0.00000052,0.00000183,-0.00000143,0.0000
 0066,0.00000085,-0.00000029,0.00000109,0.00000017,-0.00000118\\\@


    THE DOUGHNUT CREED
 AS YOU RAMBLE ON THROUGH LIFE, BROTHER
 WHATEVER BE YOUR GOAL
 KEEP YOUR EYE UPON THE DOUGHNUT
 AND NOT UPON THE HOLE.
 Job cpu time:       0 days  6 hours 36 minutes 47.6 seconds.
 Elapsed time:       0 days  1 hours 23 minutes 55.1 seconds.
 File lengths (MBytes):  RWF=   1037 Int=      0 D2E=      0 Chk=     23 Scr=      1
 Normal termination of Gaussian 16 at Wed Dec 27 21:15:55 2023.
