
Running Job 1 of 1 212-SM12.in
qchem 212-SM12.in_673393.0 /expanse/lustre/scratch/selhajj/temp_project/qcscratch/28446364/qchem673393/ 0
/cm/shared/apps/spack/cpu/opt/spack/linux-centos8-zen2/gcc-10.2.0/qchem-5.4-akfmr7b3t57bfs6qan3padb2wnb2i7cl/exe/qcprog.exe_s 212-SM12.in_673393.0 /expanse/lustre/scratch/selhajj/temp_project/qcscratch/28446364/qchem673393/
                  Welcome to Q-Chem
     A Quantum Leap Into The Future Of Chemistry


 Q-Chem 5.4, Q-Chem, Inc., Pleasanton, CA (2021)

 License issued to: University of California, San Diego (site)

 E. Epifanovsky,  A. T. B. Gilbert,  Xintian Feng,  Joonho Lee,  Yuezhi Mao,  
 N. Mardirossian,  P. Pokhilko,  A. White,  M. Wormit,  M. P. Coons,  
 A. L. Dempwolff,  Zhengting Gan,  D. Hait,  P. R. Horn,  L. D. Jacobson,  
 I. Kaliman,  J. Kussmann,  A. W. Lange,  Ka Un Lao,  D. S. Levine,  Jie Liu,  
 S. C. McKenzie,  A. F. Morrison,  K. Nanda,  F. Plasser,  D. R. Rehn,  
 M. L. Vidal,  Zhi-Qiang You,  Ying Zhu,  B. Alam,  B. Albrecht,  
 A. Aldossary,  E. Alguire,  J. H. Andersen,  D. Barton,  K. Begam,  A. Behn,  
 Y. A. Bernard,  E. J. Berquist,  H. Burton,  A. Carreras,  K. Carter-Fenk,  
 R. Chakraborty,  A. D. Chien,  K. D. Closser,  V. Cofer-Shabica,  
 S. Dasgupta,  Jia Deng,  M. de Wergifosse,  M. Diedenhofen,  Hainam Do,  
 S. Ehlert,  Po-Tung Fang,  S. Fatehi,  Qingguo Feng,  J. Gayvert,  
 Qinghui Ge,  G. Gidofalvi,  M. Goldey,  J. Gomes,  C. Gonzalez-Espinoza,  
 S. Gulania,  A. Gunina,  M. W. D. Hanson-Heine,  P. H. P. Harbach,  
 A. W. Hauser,  M. F. Herbst,  M. Hernandez Vera,  M. Hodecker,  
 Z. C. Holden,  S. Houck,  Xunkun Huang,  Kerwin Hui,  B. C. Huynh,  
 M. Ivanov,  Hyunjun Ji,  Hanjie Jiang,  B. Kaduk,  S. Kaehler,  
 K. Khistyaev,  Jaehoon Kim,  P. Klunzinger,  Z. Koczor-Benda,  
 Joong Hoon Koh,  D. Kosenkov,  L. Koulias,  T. Kowalczyk,  C. M. Krauter,  
 K. Kue,  A. Kunitsa,  T. Kus,  A. Landau,  K. V. Lawler,  D. Lefrancois,  
 S. Lehtola,  Rain Li,  Yi-Pei Li,  Jiashu Liang,  M. Liebenthal,  
 Hung-Hsuan Lin,  You-Sheng Lin,  Fenglai Liu,  Kuan-Yu Liu,  
 M. Loipersberger,  A. Luenser,  A. Manjanath,  P. Manohar,  E. Mansoor,  
 S. F. Manzer,  Shan-Ping Mao,  A. V. Marenich,  T. Markovich,  S. Mason,  
 S. A. Maurer,  P. F. McLaughlin,  M. F. S. J. Menger,  J.-M. Mewes,  
 S. A. Mewes,  P. Morgante,  J. W. Mullinax,  T. S. Nguyen-Beck,  
 K. J. Oosterbaan,  G. Paran,  Alexander C. Paul,  Suranjan K. Paul,  
 F. Pavosevic,  Zheng Pei,  S. Prager,  E. I. Proynov,  E. Ramos,  B. Rana,  
 A. E. Rask,  A. Rettig,  R. M. Richard,  F. Rob,  E. Rossomme,  T. Scheele,  
 M. Scheurer,  M. Schneider,  N. Sergueev,  S. M. Sharada,  W. Skomorowski,  
 D. W. Small,  C. J. Stein,  Yu-Chuan Su,  E. J. Sundstrom,  Zhen Tao,  
 J. Thirman,  T. Tsuchimochi,  N. M. Tubman,  S. P. Veccham,  O. Vydrov,  
 J. Wenzel,  J. Witte,  A. Yamada,  Kun Yao,  S. Yeganeh,  S. R. Yost,  
 A. Zech,  Igor Ying Zhang,  Xing Zhang,  Yu Zhang,  D. Zuev,  
 A. Aspuru-Guzik,  A. T. Bell,  N. A. Besley,  K. B. Bravaya,  B. R. Brooks,  
 D. Casanova,  Jeng-Da Chai,  S. Coriani,  C. J. Cramer,  
 A. E. DePrince, III,  R. A. DiStasio Jr.,  A. Dreuw,  B. D. Dunietz,  
 T. R. Furlani,  W. A. Goddard III,  S. Grimme,  S. Hammes-Schiffer,  
 T. Head-Gordon,  W. J. Hehre,  Chao-Ping Hsu,  T.-C. Jagau,  Yousung Jung,  
 A. Klamt,  Jing Kong,  D. S. Lambrecht,  WanZhen Liang,  N. J. Mayhall,  
 C. W. McCurdy,  J. B. Neaton,  C. Ochsenfeld,  J. A. Parkhill,  R. Peverati,  
 V. A. Rassolov,  Yihan Shao,  L. V. Slipchenko,  T. Stauch,  R. P. Steele,  
 J. E. Subotnik,  A. J. W. Thom,  A. Tkatchenko,  D. G. Truhlar,  
 T. Van Voorhis,  T. A. Wesolowski,  K. B. Whaley,  H. L. Woodcock III,  
 P. M. Zimmerman,  S. Faraji,  P. M. W. Gill,  M. Head-Gordon,  
 J. M. Herbert,  A. I. Krylov

 Contributors to earlier versions of Q-Chem not listed above: 
 R. D. Adamson,  B. Austin,  R. Baer,  J. Baker,  G. J. O. Beran,  
 K. Brandhorst,  S. T. Brown,  E. F. C. Byrd,  A. K. Chakraborty,  
 G. K. L. Chan,  Chun-Min Chang,  Yunqing Chen,  C.-L. Cheng,  
 Siu Hung Chien,  D. M. Chipman,  D. L. Crittenden,  H. Dachsel,  
 R. J. Doerksen,  A. D. Dutoi,  R. G. Edgar,  J. Fosso-Tande,  
 L. Fusti-Molnar,  D. Ghosh,  A. Ghysels,  A. Golubeva-Zadorozhnaya,  
 J. Gonthier,  M. S. Gordon,  S. R. Gwaltney,  G. Hawkins,  J. E. Herr,  
 A. Heyden,  S. Hirata,  E. G. Hohenstein,  G. Kedziora,  F. J. Keil,  
 C. Kelley,  Jihan Kim,  R. A. King,  R. Z. Khaliullin,  P. P. Korambath,  
 W. Kurlancheek,  A. Laurent,  A. M. Lee,  M. S. Lee,  S. V. Levchenko,  
 Ching Yeh Lin,  D. Liotard,  E. Livshits,  R. C. Lochan,  I. Lotan,  
 L. A. Martinez-Martinez,  P. E. Maslen,  N. Nair,  D. P. O'Neill,  
 D. Neuhauser,  E. Neuscamman,  C. M. Oana,  R. Olivares-Amaya,  R. Olson,  
 T. M. Perrine,  B. Peters,  P. A. Pieniazek,  A. Prociuk,  Y. M. Rhee,  
 J. Ritchie,  M. A. Rohrdanz,  E. Rosta,  N. J. Russ,  H. F. Schaefer III,  
 M. W. Schmidt,  N. E. Schultz,  S. Sharma,  N. Shenvi,  C. D. Sherrill,  
 A. C. Simmonett,  A. Sodt,  T. Stein,  D. Stuck,  K. S. Thanthiriwatte,  
 V. Vanovschi,  L. Vogt,  Tao Wang,  A. Warshel,  M. A. Watson,  
 C. F. Williams,  Q. Wu,  X. Xu,  Jun Yang,  W. Zhang,  Yan Zhao

 Please cite Q-Chem as follows:
 Y. Shao et al., Mol. Phys. 113, 184-215 (2015)
 DOI: 10.1080/00268976.2014.952696

 Q-Chem 5.4.0 for Intel X86 EM64T Linux

 Parts of Q-Chem use Armadillo 9.800.1 (Horizon Scraper).
 http://arma.sourceforge.net/

 Q-Chem begins on Sat Feb  3 12:51:43 2024  

 Host: 
0

     Scratch files written to /expanse/lustre/scratch/selhajj/temp_project/qcscratch/28446364/qchem673393//
 May1621 |scratch|qcdevops|jenkins|workspace|build_RNUM    
 Processing $rem in /cm/shared/apps/spack/cpu/opt/spack/linux-centos8-zen2/gcc-10.2.0/qchem-5.4-akfmr7b3t57bfs6qan3padb2wnb2i7cl/config/preferences:
 Processing $rem in /home/selhajj/.qchemrc:
 Symmetry turned off for PCM/SM12/SMD calculation
 Method-specific promolecule density matrix will be built for SM12 calculation

 Checking the input file for inconsistencies... 	...done.

--------------------------------------------------------------
User input:
--------------------------------------------------------------
$molecule
0 1
O                  3.7817280000     -2.4795000000      0.3830730000
C                  3.0009030000     -1.5493650000      0.2512430000
C                  3.4020100000     -0.1567100000      0.5749910000
C                  4.6811310000      0.0983440000      1.0810400000
C                  5.0719070000      1.4021960000      1.3572670000
C                  4.1900770000      2.4607210000      1.1176670000
C                  2.9217140000      2.2134430000      0.6056510000
C                  2.5142260000      0.9020490000      0.3395370000
C                  1.1346480000      0.6691040000     -0.1976700000
O                  0.4883970000      1.6271630000     -0.6100320000
C                  0.6438960000     -0.7251840000     -0.2678300000
C                 -0.7150360000     -1.0436430000     -0.6013150000
C                 -0.9728950000     -2.3382120000     -1.1210780000
C                  0.0066990000     -3.3130450000     -1.1566910000
C                  1.2869250000     -3.0554150000     -0.6684580000
C                  1.6029520000     -1.7746180000     -0.2354680000
N                 -1.7595520000     -0.1729750000     -0.4117820000
C                 -1.7780410000      0.7898170000      0.6994740000
C                 -3.1547400000      0.8092110000      1.3686560000
C                 -4.2539650000      1.2665560000      0.3868980000
C                 -3.8878220000      0.8782790000     -1.0606050000
C                 -3.0372160000     -0.3916230000     -1.1042870000
H                  5.3491010000     -0.7387410000      1.2425380000
H                  6.0619970000      1.5996440000      1.7523830000
H                  4.4970660000      3.4789290000      1.3294280000
H                  2.2291980000      3.0209210000      0.4039330000
H                 -1.9720000000     -2.5940950000     -1.4440380000
H                 -0.2412920000     -4.2991570000     -1.5339600000
H                  2.0496910000     -3.8216950000     -0.6345280000
H                 -1.4984340000      1.7878130000      0.3489590000
H                 -1.0146280000      0.4863780000      1.4194970000
H                 -3.1127900000      1.4701470000      2.2387290000
H                 -3.3796240000     -0.1927050000      1.7490600000
H                 -4.3908580000      2.3498920000      0.4484970000
H                 -5.2096690000      0.8158440000      0.6708340000
H                 -4.7875660000      0.7235320000     -1.6619960000
H                 -3.3234580000      1.6842960000     -1.5385110000
H                 -2.8267020000     -0.6596860000     -2.1422390000
H                 -3.5979780000     -1.2279100000     -0.6576690000
$end

$rem
BASIS  =  6-311++G(d,p)
GUI  =  2
JOB_TYPE  =  SP
METHOD  =  B3LYP
SCF_CONVERGENCE  = 8
SOLVENT_METHOD = sm12
$end

$smx
solvent dimethylformamide
charges CM5
$end





--------------------------------------------------------------
 ----------------------------------------------------------------
             Standard Nuclear Orientation (Angstroms)
    I     Atom           X                Y                Z
 ----------------------------------------------------------------
    1      O       3.7817280000    -2.4795000000     0.3830730000
    2      C       3.0009030000    -1.5493650000     0.2512430000
    3      C       3.4020100000    -0.1567100000     0.5749910000
    4      C       4.6811310000     0.0983440000     1.0810400000
    5      C       5.0719070000     1.4021960000     1.3572670000
    6      C       4.1900770000     2.4607210000     1.1176670000
    7      C       2.9217140000     2.2134430000     0.6056510000
    8      C       2.5142260000     0.9020490000     0.3395370000
    9      C       1.1346480000     0.6691040000    -0.1976700000
   10      O       0.4883970000     1.6271630000    -0.6100320000
   11      C       0.6438960000    -0.7251840000    -0.2678300000
   12      C      -0.7150360000    -1.0436430000    -0.6013150000
   13      C      -0.9728950000    -2.3382120000    -1.1210780000
   14      C       0.0066990000    -3.3130450000    -1.1566910000
   15      C       1.2869250000    -3.0554150000    -0.6684580000
   16      C       1.6029520000    -1.7746180000    -0.2354680000
   17      N      -1.7595520000    -0.1729750000    -0.4117820000
   18      C      -1.7780410000     0.7898170000     0.6994740000
   19      C      -3.1547400000     0.8092110000     1.3686560000
   20      C      -4.2539650000     1.2665560000     0.3868980000
   21      C      -3.8878220000     0.8782790000    -1.0606050000
   22      C      -3.0372160000    -0.3916230000    -1.1042870000
   23      H       5.3491010000    -0.7387410000     1.2425380000
   24      H       6.0619970000     1.5996440000     1.7523830000
   25      H       4.4970660000     3.4789290000     1.3294280000
   26      H       2.2291980000     3.0209210000     0.4039330000
   27      H      -1.9720000000    -2.5940950000    -1.4440380000
   28      H      -0.2412920000    -4.2991570000    -1.5339600000
   29      H       2.0496910000    -3.8216950000    -0.6345280000
   30      H      -1.4984340000     1.7878130000     0.3489590000
   31      H      -1.0146280000     0.4863780000     1.4194970000
   32      H      -3.1127900000     1.4701470000     2.2387290000
   33      H      -3.3796240000    -0.1927050000     1.7490600000
   34      H      -4.3908580000     2.3498920000     0.4484970000
   35      H      -5.2096690000     0.8158440000     0.6708340000
   36      H      -4.7875660000     0.7235320000    -1.6619960000
   37      H      -3.3234580000     1.6842960000    -1.5385110000
   38      H      -2.8267020000    -0.6596860000    -2.1422390000
   39      H      -3.5979780000    -1.2279100000    -0.6576690000
 ----------------------------------------------------------------
 Nuclear Repulsion Energy =        1728.16705008 hartrees
 There are       77 alpha and       77 beta electrons
 Requested basis set is 6-311++G(d,p)
 There are 217 shells and 603 basis functions

 Total QAlloc Memory Limit   8000 MB
 Mega-Array Size       188 MB
 MEM_STATIC part       192 MB
 A cutoff of  1.0D-11 yielded  17352 shell pairs
 There are    137060 function pairs (    146143 Cartesian)
 Smallest overlap matrix eigenvalue = 1.27E-07

 Q-Chem warning in module stvman/mkSTV.C, line 323:

 Overlap eigenvalue is smaller than square root of threshold
 Use THRESH >= 12 to get rid of this warning

 Linear dependence detected in AO basis
 Tighter screening thresholds may be required for diffuse basis sets
 Use S2THRESH > 14 and THRESH = 14 in case of SCF convergence issues
 Number of orthogonalized atomic orbitals = 596
 Maximum deviation from orthogonality = 1.285E-10

 Scale SEOQF with 1.000000e-02/1.000000e-01/1.000000e-01

 Standard Electronic Orientation quadrupole field applied
 Nucleus-field energy     =     0.0000000247 hartrees
 ================ Generating on-the-fly Promolecule Density  ================
Attempting to make child job directory: /expanse/lustre/scratch/selhajj/temp_project/qcscratch/28446364/qchem673393//Frg1/
Attempting to make child job directory: /expanse/lustre/scratch/selhajj/temp_project/qcscratch/28446364/qchem673393//Frg2/
Attempting to make child job directory: /expanse/lustre/scratch/selhajj/temp_project/qcscratch/28446364/qchem673393//Frg3/
Attempting to make child job directory: /expanse/lustre/scratch/selhajj/temp_project/qcscratch/28446364/qchem673393//Frg4/
Creating input file /expanse/lustre/scratch/selhajj/temp_project/qcscratch/28446364/qchem673393/Frg1.input
using default PutDataFrgm: nothing
calling putenv with: QCSCRATCH=/expanse/lustre/scratch/selhajj/temp_project/qcscratch/28446364/qchem673393/ 
Spawning Job For Fragment 0
Done Job For Fragment 0
calling putenv with: QCSCRATCH=/expanse/lustre/scratch/selhajj/temp_project/qcscratch/28446364 
calling putenv with: QCTHREADS=8 
Creating input file /expanse/lustre/scratch/selhajj/temp_project/qcscratch/28446364/qchem673393/Frg2.input
using default PutDataFrgm: nothing
calling putenv with: QCSCRATCH=/expanse/lustre/scratch/selhajj/temp_project/qcscratch/28446364/qchem673393/ 
Spawning Job For Fragment 1
Done Job For Fragment 1
calling putenv with: QCSCRATCH=/expanse/lustre/scratch/selhajj/temp_project/qcscratch/28446364 
calling putenv with: QCTHREADS=8 
Creating input file /expanse/lustre/scratch/selhajj/temp_project/qcscratch/28446364/qchem673393/Frg3.input
using default PutDataFrgm: nothing
calling putenv with: QCSCRATCH=/expanse/lustre/scratch/selhajj/temp_project/qcscratch/28446364/qchem673393/ 
Spawning Job For Fragment 2
Done Job For Fragment 2
calling putenv with: QCSCRATCH=/expanse/lustre/scratch/selhajj/temp_project/qcscratch/28446364 
calling putenv with: QCTHREADS=8 
Creating input file /expanse/lustre/scratch/selhajj/temp_project/qcscratch/28446364/qchem673393/Frg4.input
using default PutDataFrgm: nothing
calling putenv with: QCSCRATCH=/expanse/lustre/scratch/selhajj/temp_project/qcscratch/28446364/qchem673393/ 
Spawning Job For Fragment 3
Done Job For Fragment 3
calling putenv with: QCSCRATCH=/expanse/lustre/scratch/selhajj/temp_project/qcscratch/28446364 
calling putenv with: QCTHREADS=8 
 Time for running child jobs:  CPU 0.01 s  wall 4.01 s
 ============= Method Specific Promolecule Density Constructed =============
 Guess from superposition of atomic densities
 Warning:  Energy on first SCF cycle will be non-variational
 SAD guess density has 154.000000 electrons

 -----------------------------------------------------------------------
  General SCF calculation program by
  Eric Jon Sundstrom, Paul Horn, Yuezhi Mao, Dmitri Zuev, Alec White,
  David Stuck, Shaama M.S., Shane Yost, Joonho Lee, David Small,
  Daniel Levine, Susi Lehtola, Hugh Burton, Evgeny Epifanovsky,
  Bang C. Huynh
 -----------------------------------------------------------------------
 Exchange:     0.2000 Hartree-Fock + 0.0800 Slater + 0.7200 B88
 Correlation:  0.1900 VWN1RPA + 0.8100 LYP
 Using SG-1 standard quadrature grid
 using 8 threads for integral computing
 -------------------------------------------------------
 OpenMP Integral computing Module                
 Release: version 1.0, May 2013, Q-Chem Inc. Pittsburgh 
 -------------------------------------------------------
 
 SM12 calculation using CM5 charges
 Citation of the SM12 model:
 Marenich, A.V.; Cramer, C.J.; Truhlar, D.G.
 J. Chem. Theory Comput. 2013, 9, 609-612.
 iSolventCode=          91
 Solvent: dimethylformamide                                               
 
Hirshfeld: reading atomic densities from disk.
warning:  vdwdata pointer should have been initialzed before dftman

 Charges (in A.U.) from CM5PAC (Nov. 11, 2011)
 -----------------------------------------------
 Center     Atomic      CM5         Hirshfeld
 Number     Number      Charge      Charge
 -----------------------------------------------
    1          8       -0.067326   -0.017596
    2          6        0.040497    0.007037
    3          6       -0.002062   -0.000304
    4          6       -0.052299   -0.000679
    5          6       -0.058445   -0.003046
    6          6       -0.058470   -0.003094
    7          6       -0.052136   -0.000514
    8          6       -0.001849   -0.000108
    9          6        0.040096    0.006337
   10          8       -0.073534   -0.018829
   11          6        0.006471    0.001420
   12          6        0.065570    0.002974
   13          6       -0.049233   -0.000348
   14          6       -0.057999   -0.002762
   15          6       -0.052016   -0.000464
   16          6       -0.001616   -0.000052
   17          7       -0.282228   -0.022678
   18          6       -0.048337    0.000168
   19          6       -0.109704   -0.005545
   20          6       -0.114292   -0.006441
   21          6       -0.110368   -0.005910
   22          6       -0.052195   -0.002280
   23          1        0.065978    0.005342
   24          1        0.058798    0.003030
   25          1        0.058814    0.003050
   26          1        0.066590    0.005412
   27          1        0.064016    0.002820
   28          1        0.059002    0.003091
   29          1        0.067245    0.005505
   30          1        0.079451    0.006875
   31          1        0.075004    0.005637
   32          1        0.057942    0.003166
   33          1        0.061856    0.004124
   34          1        0.057886    0.003249
   35          1        0.057814    0.003265
   36          1        0.057897    0.003134
   37          1        0.062413    0.004182
   38          1        0.070332    0.004378
   39          1        0.068562    0.004574
 -----------------------------------------------

 Dipole moment (in Debye)
 -----------------------------------------------
                 X        Y        Z     Total
 -----------------------------------------------
 CM5         -0.4151  -0.0673   0.3797   0.5666
 Hirshfeld   -0.0967   0.0185   0.0793   0.1264
 -----------------------------------------------

 A restricted SCF calculation will be
 performed using DIIS
 SCF converges when DIIS error is below 1.0e-08
 ---------------------------------------
  Cycle       Energy         DIIS error
 ---------------------------------------
Hirshfeld: reading atomic densities from disk.

 Charges (in A.U.) from CM5PAC (Nov. 11, 2011)
 -----------------------------------------------
 Center     Atomic      CM5         Hirshfeld
 Number     Number      Charge      Charge
 -----------------------------------------------
    1          8       -0.509188   -0.459457
    2          6        0.401103    0.367642
    3          6       -0.030715   -0.028957
    4          6       -0.145876   -0.094256
    5          6       -0.151397   -0.095998
    6          6       -0.144018   -0.088643
    7          6       -0.155925   -0.104302
    8          6       -0.020859   -0.019118
    9          6        0.369873    0.336113
   10          8       -0.529190   -0.474484
   11          6       -0.059478   -0.064529
   12          6        0.194188    0.131593
   13          6       -0.183404   -0.134518
   14          6       -0.161535   -0.106298
   15          6       -0.206619   -0.155066
   16          6       -0.030791   -0.029227
   17          7       -0.275862   -0.016312
   18          6       -0.129919   -0.081414
   19          6       -0.299084   -0.194925
   20          6       -0.299833   -0.191982
   21          6       -0.298799   -0.194341
   22          6       -0.116952   -0.067037
   23          1        0.173698    0.113063
   24          1        0.181302    0.125534
   25          1        0.181552    0.125788
   26          1        0.171525    0.110347
   27          1        0.175987    0.114791
   28          1        0.181912    0.126002
   29          1        0.168974    0.107234
   30          1        0.139107    0.066530
   31          1        0.160602    0.091235
   32          1        0.161655    0.106879
   33          1        0.151973    0.094241
   34          1        0.152592    0.097955
   35          1        0.153267    0.098718
   36          1        0.162392    0.107629
   37          1        0.150050    0.091819
   38          1        0.162717    0.096762
   39          1        0.154266    0.090278
 -----------------------------------------------

 Dipole moment (in Debye)
 -----------------------------------------------
                 X        Y        Z     Total
 -----------------------------------------------
 CM5         -5.0703   0.9790   1.0615   5.2719
 Hirshfeld   -4.7518   1.0648   0.7612   4.9288
 -----------------------------------------------

    1    -945.0899929935      2.70e-02  
Hirshfeld: reading atomic densities from disk.

 Charges (in A.U.) from CM5PAC (Nov. 11, 2011)
 -----------------------------------------------
 Center     Atomic      CM5         Hirshfeld
 Number     Number      Charge      Charge
 -----------------------------------------------
    1          8        0.162763    0.212494
    2          6       -0.288060   -0.321520
    3          6       -0.091173   -0.089415
    4          6        0.002200    0.053821
    5          6        0.026769    0.082169
    6          6        0.025066    0.080442
    7          6        0.011174    0.062796
    8          6       -0.088234   -0.086493
    9          6       -0.287141   -0.320900
   10          8        0.238177    0.292883
   11          6       -0.108587   -0.113637
   12          6       -0.008515   -0.071110
   13          6        0.025399    0.074284
   14          6        0.043589    0.098825
   15          6        0.049714    0.101267
   16          6       -0.094020   -0.092456
   17          7       -0.311214   -0.051664
   18          6        0.042935    0.091440
   19          6        0.037436    0.141594
   20          6        0.036560    0.144411
   21          6        0.042995    0.147454
   22          6        0.049376    0.099291
   23          1        0.037529   -0.023106
   24          1        0.041096   -0.014672
   25          1        0.041184   -0.014580
   26          1        0.034854   -0.026324
   27          1        0.045021   -0.016174
   28          1        0.038086   -0.017824
   29          1        0.030760   -0.030981
   30          1        0.051443   -0.021134
   31          1        0.029136   -0.040231
   32          1        0.012036   -0.042740
   33          1        0.005989   -0.051742
   34          1        0.002726   -0.051911
   35          1       -0.002719   -0.057268
   36          1        0.010515   -0.044248
   37          1        0.020202   -0.038028
   38          1        0.047169   -0.018786
   39          1        0.036912   -0.027076
 -----------------------------------------------

 Dipole moment (in Debye)
 -----------------------------------------------
                 X        Y        Z     Total
 -----------------------------------------------
 CM5         -4.1743   1.7251  -0.3507   4.5303
 Hirshfeld   -3.8559   1.8108  -0.6511   4.3094
 -----------------------------------------------

    2    -939.3427271975      2.94e-03  
Hirshfeld: reading atomic densities from disk.

 Charges (in A.U.) from CM5PAC (Nov. 11, 2011)
 -----------------------------------------------
 Center     Atomic      CM5         Hirshfeld
 Number     Number      Charge      Charge
 -----------------------------------------------
    1          8       -0.449365   -0.399634
    2          6        0.250941    0.217480
    3          6        0.038301    0.040059
    4          6       -0.067674   -0.016053
    5          6       -0.086567   -0.031168
    6          6       -0.083897   -0.028521
    7          6       -0.074059   -0.022436
    8          6        0.042739    0.044480
    9          6        0.248638    0.214878
   10          8       -0.470973   -0.416267
   11          6        0.043103    0.038053
   12          6        0.130586    0.067991
   13          6       -0.085920   -0.037034
   14          6       -0.087927   -0.032691
   15          6       -0.093862   -0.042310
   16          6        0.041019    0.042583
   17          7       -0.303378   -0.043828
   18          6       -0.044403    0.004102
   19          6       -0.132893   -0.028735
   20          6       -0.137839   -0.029988
   21          6       -0.130056   -0.025598
   22          6       -0.037730    0.012185
   23          1        0.089865    0.029229
   24          1        0.094938    0.039170
   25          1        0.095303    0.039539
   26          1        0.087607    0.026429
   27          1        0.091554    0.030358
   28          1        0.093362    0.037452
   29          1        0.083675    0.021935
   30          1        0.083409    0.010832
   31          1        0.095581    0.026214
   32          1        0.087367    0.032591
   33          1        0.076731    0.018999
   34          1        0.078337    0.023700
   35          1        0.077234    0.022685
   36          1        0.088413    0.033650
   37          1        0.081786    0.023556
   38          1        0.100770    0.034815
   39          1        0.084549    0.020562
 -----------------------------------------------

 Dipole moment (in Debye)
 -----------------------------------------------
                 X        Y        Z     Total
 -----------------------------------------------
 CM5         -4.3926   0.6958   0.8862   4.5348
 Hirshfeld   -4.0741   0.7816   0.5858   4.1896
 -----------------------------------------------

    3    -938.9507260157      4.53e-03  
Hirshfeld: reading atomic densities from disk.

 Charges (in A.U.) from CM5PAC (Nov. 11, 2011)
 -----------------------------------------------
 Center     Atomic      CM5         Hirshfeld
 Number     Number      Charge      Charge
 -----------------------------------------------
    1          8       -0.287088   -0.237357
    2          6        0.170675    0.137214
    3          6       -0.041070   -0.039312
    4          6       -0.079970   -0.028349
    5          6       -0.077265   -0.021866
    6          6       -0.073880   -0.018504
    7          6       -0.083165   -0.031543
    8          6       -0.036450   -0.034709
    9          6        0.152763    0.119003
   10          8       -0.277739   -0.223033
   11          6       -0.063935   -0.068986
   12          6        0.131676    0.069081
   13          6       -0.093680   -0.044794
   14          6       -0.081585   -0.026349
   15          6       -0.106995   -0.055442
   16          6       -0.046121   -0.044557
   17          7       -0.280713   -0.021163
   18          6       -0.057055   -0.008550
   19          6       -0.163488   -0.059330
   20          6       -0.166708   -0.058858
   21          6       -0.161334   -0.056875
   22          6       -0.046544    0.003371
   23          1        0.112239    0.051603
   24          1        0.115070    0.059302
   25          1        0.115209    0.059445
   26          1        0.110087    0.048909
   27          1        0.113033    0.051837
   28          1        0.115018    0.059107
   29          1        0.107829    0.046089
   30          1        0.097646    0.025069
   31          1        0.102480    0.033113
   32          1        0.100658    0.045882
   33          1        0.089867    0.032136
   34          1        0.092273    0.037636
   35          1        0.091042    0.036493
   36          1        0.101610    0.046847
   37          1        0.095577    0.037347
   38          1        0.111955    0.046000
   39          1        0.097304    0.033316
 -----------------------------------------------

 Dipole moment (in Debye)
 -----------------------------------------------
                 X        Y        Z     Total
 -----------------------------------------------
 CM5         -4.5106   1.2242   0.5619   4.7075
 Hirshfeld   -4.1922   1.3100   0.2615   4.3999
 -----------------------------------------------

    4    -939.6566157316      1.15e-03  
Hirshfeld: reading atomic densities from disk.

 Charges (in A.U.) from CM5PAC (Nov. 11, 2011)
 -----------------------------------------------
 Center     Atomic      CM5         Hirshfeld
 Number     Number      Charge      Charge
 -----------------------------------------------
    1          8       -0.311128   -0.261398
    2          6        0.162062    0.128601
    3          6       -0.024087   -0.022329
    4          6       -0.077175   -0.025554
    5          6       -0.079951   -0.024552
    6          6       -0.076340   -0.020964
    7          6       -0.080690   -0.029067
    8          6       -0.016488   -0.014746
    9          6        0.150947    0.117188
   10          8       -0.310586   -0.255881
   11          6       -0.038199   -0.043249
   12          6        0.114768    0.052172
   13          6       -0.094966   -0.046080
   14          6       -0.077615   -0.022379
   15          6       -0.094359   -0.042806
   16          6       -0.021959   -0.020395
   17          7       -0.298939   -0.039389
   18          6       -0.049837   -0.001332
   19          6       -0.147246   -0.043088
   20          6       -0.149623   -0.041772
   21          6       -0.144844   -0.040386
   22          6       -0.041349    0.008566
   23          1        0.109715    0.049080
   24          1        0.113088    0.057320
   25          1        0.113283    0.057519
   26          1        0.107633    0.046455
   27          1        0.110887    0.049691
   28          1        0.112204    0.056293
   29          1        0.104191    0.042450
   30          1        0.096352    0.023776
   31          1        0.099762    0.030395
   32          1        0.094144    0.039368
   33          1        0.085435    0.027703
   34          1        0.085468    0.030831
   35          1        0.084231    0.029682
   36          1        0.095040    0.040277
   37          1        0.090839    0.032608
   38          1        0.108200    0.042245
   39          1        0.096370    0.032382
 -----------------------------------------------

 Dipole moment (in Debye)
 -----------------------------------------------
                 X        Y        Z     Total
 -----------------------------------------------
 CM5         -4.5387   1.0615   0.6580   4.7074
 Hirshfeld   -4.2203   1.1473   0.3577   4.3881
 -----------------------------------------------

    5    -939.7050447257      2.85e-04  
Hirshfeld: reading atomic densities from disk.

 Charges (in A.U.) from CM5PAC (Nov. 11, 2011)
 -----------------------------------------------
 Center     Atomic      CM5         Hirshfeld
 Number     Number      Charge      Charge
 -----------------------------------------------
    1          8       -0.311922   -0.262191
    2          6        0.170080    0.136620
    3          6       -0.023608   -0.021850
    4          6       -0.077193   -0.025572
    5          6       -0.079137   -0.023738
    6          6       -0.075945   -0.020569
    7          6       -0.081104   -0.029482
    8          6       -0.018671   -0.016930
    9          6        0.157215    0.123456
   10          8       -0.307215   -0.252510
   11          6       -0.038936   -0.043986
   12          6        0.125418    0.062823
   13          6       -0.091089   -0.042203
   14          6       -0.082479   -0.027243
   15          6       -0.102838   -0.051285
   16          6       -0.026615   -0.025051
   17          7       -0.288214   -0.028664
   18          6       -0.052298   -0.003793
   19          6       -0.151119   -0.046961
   20          6       -0.153675   -0.045824
   21          6       -0.148510   -0.044051
   22          6       -0.043214    0.006700
   23          1        0.108083    0.047448
   24          1        0.111586    0.055818
   25          1        0.111822    0.056058
   26          1        0.105996    0.044818
   27          1        0.109055    0.047859
   28          1        0.111014    0.055104
   29          1        0.103100    0.041360
   30          1        0.095171    0.022594
   31          1        0.100110    0.030743
   32          1        0.095162    0.040386
   33          1        0.086037    0.028306
   34          1        0.086783    0.032145
   35          1        0.085467    0.030918
   36          1        0.095980    0.041217
   37          1        0.091554    0.033324
   38          1        0.108280    0.042326
   39          1        0.095103    0.031116
 -----------------------------------------------

 Dipole moment (in Debye)
 -----------------------------------------------
                 X        Y        Z     Total
 -----------------------------------------------
 CM5         -4.5862   1.1778   0.6327   4.7771
 Hirshfeld   -4.2678   1.2635   0.3324   4.4633
 -----------------------------------------------

    6    -939.7081992827      8.11e-05  
Hirshfeld: reading atomic densities from disk.

 Charges (in A.U.) from CM5PAC (Nov. 11, 2011)
 -----------------------------------------------
 Center     Atomic      CM5         Hirshfeld
 Number     Number      Charge      Charge
 -----------------------------------------------
    1          8       -0.310882   -0.261152
    2          6        0.169653    0.136193
    3          6       -0.025117   -0.023359
    4          6       -0.077062   -0.025441
    5          6       -0.078880   -0.023481
    6          6       -0.075545   -0.020169
    7          6       -0.080464   -0.028842
    8          6       -0.019069   -0.017328
    9          6        0.157471    0.123712
   10          8       -0.308634   -0.253928
   11          6       -0.040990   -0.046040
   12          6        0.121480    0.058885
   13          6       -0.093071   -0.044185
   14          6       -0.079101   -0.023865
   15          6       -0.097969   -0.046416
   16          6       -0.025448   -0.023883
   17          7       -0.293545   -0.033995
   18          6       -0.051897   -0.003392
   19          6       -0.150863   -0.046704
   20          6       -0.153736   -0.045885
   21          6       -0.148439   -0.043980
   22          6       -0.042808    0.007107
   23          1        0.108375    0.047740
   24          1        0.111828    0.056061
   25          1        0.112026    0.056262
   26          1        0.106308    0.045130
   27          1        0.109511    0.048316
   28          1        0.111033    0.055122
   29          1        0.103060    0.041320
   30          1        0.095513    0.022936
   31          1        0.100373    0.031006
   32          1        0.095491    0.040715
   33          1        0.086059    0.028328
   34          1        0.086923    0.032286
   35          1        0.085641    0.031092
   36          1        0.096356    0.041593
   37          1        0.091562    0.033331
   38          1        0.108618    0.042663
   39          1        0.095471    0.031484
 -----------------------------------------------

 Dipole moment (in Debye)
 -----------------------------------------------
                 X        Y        Z     Total
 -----------------------------------------------
 CM5         -4.5097   1.1008   0.6413   4.6862
 Hirshfeld   -4.1913   1.1865   0.3409   4.3693
 -----------------------------------------------

    7    -939.7086603547      2.97e-05  
Hirshfeld: reading atomic densities from disk.

 Charges (in A.U.) from CM5PAC (Nov. 11, 2011)
 -----------------------------------------------
 Center     Atomic      CM5         Hirshfeld
 Number     Number      Charge      Charge
 -----------------------------------------------
    1          8       -0.311405   -0.261675
    2          6        0.169322    0.135862
    3          6       -0.024748   -0.022990
    4          6       -0.077051   -0.025430
    5          6       -0.079153   -0.023753
    6          6       -0.075768   -0.020392
    7          6       -0.080727   -0.029105
    8          6       -0.018803   -0.017061
    9          6        0.156664    0.122905
   10          8       -0.308278   -0.253572
   11          6       -0.040284   -0.045334
   12          6        0.122103    0.059508
   13          6       -0.092733   -0.043847
   14          6       -0.080151   -0.024915
   15          6       -0.099280   -0.047727
   16          6       -0.025719   -0.024155
   17          7       -0.291816   -0.032266
   18          6       -0.051675   -0.003170
   19          6       -0.150667   -0.046509
   20          6       -0.153401   -0.045550
   21          6       -0.148233   -0.043775
   22          6       -0.042682    0.007233
   23          1        0.108503    0.047867
   24          1        0.111956    0.056189
   25          1        0.112166    0.056402
   26          1        0.106425    0.045247
   27          1        0.109577    0.048381
   28          1        0.111234    0.055324
   29          1        0.103290    0.041550
   30          1        0.095428    0.022851
   31          1        0.100177    0.030810
   32          1        0.095305    0.040529
   33          1        0.085952    0.028220
   34          1        0.086769    0.032131
   35          1        0.085489    0.030940
   36          1        0.096173    0.041410
   37          1        0.091457    0.033227
   38          1        0.108462    0.042507
   39          1        0.095357    0.031369
 -----------------------------------------------

 Dipole moment (in Debye)
 -----------------------------------------------
                 X        Y        Z     Total
 -----------------------------------------------
 CM5         -4.5408   1.1253   0.6400   4.7217
 Hirshfeld   -4.2224   1.2111   0.3397   4.4057
 -----------------------------------------------

    8    -939.7086679298      1.11e-05  
Hirshfeld: reading atomic densities from disk.

 Charges (in A.U.) from CM5PAC (Nov. 11, 2011)
 -----------------------------------------------
 Center     Atomic      CM5         Hirshfeld
 Number     Number      Charge      Charge
 -----------------------------------------------
    1          8       -0.311237   -0.261506
    2          6        0.169246    0.135785
    3          6       -0.024621   -0.022863
    4          6       -0.077163   -0.025542
    5          6       -0.079131   -0.023731
    6          6       -0.075802   -0.020427
    7          6       -0.080775   -0.029152
    8          6       -0.018746   -0.017005
    9          6        0.156875    0.123115
   10          8       -0.308369   -0.253664
   11          6       -0.040099   -0.045150
   12          6        0.122256    0.059661
   13          6       -0.092696   -0.043811
   14          6       -0.080188   -0.024952
   15          6       -0.099424   -0.047871
   16          6       -0.025628   -0.024064
   17          7       -0.292256   -0.032706
   18          6       -0.051800   -0.003295
   19          6       -0.150727   -0.046569
   20          6       -0.153438   -0.045587
   21          6       -0.148259   -0.043800
   22          6       -0.042788    0.007127
   23          1        0.108493    0.047857
   24          1        0.111947    0.056179
   25          1        0.112157    0.056393
   26          1        0.106415    0.045237
   27          1        0.109561    0.048366
   28          1        0.111228    0.055318
   29          1        0.103283    0.041543
   30          1        0.095469    0.022892
   31          1        0.100220    0.030853
   32          1        0.095333    0.040557
   33          1        0.085997    0.028266
   34          1        0.086795    0.032158
   35          1        0.085517    0.030968
   36          1        0.096197    0.041434
   37          1        0.091492    0.033262
   38          1        0.108495    0.042541
   39          1        0.095404    0.031417
 -----------------------------------------------

 Dipole moment (in Debye)
 -----------------------------------------------
                 X        Y        Z     Total
 -----------------------------------------------
 CM5         -4.5364   1.1239   0.6406   4.7173
 Hirshfeld   -4.2180   1.2097   0.3402   4.4012
 -----------------------------------------------

    9    -939.7086504604      1.74e-06  
Hirshfeld: reading atomic densities from disk.

 Charges (in A.U.) from CM5PAC (Nov. 11, 2011)
 -----------------------------------------------
 Center     Atomic      CM5         Hirshfeld
 Number     Number      Charge      Charge
 -----------------------------------------------
    1          8       -0.311366   -0.261636
    2          6        0.169335    0.135875
    3          6       -0.024667   -0.022909
    4          6       -0.077120   -0.025500
    5          6       -0.079118   -0.023718
    6          6       -0.075770   -0.020394
    7          6       -0.080744   -0.029121
    8          6       -0.018784   -0.017043
    9          6        0.156843    0.123083
   10          8       -0.308380   -0.253674
   11          6       -0.040245   -0.045296
   12          6        0.122177    0.059581
   13          6       -0.092726   -0.043840
   14          6       -0.080124   -0.024888
   15          6       -0.099304   -0.047751
   16          6       -0.025645   -0.024081
   17          7       -0.292079   -0.032529
   18          6       -0.051777   -0.003272
   19          6       -0.150720   -0.046562
   20          6       -0.153446   -0.045595
   21          6       -0.148262   -0.043804
   22          6       -0.042765    0.007149
   23          1        0.108493    0.047857
   24          1        0.111944    0.056176
   25          1        0.112154    0.056390
   26          1        0.106416    0.045238
   27          1        0.109562    0.048366
   28          1        0.111221    0.055310
   29          1        0.103277    0.041537
   30          1        0.095463    0.022886
   31          1        0.100207    0.030840
   32          1        0.095324    0.040548
   33          1        0.085995    0.028264
   34          1        0.086793    0.032156
   35          1        0.085515    0.030966
   36          1        0.096189    0.041426
   37          1        0.091492    0.033262
   38          1        0.108483    0.042528
   39          1        0.095396    0.031408
 -----------------------------------------------

 Dipole moment (in Debye)
 -----------------------------------------------
                 X        Y        Z     Total
 -----------------------------------------------
 CM5         -4.5372   1.1238   0.6404   4.7179
 Hirshfeld   -4.2187   1.2096   0.3401   4.4019
 -----------------------------------------------

   10    -939.7086604117      1.13e-06  
Hirshfeld: reading atomic densities from disk.

 Charges (in A.U.) from CM5PAC (Nov. 11, 2011)
 -----------------------------------------------
 Center     Atomic      CM5         Hirshfeld
 Number     Number      Charge      Charge
 -----------------------------------------------
    1          8       -0.311346   -0.261615
    2          6        0.169338    0.135878
    3          6       -0.024676   -0.022918
    4          6       -0.077113   -0.025492
    5          6       -0.079138   -0.023739
    6          6       -0.075785   -0.020409
    7          6       -0.080746   -0.029123
    8          6       -0.018770   -0.017029
    9          6        0.156856    0.123097
   10          8       -0.308391   -0.253685
   11          6       -0.040198   -0.045248
   12          6        0.122172    0.059577
   13          6       -0.092738   -0.043852
   14          6       -0.080148   -0.024912
   15          6       -0.099326   -0.047774
   16          6       -0.025645   -0.024081
   17          7       -0.292092   -0.032542
   18          6       -0.051761   -0.003256
   19          6       -0.150714   -0.046556
   20          6       -0.153442   -0.045592
   21          6       -0.148262   -0.043803
   22          6       -0.042755    0.007160
   23          1        0.108495    0.047859
   24          1        0.111948    0.056180
   25          1        0.112157    0.056393
   26          1        0.106418    0.045240
   27          1        0.109563    0.048367
   28          1        0.111224    0.055313
   29          1        0.103278    0.041538
   30          1        0.095458    0.022881
   31          1        0.100206    0.030839
   32          1        0.095323    0.040547
   33          1        0.085990    0.028259
   34          1        0.086791    0.032154
   35          1        0.085512    0.030963
   36          1        0.096189    0.041426
   37          1        0.091489    0.033259
   38          1        0.108481    0.042526
   39          1        0.095392    0.031404
 -----------------------------------------------

 Dipole moment (in Debye)
 -----------------------------------------------
                 X        Y        Z     Total
 -----------------------------------------------
 CM5         -4.5370   1.1240   0.6406   4.7178
 Hirshfeld   -4.2185   1.2098   0.3403   4.4017
 -----------------------------------------------

   11    -939.7086570635      2.05e-07  
Hirshfeld: reading atomic densities from disk.

 Charges (in A.U.) from CM5PAC (Nov. 11, 2011)
 -----------------------------------------------
 Center     Atomic      CM5         Hirshfeld
 Number     Number      Charge      Charge
 -----------------------------------------------
    1          8       -0.311359   -0.261628
    2          6        0.169336    0.135876
    3          6       -0.024668   -0.022911
    4          6       -0.077117   -0.025497
    5          6       -0.079130   -0.023730
    6          6       -0.075779   -0.020404
    7          6       -0.080747   -0.029125
    8          6       -0.018773   -0.017032
    9          6        0.156847    0.123088
   10          8       -0.308386   -0.253680
   11          6       -0.040209   -0.045259
   12          6        0.122180    0.059585
   13          6       -0.092727   -0.043841
   14          6       -0.080142   -0.024906
   15          6       -0.099324   -0.047771
   16          6       -0.025645   -0.024081
   17          7       -0.292095   -0.032545
   18          6       -0.051767   -0.003262
   19          6       -0.150716   -0.046557
   20          6       -0.153441   -0.045591
   21          6       -0.148261   -0.043803
   22          6       -0.042759    0.007156
   23          1        0.108495    0.047859
   24          1        0.111947    0.056180
   25          1        0.112157    0.056393
   26          1        0.106418    0.045240
   27          1        0.109562    0.048366
   28          1        0.111222    0.055312
   29          1        0.103278    0.041538
   30          1        0.095459    0.022882
   31          1        0.100207    0.030840
   32          1        0.095324    0.040548
   33          1        0.085991    0.028260
   34          1        0.086791    0.032154
   35          1        0.085512    0.030964
   36          1        0.096189    0.041426
   37          1        0.091489    0.033259
   38          1        0.108482    0.042527
   39          1        0.095392    0.031404
 -----------------------------------------------

 Dipole moment (in Debye)
 -----------------------------------------------
                 X        Y        Z     Total
 -----------------------------------------------
 CM5         -4.5371   1.1240   0.6406   4.7179
 Hirshfeld   -4.2186   1.2098   0.3402   4.4018
 -----------------------------------------------

   12    -939.7086580803      1.04e-07  
Hirshfeld: reading atomic densities from disk.

 Charges (in A.U.) from CM5PAC (Nov. 11, 2011)
 -----------------------------------------------
 Center     Atomic      CM5         Hirshfeld
 Number     Number      Charge      Charge
 -----------------------------------------------
    1          8       -0.311355   -0.261624
    2          6        0.169334    0.135874
    3          6       -0.024667   -0.022909
    4          6       -0.077118   -0.025497
    5          6       -0.079130   -0.023731
    6          6       -0.075780   -0.020404
    7          6       -0.080747   -0.029124
    8          6       -0.018772   -0.017031
    9          6        0.156850    0.123091
   10          8       -0.308389   -0.253683
   11          6       -0.040210   -0.045260
   12          6        0.122178    0.059583
   13          6       -0.092731   -0.043845
   14          6       -0.080142   -0.024906
   15          6       -0.099324   -0.047772
   16          6       -0.025642   -0.024078
   17          7       -0.292090   -0.032540
   18          6       -0.051768   -0.003263
   19          6       -0.150716   -0.046558
   20          6       -0.153441   -0.045591
   21          6       -0.148261   -0.043802
   22          6       -0.042759    0.007155
   23          1        0.108495    0.047859
   24          1        0.111947    0.056180
   25          1        0.112157    0.056393
   26          1        0.106418    0.045240
   27          1        0.109562    0.048366
   28          1        0.111223    0.055312
   29          1        0.103278    0.041537
   30          1        0.095459    0.022882
   31          1        0.100207    0.030840
   32          1        0.095324    0.040548
   33          1        0.085991    0.028260
   34          1        0.086791    0.032154
   35          1        0.085512    0.030964
   36          1        0.096189    0.041426
   37          1        0.091489    0.033259
   38          1        0.108482    0.042527
   39          1        0.095392    0.031404
 -----------------------------------------------

 Dipole moment (in Debye)
 -----------------------------------------------
                 X        Y        Z     Total
 -----------------------------------------------
 CM5         -4.5370   1.1240   0.6406   4.7178
 Hirshfeld   -4.2185   1.2098   0.3402   4.4018
 -----------------------------------------------

   13    -939.7086577011      2.65e-08  
Hirshfeld: reading atomic densities from disk.

 Charges (in A.U.) from CM5PAC (Nov. 11, 2011)
 -----------------------------------------------
 Center     Atomic      CM5         Hirshfeld
 Number     Number      Charge      Charge
 -----------------------------------------------
    1          8       -0.311357   -0.261626
    2          6        0.169336    0.135876
    3          6       -0.024668   -0.022910
    4          6       -0.077117   -0.025496
    5          6       -0.079130   -0.023731
    6          6       -0.075780   -0.020404
    7          6       -0.080747   -0.029124
    8          6       -0.018772   -0.017031
    9          6        0.156850    0.123090
   10          8       -0.308387   -0.253681
   11          6       -0.040209   -0.045259
   12          6        0.122178    0.059583
   13          6       -0.092730   -0.043844
   14          6       -0.080142   -0.024906
   15          6       -0.099324   -0.047771
   16          6       -0.025643   -0.024079
   17          7       -0.292091   -0.032541
   18          6       -0.051767   -0.003262
   19          6       -0.150715   -0.046557
   20          6       -0.153442   -0.045591
   21          6       -0.148261   -0.043802
   22          6       -0.042759    0.007156
   23          1        0.108495    0.047859
   24          1        0.111947    0.056180
   25          1        0.112157    0.056393
   26          1        0.106418    0.045240
   27          1        0.109562    0.048366
   28          1        0.111222    0.055312
   29          1        0.103277    0.041537
   30          1        0.095459    0.022882
   31          1        0.100207    0.030840
   32          1        0.095324    0.040548
   33          1        0.085991    0.028260
   34          1        0.086791    0.032154
   35          1        0.085512    0.030964
   36          1        0.096189    0.041426
   37          1        0.091489    0.033259
   38          1        0.108482    0.042527
   39          1        0.095392    0.031404
 -----------------------------------------------

 Dipole moment (in Debye)
 -----------------------------------------------
                 X        Y        Z     Total
 -----------------------------------------------
 CM5         -4.5370   1.1241   0.6406   4.7179
 Hirshfeld   -4.2186   1.2099   0.3402   4.4018
 -----------------------------------------------

   14    -939.7086578328      1.54e-08  
   15    -939.7086578357      4.31e-09  Convergence criterion met
 ---------------------------------------
 SCF time:   CPU 12035.78s  wall 1541.00s 
(1)  E-EN(liq) elect-nuc energy of solute               -939.708657836 a.u.
(2)  G-P(liq) polarization free energy of solvation            -5.9317 kcal/mol
(3)  G-ENP(liq) elect-nuc-pol free energy of system     -939.718110672 a.u.
(4)  G-CDS(liq) cavity-dispersion-solvent structure 
     free energy                                              -10.8009 kcal/mol
(5)  G-P-CDS(liq) = G-P(liq) + G-CDS(liq) = (2) + (4)         -16.7327 kcal/mol
(6)  G-S(liq) free energy of system = (1) + (5)         -939.735323070 a.u.
 SCF   energy in the final basis set =     -939.7353230699
 Total energy in the final basis set =     -939.7353230699
 
 --------------------------------------------------------------
 
                    Orbital Energies (a.u.)
 --------------------------------------------------------------
 
 Alpha MOs
 -- Occupied --
-19.1218 -19.1133 -14.3453 -10.2745 -10.2698 -10.2398 -10.2062 -10.2034
-10.2023 -10.2018 -10.2017 -10.1994 -10.1953 -10.1942 -10.1936 -10.1925
-10.1921 -10.1881 -10.1826 -10.1692 -10.1687 -10.1657  -1.0568  -1.0491
 -0.9643  -0.8861  -0.8708  -0.8121  -0.8040  -0.7735  -0.7701  -0.7594
 -0.7538  -0.6861  -0.6740  -0.6542  -0.6481  -0.6276  -0.6041  -0.5793
 -0.5567  -0.5546  -0.5394  -0.5137  -0.5094  -0.4935  -0.4869  -0.4809
 -0.4755  -0.4491  -0.4484  -0.4472  -0.4454  -0.4408  -0.4393  -0.4260
 -0.4203  -0.4110  -0.4088  -0.3933  -0.3890  -0.3826  -0.3817  -0.3709
 -0.3693  -0.3632  -0.3606  -0.3380  -0.3276  -0.3206  -0.2947  -0.2820
 -0.2779  -0.2742  -0.2694  -0.2633  -0.2128
 -- Virtual --
 -0.1083  -0.0633  -0.0335  -0.0177  -0.0072   0.0021   0.0062   0.0141
  0.0159   0.0188   0.0244   0.0307   0.0338   0.0357   0.0377   0.0410
  0.0453   0.0459   0.0526   0.0546   0.0575   0.0648   0.0657   0.0736
  0.0766   0.0781   0.0825   0.0854   0.0914   0.0942   0.0981   0.1027
  0.1036   0.1081   0.1117   0.1121   0.1142   0.1170   0.1195   0.1235
  0.1262   0.1267   0.1290   0.1320   0.1324   0.1369   0.1381   0.1409
  0.1450   0.1477   0.1487   0.1511   0.1518   0.1538   0.1567   0.1589
  0.1606   0.1615   0.1651   0.1693   0.1721   0.1740   0.1764   0.1775
  0.1820   0.1864   0.1869   0.1921   0.1931   0.1955   0.1978   0.2007
  0.2045   0.2072   0.2081   0.2113   0.2160   0.2185   0.2231   0.2239
  0.2259   0.2288   0.2342   0.2356   0.2391   0.2400   0.2446   0.2497
  0.2516   0.2542   0.2565   0.2620   0.2643   0.2672   0.2715   0.2756
  0.2767   0.2800   0.2819   0.2847   0.2875   0.2934   0.2956   0.3009
  0.3052   0.3089   0.3099   0.3128   0.3175   0.3188   0.3218   0.3237
  0.3256   0.3311   0.3349   0.3388   0.3407   0.3453   0.3463   0.3494
  0.3537   0.3599   0.3630   0.3647   0.3683   0.3733   0.3766   0.3801
  0.3826   0.3884   0.3938   0.3987   0.4050   0.4097   0.4139   0.4189
  0.4273   0.4406   0.4508   0.4518   0.4615   0.4795   0.4802   0.5039
  0.5058   0.5179   0.5242   0.5253   0.5286   0.5427   0.5443   0.5534
  0.5578   0.5594   0.5650   0.5731   0.5753   0.5812   0.5844   0.5934
  0.5958   0.6012   0.6076   0.6126   0.6173   0.6257   0.6282   0.6325
  0.6352   0.6388   0.6490   0.6522   0.6551   0.6634   0.6667   0.6696
  0.6713   0.6818   0.6867   0.6897   0.6962   0.7013   0.7060   0.7147
  0.7190   0.7239   0.7267   0.7384   0.7416   0.7448   0.7480   0.7529
  0.7610   0.7652   0.7705   0.7742   0.7756   0.7793   0.7849   0.7892
  0.8020   0.8050   0.8069   0.8118   0.8177   0.8225   0.8339   0.8425
  0.8516   0.8570   0.8609   0.8663   0.8796   0.8900   0.8938   0.9003
  0.9111   0.9129   0.9242   0.9251   0.9326   0.9418   0.9459   0.9492
  0.9616   0.9653   0.9759   0.9836   0.9931   1.0004   1.0150   1.0275
  1.0338   1.0378   1.0441   1.0472   1.0608   1.0653   1.0736   1.0768
  1.0971   1.1084   1.1156   1.1230   1.1267   1.1413   1.1525   1.1636
  1.1896   1.1968   1.2052   1.2115   1.2252   1.2441   1.2553   1.2564
  1.2669   1.2754   1.2928   1.2974   1.3207   1.3305   1.3348   1.3581
  1.3709   1.3895   1.4035   1.4116   1.4191   1.4279   1.4667   1.4704
  1.4737   1.4846   1.4986   1.5020   1.5183   1.5228   1.5270   1.5330
  1.5459   1.5574   1.5614   1.5637   1.5741   1.5753   1.5873   1.5968
  1.6011   1.6067   1.6136   1.6269   1.6367   1.6396   1.6493   1.6531
  1.6622   1.6643   1.6792   1.6878   1.7041   1.7073   1.7178   1.7259
  1.7282   1.7326   1.7361   1.7453   1.7465   1.7526   1.7653   1.7677
  1.7770   1.7871   1.7990   1.8135   1.8193   1.8329   1.8346   1.8423
  1.8564   1.8662   1.8770   1.8842   1.8924   1.8974   1.9043   1.9112
  1.9162   1.9214   1.9332   1.9399   1.9492   1.9559   1.9638   1.9691
  1.9794   1.9878   1.9924   2.0071   2.0223   2.0336   2.0378   2.0612
  2.0637   2.0817   2.0861   2.0912   2.1009   2.1166   2.1408   2.1524
  2.1559   2.1918   2.1951   2.2140   2.2314   2.2533   2.2615   2.2678
  2.2715   2.2879   2.2986   2.3150   2.3317   2.3370   2.3477   2.3524
  2.3714   2.3744   2.3800   2.4105   2.4314   2.4570   2.4601   2.4769
  2.4843   2.4925   2.5206   2.5264   2.5388   2.5497   2.5554   2.5761
  2.6201   2.6293   2.6393   2.6489   2.6569   2.6621   2.6770   2.6966
  2.7099   2.7156   2.7210   2.7217   2.7312   2.7354   2.7396   2.7435
  2.7477   2.7607   2.7615   2.7695   2.7767   2.7800   2.7903   2.7944
  2.7999   2.8127   2.8205   2.8263   2.8321   2.8485   2.8508   2.8656
  2.8724   2.8792   2.8830   2.8857   2.8966   2.9024   2.9125   2.9251
  2.9434   2.9478   2.9536   2.9842   3.0079   3.0128   3.0297   3.0373
  3.0450   3.0832   3.0999   3.1081   3.1433   3.1569   3.1697   3.1995
  3.2163   3.2310   3.2404   3.2608   3.2788   3.3348   3.3492   3.3534
  3.3689   3.3816   3.3927   3.4053   3.4169   3.5007   3.5166   3.5254
  3.5461   3.5551   3.5672   3.5854   3.6040   3.6186   3.6668   3.6841
  3.7597   3.7812   3.8039   3.8208   3.8290   3.8569   3.8887   3.9860
  4.0124   4.0297   4.0507   4.0648   4.0785   4.1222   4.1618   4.1807
  4.1811   4.2366   4.2521   4.2922   4.3965   4.4494   4.6719   4.8145
  4.8415   4.8863   5.0590   5.0856   5.1341   5.2544   5.3062   5.7545
  5.8195  23.5493  23.6838  23.8711  23.8795  23.8861  23.9012  23.9087
 23.9266  23.9443  23.9479  23.9535  23.9657  23.9856  23.9967  24.0536
 24.0804  24.0861  24.1730  24.1742  35.6275  50.0380  50.0660
 --------------------------------------------------------------
 
          Ground-State Mulliken Net Atomic Charges

     Atom                 Charge (a.u.)
  ----------------------------------------
      1 O                    -0.269369
      2 C                    -2.012326
      3 C                    -0.434808
      4 C                     0.044441
      5 C                     0.301634
      6 C                     0.427409
      7 C                     0.038295
      8 C                    -0.061722
      9 C                    -1.274538
     10 O                    -0.247545
     11 C                    -0.115516
     12 C                    -0.341063
     13 C                     1.333165
     14 C                     0.268080
     15 C                    -0.456778
     16 C                    -0.362984
     17 N                     0.463420
     18 C                    -0.538348
     19 C                    -0.108313
     20 C                    -0.342711
     21 C                    -0.262828
     22 C                     0.310470
     23 H                     0.199113
     24 H                     0.317139
     25 H                     0.328787
     26 H                     0.210843
     27 H                     0.367603
     28 H                     0.329918
     29 H                     0.148985
     30 H                     0.120641
     31 H                     0.081190
     32 H                     0.224149
     33 H                     0.174066
     34 H                     0.141899
     35 H                     0.189062
     36 H                     0.256805
     37 H                     0.123890
     38 H                     0.226669
     39 H                     0.201176
  ----------------------------------------
  Sum of atomic charges =     0.000000

 -----------------------------------------------------------------
                    Cartesian Multipole Moments
 -----------------------------------------------------------------
    Charge (ESU x 10^10)
                 0.0000
    Dipole Moment (Debye)
         X      -4.5685      Y       1.3510      Z       0.6292
       Tot       4.8054
    Quadrupole Moments (Debye-Ang)
        XX    -114.9976     XY      16.7628     YY    -127.3227
        XZ       6.5600     YZ       9.4520     ZZ    -128.7092
    Octopole Moments (Debye-Ang^2)
       XXX    -223.0580    XXY      96.3757    XYY     -89.4520
       YYY      64.5677    XXZ      14.6125    XYZ      12.1589
       YYZ     -11.9398    XZZ     -79.8258    YZZ      17.4290
       ZZZ     -17.5054
    Hexadecapole Moments (Debye-Ang^3)
      XXXX   -6324.2521   XXXY     390.9673   XXYY   -1548.6424
      XYYY     205.7396   YYYY   -2227.1367   XXXZ    -197.8598
      XXYZ      -1.1377   XYYZ    -116.5650   YYYZ    -176.2421
      XXZZ   -1212.6522   XYZZ      24.2863   YYZZ    -512.0653
      XZZZ    -438.9454   YZZZ    -298.9141   ZZZZ    -753.0344
 -----------------------------------------------------------------
 Total job time:  1548.48s(wall), 12042.87s(cpu) 
 Sat Feb  3 13:17:32 2024

        *************************************************************
        *                                                           *
        *  Thank you very much for using Q-Chem.  Have a nice day.  *
        *                                                           *
        *************************************************************


