
Running Job 1 of 1 318-COSMO.in
qchem 318-COSMO.in_4013426.0 /expanse/lustre/scratch/selhajj/temp_project/qcscratch/28878769/qchem4013426/ 0
/cm/shared/apps/spack/cpu/opt/spack/linux-centos8-zen2/gcc-10.2.0/qchem-5.4-akfmr7b3t57bfs6qan3padb2wnb2i7cl/exe/qcprog.exe_s 318-COSMO.in_4013426.0 /expanse/lustre/scratch/selhajj/temp_project/qcscratch/28878769/qchem4013426/
                  Welcome to Q-Chem
     A Quantum Leap Into The Future Of Chemistry


 Q-Chem 5.4, Q-Chem, Inc., Pleasanton, CA (2021)

 License issued to: University of California, San Diego (site)

 E. Epifanovsky,  A. T. B. Gilbert,  Xintian Feng,  Joonho Lee,  Yuezhi Mao,  
 N. Mardirossian,  P. Pokhilko,  A. White,  M. Wormit,  M. P. Coons,  
 A. L. Dempwolff,  Zhengting Gan,  D. Hait,  P. R. Horn,  L. D. Jacobson,  
 I. Kaliman,  J. Kussmann,  A. W. Lange,  Ka Un Lao,  D. S. Levine,  Jie Liu,  
 S. C. McKenzie,  A. F. Morrison,  K. Nanda,  F. Plasser,  D. R. Rehn,  
 M. L. Vidal,  Zhi-Qiang You,  Ying Zhu,  B. Alam,  B. Albrecht,  
 A. Aldossary,  E. Alguire,  J. H. Andersen,  D. Barton,  K. Begam,  A. Behn,  
 Y. A. Bernard,  E. J. Berquist,  H. Burton,  A. Carreras,  K. Carter-Fenk,  
 R. Chakraborty,  A. D. Chien,  K. D. Closser,  V. Cofer-Shabica,  
 S. Dasgupta,  Jia Deng,  M. de Wergifosse,  M. Diedenhofen,  Hainam Do,  
 S. Ehlert,  Po-Tung Fang,  S. Fatehi,  Qingguo Feng,  J. Gayvert,  
 Qinghui Ge,  G. Gidofalvi,  M. Goldey,  J. Gomes,  C. Gonzalez-Espinoza,  
 S. Gulania,  A. Gunina,  M. W. D. Hanson-Heine,  P. H. P. Harbach,  
 A. W. Hauser,  M. F. Herbst,  M. Hernandez Vera,  M. Hodecker,  
 Z. C. Holden,  S. Houck,  Xunkun Huang,  Kerwin Hui,  B. C. Huynh,  
 M. Ivanov,  Hyunjun Ji,  Hanjie Jiang,  B. Kaduk,  S. Kaehler,  
 K. Khistyaev,  Jaehoon Kim,  P. Klunzinger,  Z. Koczor-Benda,  
 Joong Hoon Koh,  D. Kosenkov,  L. Koulias,  T. Kowalczyk,  C. M. Krauter,  
 K. Kue,  A. Kunitsa,  T. Kus,  A. Landau,  K. V. Lawler,  D. Lefrancois,  
 S. Lehtola,  Rain Li,  Yi-Pei Li,  Jiashu Liang,  M. Liebenthal,  
 Hung-Hsuan Lin,  You-Sheng Lin,  Fenglai Liu,  Kuan-Yu Liu,  
 M. Loipersberger,  A. Luenser,  A. Manjanath,  P. Manohar,  E. Mansoor,  
 S. F. Manzer,  Shan-Ping Mao,  A. V. Marenich,  T. Markovich,  S. Mason,  
 S. A. Maurer,  P. F. McLaughlin,  M. F. S. J. Menger,  J.-M. Mewes,  
 S. A. Mewes,  P. Morgante,  J. W. Mullinax,  T. S. Nguyen-Beck,  
 K. J. Oosterbaan,  G. Paran,  Alexander C. Paul,  Suranjan K. Paul,  
 F. Pavosevic,  Zheng Pei,  S. Prager,  E. I. Proynov,  E. Ramos,  B. Rana,  
 A. E. Rask,  A. Rettig,  R. M. Richard,  F. Rob,  E. Rossomme,  T. Scheele,  
 M. Scheurer,  M. Schneider,  N. Sergueev,  S. M. Sharada,  W. Skomorowski,  
 D. W. Small,  C. J. Stein,  Yu-Chuan Su,  E. J. Sundstrom,  Zhen Tao,  
 J. Thirman,  T. Tsuchimochi,  N. M. Tubman,  S. P. Veccham,  O. Vydrov,  
 J. Wenzel,  J. Witte,  A. Yamada,  Kun Yao,  S. Yeganeh,  S. R. Yost,  
 A. Zech,  Igor Ying Zhang,  Xing Zhang,  Yu Zhang,  D. Zuev,  
 A. Aspuru-Guzik,  A. T. Bell,  N. A. Besley,  K. B. Bravaya,  B. R. Brooks,  
 D. Casanova,  Jeng-Da Chai,  S. Coriani,  C. J. Cramer,  
 A. E. DePrince, III,  R. A. DiStasio Jr.,  A. Dreuw,  B. D. Dunietz,  
 T. R. Furlani,  W. A. Goddard III,  S. Grimme,  S. Hammes-Schiffer,  
 T. Head-Gordon,  W. J. Hehre,  Chao-Ping Hsu,  T.-C. Jagau,  Yousung Jung,  
 A. Klamt,  Jing Kong,  D. S. Lambrecht,  WanZhen Liang,  N. J. Mayhall,  
 C. W. McCurdy,  J. B. Neaton,  C. Ochsenfeld,  J. A. Parkhill,  R. Peverati,  
 V. A. Rassolov,  Yihan Shao,  L. V. Slipchenko,  T. Stauch,  R. P. Steele,  
 J. E. Subotnik,  A. J. W. Thom,  A. Tkatchenko,  D. G. Truhlar,  
 T. Van Voorhis,  T. A. Wesolowski,  K. B. Whaley,  H. L. Woodcock III,  
 P. M. Zimmerman,  S. Faraji,  P. M. W. Gill,  M. Head-Gordon,  
 J. M. Herbert,  A. I. Krylov

 Contributors to earlier versions of Q-Chem not listed above: 
 R. D. Adamson,  B. Austin,  R. Baer,  J. Baker,  G. J. O. Beran,  
 K. Brandhorst,  S. T. Brown,  E. F. C. Byrd,  A. K. Chakraborty,  
 G. K. L. Chan,  Chun-Min Chang,  Yunqing Chen,  C.-L. Cheng,  
 Siu Hung Chien,  D. M. Chipman,  D. L. Crittenden,  H. Dachsel,  
 R. J. Doerksen,  A. D. Dutoi,  R. G. Edgar,  J. Fosso-Tande,  
 L. Fusti-Molnar,  D. Ghosh,  A. Ghysels,  A. Golubeva-Zadorozhnaya,  
 J. Gonthier,  M. S. Gordon,  S. R. Gwaltney,  G. Hawkins,  J. E. Herr,  
 A. Heyden,  S. Hirata,  E. G. Hohenstein,  G. Kedziora,  F. J. Keil,  
 C. Kelley,  Jihan Kim,  R. A. King,  R. Z. Khaliullin,  P. P. Korambath,  
 W. Kurlancheek,  A. Laurent,  A. M. Lee,  M. S. Lee,  S. V. Levchenko,  
 Ching Yeh Lin,  D. Liotard,  E. Livshits,  R. C. Lochan,  I. Lotan,  
 L. A. Martinez-Martinez,  P. E. Maslen,  N. Nair,  D. P. O'Neill,  
 D. Neuhauser,  E. Neuscamman,  C. M. Oana,  R. Olivares-Amaya,  R. Olson,  
 T. M. Perrine,  B. Peters,  P. A. Pieniazek,  A. Prociuk,  Y. M. Rhee,  
 J. Ritchie,  M. A. Rohrdanz,  E. Rosta,  N. J. Russ,  H. F. Schaefer III,  
 M. W. Schmidt,  N. E. Schultz,  S. Sharma,  N. Shenvi,  C. D. Sherrill,  
 A. C. Simmonett,  A. Sodt,  T. Stein,  D. Stuck,  K. S. Thanthiriwatte,  
 V. Vanovschi,  L. Vogt,  Tao Wang,  A. Warshel,  M. A. Watson,  
 C. F. Williams,  Q. Wu,  X. Xu,  Jun Yang,  W. Zhang,  Yan Zhao

 Please cite Q-Chem as follows:
 Y. Shao et al., Mol. Phys. 113, 184-215 (2015)
 DOI: 10.1080/00268976.2014.952696

 Q-Chem 5.4.0 for Intel X86 EM64T Linux

 Parts of Q-Chem use Armadillo 9.800.1 (Horizon Scraper).
 http://arma.sourceforge.net/

 Q-Chem begins on Thu Feb 22 10:41:51 2024  

 Host: 
0

     Scratch files written to /expanse/lustre/scratch/selhajj/temp_project/qcscratch/28878769/qchem4013426//
 May1621 |scratch|qcdevops|jenkins|workspace|build_RNUM    
 Processing $rem in /cm/shared/apps/spack/cpu/opt/spack/linux-centos8-zen2/gcc-10.2.0/qchem-5.4-akfmr7b3t57bfs6qan3padb2wnb2i7cl/config/preferences:
 Processing $rem in /home/selhajj/.qchemrc:

 Checking the input file for inconsistencies... 
 Q-Chem warning in module libgen/CheckREMs.C, line 172:

 Found a $solvent section, which is only used for PCM and Kirkwood-Onsager solvation models

	...done.

--------------------------------------------------------------
User input:
--------------------------------------------------------------
$molecule
0 1
Br                -2.3132430000      2.1146500000      0.8005650000
C                 -1.0057420000      0.8238420000      0.3372390000
C                 -1.3499900000     -0.4873660000      0.2662460000
Br                -3.0865620000     -1.1501930000      0.6044860000
C                 -0.3484000000     -1.5174910000     -0.0942990000
O                 -0.5933640000     -2.6930980000     -0.1733670000
C                  1.1050700000     -1.0311370000     -0.3856920000
O                  1.9405970000     -1.8451710000     -0.6815870000
C                  1.3694640000      0.4224940000     -0.2783140000
C                  0.3790580000      1.2870980000      0.0602240000
Br                 0.7526550000      3.1405100000      0.1886050000
Br                 3.1504580000      0.9358630000     -0.6441060000
$end
$rem
MAX_SCF_CYCLES=200
BASIS  =  6-311++G(d,p)
GUI  =  2
JOB_TYPE  =  SP
METHOD  =  B3LYP
SOLVENT_METHOD = COSMO
$end
$solvent
dielectric 37.219
opticaldielectric 1.43
$end





--------------------------------------------------------------
 ----------------------------------------------------------------
             Standard Nuclear Orientation (Angstroms)
    I     Atom           X                Y                Z
 ----------------------------------------------------------------
    1      Br     -1.6456790873    -2.0278057542     0.0008220707
    2      C      -0.7431586460    -0.3617110952     0.0000601157
    3      C      -1.4591777574     0.7916013850    -0.0001965023
    4      Br     -3.3468107598     0.8707832528    -0.0005439723
    5      C      -0.7796421673     2.1078703900    -0.0000265889
    6      O      -1.3594011328     3.1624748026    -0.0000844672
    7      C       0.7804939672     2.1076179860     0.0005325938
    8      O       1.3605666138     3.1620495770     0.0010952047
    9      C       1.4596953929     0.7911216389     0.0002199203
   10      C       0.7431167024    -0.3619468872    -0.0000110791
   11      Br      1.6447025529    -2.0287807246    -0.0006059258
   12      Br      3.3472933285     0.8702742106    -0.0000023629
 ----------------------------------------------------------------
 Molecular Point Group                 C1    NOp =  1
 Largest Abelian Subgroup              C1    NOp =  1
 Nuclear Repulsion Energy =        2293.29901625 hartrees
 There are       96 alpha and       96 beta electrons
 Requested basis set is 6-311++G(d,p)
 There are 124 shells and 368 basis functions

 Total QAlloc Memory Limit   8000 MB
 Mega-Array Size       188 MB
 MEM_STATIC part       192 MB

                       Distance Matrix (Angstroms)
             Br(  1)   C (  2)   C (  3)   Br(  4)   C (  5)   O (  6)
   C (  2)  1.894839
   C (  3)  2.825569  1.357503
   Br(  4)  3.360903  2.880633  1.889293
   C (  5)  4.225380  2.469851  1.481328  2.849691
   O (  6)  5.198170  3.577659  2.372972  3.033422  1.203458
   C (  7)  4.794585  2.901569  2.597697  4.308643  1.560136  2.385765
   O (  8)  5.997676  4.103968  3.683746  5.235390  2.385747  2.719968
   C (  9)  4.194008  2.486280  2.918873  4.807166  2.597780  3.683832
   C ( 10)  2.912290  1.486275  2.486116  4.271666  2.901515  4.103916
   Br( 11)  3.290382  2.912216  4.193880  5.772580  4.794719  5.997814
   Br( 12)  5.773096  4.271953  4.807115  6.694104  4.308508  5.235184
             C (  7)   O (  8)   C (  9)   C ( 10)   Br( 11)
   O (  8)  1.203458
   C (  9)  1.481377  2.372999
   C ( 10)  2.469848  3.577680  1.357591
   Br( 11)  4.225713  5.198601  2.825965  1.895044
   Br( 12)  2.849470  3.033038  1.889257  2.880990  3.362043
 
 A cutoff of  1.0D-08 yielded   4824 shell pairs
 There are     47478 function pairs (     52237 Cartesian)
 Smallest overlap matrix eigenvalue = 5.29E-07

 Q-Chem warning in module stvman/mkSTV.C, line 323:

 Overlap eigenvalue is smaller than square root of threshold
 Use THRESH >= 12 to get rid of this warning

 Linear dependence detected in AO basis
 Tighter screening thresholds may be required for diffuse basis sets
 Use S2THRESH > 14 and THRESH = 14 in case of SCF convergence issues
 Number of orthogonalized atomic orbitals = 367
 Maximum deviation from orthogonality = 1.631E-10

 Scale SEOQF with 1.000000e-01/1.000000e-01/1.000000e-01

 Standard Electronic Orientation quadrupole field applied
 Nucleus-field energy     =     0.0000000775 hartrees
 Guess from superposition of atomic densities
 Warning:  Energy on first SCF cycle will be non-variational
 SAD guess density has 192.000000 electrons

 -----------------------------------------------------------------------
  General SCF calculation program by
  Eric Jon Sundstrom, Paul Horn, Yuezhi Mao, Dmitri Zuev, Alec White,
  David Stuck, Shaama M.S., Shane Yost, Joonho Lee, David Small,
  Daniel Levine, Susi Lehtola, Hugh Burton, Evgeny Epifanovsky,
  Bang C. Huynh
 -----------------------------------------------------------------------
 Exchange:     0.2000 Hartree-Fock + 0.0800 Slater + 0.7200 B88
 Correlation:  0.1900 VWN1RPA + 0.8100 LYP
 Using SG-1 standard quadrature grid
 using 8 threads for integral computing
 -------------------------------------------------------
 OpenMP Integral computing Module                
 Release: version 1.0, May 2013, Q-Chem Inc. Pittsburgh 
 -------------------------------------------------------
 A restricted SCF calculation will be
 performed using DIIS
 SCF converges when DIIS error is below 1.0e-05
 ---------------------------------------
  Cycle       Energy         DIIS error
 ---------------------------------------
    1  -10678.0331089675      3.15e-02  
    2  -10675.5266065108      3.67e-03  
    3  -10674.7309951972      8.46e-03  
    4  -10675.6608113006      1.34e-03  
    5  -10675.6757744137      7.35e-04  
    6  -10675.6841464926      2.24e-04  
    7  -10675.6849302344      6.55e-05  
    8  -10675.6849994018      2.22e-05  
    9  -10675.6850059869      5.31e-06  Convergence criterion met
 ---------------------------------------
 SCF time:   CPU 116.86s  wall 15.00s 
 SCF   energy in the final basis set =   -10675.6850059869
 Total energy in the final basis set =   -10675.6850059869
 Exchange:     0.2000 Hartree-Fock + 0.0800 Slater + 0.7200 B88
 Correlation:  0.1900 VWN1RPA + 0.8100 LYP
 Using SG-1 standard quadrature grid
 in get_qchem_info
 IBasis=      401111
 IBasis=      401111
 USING 1082 GRID
 MICHARGE=           0
 Set epsilon to    37.2190017700195     
==== cosmo data ====
outfile: 318-COSMO.out.cosmo.0
phsran:    0.00000D+00
ampran:    0.10000D-04
volume:   1609.7375344
area:    785.1436638
routf:      0.8500000
rsolv [a.u]:      2.4566438
disex:     10.0000000
disex2:   5918.0435500
fepsi:      0.9602322
eps :    37.2190018
lcavity:     1
nppa:  1082
nspa:    92
nsph:    32
maxnps:  1104
natoms:    12
Atom   Radius [a.u.] nuc. charge
    1      4.0818081   35
    2      3.7794520    6
    3      3.7794520    6
    4      4.0818081   35
    5      3.7794520    6
    6      3.2503287    8
    7      3.7794520    6
    8      3.2503287    8
    9      3.7794520    6
   10      3.7794520    6
   11      4.0818081   35
   12      4.0818081   35
=== end cosmo data ===
 number of segments:          592
 f_epsilon=  0.960232245562971     
Ediel:   -0.0114062
 A restricted SCF calculation will be
 performed using Roothaan-Hall, DIIS
 SCF converges when DIIS error is below 1.0e-05
 ---------------------------------------
  Cycle       Energy         DIIS error
 ---------------------------------------
 number of segments:          592
 f_epsilon=  0.960232245562971     
Ediel:   -0.0200462
    1  -10675.6964121431      2.34e-04  Roothaan Step
 ---------------------------------------
  Cycle       Energy         DIIS error
 ---------------------------------------
 number of segments:          592
 f_epsilon=  0.960232245562971     
Ediel:   -0.0110411
    1  -10675.6960879665      4.38e-04  
 number of segments:          592
 f_epsilon=  0.960232245562971     
Ediel:   -0.0167996
    2  -10675.6835458164      1.07e-03  
 number of segments:          592
 f_epsilon=  0.960232245562971     
Ediel:   -0.0169544
    3  -10675.6987838245      2.74e-05  
 number of segments:          592
 f_epsilon=  0.960232245562971     
Ediel:   -0.0170064
    4  -10675.6987917989      1.27e-05  
    5  -10675.6987916534      4.84e-06  Convergence criterion met
 ---------------------------------------
 SCF time:   CPU 86.17s  wall 11.00s 
before final oc correction, ETot:    -10675.6987916534
 number of outlayer segments:          334
SCF energy after oc correction:    -10675.6989134700
 SCF   energy in the final basis set =   -10675.6989134700
 Total energy in the final basis set =   -10675.6987916534
 
 --------------------------------------------------------------
 
                    Orbital Energies (a.u.)
 --------------------------------------------------------------
 
 Alpha MOs
 -- Occupied --
********-482.8660-482.8587-482.8587 -62.5187 -62.5187 -62.5114 -62.5114
-56.3395 -56.3395 -56.3355 -56.3355 -56.3349 -56.3348 -56.3321 -56.3321
-56.3281 -56.3281 -56.3276 -56.3276 -19.1692 -19.1692 -10.3144 -10.3142
-10.3013 -10.3010 -10.2761 -10.2761  -8.7275  -8.7275  -8.7202  -8.7202
 -6.5597  -6.5597  -6.5524  -6.5524  -6.5463  -6.5463  -6.5446  -6.5446
 -6.5389  -6.5388  -6.5375  -6.5375  -2.6704  -2.6704  -2.6671  -2.6671
 -2.6658  -2.6658  -2.6631  -2.6631  -2.6595  -2.6595  -2.6585  -2.6585
 -2.6550  -2.6550  -2.6549  -2.6549  -2.6478  -2.6478  -2.6477  -2.6477
 -1.1177  -1.0907  -0.9332  -0.8781  -0.8420  -0.8191  -0.8055  -0.7438
 -0.7218  -0.6256  -0.6252  -0.5711  -0.5163  -0.4986  -0.4892  -0.4749
 -0.4567  -0.4398  -0.4312  -0.4239  -0.4235  -0.3704  -0.3503  -0.3469
 -0.3382  -0.3312  -0.3271  -0.3114  -0.3037  -0.2946  -0.2860  -0.2636
 -- Virtual --
 -0.1631  -0.0821  -0.0428  -0.0426  -0.0368  -0.0105  -0.0028   0.0031
  0.0207   0.0262   0.0405   0.0460   0.0493   0.0554   0.0580   0.0632
  0.0674   0.0707   0.0760   0.0831   0.0848   0.0913   0.0924   0.0984
  0.1012   0.1119   0.1138   0.1160   0.1328   0.1370   0.1402   0.1472
  0.1474   0.1652   0.1667   0.1683   0.1828   0.1903   0.1997   0.2059
  0.2110   0.2198   0.2260   0.2293   0.2339   0.2414   0.2489   0.2502
  0.2562   0.2570   0.2685   0.2831   0.2905   0.2992   0.3224   0.3232
  0.3348   0.3360   0.3461   0.3650   0.3891   0.3969   0.3990   0.4181
  0.4187   0.4228   0.4244   0.4286   0.4393   0.4408   0.4496   0.4679
  0.4762   0.4824   0.4921   0.4960   0.5025   0.5061   0.5127   0.5353
  0.5383   0.5552   0.5579   0.5608   0.5720   0.5825   0.5930   0.6028
  0.6056   0.6184   0.6216   0.6267   0.6572   0.6676   0.6850   0.6858
  0.7108   0.7135   0.7297   0.7377   0.7539   0.7564   0.7891   0.8007
  0.8030   0.8337   0.8351   0.8546   0.8739   0.8938   0.8969   0.9036
  0.9171   0.9545   0.9577   0.9805   0.9805   1.0177   1.0608   1.0877
  1.0984   1.1025   1.1087   1.1346   1.1512   1.1555   1.1908   1.2077
  1.2148   1.2272   1.2346   1.2375   1.2840   1.3205   1.3510   1.3792
  1.4122   1.5138   1.5547   1.6356   1.6608   1.6784   1.6802   1.6950
  1.7126   1.7202   1.7496   1.7698   1.8187   1.8312   1.8361   1.9707
  1.9910   2.0172   2.0187   2.0455   2.0457   2.0643   2.0755   2.1175
  2.1442   2.1486   2.1545   2.1705   2.2110   2.2309   2.2471   2.2697
  2.3456   2.3482   2.3740   2.4068   2.5304   2.6365   2.6674   2.7036
  2.7725   2.7764   2.8216   2.8715   2.8819   2.9162   2.9716   2.9738
  2.9866   3.0206   3.0677   3.0802   3.1600   3.2741   3.3325   3.3600
  3.4196   3.4693   3.5719   3.6161   3.7004   3.8055   3.9698   3.9816
  3.9860   3.9877   3.9911   4.0166   4.0300   4.0492   4.0593   4.0613
  4.0701   4.0746   4.1036   4.1230   4.1698   4.2273   4.2448   4.3050
  4.3421   4.3809   4.4227   4.4700   4.6673   4.9697   5.0496   5.0933
  5.2769   5.5992   5.7701   6.6166   6.7638   6.7919   6.8251   7.5223
  7.5373   7.5511   7.5786   7.6310   7.6553   7.6602   7.6793   7.6978
  7.7377   7.7736   7.8153  23.3205  23.5827  23.8184  23.8481  24.0280
 24.0337  47.8910  48.0148  48.0385  48.0651  49.9202  50.0384 289.7170
289.7325 289.7475 289.7757 289.8317 289.8532 289.8535 289.8982 289.8990
289.9571 289.9928 290.03651020.68101020.83681020.86581020.8984
 --------------------------------------------------------------
 
          Ground-State Mulliken Net Atomic Charges

     Atom                 Charge (a.u.)
  ----------------------------------------
      1 Br                   -0.127205
      2 C                    -0.445236
      3 C                     1.190996
      4 Br                   -0.064538
      5 C                    -0.342060
      6 O                    -0.212980
      7 C                    -0.340837
      8 O                    -0.212972
      9 C                     1.191606
     10 C                    -0.445187
     11 Br                   -0.127138
     12 Br                   -0.064450
  ----------------------------------------
  Sum of atomic charges =     0.000000

 -----------------------------------------------------------------
                    Cartesian Multipole Moments
 -----------------------------------------------------------------
    Charge (ESU x 10^10)
                 0.0000
    Dipole Moment (Debye)
         X      -0.0014      Y      -6.2706      Z      -0.0017
       Tot       6.2706
    Quadrupole Moments (Debye-Ang)
        XX    -115.3762     XY       0.0037     YY    -135.4647
        XZ      -0.0013     YZ      -0.0056     ZZ    -115.6252
    Octopole Moments (Debye-Ang^2)
       XXX      -0.0221    XXY     -43.7774    XYY      -0.0162
       YYY    -178.1930    XXZ      -0.0144    XYZ      -0.0035
       YYZ      -0.0207    XZZ      -0.0049    YZZ     -15.7107
       ZZZ      -0.0072
    Hexadecapole Moments (Debye-Ang^3)
      XXXX   -3248.8146   XXXY       0.0439   XXYY    -976.7541
      XYYY      -0.0434   YYYY   -2456.6759   XXXZ       0.0085
      XXYZ      -0.0311   XYYZ      -0.0660   YYYZ      -0.0956
      XXZZ    -617.0101   XYZZ       0.0014   YYZZ    -380.5018
      XZZZ      -0.0065   YZZZ      -0.0172   ZZZZ    -132.2853
 -----------------------------------------------------------------
 Total job time:  29.50s(wall), 209.57s(cpu) 
 Thu Feb 22 10:42:21 2024

        *************************************************************
        *                                                           *
        *  Thank you very much for using Q-Chem.  Have a nice day.  *
        *                                                           *
        *************************************************************


