
Running Job 1 of 1 258-rad-COSMO.in
qchem 258-rad-COSMO.in_3866134.0 /expanse/lustre/scratch/selhajj/temp_project/qcscratch/28872173/qchem3866134/ 0
/cm/shared/apps/spack/cpu/opt/spack/linux-centos8-zen2/gcc-10.2.0/qchem-5.4-akfmr7b3t57bfs6qan3padb2wnb2i7cl/exe/qcprog.exe_s 258-rad-COSMO.in_3866134.0 /expanse/lustre/scratch/selhajj/temp_project/qcscratch/28872173/qchem3866134/
                  Welcome to Q-Chem
     A Quantum Leap Into The Future Of Chemistry


 Q-Chem 5.4, Q-Chem, Inc., Pleasanton, CA (2021)

 License issued to: University of California, San Diego (site)

 E. Epifanovsky,  A. T. B. Gilbert,  Xintian Feng,  Joonho Lee,  Yuezhi Mao,  
 N. Mardirossian,  P. Pokhilko,  A. White,  M. Wormit,  M. P. Coons,  
 A. L. Dempwolff,  Zhengting Gan,  D. Hait,  P. R. Horn,  L. D. Jacobson,  
 I. Kaliman,  J. Kussmann,  A. W. Lange,  Ka Un Lao,  D. S. Levine,  Jie Liu,  
 S. C. McKenzie,  A. F. Morrison,  K. Nanda,  F. Plasser,  D. R. Rehn,  
 M. L. Vidal,  Zhi-Qiang You,  Ying Zhu,  B. Alam,  B. Albrecht,  
 A. Aldossary,  E. Alguire,  J. H. Andersen,  D. Barton,  K. Begam,  A. Behn,  
 Y. A. Bernard,  E. J. Berquist,  H. Burton,  A. Carreras,  K. Carter-Fenk,  
 R. Chakraborty,  A. D. Chien,  K. D. Closser,  V. Cofer-Shabica,  
 S. Dasgupta,  Jia Deng,  M. de Wergifosse,  M. Diedenhofen,  Hainam Do,  
 S. Ehlert,  Po-Tung Fang,  S. Fatehi,  Qingguo Feng,  J. Gayvert,  
 Qinghui Ge,  G. Gidofalvi,  M. Goldey,  J. Gomes,  C. Gonzalez-Espinoza,  
 S. Gulania,  A. Gunina,  M. W. D. Hanson-Heine,  P. H. P. Harbach,  
 A. W. Hauser,  M. F. Herbst,  M. Hernandez Vera,  M. Hodecker,  
 Z. C. Holden,  S. Houck,  Xunkun Huang,  Kerwin Hui,  B. C. Huynh,  
 M. Ivanov,  Hyunjun Ji,  Hanjie Jiang,  B. Kaduk,  S. Kaehler,  
 K. Khistyaev,  Jaehoon Kim,  P. Klunzinger,  Z. Koczor-Benda,  
 Joong Hoon Koh,  D. Kosenkov,  L. Koulias,  T. Kowalczyk,  C. M. Krauter,  
 K. Kue,  A. Kunitsa,  T. Kus,  A. Landau,  K. V. Lawler,  D. Lefrancois,  
 S. Lehtola,  Rain Li,  Yi-Pei Li,  Jiashu Liang,  M. Liebenthal,  
 Hung-Hsuan Lin,  You-Sheng Lin,  Fenglai Liu,  Kuan-Yu Liu,  
 M. Loipersberger,  A. Luenser,  A. Manjanath,  P. Manohar,  E. Mansoor,  
 S. F. Manzer,  Shan-Ping Mao,  A. V. Marenich,  T. Markovich,  S. Mason,  
 S. A. Maurer,  P. F. McLaughlin,  M. F. S. J. Menger,  J.-M. Mewes,  
 S. A. Mewes,  P. Morgante,  J. W. Mullinax,  T. S. Nguyen-Beck,  
 K. J. Oosterbaan,  G. Paran,  Alexander C. Paul,  Suranjan K. Paul,  
 F. Pavosevic,  Zheng Pei,  S. Prager,  E. I. Proynov,  E. Ramos,  B. Rana,  
 A. E. Rask,  A. Rettig,  R. M. Richard,  F. Rob,  E. Rossomme,  T. Scheele,  
 M. Scheurer,  M. Schneider,  N. Sergueev,  S. M. Sharada,  W. Skomorowski,  
 D. W. Small,  C. J. Stein,  Yu-Chuan Su,  E. J. Sundstrom,  Zhen Tao,  
 J. Thirman,  T. Tsuchimochi,  N. M. Tubman,  S. P. Veccham,  O. Vydrov,  
 J. Wenzel,  J. Witte,  A. Yamada,  Kun Yao,  S. Yeganeh,  S. R. Yost,  
 A. Zech,  Igor Ying Zhang,  Xing Zhang,  Yu Zhang,  D. Zuev,  
 A. Aspuru-Guzik,  A. T. Bell,  N. A. Besley,  K. B. Bravaya,  B. R. Brooks,  
 D. Casanova,  Jeng-Da Chai,  S. Coriani,  C. J. Cramer,  
 A. E. DePrince, III,  R. A. DiStasio Jr.,  A. Dreuw,  B. D. Dunietz,  
 T. R. Furlani,  W. A. Goddard III,  S. Grimme,  S. Hammes-Schiffer,  
 T. Head-Gordon,  W. J. Hehre,  Chao-Ping Hsu,  T.-C. Jagau,  Yousung Jung,  
 A. Klamt,  Jing Kong,  D. S. Lambrecht,  WanZhen Liang,  N. J. Mayhall,  
 C. W. McCurdy,  J. B. Neaton,  C. Ochsenfeld,  J. A. Parkhill,  R. Peverati,  
 V. A. Rassolov,  Yihan Shao,  L. V. Slipchenko,  T. Stauch,  R. P. Steele,  
 J. E. Subotnik,  A. J. W. Thom,  A. Tkatchenko,  D. G. Truhlar,  
 T. Van Voorhis,  T. A. Wesolowski,  K. B. Whaley,  H. L. Woodcock III,  
 P. M. Zimmerman,  S. Faraji,  P. M. W. Gill,  M. Head-Gordon,  
 J. M. Herbert,  A. I. Krylov

 Contributors to earlier versions of Q-Chem not listed above: 
 R. D. Adamson,  B. Austin,  R. Baer,  J. Baker,  G. J. O. Beran,  
 K. Brandhorst,  S. T. Brown,  E. F. C. Byrd,  A. K. Chakraborty,  
 G. K. L. Chan,  Chun-Min Chang,  Yunqing Chen,  C.-L. Cheng,  
 Siu Hung Chien,  D. M. Chipman,  D. L. Crittenden,  H. Dachsel,  
 R. J. Doerksen,  A. D. Dutoi,  R. G. Edgar,  J. Fosso-Tande,  
 L. Fusti-Molnar,  D. Ghosh,  A. Ghysels,  A. Golubeva-Zadorozhnaya,  
 J. Gonthier,  M. S. Gordon,  S. R. Gwaltney,  G. Hawkins,  J. E. Herr,  
 A. Heyden,  S. Hirata,  E. G. Hohenstein,  G. Kedziora,  F. J. Keil,  
 C. Kelley,  Jihan Kim,  R. A. King,  R. Z. Khaliullin,  P. P. Korambath,  
 W. Kurlancheek,  A. Laurent,  A. M. Lee,  M. S. Lee,  S. V. Levchenko,  
 Ching Yeh Lin,  D. Liotard,  E. Livshits,  R. C. Lochan,  I. Lotan,  
 L. A. Martinez-Martinez,  P. E. Maslen,  N. Nair,  D. P. O'Neill,  
 D. Neuhauser,  E. Neuscamman,  C. M. Oana,  R. Olivares-Amaya,  R. Olson,  
 T. M. Perrine,  B. Peters,  P. A. Pieniazek,  A. Prociuk,  Y. M. Rhee,  
 J. Ritchie,  M. A. Rohrdanz,  E. Rosta,  N. J. Russ,  H. F. Schaefer III,  
 M. W. Schmidt,  N. E. Schultz,  S. Sharma,  N. Shenvi,  C. D. Sherrill,  
 A. C. Simmonett,  A. Sodt,  T. Stein,  D. Stuck,  K. S. Thanthiriwatte,  
 V. Vanovschi,  L. Vogt,  Tao Wang,  A. Warshel,  M. A. Watson,  
 C. F. Williams,  Q. Wu,  X. Xu,  Jun Yang,  W. Zhang,  Yan Zhao

 Please cite Q-Chem as follows:
 Y. Shao et al., Mol. Phys. 113, 184-215 (2015)
 DOI: 10.1080/00268976.2014.952696

 Q-Chem 5.4.0 for Intel X86 EM64T Linux

 Parts of Q-Chem use Armadillo 9.800.1 (Horizon Scraper).
 http://arma.sourceforge.net/

 Q-Chem begins on Thu Feb 22 07:55:02 2024  

 Host: 
0

     Scratch files written to /expanse/lustre/scratch/selhajj/temp_project/qcscratch/28872173/qchem3866134//
 May1621 |scratch|qcdevops|jenkins|workspace|build_RNUM    
 Processing $rem in /cm/shared/apps/spack/cpu/opt/spack/linux-centos8-zen2/gcc-10.2.0/qchem-5.4-akfmr7b3t57bfs6qan3padb2wnb2i7cl/config/preferences:
 Processing $rem in /home/selhajj/.qchemrc:

 Checking the input file for inconsistencies... 
 Q-Chem warning in module libgen/CheckREMs.C, line 172:

 Found a $solvent section, which is only used for PCM and Kirkwood-Onsager solvation models

	...done.

--------------------------------------------------------------
User input:
--------------------------------------------------------------
$molecule
-1 2
C                  3.3128630000     -0.9469420000     -0.1004030000
O                  1.9344520000     -1.1544410000      0.0951290000
C                  1.0739450000     -0.1063580000     -0.0844190000
C                  1.5313570000      1.1544130000     -0.4554590000
C                  0.6248330000      2.2148530000     -0.6333750000
C                 -0.7222320000      2.0114820000     -0.4412210000
C                 -1.2120720000      0.7436680000     -0.0650160000
C                 -2.6727980000      0.6125870000      0.1203640000
O                 -3.4510730000      1.5920290000     -0.0499580000
C                 -3.1363250000     -0.6884880000      0.5022080000
C                 -2.2847700000     -1.7483290000      0.6855360000
C                 -0.8513140000     -1.6823480000      0.5198030000
O                 -0.1439240000     -2.7043940000      0.7085550000
C                 -0.3182710000     -0.3562230000      0.1242810000
H                  3.7860280000     -1.9097120000      0.0976580000
H                  3.5434090000     -0.6383100000     -1.1293880000
H                  3.7209900000     -0.1970320000      0.5911600000
H                  2.5869620000      1.3319980000     -0.6107400000
H                  1.0009430000      3.1918910000     -0.9231930000
H                 -1.4488680000      2.8044340000     -0.5691930000
H                 -4.2081630000     -0.8010490000      0.6423970000
H                 -2.6659710000     -2.7237310000      0.9752760000
$end
$rem
MAX_SCF_CYCLES=200
BASIS  =  6-311++G(d,p)
GUI  =  2
JOB_TYPE  =  SP
METHOD  =  B3LYP
SOLVENT_METHOD = COSMO
$end
$solvent
dielectric 37.219
opticaldielectric 1.43
$end





--------------------------------------------------------------
 ----------------------------------------------------------------
             Standard Nuclear Orientation (Angstroms)
    I     Atom           X                Y                Z
 ----------------------------------------------------------------
    1      C       3.7615110952     0.2361312622    -0.0005622674
    2      O       2.4271219541     0.6841385561     0.0001910986
    3      C       1.4176030069    -0.2389319997     0.0001663305
    4      C       1.6818232605    -1.6051777983     0.0002630632
    5      C       0.6248641646    -2.5329764436     0.0002134803
    6      C      -0.6791463933    -2.0943154347     0.0000659467
    7      C      -0.9744357415    -0.7153194379    -0.0000231312
    8      C      -2.4018760138    -0.3310244028    -0.0001462010
    9      O      -3.3196548460    -1.1980366153    -0.0003167410
   10      C      -2.6661044496     1.0773937186    -0.0000780942
   11      C      -1.6636820215     2.0139657983     0.0001064843
   12      C      -0.2535086911     1.7008712411     0.0001192192
   13      O       0.6004232083     2.6235880263     0.0001531014
   14      C       0.0758345330     0.2549414200     0.0000853367
   15      H       4.3745123886     1.1384996668    -0.0007252885
   16      H       3.9990258612    -0.3593112625     0.8917662794
   17      H       3.9980541981    -0.3590298090    -0.8933235452
   18      H       2.7009613822    -1.9675422631     0.0004067092
   19      H       0.8510594788    -3.5954697975     0.0003208070
   20      H      -1.5178157210    -2.7797228615     0.0000258576
   21      H      -3.7110618740     1.3760969344    -0.0001306008
   22      H      -1.8951547413     3.0756121171     0.0001791073
 ----------------------------------------------------------------
 Molecular Point Group                 C1    NOp =  1
 Largest Abelian Subgroup              C1    NOp =  1
 Nuclear Repulsion Energy =         832.97064113 hartrees
 There are       50 alpha and       49 beta electrons
 Requested basis set is 6-311++G(d,p)
 There are 124 shells and 364 basis functions

 Total QAlloc Memory Limit   8000 MB
 Mega-Array Size       188 MB
 MEM_STATIC part       192 MB
 A cutoff of  1.0D-08 yielded   5857 shell pairs
 There are     52530 function pairs (     56320 Cartesian)
 Smallest overlap matrix eigenvalue = 1.87E-07

 Q-Chem warning in module stvman/mkSTV.C, line 323:

 Overlap eigenvalue is smaller than square root of threshold
 Use THRESH >= 12 to get rid of this warning

 Linear dependence detected in AO basis
 Tighter screening thresholds may be required for diffuse basis sets
 Use S2THRESH > 14 and THRESH = 14 in case of SCF convergence issues
 Number of orthogonalized atomic orbitals = 361
 Maximum deviation from orthogonality = 1.596E-10

 Scale SEOQF with 1.000000e-01/1.000000e-01/1.000000e-01

 Standard Electronic Orientation quadrupole field applied
 Nucleus-field energy     =     0.0000000326 hartrees
 Guess from superposition of atomic densities
 Warning:  Energy on first SCF cycle will be non-variational
 SAD guess density has 98.000000 electrons

 -----------------------------------------------------------------------
  General SCF calculation program by
  Eric Jon Sundstrom, Paul Horn, Yuezhi Mao, Dmitri Zuev, Alec White,
  David Stuck, Shaama M.S., Shane Yost, Joonho Lee, David Small,
  Daniel Levine, Susi Lehtola, Hugh Burton, Evgeny Epifanovsky,
  Bang C. Huynh
 -----------------------------------------------------------------------
 Exchange:     0.2000 Hartree-Fock + 0.0800 Slater + 0.7200 B88
 Correlation:  0.1900 VWN1RPA + 0.8100 LYP
 Using SG-1 standard quadrature grid
 using 8 threads for integral computing
 -------------------------------------------------------
 OpenMP Integral computing Module                
 Release: version 1.0, May 2013, Q-Chem Inc. Pittsburgh 
 -------------------------------------------------------
 A unrestricted SCF calculation will be
 performed using DIIS
 SCF converges when DIIS error is below 1.0e-05
 ---------------------------------------
  Cycle       Energy         DIIS error
 ---------------------------------------
    1    -652.9265853014      1.72e-02  
    2    -649.5677078210      2.22e-03  
    3    -647.1023151737      5.53e-03  
    4    -649.6309676895      1.86e-03  
    5    -649.8583522761      4.23e-04  
    6    -649.8572311482      4.89e-04  
    7    -649.8728284717      9.73e-05  
    8    -649.8733757993      4.80e-05  
    9    -649.8735266413      2.08e-05  
   10    -649.8735636990      1.11e-05  
   11    -649.8735778233      3.66e-06  Convergence criterion met
 ---------------------------------------
 SCF time:   CPU 254.09s  wall 32.00s 
<S^2> =          0.761050682
 SCF   energy in the final basis set =     -649.8735778233
 Total energy in the final basis set =     -649.8735778233
 Exchange:     0.2000 Hartree-Fock + 0.0800 Slater + 0.7200 B88
 Correlation:  0.1900 VWN1RPA + 0.8100 LYP
 Using SG-1 standard quadrature grid
 in get_qchem_info
 IBasis=      401111
 IBasis=      401111
 USING 1082 GRID
 MICHARGE=          -1
 Set epsilon to    37.2190017700195     
==== cosmo data ====
outfile: 258-rad-COSMO.out.cosmo.0
phsran:    0.00000D+00
ampran:    0.10000D-04
volume:   1449.8229449
area:    738.8888189
routf:      0.8500000
rsolv [a.u]:      2.4566438
disex:     10.0000000
disex2:   4537.5275725
fepsi:      0.9731320
eps :    37.2190018
lcavity:     1
nppa:  1082
nspa:    92
nsph:    32
maxnps:  1544
natoms:    22
Atom   Radius [a.u.] nuc. charge
    1      3.7794520    6
    2      3.2503287    8
    3      3.7794520    6
    4      3.7794520    6
    5      3.7794520    6
    6      3.7794520    6
    7      3.7794520    6
    8      3.7794520    6
    9      3.2503287    8
   10      3.7794520    6
   11      3.7794520    6
   12      3.7794520    6
   13      3.2503287    8
   14      3.7794520    6
   15      2.4566438    1
   16      2.4566438    1
   17      2.4566438    1
   18      2.4566438    1
   19      2.4566438    1
   20      2.4566438    1
   21      2.4566438    1
   22      2.4566438    1
=== end cosmo data ===
 number of segments:          901
 f_epsilon=  0.973132003749614     
Ediel:   -0.0862403
 A unrestricted SCF calculation will be
 performed using Roothaan-Hall, DIIS
 SCF converges when DIIS error is below 1.0e-05
 ---------------------------------------
  Cycle       Energy         DIIS error
 ---------------------------------------
 number of segments:          901
 f_epsilon=  0.973132003749614     
Ediel:   -0.1051712
    1    -649.9598207827      1.79e-04  Roothaan Step
 ---------------------------------------
  Cycle       Energy         DIIS error
 ---------------------------------------
 number of segments:          901
 f_epsilon=  0.973132003749614     
Ediel:   -0.0977195
    1    -649.9650533137      1.85e-04  
 number of segments:          901
 f_epsilon=  0.973132003749614     
Ediel:   -0.1026259
    2    -649.9607080099      3.50e-04  
 number of segments:          901
 f_epsilon=  0.973132003749614     
Ediel:   -0.1031187
    3    -649.9671341874      2.96e-05  
 number of segments:          901
 f_epsilon=  0.973132003749614     
Ediel:   -0.1031685
    4    -649.9671838127      1.47e-05  
    5    -649.9671990797      6.22e-06  Convergence criterion met
 ---------------------------------------
 SCF time:   CPU 190.78s  wall 25.00s 
<S^2> =          0.758749778
before final oc correction, ETot:      -649.9671990797
 number of outlayer segments:          400
SCF energy after oc correction:      -649.9731028276
 SCF   energy in the final basis set =     -649.9731028276
 Total energy in the final basis set =     -649.9671990797
 
 --------------------------------------------------------------
 
                    Orbital Energies (a.u.)
 --------------------------------------------------------------
 
 Alpha MOs
 -- Occupied --
-19.1517 -19.0790 -19.0769 -10.2394 -10.2273 -10.2229 -10.2133 -10.1802
-10.1770 -10.1741 -10.1694 -10.1625 -10.1623 -10.1613  -1.0703  -1.0035
 -1.0013  -0.8570  -0.8034  -0.7597  -0.7427  -0.6954  -0.6753  -0.6177
 -0.6085  -0.5606  -0.5180  -0.5062  -0.4883  -0.4717  -0.4675  -0.4556
 -0.4366  -0.4209  -0.4165  -0.4092  -0.3961  -0.3877  -0.3814  -0.3645
 -0.3594  -0.3522  -0.3340  -0.3203  -0.2802  -0.2543  -0.2464  -0.2355
 -0.2322  -0.1547
 -- Virtual --
 -0.0259  -0.0191  -0.0003   0.0099   0.0137   0.0276   0.0297   0.0376
  0.0390   0.0487   0.0513   0.0603   0.0634   0.0677   0.0711   0.0815
  0.0829   0.0915   0.0972   0.0978   0.1055   0.1157   0.1170   0.1228
  0.1274   0.1308   0.1309   0.1356   0.1371   0.1422   0.1488   0.1500
  0.1521   0.1543   0.1614   0.1618   0.1683   0.1731   0.1783   0.1886
  0.1938   0.1989   0.2000   0.2052   0.2190   0.2221   0.2243   0.2299
  0.2330   0.2432   0.2468   0.2490   0.2542   0.2616   0.2718   0.2745
  0.2759   0.2833   0.2857   0.2912   0.2935   0.2981   0.2986   0.3042
  0.3142   0.3172   0.3221   0.3246   0.3289   0.3378   0.3427   0.3436
  0.3535   0.3586   0.3665   0.3757   0.3848   0.3890   0.4093   0.4153
  0.4255   0.4359   0.4546   0.4589   0.4760   0.4976   0.5108   0.5314
  0.5441   0.5449   0.5490   0.5512   0.5611   0.5856   0.6019   0.6026
  0.6105   0.6142   0.6175   0.6342   0.6403   0.6457   0.6484   0.6542
  0.6543   0.6560   0.6745   0.6889   0.7043   0.7066   0.7232   0.7531
  0.7571   0.7668   0.7725   0.7865   0.7959   0.8041   0.8211   0.8293
  0.8554   0.8621   0.8828   0.8923   0.8997   0.9084   0.9154   0.9312
  0.9448   0.9629   0.9744   0.9746   0.9926   0.9934   1.0093   1.0388
  1.0427   1.0460   1.0544   1.0641   1.0669   1.0939   1.0976   1.1023
  1.1119   1.1276   1.1425   1.1540   1.1639   1.1937   1.2329   1.2389
  1.2415   1.2533   1.2730   1.3001   1.3026   1.3189   1.3514   1.4020
  1.4360   1.4485   1.4703   1.4968   1.5016   1.5085   1.5155   1.5426
  1.5478   1.5663   1.5672   1.5850   1.5853   1.5947   1.6127   1.6688
  1.6724   1.6934   1.7083   1.7139   1.7257   1.7285   1.7546   1.7600
  1.7667   1.8030   1.8062   1.8189   1.8316   1.8413   1.8815   1.9037
  1.9136   1.9197   1.9342   1.9363   1.9487   1.9642   1.9917   1.9984
  2.0176   2.0430   2.0553   2.0823   2.1042   2.1122   2.1270   2.1292
  2.1305   2.1845   2.2008   2.2388   2.2689   2.2932   2.3205   2.3574
  2.3904   2.4290   2.4648   2.4734   2.4815   2.5052   2.5360   2.5556
  2.5843   2.6120   2.6292   2.6379   2.6688   2.7036   2.7237   2.7265
  2.7341   2.7439   2.7483   2.7748   2.7754   2.7894   2.7992   2.8094
  2.8359   2.8596   2.8600   2.8678   2.8773   2.9182   2.9441   2.9547
  2.9574   2.9911   3.0348   3.0706   3.0809   3.1005   3.1545   3.1768
  3.2122   3.2252   3.2304   3.2517   3.2606   3.3196   3.3240   3.3495
  3.3718   3.4411   3.4490   3.4589   3.5140   3.5488   3.5678   3.6287
  3.6390   3.6756   3.7746   3.7810   3.8341   3.8732   4.0618   4.0725
  4.1052   4.1432   4.1859   4.2475   4.2780   4.3894   4.7681   4.8498
  5.0385   5.0644   5.0855   5.2444   5.2591   5.4569   5.7360   5.8092
  5.8372  23.5789  23.7953  23.9131  23.9220  23.9394  23.9459  23.9583
 24.0092  24.0876  24.1817  24.1983  49.9883  50.0397  50.0840
 
 Beta MOs
 -- Occupied --
-19.1516 -19.0729 -19.0705 -10.2394 -10.2260 -10.2211 -10.2133 -10.1799
-10.1765 -10.1737 -10.1688 -10.1623 -10.1606 -10.1600  -1.0702  -0.9927
 -0.9902  -0.8551  -0.7979  -0.7585  -0.7405  -0.6941  -0.6662  -0.6146
 -0.6063  -0.5590  -0.5159  -0.5034  -0.4867  -0.4697  -0.4670  -0.4541
 -0.4346  -0.4157  -0.4086  -0.4032  -0.3928  -0.3855  -0.3602  -0.3576
 -0.3518  -0.3506  -0.3334  -0.3157  -0.2515  -0.2484  -0.2407  -0.2299
 -0.2260
 -- Virtual --
 -0.0887  -0.0168  -0.0071  -0.0002   0.0101   0.0138   0.0278   0.0300
  0.0379   0.0391   0.0514   0.0593   0.0634   0.0637   0.0683   0.0761
  0.0831   0.0857   0.0917   0.0982   0.0989   0.1081   0.1160   0.1172
  0.1231   0.1275   0.1313   0.1325   0.1372   0.1383   0.1424   0.1490
  0.1504   0.1532   0.1545   0.1616   0.1634   0.1685   0.1737   0.1794
  0.1890   0.1945   0.1987   0.2053   0.2054   0.2191   0.2244   0.2257
  0.2315   0.2346   0.2440   0.2472   0.2500   0.2554   0.2632   0.2722
  0.2752   0.2768   0.2841   0.2892   0.2920   0.2974   0.2986   0.2996
  0.3052   0.3148   0.3177   0.3234   0.3258   0.3319   0.3402   0.3433
  0.3443   0.3542   0.3595   0.3669   0.3769   0.3856   0.3900   0.4107
  0.4166   0.4280   0.4380   0.4557   0.4590   0.4773   0.4987   0.5126
  0.5325   0.5456   0.5504   0.5507   0.5527   0.5631   0.5861   0.6046
  0.6055   0.6120   0.6157   0.6250   0.6364   0.6413   0.6464   0.6503
  0.6558   0.6562   0.6591   0.6754   0.6904   0.7048   0.7104   0.7241
  0.7537   0.7596   0.7678   0.7733   0.7871   0.7972   0.8049   0.8222
  0.8301   0.8572   0.8636   0.8835   0.8937   0.9019   0.9092   0.9170
  0.9322   0.9462   0.9650   0.9765   0.9793   0.9939   0.9965   1.0110
  1.0395   1.0460   1.0483   1.0559   1.0673   1.0692   1.0960   1.0999
  1.1032   1.1189   1.1348   1.1529   1.1623   1.1658   1.1956   1.2361
  1.2413   1.2514   1.2602   1.2748   1.3013   1.3046   1.3222   1.3536
  1.4029   1.4380   1.4485   1.4716   1.5012   1.5025   1.5096   1.5166
  1.5438   1.5493   1.5682   1.5682   1.5858   1.5861   1.5992   1.6143
  1.6724   1.6756   1.6950   1.7096   1.7151   1.7272   1.7299   1.7557
  1.7618   1.7687   1.8033   1.8112   1.8207   1.8357   1.8446   1.8834
  1.9070   1.9173   1.9215   1.9366   1.9387   1.9527   1.9656   1.9940
  2.0011   2.0195   2.0440   2.0567   2.0839   2.1056   2.1147   2.1285
  2.1329   2.1332   2.1887   2.2020   2.2414   2.2728   2.2953   2.3220
  2.3606   2.3924   2.4306   2.4655   2.4734   2.4817   2.5054   2.5361
  2.5560   2.5855   2.6145   2.6364   2.6387   2.6728   2.7044   2.7244
  2.7273   2.7397   2.7451   2.7485   2.7758   2.7832   2.7899   2.8059
  2.8099   2.8373   2.8604   2.8683   2.8743   2.8836   2.9185   2.9605
  2.9677   2.9704   3.0051   3.0421   3.0718   3.0817   3.1036   3.1562
  3.1773   3.2151   3.2268   3.2336   3.2520   3.2621   3.3214   3.3404
  3.3657   3.3723   3.4423   3.4509   3.4606   3.5168   3.5500   3.5694
  3.6308   3.6416   3.6778   3.7746   3.7863   3.8352   3.8747   4.0629
  4.0752   4.1070   4.1441   4.1895   4.2485   4.2812   4.3919   4.7733
  4.8507   5.0390   5.0900   5.1111   5.2491   5.2640   5.4578   5.7409
  5.8114   5.8407  23.5795  23.7968  23.9136  23.9226  23.9408  23.9463
 23.9600  24.0097  24.0880  24.1831  24.1989  49.9884  50.0459  50.0903
 --------------------------------------------------------------
 
          Ground-State Mulliken Net Atomic Charges

     Atom                 Charge (a.u.)    Spin (a.u.)
  --------------------------------------------------------
      1 C                    -0.305292      -0.000429
      2 O                    -0.171709      -0.000353
      3 C                     0.248709       0.037738
      4 C                    -0.077207       0.047243
      5 C                    -0.431175       0.024470
      6 C                    -0.024670       0.042426
      7 C                     0.046177       0.015852
      8 C                    -0.344058       0.116717
      9 O                    -0.539579       0.217002
     10 C                    -0.194790       0.068492
     11 C                    -0.074148       0.136153
     12 C                    -0.307713       0.062975
     13 O                    -0.528212       0.228925
     14 C                     0.178923       0.029605
     15 H                     0.203255      -0.000159
     16 H                     0.167844       0.000367
     17 H                     0.167937       0.000367
     18 H                     0.203993      -0.002883
     19 H                     0.216864      -0.002081
     20 H                     0.169118      -0.002802
     21 H                     0.199505      -0.007690
     22 H                     0.196226      -0.011933
  --------------------------------------------------------
  Sum of atomic charges =    -1.000000
  Sum of spin   charges =     1.000000

 -----------------------------------------------------------------
                    Cartesian Multipole Moments
 -----------------------------------------------------------------
    Charge (ESU x 10^10)
                -4.8032
    Dipole Moment (Debye)
         X       8.4730      Y      -4.3144      Z      -0.0006
       Tot       9.5082
    Quadrupole Moments (Debye-Ang)
        XX    -101.4162     XY     -20.5287     YY    -103.4510
        XZ      -0.0096     YZ      -0.0020     ZZ     -86.8394
    Octopole Moments (Debye-Ang^2)
       XXX     170.6099    XXY      37.1667    XYY       4.1829
       YYY     -56.8425    XXZ      -0.0025    XYZ      -0.0030
       YYZ       0.0043    XZZ       7.8824    YZZ       3.9128
       ZZZ      -0.0034
    Hexadecapole Moments (Debye-Ang^3)
      XXXX   -2353.8043   XXXY    -155.2772   XXYY    -620.7640
      XYYY     -69.2142   YYYY   -1391.7403   XXXZ      -0.1116
      XXYZ      -0.0259   XYYZ      -0.0120   YYYZ      -0.0086
      XXZZ    -397.7959   XYZZ      11.1344   YYZZ    -254.1488
      XZZZ      -0.0118   YZZZ       0.0076   ZZZZ    -107.5241
 -----------------------------------------------------------------
 Total job time:  58.77s(wall), 450.67s(cpu) 
 Thu Feb 22 07:56:01 2024

        *************************************************************
        *                                                           *
        *  Thank you very much for using Q-Chem.  Have a nice day.  *
        *                                                           *
        *************************************************************


