 Entering Gaussian System, Link 0=g16
 Input=065.com
 Output=065.log
 Initial command:
 /sysapps/ubuntu-applications/gaussian/Gaussian/AVX2/g16/l1.exe "/scratch/selhajj1/4266592/Gau-358169.inp" -scrdir="/scratch/selhajj1/4266592/"
 Entering Link 1 = /sysapps/ubuntu-applications/gaussian/Gaussian/AVX2/g16/l1.exe PID=    358185.
  
 Copyright (c) 1988,1990,1992,1993,1995,1998,2003,2009,2016,
            Gaussian, Inc.  All Rights Reserved.
  
 This is part of the Gaussian(R) 16 program.  It is based on
 the Gaussian(R) 09 system (copyright 2009, Gaussian, Inc.),
 the Gaussian(R) 03 system (copyright 2003, Gaussian, Inc.),
 the Gaussian(R) 98 system (copyright 1998, Gaussian, Inc.),
 the Gaussian(R) 94 system (copyright 1995, Gaussian, Inc.),
 the Gaussian 92(TM) system (copyright 1992, Gaussian, Inc.),
 the Gaussian 90(TM) system (copyright 1990, Gaussian, Inc.),
 the Gaussian 88(TM) system (copyright 1988, Gaussian, Inc.),
 the Gaussian 86(TM) system (copyright 1986, Carnegie Mellon
 University), and the Gaussian 82(TM) system (copyright 1983,
 Carnegie Mellon University). Gaussian is a federally registered
 trademark of Gaussian, Inc.
  
 This software contains proprietary and confidential information,
 including trade secrets, belonging to Gaussian, Inc.
  
 This software is provided under written license and may be
 used, copied, transmitted, or stored only in accord with that
 written license.
  
 The following legend is applicable only to US Government
 contracts under FAR:
  
                    RESTRICTED RIGHTS LEGEND
  
 Use, reproduction and disclosure by the US Government is
 subject to restrictions as set forth in subparagraphs (a)
 and (c) of the Commercial Computer Software - Restricted
 Rights clause in FAR 52.227-19.
  
 Gaussian, Inc.
 340 Quinnipiac St., Bldg. 40, Wallingford CT 06492
  
  
 ---------------------------------------------------------------
 Warning -- This program may not be used in any manner that
 competes with the business of Gaussian, Inc. or will provide
 assistance to any competitor of Gaussian, Inc.  The licensee
 of this program is prohibited from giving any competitor of
 Gaussian, Inc. access to this program.  By using this program,
 the user acknowledges that Gaussian, Inc. is engaged in the
 business of creating and licensing software in the field of
 computational chemistry and represents and warrants to the
 licensee that it is not a competitor of Gaussian, Inc. and that
 it will not use this program in any manner prohibited above.
 ---------------------------------------------------------------
  

 Cite this work as:
 Gaussian 16, Revision A.03,
 M. J. Frisch, G. W. Trucks, H. B. Schlegel, G. E. Scuseria, 
 M. A. Robb, J. R. Cheeseman, G. Scalmani, V. Barone, 
 G. A. Petersson, H. Nakatsuji, X. Li, M. Caricato, A. V. Marenich, 
 J. Bloino, B. G. Janesko, R. Gomperts, B. Mennucci, H. P. Hratchian, 
 J. V. Ortiz, A. F. Izmaylov, J. L. Sonnenberg, D. Williams-Young, 
 F. Ding, F. Lipparini, F. Egidi, J. Goings, B. Peng, A. Petrone, 
 T. Henderson, D. Ranasinghe, V. G. Zakrzewski, J. Gao, N. Rega, 
 G. Zheng, W. Liang, M. Hada, M. Ehara, K. Toyota, R. Fukuda, 
 J. Hasegawa, M. Ishida, T. Nakajima, Y. Honda, O. Kitao, H. Nakai, 
 T. Vreven, K. Throssell, J. A. Montgomery, Jr., J. E. Peralta, 
 F. Ogliaro, M. J. Bearpark, J. J. Heyd, E. N. Brothers, K. N. Kudin, 
 V. N. Staroverov, T. A. Keith, R. Kobayashi, J. Normand, 
 K. Raghavachari, A. P. Rendell, J. C. Burant, S. S. Iyengar, 
 J. Tomasi, M. Cossi, J. M. Millam, M. Klene, C. Adamo, R. Cammi, 
 J. W. Ochterski, R. L. Martin, K. Morokuma, O. Farkas, 
 J. B. Foresman, and D. J. Fox, Gaussian, Inc., Wallingford CT, 2016.
 
 ******************************************
 Gaussian 16:  ES64L-G16RevA.03 25-Dec-2016
                10-Jan-2024 
 ******************************************
 %chk=065.chk
 %nproc=8
 Will use up to    8 processors via shared memory.
 %mem=30GB
 --------------------------------------
 #P UB3LYP/6-311++G(d,p) nosym opt freq
 --------------------------------------
 1/18=20,19=15,26=3,38=1/1,3;
 2/9=110,12=2,15=1,17=6,18=5,40=1/2;
 3/5=4,6=6,7=1111,11=2,25=1,30=1,71=1,74=-5,116=2/1,2,3;
 4//1;
 5/5=2,38=5/2;
 6/7=2,8=2,9=2,10=2,28=1/1;
 7/30=1/1,2,3,16;
 1/18=20,19=15,26=3/3(2);
 2/9=110,15=1/2;
 99//99;
 2/9=110,15=1/2;
 3/5=4,6=6,7=1111,11=2,25=1,30=1,71=1,74=-5,116=2/1,2,3;
 4/5=5,16=3,69=1/1;
 5/5=2,38=5/2;
 7/30=1/1,2,3,16;
 1/18=20,19=15,26=3/3(-5);
 2/9=110,15=1/2;
 6/7=2,8=2,9=2,10=2,19=2,28=1/1;
 99/9=1/99;
 Leave Link    1 at Wed Jan 10 04:48:17 2024, MaxMem=  4026531840 cpu:               0.8 elap:               0.1
 (Enter /sysapps/ubuntu-applications/gaussian/Gaussian/AVX2/g16/l101.exe)
 --------
 Oxidized
 --------
 Symbolic Z-matrix:
 Charge =  0 Multiplicity = 1
 C                    -1.35505  -2.03104   1.12529 
 C                    -1.42044  -1.99794  -0.35597 
 C                    -0.79259  -1.04896  -1.06033 
 C                    -0.00312   0.01147  -0.38131 
 C                     0.06287  -0.02052   1.09721 
 C                    -0.56308  -0.96806   1.81429 
 O                    -1.93023  -2.89964   1.76278 
 O                     0.56899   0.87626  -1.02514 
 C                    -0.5329   -1.05272   3.31285 
 O                     0.24715   0.01083   3.82573 
 C                     0.40272   0.1156    5.18542 
 C                    -0.15977  -0.76288   6.11348 
 C                     1.18546   1.19026   5.62078 
 C                     1.40249   1.38224   6.97845 
 C                     0.06853  -0.55537   7.4767 
 C                     0.84511   0.51005   7.91713 
 H                    -2.00463  -2.78609  -0.81801 
 H                    -0.82414  -1.00175  -2.14321 
 H                     0.64265   0.76038   1.57302 
 H                    -0.11986  -2.02439   3.61223 
 H                    -1.55945  -1.01022   3.69851 
 H                    -0.76808  -1.60012   5.79889 
 H                     1.61126   1.85836   4.88186 
 H                     2.01048   2.21776   7.30669 
 H                    -0.37072  -1.24068   8.19294 
 H                     1.01627   0.66247   8.97601 
 
 ITRead=  0  0  0  0  0  0  0  0  0  0  0  0  0  0  0  0  0  0  0  0
 ITRead=  0  0  0  0  0  0
 MicOpt= -1 -1 -1 -1 -1 -1 -1 -1 -1 -1 -1 -1 -1 -1 -1 -1 -1 -1 -1 -1
 MicOpt= -1 -1 -1 -1 -1 -1
 NAtoms=     26 NQM=       26 NQMF=       0 NMMI=      0 NMMIF=      0
                NMic=       0 NMicF=      0.
                    Isotopes and Nuclear Properties:
 (Nuclear quadrupole moments (NQMom) in fm**2, nuclear magnetic moments (NMagM)
  in nuclear magnetons)

  Atom         1           2           3           4           5           6           7           8           9          10
 IAtWgt=          12          12          12          12          12          12          16          16          12          16
 AtmWgt=  12.0000000  12.0000000  12.0000000  12.0000000  12.0000000  12.0000000  15.9949146  15.9949146  12.0000000  15.9949146
 NucSpn=           0           0           0           0           0           0           0           0           0           0
 AtZEff=  -0.0000000  -0.0000000  -0.0000000  -0.0000000  -0.0000000  -0.0000000  -0.0000000  -0.0000000  -0.0000000  -0.0000000
 NQMom=    0.0000000   0.0000000   0.0000000   0.0000000   0.0000000   0.0000000   0.0000000   0.0000000   0.0000000   0.0000000
 NMagM=    0.0000000   0.0000000   0.0000000   0.0000000   0.0000000   0.0000000   0.0000000   0.0000000   0.0000000   0.0000000
 AtZNuc=   6.0000000   6.0000000   6.0000000   6.0000000   6.0000000   6.0000000   8.0000000   8.0000000   6.0000000   8.0000000

  Atom        11          12          13          14          15          16          17          18          19          20
 IAtWgt=          12          12          12          12          12          12           1           1           1           1
 AtmWgt=  12.0000000  12.0000000  12.0000000  12.0000000  12.0000000  12.0000000   1.0078250   1.0078250   1.0078250   1.0078250
 NucSpn=           0           0           0           0           0           0           1           1           1           1
 AtZEff=  -0.0000000  -0.0000000  -0.0000000  -0.0000000  -0.0000000  -0.0000000  -0.0000000  -0.0000000  -0.0000000  -0.0000000
 NQMom=    0.0000000   0.0000000   0.0000000   0.0000000   0.0000000   0.0000000   0.0000000   0.0000000   0.0000000   0.0000000
 NMagM=    0.0000000   0.0000000   0.0000000   0.0000000   0.0000000   0.0000000   2.7928460   2.7928460   2.7928460   2.7928460
 AtZNuc=   6.0000000   6.0000000   6.0000000   6.0000000   6.0000000   6.0000000   1.0000000   1.0000000   1.0000000   1.0000000

  Atom        21          22          23          24          25          26
 IAtWgt=           1           1           1           1           1           1
 AtmWgt=   1.0078250   1.0078250   1.0078250   1.0078250   1.0078250   1.0078250
 NucSpn=           1           1           1           1           1           1
 AtZEff=  -0.0000000  -0.0000000  -0.0000000  -0.0000000  -0.0000000  -0.0000000
 NQMom=    0.0000000   0.0000000   0.0000000   0.0000000   0.0000000   0.0000000
 NMagM=    2.7928460   2.7928460   2.7928460   2.7928460   2.7928460   2.7928460
 AtZNuc=   1.0000000   1.0000000   1.0000000   1.0000000   1.0000000   1.0000000
 Leave Link  101 at Wed Jan 10 04:48:18 2024, MaxMem=  4026531840 cpu:               6.6 elap:               0.9
 (Enter /sysapps/ubuntu-applications/gaussian/Gaussian/AVX2/g16/l103.exe)

 GradGradGradGradGradGradGradGradGradGradGradGradGradGradGradGradGradGrad
 Berny optimization.
 Initialization pass.
                           ----------------------------
                           !    Initial Parameters    !
                           ! (Angstroms and Degrees)  !
 --------------------------                            --------------------------
 ! Name  Definition              Value          Derivative Info.                !
 --------------------------------------------------------------------------------
 ! R1    R(1,2)                  1.4831         estimate D2E/DX2                !
 ! R2    R(1,6)                  1.4939         estimate D2E/DX2                !
 ! R3    R(1,7)                  1.2213         estimate D2E/DX2                !
 ! R4    R(2,3)                  1.3382         estimate D2E/DX2                !
 ! R5    R(2,17)                 1.0844         estimate D2E/DX2                !
 ! R6    R(3,4)                  1.4862         estimate D2E/DX2                !
 ! R7    R(3,18)                 1.0844         estimate D2E/DX2                !
 ! R8    R(4,5)                  1.4803         estimate D2E/DX2                !
 ! R9    R(4,8)                  1.2205         estimate D2E/DX2                !
 ! R10   R(5,6)                  1.3431         estimate D2E/DX2                !
 ! R11   R(5,19)                 1.0828         estimate D2E/DX2                !
 ! R12   R(6,9)                  1.5013         estimate D2E/DX2                !
 ! R13   R(9,10)                 1.4152         estimate D2E/DX2                !
 ! R14   R(9,20)                 1.0974         estimate D2E/DX2                !
 ! R15   R(9,21)                 1.0974         estimate D2E/DX2                !
 ! R16   R(10,11)                1.3726         estimate D2E/DX2                !
 ! R17   R(11,12)                1.3962         estimate D2E/DX2                !
 ! R18   R(11,13)                1.399          estimate D2E/DX2                !
 ! R19   R(12,15)                1.3977         estimate D2E/DX2                !
 ! R20   R(12,22)                1.0817         estimate D2E/DX2                !
 ! R21   R(13,14)                1.3882         estimate D2E/DX2                !
 ! R22   R(13,23)                1.0834         estimate D2E/DX2                !
 ! R23   R(14,16)                1.3973         estimate D2E/DX2                !
 ! R24   R(14,24)                1.0842         estimate D2E/DX2                !
 ! R25   R(15,16)                1.39           estimate D2E/DX2                !
 ! R26   R(15,25)                1.0843         estimate D2E/DX2                !
 ! R27   R(16,26)                1.0834         estimate D2E/DX2                !
 ! A1    A(2,1,6)              117.9123         estimate D2E/DX2                !
 ! A2    A(2,1,7)              121.0929         estimate D2E/DX2                !
 ! A3    A(6,1,7)              120.9948         estimate D2E/DX2                !
 ! A4    A(1,2,3)              121.3884         estimate D2E/DX2                !
 ! A5    A(1,2,17)             115.6631         estimate D2E/DX2                !
 ! A6    A(3,2,17)             122.9485         estimate D2E/DX2                !
 ! A7    A(2,3,4)              120.9782         estimate D2E/DX2                !
 ! A8    A(2,3,18)             122.8773         estimate D2E/DX2                !
 ! A9    A(4,3,18)             116.1445         estimate D2E/DX2                !
 ! A10   A(3,4,5)              117.6828         estimate D2E/DX2                !
 ! A11   A(3,4,8)              120.8998         estimate D2E/DX2                !
 ! A12   A(5,4,8)              121.4174         estimate D2E/DX2                !
 ! A13   A(4,5,6)              121.8517         estimate D2E/DX2                !
 ! A14   A(4,5,19)             116.5635         estimate D2E/DX2                !
 ! A15   A(6,5,19)             121.5847         estimate D2E/DX2                !
 ! A16   A(1,6,5)              120.1865         estimate D2E/DX2                !
 ! A17   A(1,6,9)              115.5247         estimate D2E/DX2                !
 ! A18   A(5,6,9)              124.2888         estimate D2E/DX2                !
 ! A19   A(6,9,10)             109.2975         estimate D2E/DX2                !
 ! A20   A(6,9,20)             109.2572         estimate D2E/DX2                !
 ! A21   A(6,9,21)             109.2567         estimate D2E/DX2                !
 ! A22   A(10,9,20)            111.0445         estimate D2E/DX2                !
 ! A23   A(10,9,21)            111.0476         estimate D2E/DX2                !
 ! A24   A(20,9,21)            106.8863         estimate D2E/DX2                !
 ! A25   A(9,10,11)            118.6112         estimate D2E/DX2                !
 ! A26   A(10,11,12)           124.3867         estimate D2E/DX2                !
 ! A27   A(10,11,13)           115.4887         estimate D2E/DX2                !
 ! A28   A(12,11,13)           120.1246         estimate D2E/DX2                !
 ! A29   A(11,12,15)           119.2805         estimate D2E/DX2                !
 ! A30   A(11,12,22)           121.3496         estimate D2E/DX2                !
 ! A31   A(15,12,22)           119.37           estimate D2E/DX2                !
 ! A32   A(11,13,14)           119.8712         estimate D2E/DX2                !
 ! A33   A(11,13,23)           118.776          estimate D2E/DX2                !
 ! A34   A(14,13,23)           121.3528         estimate D2E/DX2                !
 ! A35   A(13,14,16)           120.55           estimate D2E/DX2                !
 ! A36   A(13,14,24)           119.3622         estimate D2E/DX2                !
 ! A37   A(16,14,24)           120.0878         estimate D2E/DX2                !
 ! A38   A(12,15,16)           120.9363         estimate D2E/DX2                !
 ! A39   A(12,15,25)           118.9652         estimate D2E/DX2                !
 ! A40   A(16,15,25)           120.0985         estimate D2E/DX2                !
 ! A41   A(14,16,15)           119.2374         estimate D2E/DX2                !
 ! A42   A(14,16,26)           120.38           estimate D2E/DX2                !
 ! A43   A(15,16,26)           120.3826         estimate D2E/DX2                !
 ! D1    D(6,1,2,3)             -0.0045         estimate D2E/DX2                !
 ! D2    D(6,1,2,17)           179.996          estimate D2E/DX2                !
 ! D3    D(7,1,2,3)            179.9963         estimate D2E/DX2                !
 ! D4    D(7,1,2,17)            -0.0033         estimate D2E/DX2                !
 ! D5    D(2,1,6,5)              0.0095         estimate D2E/DX2                !
 ! D6    D(2,1,6,9)           -179.9942         estimate D2E/DX2                !
 ! D7    D(7,1,6,5)           -179.9913         estimate D2E/DX2                !
 ! D8    D(7,1,6,9)              0.005          estimate D2E/DX2                !
 ! D9    D(1,2,3,4)              0.001          estimate D2E/DX2                !
 ! D10   D(1,2,3,18)           179.9999         estimate D2E/DX2                !
 ! D11   D(17,2,3,4)          -179.9995         estimate D2E/DX2                !
 ! D12   D(17,2,3,18)           -0.0006         estimate D2E/DX2                !
 ! D13   D(2,3,4,5)             -0.0019         estimate D2E/DX2                !
 ! D14   D(2,3,4,8)            179.9968         estimate D2E/DX2                !
 ! D15   D(18,3,4,5)           179.9991         estimate D2E/DX2                !
 ! D16   D(18,3,4,8)            -0.0022         estimate D2E/DX2                !
 ! D17   D(3,4,5,6)              0.0071         estimate D2E/DX2                !
 ! D18   D(3,4,5,19)          -179.9936         estimate D2E/DX2                !
 ! D19   D(8,4,5,6)           -179.9916         estimate D2E/DX2                !
 ! D20   D(8,4,5,19)             0.0077         estimate D2E/DX2                !
 ! D21   D(4,5,6,1)             -0.0108         estimate D2E/DX2                !
 ! D22   D(4,5,6,9)            179.9932         estimate D2E/DX2                !
 ! D23   D(19,5,6,1)           179.9899         estimate D2E/DX2                !
 ! D24   D(19,5,6,9)            -0.0061         estimate D2E/DX2                !
 ! D25   D(1,6,9,10)          -179.9387         estimate D2E/DX2                !
 ! D26   D(1,6,9,20)            58.3699         estimate D2E/DX2                !
 ! D27   D(1,6,9,21)           -58.2437         estimate D2E/DX2                !
 ! D28   D(5,6,9,10)             0.0575         estimate D2E/DX2                !
 ! D29   D(5,6,9,20)          -121.634          estimate D2E/DX2                !
 ! D30   D(5,6,9,21)           121.7525         estimate D2E/DX2                !
 ! D31   D(6,9,10,11)         -179.9901         estimate D2E/DX2                !
 ! D32   D(20,9,10,11)         -59.3839         estimate D2E/DX2                !
 ! D33   D(21,9,10,11)          59.4022         estimate D2E/DX2                !
 ! D34   D(9,10,11,12)           0.0217         estimate D2E/DX2                !
 ! D35   D(9,10,11,13)        -179.9829         estimate D2E/DX2                !
 ! D36   D(10,11,12,15)        179.9925         estimate D2E/DX2                !
 ! D37   D(10,11,12,22)         -0.0037         estimate D2E/DX2                !
 ! D38   D(13,11,12,15)         -0.0027         estimate D2E/DX2                !
 ! D39   D(13,11,12,22)       -179.9989         estimate D2E/DX2                !
 ! D40   D(10,11,13,14)       -179.9931         estimate D2E/DX2                !
 ! D41   D(10,11,13,23)          0.0039         estimate D2E/DX2                !
 ! D42   D(12,11,13,14)          0.0025         estimate D2E/DX2                !
 ! D43   D(12,11,13,23)        179.9995         estimate D2E/DX2                !
 ! D44   D(11,12,15,16)          0.0017         estimate D2E/DX2                !
 ! D45   D(11,12,15,25)       -179.9991         estimate D2E/DX2                !
 ! D46   D(22,12,15,16)        179.998          estimate D2E/DX2                !
 ! D47   D(22,12,15,25)         -0.0028         estimate D2E/DX2                !
 ! D48   D(11,13,14,16)         -0.0012         estimate D2E/DX2                !
 ! D49   D(11,13,14,24)        179.9979         estimate D2E/DX2                !
 ! D50   D(23,13,14,16)       -179.9982         estimate D2E/DX2                !
 ! D51   D(23,13,14,24)          0.001          estimate D2E/DX2                !
 ! D52   D(13,14,16,15)          0.0002         estimate D2E/DX2                !
 ! D53   D(13,14,16,26)        179.9997         estimate D2E/DX2                !
 ! D54   D(24,14,16,15)       -179.9989         estimate D2E/DX2                !
 ! D55   D(24,14,16,26)          0.0005         estimate D2E/DX2                !
 ! D56   D(12,15,16,14)         -0.0005         estimate D2E/DX2                !
 ! D57   D(12,15,16,26)       -179.9999         estimate D2E/DX2                !
 ! D58   D(25,15,16,14)       -179.9997         estimate D2E/DX2                !
 ! D59   D(25,15,16,26)          0.0009         estimate D2E/DX2                !
 --------------------------------------------------------------------------------
 Trust Radius=3.00D-01 FncErr=1.00D-07 GrdErr=1.00D-06 EigMax=2.50D+02 EigMin=1.00D-04
 Number of steps in this run=    139 maximum allowed number of steps=    156.
 GradGradGradGradGradGradGradGradGradGradGradGradGradGradGradGradGradGrad

 Leave Link  103 at Wed Jan 10 04:48:18 2024, MaxMem=  4026531840 cpu:               0.3 elap:               0.1
 (Enter /sysapps/ubuntu-applications/gaussian/Gaussian/AVX2/g16/l202.exe)
                          Input orientation:                          
 ---------------------------------------------------------------------
 Center     Atomic      Atomic             Coordinates (Angstroms)
 Number     Number       Type             X           Y           Z
 ---------------------------------------------------------------------
      1          6           0       -1.355049   -2.031044    1.125290
      2          6           0       -1.420437   -1.997939   -0.355972
      3          6           0       -0.792589   -1.048963   -1.060332
      4          6           0       -0.003121    0.011466   -0.381313
      5          6           0        0.062865   -0.020522    1.097211
      6          6           0       -0.563080   -0.968060    1.814286
      7          8           0       -1.930234   -2.899642    1.762776
      8          8           0        0.568989    0.876264   -1.025144
      9          6           0       -0.532895   -1.052719    3.312847
     10          8           0        0.247148    0.010830    3.825728
     11          6           0        0.402719    0.115598    5.185420
     12          6           0       -0.159766   -0.762882    6.113482
     13          6           0        1.185464    1.190255    5.620779
     14          6           0        1.402492    1.382243    6.978446
     15          6           0        0.068533   -0.555368    7.476700
     16          6           0        0.845106    0.510051    7.917126
     17          1           0       -2.004633   -2.786089   -0.818007
     18          1           0       -0.824138   -1.001745   -2.143208
     19          1           0        0.642650    0.760384    1.573023
     20          1           0       -0.119859   -2.024390    3.612230
     21          1           0       -1.559445   -1.010223    3.698509
     22          1           0       -0.768081   -1.600123    5.798892
     23          1           0        1.611264    1.858362    4.881861
     24          1           0        2.010481    2.217761    7.306692
     25          1           0       -0.370719   -1.240684    8.192941
     26          1           0        1.016266    0.662469    8.976006
 ---------------------------------------------------------------------
                    Distance matrix (angstroms):
                    1          2          3          4          5
     1  C    0.000000
     2  C    1.483074   0.000000
     3  C    2.461257   1.338234   0.000000
     4  C    2.875658   2.459092   1.486215   0.000000
     5  C    2.460379   2.867421   2.538599   1.480341   0.000000
     6  C    1.493943   2.550634   2.884900   2.468538   1.343068
     7  O    1.221347   2.358401   3.562189   4.097003   3.564373
     8  O    4.096185   3.559024   2.358311   1.220534   2.358978
     9  C    2.533468   3.891196   4.380885   3.880717   2.515831
    10  O    3.745484   4.929767   5.106642   4.214478   2.734913
    11  C    4.917568   6.204673   6.464857   5.582478   4.104568
    12  C    5.283843   6.705855   7.207351   6.542669   5.075789
    13  C    6.086082   7.257882   7.318745   6.231163   4.815483
    14  C    7.315326   8.555013   8.680501   7.617141   6.192841
    15  C    6.674175   8.102394   8.594538   7.878756   6.401873
    16  C    7.578053   8.936825   9.257825   8.356564   6.885103
    17  H    2.183679   1.084408   2.131989   3.467429   3.948540
    18  H    3.467622   2.131241   1.084364   2.192017   3.499984
    19  H    3.461696   3.947872   3.502600   2.190280   1.082757
    20  H    2.776798   4.175983   4.820463   4.484052   3.220900
    21  H    2.775844   4.175371   4.820388   4.484522   3.221513
    22  H    4.729987   6.202111   6.881376   6.432520   5.029057
    23  H    6.167521   7.176152   7.038516   5.806743   4.500147
    24  H    8.221245   9.394666   9.409345   8.247894   6.881916
    25  H    7.179503   8.646344   9.264869   8.672995   7.212917
    26  H    8.632027  10.005054  10.340650   9.435167   7.965605
                    6          7          8          9         10
     6  C    0.000000
     7  O    2.367018   0.000000
     8  O    3.570080   5.317526   0.000000
     9  C    1.501254   2.786826   4.873735   0.000000
    10  O    2.379200   4.179427   4.937967   1.415150   0.000000
    11  C    3.670371   5.123362   6.259182   2.397263   1.372567
    12  C    4.322944   5.160324   7.360561   2.840209   2.449087
    13  C    4.712231   6.427987   6.681835   3.648320   2.343862
    14  C    6.004660   7.526275   8.062766   4.807430   3.627013
    15  C    5.712458   6.491503   8.636051   4.236360   3.698930
    16  C    6.435251   7.563368   8.954024   5.053763   4.164891
    17  H    3.508885   2.584351   4.480989   4.715351   5.870055
    18  H    3.966238   4.481314   2.591870   5.464060   6.148265
    19  H    2.121205   4.477893   2.601793   2.774209   2.406851
    20  H    2.131873   2.732033   5.513034   1.097439   2.079037
    21  H    2.131858   2.730284   5.513797   1.097427   2.079065
    22  H    4.039630   4.396542   7.381580   2.556440   2.742122
    23  H    4.703876   6.701455   6.078122   3.941271   2.527767
    24  H    6.851219   8.511877   8.561367   5.754615   4.482968
    25  H    6.387376   6.821382   9.504610   4.886405   4.584822
    26  H    7.512868   8.567449  10.013429   6.116628   5.248003
                   11         12         13         14         15
    11  C    0.000000
    12  C    1.396215   0.000000
    13  C    1.398969   2.422219   0.000000
    14  C    2.412235   2.791124   1.388244   0.000000
    15  C    2.410776   1.397693   2.781938   2.404587   0.000000
    16  C    2.795267   2.425543   2.419035   1.397325   1.390021
    17  H    7.089165   7.452680   8.212551   9.474607   8.836079
    18  H    7.514148   8.286819   8.314016   9.687407   9.671543
    19  H    3.677326   4.855922   4.106551   5.493875   6.075707
    20  H    2.706947   2.801652   4.009000   5.025347   4.138556
    21  H    2.707114   2.802209   4.008959   5.025430   4.139074
    22  H    2.165830   1.081659   3.410905   3.872627   2.146270
    23  H    2.142418   3.394754   1.083362   2.160080   3.865139
    24  H    3.391723   3.875301   2.139795   1.084199   3.389736
    25  H    3.388641   2.144049   3.866159   3.391021   1.084252
    26  H    3.878666   3.407157   3.400696   2.158122   2.151568
                   16         17         18         19         20
    16  C    0.000000
    17  H    9.761562   0.000000
    18  H   10.309327   2.516666   0.000000
    19  H    6.352267   5.030169   4.366571   0.000000
    20  H    5.087895   4.874378   5.887859   3.534792   0.000000
    21  H    5.088205   4.873480   5.887818   3.535811   1.763062
    22  H    3.397370   6.835125   7.964807   5.041837   2.319846
    23  H    3.408486   8.193542   7.966366   3.618311   4.436723
    24  H    2.155691  10.352313  10.377904   6.072056   6.015251
    25  H    2.149274   9.287364  10.348848   6.989600   4.654035
    26  H    1.083399  10.813930  11.392700   7.413052   6.105742
                   21         22         23         24         25
    21  H    0.000000
    22  H    2.320743   0.000000
    23  H    4.436496   4.296900   0.000000
    24  H    6.015250   4.956824   2.483616   0.000000
    25  H    4.654686   2.453276   4.949302   4.291432   0.000000
    26  H    6.106076   4.289204   4.306531   2.488776   2.481715
                   26
    26  H    0.000000
 Symmetry turned off by external request.
 Stoichiometry    C13H10O3
 Framework group  C1[X(C13H10O3)]
 Deg. of freedom    72
 Full point group                 C1      NOp   1
 Rotational constants (GHZ):           1.2935709           0.2405504           0.2030875
 Leave Link  202 at Wed Jan 10 04:48:18 2024, MaxMem=  4026531840 cpu:               0.3 elap:               0.1
 (Enter /sysapps/ubuntu-applications/gaussian/Gaussian/AVX2/g16/l301.exe)
 Standard basis: 6-311++G(d,p) (5D, 7F)
 Ernie: Thresh=  0.10000D-02 Tol=  0.10000D-05 Strict=F.
   422 basis functions,   666 primitive gaussians,   438 cartesian basis functions
    56 alpha electrons       56 beta electrons
       nuclear repulsion energy       966.0013002807 Hartrees.
 IExCor=  402 DFT=T Ex+Corr=B3LYP ExCW=0 ScaHFX=  0.200000
 ScaDFX=  0.800000  0.720000  1.000000  0.810000 ScalE2=  1.000000  1.000000
 IRadAn=      5 IRanWt=     -1 IRanGd=            0 ICorTp=0 IEmpDi=  4
 NAtoms=   26 NActive=   26 NUniq=   26 SFac= 1.00D+00 NAtFMM=   60 NAOKFM=F Big=F
 Integral buffers will be    131072 words long.
 Raffenetti 2 integral format.
 Two-electron integral symmetry is turned off.
 Leave Link  301 at Wed Jan 10 04:48:18 2024, MaxMem=  4026531840 cpu:               0.5 elap:               0.1
 (Enter /sysapps/ubuntu-applications/gaussian/Gaussian/AVX2/g16/l302.exe)
 NPDir=0 NMtPBC=     1 NCelOv=     1 NCel=       1 NClECP=     1 NCelD=      1
         NCelK=      1 NCelE2=     1 NClLst=     1 CellRange=     0.0.
 One-electron integrals computed using PRISM.
 NBasis=   422 RedAO= T EigKep=  1.46D-06  NBF=   422
 NBsUse=   420 1.00D-06 EigRej=  7.33D-07 NBFU=   420
 Precomputing XC quadrature grid using
 IXCGrd= 4 IRadAn=           5 IRanWt=          -1 IRanGd=           0 AccXCQ= 0.00D+00.
 Generated NRdTot=       0 NPtTot=           0 NUsed=           0 NTot=          32
 NSgBfM=   436   436   436   436   436 MxSgAt=    26 MxSgA2=    26.
 Leave Link  302 at Wed Jan 10 04:48:19 2024, MaxMem=  4026531840 cpu:               3.6 elap:               0.5
 (Enter /sysapps/ubuntu-applications/gaussian/Gaussian/AVX2/g16/l303.exe)
 DipDrv:  MaxL=1.
 Leave Link  303 at Wed Jan 10 04:48:19 2024, MaxMem=  4026531840 cpu:               0.6 elap:               0.1
 (Enter /sysapps/ubuntu-applications/gaussian/Gaussian/AVX2/g16/l401.exe)
 ExpMin= 3.60D-02 ExpMax= 8.59D+03 ExpMxC= 1.30D+03 IAcc=3 IRadAn=         5 AccDes= 0.00D+00
 Harris functional with IExCor=  402 and IRadAn=       5 diagonalized for initial guess.
 HarFok:  IExCor=  402 AccDes= 0.00D+00 IRadAn=         5 IDoV= 1 UseB2=F ITyADJ=14
 ICtDFT=  3500011 ScaDFX=  1.000000  1.000000  1.000000  1.000000
 FoFCou: FMM=F IPFlag=           0 FMFlag=      100000 FMFlg1=           0
         NFxFlg=           0 DoJE=T BraDBF=F KetDBF=T FulRan=T
         wScrn=  0.000000 ICntrl=       500 IOpCl=  0 I1Cent=   200000004 NGrid=           0
         NMat0=    1 NMatS0=      1 NMatT0=    0 NMatD0=    1 NMtDS0=    0 NMtDT0=    0
 Symmetry not used in FoFCou.
 Harris En= -727.261883612226    
 JPrj=0 DoOrth=F DoCkMO=F.
 Initial guess <Sx>= 0.0000 <Sy>= 0.0000 <Sz>= 0.0000 <S**2>=-0.0000 S=-0.0000
 Leave Link  401 at Wed Jan 10 04:48:21 2024, MaxMem=  4026531840 cpu:              13.6 elap:               1.7
 (Enter /sysapps/ubuntu-applications/gaussian/Gaussian/AVX2/g16/l502.exe)
 Two-electron integral symmetry not used.
 UHF open shell SCF:
 Using DIIS extrapolation, IDIIS=  1040.
 NGot=  4026531840 LenX=  4026141480 LenY=  4025949195
 Requested convergence on RMS density matrix=1.00D-08 within 128 cycles.
 Requested convergence on MAX density matrix=1.00D-06.
 Requested convergence on             energy=1.00D-06.
 No special actions if energy rises.
 Fock matrices will be formed incrementally for  20 cycles.

 Cycle   1  Pass 1  IDiag  1:
 FoFJK:  IHMeth= 1 ICntrl=       0 DoSepK=F KAlg= 0 I1Cent=           0 FoldK=F
 IRaf= 840000000 NMat=       1 IRICut=       1 DoRegI=T DoRafI=F ISym2E= 0 IDoP0=0 IntGTp=1.
 FoFCou: FMM=F IPFlag=           0 FMFlag=      100000 FMFlg1=           0
         NFxFlg=           0 DoJE=F BraDBF=F KetDBF=F FulRan=T
         wScrn=  0.000000 ICntrl=         0 IOpCl=  1 I1Cent=           0 NGrid=           0
         NMat0=    1 NMatS0=      1 NMatT0=    0 NMatD0=    1 NMtDS0=    0 NMtDT0=    0
 Symmetry not used in FoFCou.
 E= -726.865919961552    
 DIIS: error= 3.63D-02 at cycle   1 NSaved=   1.
 NSaved= 1 IEnMin= 1 EnMin= -726.865919961552     IErMin= 1 ErrMin= 3.63D-02
 ErrMax= 3.63D-02  0.00D+00 EMaxC= 1.00D-01 BMatC= 1.76D+00 BMatP= 1.76D+00
 IDIUse=3 WtCom= 6.37D-01 WtEn= 3.63D-01
 Coeff-Com:  0.100D+01
 Coeff-En:   0.100D+01
 Coeff:      0.100D+01
 Gap=     0.056 Goal=   None    Shift=    0.000
 Gap=     0.056 Goal=   None    Shift=    0.000
 GapD=    0.056 DampG=0.500 DampE=0.500 DampFc=0.2500 IDamp=-1.
 Damping current iteration by 2.50D-01
 RMSDP=2.56D-02 MaxDP=2.18D+00              OVMax= 2.82D-01

 Cycle   2  Pass 1  IDiag  1:
 RMSU=  6.34D-03    CP:  1.02D+00
 E= -726.993599028912     Delta-E=       -0.127679067360 Rises=F Damp=T
 DIIS: error= 1.86D-02 at cycle   2 NSaved=   2.
 NSaved= 2 IEnMin= 2 EnMin= -726.993599028912     IErMin= 2 ErrMin= 1.86D-02
 ErrMax= 1.86D-02  0.00D+00 EMaxC= 1.00D-01 BMatC= 4.20D-01 BMatP= 1.76D+00
 IDIUse=3 WtCom= 8.14D-01 WtEn= 1.86D-01
 Coeff-Com: -0.639D+00 0.164D+01
 Coeff-En:   0.000D+00 0.100D+01
 Coeff:     -0.520D+00 0.152D+01
 Gap=     0.083 Goal=   None    Shift=    0.000
 Gap=     0.083 Goal=   None    Shift=    0.000
 RMSDP=6.32D-03 MaxDP=5.55D-01 DE=-1.28D-01 OVMax= 2.60D-01

 Cycle   3  Pass 1  IDiag  1:
 RMSU=  6.07D-03    CP:  9.85D-01  1.14D+00
 E= -727.178553913305     Delta-E=       -0.184954884394 Rises=F Damp=F
 DIIS: error= 2.47D-02 at cycle   3 NSaved=   3.
 NSaved= 3 IEnMin= 3 EnMin= -727.178553913305     IErMin= 2 ErrMin= 1.86D-02
 ErrMax= 2.47D-02  0.00D+00 EMaxC= 1.00D-01 BMatC= 2.34D-01 BMatP= 4.20D-01
 IDIUse=3 WtCom= 7.53D-01 WtEn= 2.47D-01
 Coeff-Com: -0.434D+00 0.956D+00 0.478D+00
 Coeff-En:   0.000D+00 0.000D+00 0.100D+01
 Coeff:     -0.327D+00 0.719D+00 0.607D+00
 Gap=     0.102 Goal=   None    Shift=    0.000
 Gap=     0.102 Goal=   None    Shift=    0.000
 RMSDP=5.14D-03 MaxDP=3.35D-01 DE=-1.85D-01 OVMax= 1.16D-01

 Cycle   4  Pass 1  IDiag  1:
 RMSU=  3.59D-03    CP:  1.03D+00  1.36D+00  5.92D-01
 E= -727.200291534073     Delta-E=       -0.021737620767 Rises=F Damp=F
 DIIS: error= 2.11D-02 at cycle   4 NSaved=   4.
 NSaved= 4 IEnMin= 4 EnMin= -727.200291534073     IErMin= 2 ErrMin= 1.86D-02
 ErrMax= 2.11D-02  0.00D+00 EMaxC= 1.00D-01 BMatC= 1.44D-01 BMatP= 2.34D-01
 IDIUse=3 WtCom= 7.89D-01 WtEn= 2.11D-01
 Coeff-Com: -0.543D-01 0.154D+00 0.424D+00 0.476D+00
 Coeff-En:   0.000D+00 0.000D+00 0.399D+00 0.601D+00
 Coeff:     -0.428D-01 0.122D+00 0.418D+00 0.503D+00
 Gap=     0.094 Goal=   None    Shift=    0.000
 Gap=     0.094 Goal=   None    Shift=    0.000
 RMSDP=3.76D-03 MaxDP=3.26D-01 DE=-2.17D-02 OVMax= 5.98D-02

 Cycle   5  Pass 1  IDiag  1:
 RMSU=  9.02D-04    CP:  9.77D-01  1.25D+00  7.84D-01  4.37D-01
 E= -727.229535976027     Delta-E=       -0.029244441954 Rises=F Damp=F
 DIIS: error= 3.59D-03 at cycle   5 NSaved=   5.
 NSaved= 5 IEnMin= 5 EnMin= -727.229535976027     IErMin= 5 ErrMin= 3.59D-03
 ErrMax= 3.59D-03  0.00D+00 EMaxC= 1.00D-01 BMatC= 3.91D-03 BMatP= 1.44D-01
 IDIUse=3 WtCom= 9.64D-01 WtEn= 3.59D-02
 Coeff-Com: -0.664D-02 0.298D-01 0.218D+00 0.297D+00 0.462D+00
 Coeff-En:   0.000D+00 0.000D+00 0.000D+00 0.000D+00 0.100D+01
 Coeff:     -0.641D-02 0.287D-01 0.210D+00 0.287D+00 0.481D+00
 Gap=     0.096 Goal=   None    Shift=    0.000
 Gap=     0.096 Goal=   None    Shift=    0.000
 RMSDP=3.61D-04 MaxDP=2.03D-02 DE=-2.92D-02 OVMax= 1.82D-02

 Cycle   6  Pass 1  IDiag  1:
 RMSU=  2.88D-04    CP:  9.79D-01  1.26D+00  7.75D-01  4.48D-01  8.10D-01
 E= -727.230156037652     Delta-E=       -0.000620061625 Rises=F Damp=F
 DIIS: error= 2.24D-03 at cycle   6 NSaved=   6.
 NSaved= 6 IEnMin= 6 EnMin= -727.230156037652     IErMin= 6 ErrMin= 2.24D-03
 ErrMax= 2.24D-03  0.00D+00 EMaxC= 1.00D-01 BMatC= 1.04D-03 BMatP= 3.91D-03
 IDIUse=3 WtCom= 9.78D-01 WtEn= 2.24D-02
 Coeff-Com:  0.356D-02-0.499D-02 0.688D-01 0.111D+00 0.355D+00 0.467D+00
 Coeff-En:   0.000D+00 0.000D+00 0.000D+00 0.000D+00 0.247D+00 0.753D+00
 Coeff:      0.348D-02-0.487D-02 0.672D-01 0.108D+00 0.352D+00 0.474D+00
 Gap=     0.098 Goal=   None    Shift=    0.000
 Gap=     0.098 Goal=   None    Shift=    0.000
 RMSDP=2.53D-04 MaxDP=1.96D-02 DE=-6.20D-04 OVMax= 8.56D-03

 Cycle   7  Pass 1  IDiag  1:
 RMSU=  1.33D-04    CP:  9.80D-01  1.24D+00  7.82D-01  4.67D-01  7.56D-01
                    CP:  5.78D-01
 E= -727.230360565359     Delta-E=       -0.000204527708 Rises=F Damp=F
 DIIS: error= 5.87D-04 at cycle   7 NSaved=   7.
 NSaved= 7 IEnMin= 7 EnMin= -727.230360565359     IErMin= 7 ErrMin= 5.87D-04
 ErrMax= 5.87D-04  0.00D+00 EMaxC= 1.00D-01 BMatC= 8.01D-05 BMatP= 1.04D-03
 IDIUse=3 WtCom= 9.94D-01 WtEn= 5.87D-03
 Coeff-Com:  0.231D-02-0.484D-02 0.199D-01 0.369D-01 0.169D+00 0.298D+00
 Coeff-Com:  0.479D+00
 Coeff-En:   0.000D+00 0.000D+00 0.000D+00 0.000D+00 0.000D+00 0.388D-01
 Coeff-En:   0.961D+00
 Coeff:      0.230D-02-0.481D-02 0.198D-01 0.367D-01 0.168D+00 0.296D+00
 Coeff:      0.482D+00
 Gap=     0.097 Goal=   None    Shift=    0.000
 Gap=     0.097 Goal=   None    Shift=    0.000
 RMSDP=6.87D-05 MaxDP=7.73D-03 DE=-2.05D-04 OVMax= 2.14D-03

 Cycle   8  Pass 1  IDiag  1:
 RMSU=  3.33D-05    CP:  9.81D-01  1.24D+00  7.84D-01  4.71D-01  7.58D-01
                    CP:  5.96D-01  6.73D-01
 E= -727.230377209585     Delta-E=       -0.000016644226 Rises=F Damp=F
 DIIS: error= 1.73D-04 at cycle   8 NSaved=   8.
 NSaved= 8 IEnMin= 8 EnMin= -727.230377209585     IErMin= 8 ErrMin= 1.73D-04
 ErrMax= 1.73D-04  0.00D+00 EMaxC= 1.00D-01 BMatC= 9.82D-06 BMatP= 8.01D-05
 IDIUse=3 WtCom= 9.98D-01 WtEn= 1.73D-03
 Coeff-Com:  0.107D-02-0.243D-02 0.470D-02 0.104D-01 0.661D-01 0.134D+00
 Coeff-Com:  0.311D+00 0.475D+00
 Coeff-En:   0.000D+00 0.000D+00 0.000D+00 0.000D+00 0.000D+00 0.000D+00
 Coeff-En:   0.117D+00 0.883D+00
 Coeff:      0.107D-02-0.243D-02 0.469D-02 0.104D-01 0.660D-01 0.134D+00
 Coeff:      0.311D+00 0.476D+00
 Gap=     0.097 Goal=   None    Shift=    0.000
 Gap=     0.097 Goal=   None    Shift=    0.000
 RMSDP=2.63D-05 MaxDP=2.54D-03 DE=-1.66D-05 OVMax= 5.88D-04

 Cycle   9  Pass 1  IDiag  1:
 RMSU=  1.69D-05    CP:  9.80D-01  1.24D+00  7.84D-01  4.69D-01  7.69D-01
                    CP:  6.00D-01  6.67D-01  7.16D-01
 E= -727.230379774260     Delta-E=       -0.000002564675 Rises=F Damp=F
 DIIS: error= 3.10D-05 at cycle   9 NSaved=   9.
 NSaved= 9 IEnMin= 9 EnMin= -727.230379774260     IErMin= 9 ErrMin= 3.10D-05
 ErrMax= 3.10D-05  0.00D+00 EMaxC= 1.00D-01 BMatC= 6.17D-07 BMatP= 9.82D-06
 IDIUse=1 WtCom= 1.00D+00 WtEn= 0.00D+00
 Coeff-Com:  0.297D-03-0.631D-03-0.315D-03 0.350D-04 0.108D-01 0.283D-01
 Coeff-Com:  0.956D-01 0.245D+00 0.620D+00
 Coeff:      0.297D-03-0.631D-03-0.315D-03 0.350D-04 0.108D-01 0.283D-01
 Coeff:      0.956D-01 0.245D+00 0.620D+00
 Gap=     0.097 Goal=   None    Shift=    0.000
 Gap=     0.097 Goal=   None    Shift=    0.000
 RMSDP=9.11D-06 MaxDP=1.02D-03 DE=-2.56D-06 OVMax= 1.14D-04

 Cycle  10  Pass 1  IDiag  1:
 RMSU=  3.62D-06    CP:  9.80D-01  1.24D+00  7.84D-01  4.68D-01  7.72D-01
                    CP:  6.02D-01  6.64D-01  6.90D-01  8.47D-01
 E= -727.230379912165     Delta-E=       -0.000000137905 Rises=F Damp=F
 DIIS: error= 7.23D-06 at cycle  10 NSaved=  10.
 NSaved=10 IEnMin=10 EnMin= -727.230379912165     IErMin=10 ErrMin= 7.23D-06
 ErrMax= 7.23D-06  0.00D+00 EMaxC= 1.00D-01 BMatC= 5.01D-08 BMatP= 6.17D-07
 IDIUse=1 WtCom= 1.00D+00 WtEn= 0.00D+00
 Coeff-Com:  0.101D-03-0.206D-03-0.365D-03-0.513D-03 0.235D-02 0.775D-02
 Coeff-Com:  0.340D-01 0.996D-01 0.325D+00 0.532D+00
 Coeff:      0.101D-03-0.206D-03-0.365D-03-0.513D-03 0.235D-02 0.775D-02
 Coeff:      0.340D-01 0.996D-01 0.325D+00 0.532D+00
 Gap=     0.097 Goal=   None    Shift=    0.000
 Gap=     0.097 Goal=   None    Shift=    0.000
 RMSDP=1.86D-06 MaxDP=1.90D-04 DE=-1.38D-07 OVMax= 5.63D-05

 Cycle  11  Pass 1  IDiag  1:
 RMSU=  8.73D-07    CP:  9.80D-01  1.24D+00  7.84D-01  4.68D-01  7.71D-01
                    CP:  6.01D-01  6.65D-01  7.00D-01  8.25D-01  8.22D-01
 E= -727.230379922398     Delta-E=       -0.000000010233 Rises=F Damp=F
 DIIS: error= 2.62D-06 at cycle  11 NSaved=  11.
 NSaved=11 IEnMin=11 EnMin= -727.230379922398     IErMin=11 ErrMin= 2.62D-06
 ErrMax= 2.62D-06  0.00D+00 EMaxC= 1.00D-01 BMatC= 6.78D-09 BMatP= 5.01D-08
 IDIUse=1 WtCom= 1.00D+00 WtEn= 0.00D+00
 Coeff-Com:  0.127D-04-0.208D-04-0.144D-03-0.285D-03-0.233D-03 0.225D-03
 Coeff-Com:  0.516D-02 0.175D-01 0.884D-01 0.306D+00 0.584D+00
 Coeff:      0.127D-04-0.208D-04-0.144D-03-0.285D-03-0.233D-03 0.225D-03
 Coeff:      0.516D-02 0.175D-01 0.884D-01 0.306D+00 0.584D+00
 Gap=     0.097 Goal=   None    Shift=    0.000
 Gap=     0.097 Goal=   None    Shift=    0.000
 RMSDP=7.75D-07 MaxDP=7.50D-05 DE=-1.02D-08 OVMax= 1.45D-05

 Cycle  12  Pass 1  IDiag  1:
 RMSU=  2.54D-07    CP:  9.80D-01  1.24D+00  7.84D-01  4.68D-01  7.71D-01
                    CP:  6.01D-01  6.67D-01  7.00D-01  8.47D-01  8.71D-01
                    CP:  6.62D-01
 E= -727.230379923848     Delta-E=       -0.000000001450 Rises=F Damp=F
 DIIS: error= 7.79D-07 at cycle  12 NSaved=  12.
 NSaved=12 IEnMin=12 EnMin= -727.230379923848     IErMin=12 ErrMin= 7.79D-07
 ErrMax= 7.79D-07  0.00D+00 EMaxC= 1.00D-01 BMatC= 4.90D-10 BMatP= 6.78D-09
 IDIUse=1 WtCom= 1.00D+00 WtEn= 0.00D+00
 Coeff-Com:  0.102D-05 0.417D-06-0.567D-04-0.125D-03-0.309D-03-0.404D-03
 Coeff-Com:  0.621D-03 0.233D-02 0.261D-01 0.132D+00 0.307D+00 0.533D+00
 Coeff:      0.102D-05 0.417D-06-0.567D-04-0.125D-03-0.309D-03-0.404D-03
 Coeff:      0.621D-03 0.233D-02 0.261D-01 0.132D+00 0.307D+00 0.533D+00
 Gap=     0.097 Goal=   None    Shift=    0.000
 Gap=     0.097 Goal=   None    Shift=    0.000
 RMSDP=1.70D-07 MaxDP=1.35D-05 DE=-1.45D-09 OVMax= 4.53D-06

 Cycle  13  Pass 1  IDiag  1:
 RMSU=  9.75D-08    CP:  9.80D-01  1.24D+00  7.84D-01  4.68D-01  7.71D-01
                    CP:  6.01D-01  6.67D-01  7.00D-01  8.54D-01  8.71D-01
                    CP:  6.65D-01  8.31D-01
 E= -727.230379923960     Delta-E=       -0.000000000112 Rises=F Damp=F
 DIIS: error= 3.15D-07 at cycle  13 NSaved=  13.
 NSaved=13 IEnMin=13 EnMin= -727.230379923960     IErMin=13 ErrMin= 3.15D-07
 ErrMax= 3.15D-07  0.00D+00 EMaxC= 1.00D-01 BMatC= 5.68D-11 BMatP= 4.90D-10
 IDIUse=1 WtCom= 1.00D+00 WtEn= 0.00D+00
 Coeff-Com: -0.999D-06 0.244D-05-0.271D-05-0.114D-04-0.127D-03-0.231D-03
 Coeff-Com: -0.542D-03-0.210D-02-0.271D-02 0.116D-01 0.388D-01 0.266D+00
 Coeff-Com:  0.689D+00
 Coeff:     -0.999D-06 0.244D-05-0.271D-05-0.114D-04-0.127D-03-0.231D-03
 Coeff:     -0.542D-03-0.210D-02-0.271D-02 0.116D-01 0.388D-01 0.266D+00
 Coeff:      0.689D+00
 Gap=     0.097 Goal=   None    Shift=    0.000
 Gap=     0.097 Goal=   None    Shift=    0.000
 RMSDP=6.18D-08 MaxDP=4.58D-06 DE=-1.12D-10 OVMax= 1.87D-06

 Cycle  14  Pass 1  IDiag  1:
 RMSU=  3.32D-08    CP:  9.80D-01  1.24D+00  7.84D-01  4.68D-01  7.71D-01
                    CP:  6.01D-01  6.67D-01  6.99D-01  8.55D-01  8.76D-01
                    CP:  6.75D-01  8.80D-01  8.28D-01
 E= -727.230379923983     Delta-E=       -0.000000000023 Rises=F Damp=F
 DIIS: error= 9.99D-08 at cycle  14 NSaved=  14.
 NSaved=14 IEnMin=14 EnMin= -727.230379923983     IErMin=14 ErrMin= 9.99D-08
 ErrMax= 9.99D-08  0.00D+00 EMaxC= 1.00D-01 BMatC= 1.01D-11 BMatP= 5.68D-11
 IDIUse=1 WtCom= 1.00D+00 WtEn= 0.00D+00
 Coeff-Com: -0.501D-06 0.122D-05 0.179D-05 0.974D-06-0.615D-04-0.122D-03
 Coeff-Com: -0.386D-03-0.154D-02-0.363D-02-0.172D-02 0.122D-02 0.131D+00
 Coeff-Com:  0.428D+00 0.447D+00
 Coeff:     -0.501D-06 0.122D-05 0.179D-05 0.974D-06-0.615D-04-0.122D-03
 Coeff:     -0.386D-03-0.154D-02-0.363D-02-0.172D-02 0.122D-02 0.131D+00
 Coeff:      0.428D+00 0.447D+00
 Gap=     0.097 Goal=   None    Shift=    0.000
 Gap=     0.097 Goal=   None    Shift=    0.000
 RMSDP=1.75D-08 MaxDP=1.46D-06 DE=-2.30D-11 OVMax= 5.51D-07

 Cycle  15  Pass 1  IDiag  1:
 RMSU=  1.02D-08    CP:  9.80D-01  1.24D+00  7.84D-01  4.68D-01  7.71D-01
                    CP:  6.01D-01  6.67D-01  6.99D-01  8.55D-01  8.77D-01
                    CP:  6.75D-01  8.89D-01  8.51D-01  8.04D-01
 E= -727.230379923979     Delta-E=        0.000000000005 Rises=F Damp=F
 DIIS: error= 2.00D-08 at cycle  15 NSaved=  15.
 NSaved=15 IEnMin=14 EnMin= -727.230379923983     IErMin=15 ErrMin= 2.00D-08
 ErrMax= 2.00D-08  0.00D+00 EMaxC= 1.00D-01 BMatC= 5.28D-13 BMatP= 1.01D-11
 IDIUse=1 WtCom= 1.00D+00 WtEn= 0.00D+00
 Coeff-Com:  0.113D-06-0.898D-07 0.120D-05 0.219D-05-0.737D-05-0.177D-04
 Coeff-Com: -0.734D-04-0.342D-03-0.106D-02-0.215D-02-0.668D-02 0.170D-01
 Coeff-Com:  0.766D-01 0.195D+00 0.722D+00
 Coeff:      0.113D-06-0.898D-07 0.120D-05 0.219D-05-0.737D-05-0.177D-04
 Coeff:     -0.734D-04-0.342D-03-0.106D-02-0.215D-02-0.668D-02 0.170D-01
 Coeff:      0.766D-01 0.195D+00 0.722D+00
 Gap=     0.097 Goal=   None    Shift=    0.000
 Gap=     0.097 Goal=   None    Shift=    0.000
 RMSDP=5.61D-09 MaxDP=3.04D-07 DE= 4.55D-12 OVMax= 2.45D-07

 SCF Done:  E(UB3LYP) =  -727.230379924     A.U. after   15 cycles
            NFock= 15  Conv=0.56D-08     -V/T= 2.0040
 <Sx>= 0.0000 <Sy>= 0.0000 <Sz>= 0.0000 <S**2>=-0.0000 S=-0.0000
 <L.S>=  0.00000000000    
 KE= 7.243049086806D+02 PE=-3.627851330764D+03 EE= 1.210314741879D+03
 Annihilation of the first spin contaminant:
 S**2 before annihilation    -0.0000,   after    -0.0000
 Leave Link  502 at Wed Jan 10 04:50:30 2024, MaxMem=  4026531840 cpu:            1025.4 elap:             129.0
 (Enter /sysapps/ubuntu-applications/gaussian/Gaussian/AVX2/g16/l601.exe)
 Copying SCF densities to generalized density rwf, IOpCl= 1 IROHF=0.

 **********************************************************************

            Population analysis using the SCF density.

 **********************************************************************

 Alpha  occ. eigenvalues --  -19.17289 -19.15102 -19.14504 -10.29720 -10.29067
 Alpha  occ. eigenvalues --  -10.25774 -10.24899 -10.23166 -10.22400 -10.22317
 Alpha  occ. eigenvalues --  -10.21517 -10.18706 -10.18591 -10.18562 -10.18153
 Alpha  occ. eigenvalues --  -10.17833  -1.09084  -1.08130  -1.07377  -0.88065
 Alpha  occ. eigenvalues --   -0.86568  -0.82242  -0.76868  -0.76020  -0.73346
 Alpha  occ. eigenvalues --   -0.70446  -0.64921  -0.62856  -0.60863  -0.60176
 Alpha  occ. eigenvalues --   -0.56078  -0.52692  -0.52043  -0.50695  -0.50087
 Alpha  occ. eigenvalues --   -0.49559  -0.48465  -0.46523  -0.45599  -0.45456
 Alpha  occ. eigenvalues --   -0.44749  -0.43775  -0.43150  -0.42669  -0.41342
 Alpha  occ. eigenvalues --   -0.39784  -0.38547  -0.37506  -0.34803  -0.34247
 Alpha  occ. eigenvalues --   -0.32131  -0.30579  -0.29739  -0.28504  -0.26799
 Alpha  occ. eigenvalues --   -0.24051
 Alpha virt. eigenvalues --   -0.14334  -0.04174  -0.02487  -0.01383  -0.01227
 Alpha virt. eigenvalues --   -0.00806  -0.00562   0.00313   0.00676   0.01933
 Alpha virt. eigenvalues --    0.02438   0.02451   0.03084   0.03765   0.05002
 Alpha virt. eigenvalues --    0.05565   0.05983   0.06490   0.06534   0.07235
 Alpha virt. eigenvalues --    0.07819   0.08461   0.08520   0.09260   0.10178
 Alpha virt. eigenvalues --    0.10233   0.10429   0.10742   0.10820   0.11298
 Alpha virt. eigenvalues --    0.11486   0.11822   0.12052   0.12394   0.12573
 Alpha virt. eigenvalues --    0.12798   0.12824   0.13202   0.13485   0.13821
 Alpha virt. eigenvalues --    0.14376   0.14878   0.14970   0.15093   0.15414
 Alpha virt. eigenvalues --    0.16229   0.16427   0.16596   0.16986   0.17686
 Alpha virt. eigenvalues --    0.17858   0.18701   0.19073   0.19082   0.19317
 Alpha virt. eigenvalues --    0.20250   0.20407   0.20667   0.21296   0.21697
 Alpha virt. eigenvalues --    0.22069   0.22828   0.23815   0.23890   0.24160
 Alpha virt. eigenvalues --    0.25177   0.25485   0.25976   0.26351   0.26972
 Alpha virt. eigenvalues --    0.27884   0.28427   0.28990   0.28998   0.29444
 Alpha virt. eigenvalues --    0.29894   0.30345   0.30939   0.31283   0.31432
 Alpha virt. eigenvalues --    0.31742   0.31776   0.31964   0.32830   0.34225
 Alpha virt. eigenvalues --    0.34521   0.34924   0.35200   0.36142   0.36901
 Alpha virt. eigenvalues --    0.37148   0.37402   0.37975   0.38536   0.38643
 Alpha virt. eigenvalues --    0.39552   0.40509   0.41730   0.43103   0.44639
 Alpha virt. eigenvalues --    0.44932   0.46053   0.49776   0.50221   0.50665
 Alpha virt. eigenvalues --    0.50736   0.51224   0.53605   0.53613   0.53964
 Alpha virt. eigenvalues --    0.54333   0.55091   0.56129   0.56207   0.57298
 Alpha virt. eigenvalues --    0.57850   0.58214   0.58888   0.59016   0.59389
 Alpha virt. eigenvalues --    0.60480   0.60974   0.62019   0.63015   0.63730
 Alpha virt. eigenvalues --    0.64214   0.65231   0.66162   0.66486   0.67237
 Alpha virt. eigenvalues --    0.67429   0.69179   0.69633   0.70322   0.72488
 Alpha virt. eigenvalues --    0.74068   0.75663   0.76089   0.77361   0.78512
 Alpha virt. eigenvalues --    0.79669   0.80496   0.81382   0.83182   0.83765
 Alpha virt. eigenvalues --    0.84237   0.84859   0.85297   0.85995   0.86942
 Alpha virt. eigenvalues --    0.88061   0.88990   0.89995   0.90226   0.91401
 Alpha virt. eigenvalues --    0.92101   0.94027   0.94501   0.95661   0.95884
 Alpha virt. eigenvalues --    0.97877   0.98732   0.98942   0.99801   1.00947
 Alpha virt. eigenvalues --    1.01316   1.03287   1.03583   1.05840   1.06643
 Alpha virt. eigenvalues --    1.07202   1.09015   1.09375   1.09755   1.10914
 Alpha virt. eigenvalues --    1.12264   1.14234   1.15181   1.20335   1.21218
 Alpha virt. eigenvalues --    1.21888   1.22604   1.23925   1.26445   1.28103
 Alpha virt. eigenvalues --    1.28837   1.30303   1.31110   1.34974   1.35302
 Alpha virt. eigenvalues --    1.40349   1.43215   1.45754   1.46764   1.49155
 Alpha virt. eigenvalues --    1.50813   1.51821   1.52092   1.52842   1.54338
 Alpha virt. eigenvalues --    1.54983   1.55850   1.56444   1.57150   1.57165
 Alpha virt. eigenvalues --    1.58804   1.59495   1.60764   1.60789   1.63914
 Alpha virt. eigenvalues --    1.65307   1.65733   1.66227   1.68070   1.70078
 Alpha virt. eigenvalues --    1.72004   1.73299   1.74134   1.74407   1.76777
 Alpha virt. eigenvalues --    1.76827   1.78720   1.78741   1.80964   1.84268
 Alpha virt. eigenvalues --    1.87119   1.88175   1.89059   1.89547   1.91825
 Alpha virt. eigenvalues --    1.91985   1.92280   1.92652   1.93506   1.94999
 Alpha virt. eigenvalues --    1.95895   1.96758   1.97790   1.98782   2.02949
 Alpha virt. eigenvalues --    2.03863   2.06274   2.07186   2.07436   2.08548
 Alpha virt. eigenvalues --    2.10965   2.13751   2.15700   2.18698   2.20292
 Alpha virt. eigenvalues --    2.22710   2.25813   2.26410   2.29034   2.32724
 Alpha virt. eigenvalues --    2.32886   2.39336   2.41619   2.45629   2.46553
 Alpha virt. eigenvalues --    2.48040   2.48167   2.50764   2.51481   2.54543
 Alpha virt. eigenvalues --    2.54813   2.59316   2.59612   2.62747   2.64151
 Alpha virt. eigenvalues --    2.64789   2.65028   2.68267   2.69589   2.70208
 Alpha virt. eigenvalues --    2.71510   2.71650   2.72034   2.73725   2.73890
 Alpha virt. eigenvalues --    2.75840   2.76971   2.77933   2.78402   2.79164
 Alpha virt. eigenvalues --    2.81413   2.81642   2.82768   2.86344   2.86746
 Alpha virt. eigenvalues --    2.89018   2.89855   2.89947   2.93095   2.93376
 Alpha virt. eigenvalues --    2.94325   2.99764   3.01098   3.04136   3.07123
 Alpha virt. eigenvalues --    3.08051   3.08967   3.11661   3.14468   3.17763
 Alpha virt. eigenvalues --    3.19719   3.20542   3.23208   3.28154   3.31128
 Alpha virt. eigenvalues --    3.31583   3.33475   3.37778   3.39934   3.43133
 Alpha virt. eigenvalues --    3.46927   3.49414   3.52377   3.55012   3.59119
 Alpha virt. eigenvalues --    3.60611   3.62596   3.67691   3.69607   3.75003
 Alpha virt. eigenvalues --    3.77018   3.99403   4.00148   4.03761   4.06161
 Alpha virt. eigenvalues --    4.07954   4.12589   4.15853   4.17237   4.18749
 Alpha virt. eigenvalues --    4.25788   4.30146   4.68228   4.84661   5.01603
 Alpha virt. eigenvalues --    5.02767   5.04382   5.19254   5.22783   5.42162
 Alpha virt. eigenvalues --    5.68676   5.76771   5.84330  23.61656  23.65365
 Alpha virt. eigenvalues --   23.74176  23.82558  23.87734  23.89168  23.95237
 Alpha virt. eigenvalues --   23.96709  24.06683  24.09705  24.16592  24.18923
 Alpha virt. eigenvalues --   24.22350  49.95924  49.98573  50.01699
  Beta  occ. eigenvalues --  -19.17289 -19.15102 -19.14504 -10.29720 -10.29067
  Beta  occ. eigenvalues --  -10.25774 -10.24899 -10.23166 -10.22400 -10.22317
  Beta  occ. eigenvalues --  -10.21517 -10.18706 -10.18591 -10.18562 -10.18153
  Beta  occ. eigenvalues --  -10.17833  -1.09084  -1.08130  -1.07377  -0.88065
  Beta  occ. eigenvalues --   -0.86568  -0.82242  -0.76868  -0.76020  -0.73346
  Beta  occ. eigenvalues --   -0.70446  -0.64921  -0.62856  -0.60863  -0.60176
  Beta  occ. eigenvalues --   -0.56078  -0.52692  -0.52043  -0.50695  -0.50087
  Beta  occ. eigenvalues --   -0.49559  -0.48465  -0.46523  -0.45599  -0.45456
  Beta  occ. eigenvalues --   -0.44749  -0.43775  -0.43150  -0.42669  -0.41342
  Beta  occ. eigenvalues --   -0.39784  -0.38547  -0.37506  -0.34803  -0.34247
  Beta  occ. eigenvalues --   -0.32131  -0.30579  -0.29739  -0.28504  -0.26799
  Beta  occ. eigenvalues --   -0.24051
  Beta virt. eigenvalues --   -0.14334  -0.04174  -0.02487  -0.01383  -0.01227
  Beta virt. eigenvalues --   -0.00806  -0.00562   0.00313   0.00676   0.01933
  Beta virt. eigenvalues --    0.02438   0.02451   0.03084   0.03765   0.05002
  Beta virt. eigenvalues --    0.05565   0.05983   0.06490   0.06534   0.07235
  Beta virt. eigenvalues --    0.07819   0.08461   0.08520   0.09260   0.10178
  Beta virt. eigenvalues --    0.10233   0.10429   0.10742   0.10820   0.11298
  Beta virt. eigenvalues --    0.11486   0.11822   0.12052   0.12394   0.12573
  Beta virt. eigenvalues --    0.12798   0.12824   0.13202   0.13485   0.13821
  Beta virt. eigenvalues --    0.14376   0.14878   0.14970   0.15093   0.15414
  Beta virt. eigenvalues --    0.16229   0.16427   0.16596   0.16986   0.17686
  Beta virt. eigenvalues --    0.17858   0.18701   0.19073   0.19082   0.19317
  Beta virt. eigenvalues --    0.20250   0.20407   0.20667   0.21296   0.21697
  Beta virt. eigenvalues --    0.22069   0.22828   0.23815   0.23890   0.24160
  Beta virt. eigenvalues --    0.25177   0.25485   0.25976   0.26351   0.26972
  Beta virt. eigenvalues --    0.27884   0.28427   0.28990   0.28998   0.29444
  Beta virt. eigenvalues --    0.29894   0.30345   0.30939   0.31283   0.31432
  Beta virt. eigenvalues --    0.31742   0.31776   0.31964   0.32830   0.34225
  Beta virt. eigenvalues --    0.34521   0.34924   0.35200   0.36142   0.36901
  Beta virt. eigenvalues --    0.37148   0.37402   0.37975   0.38536   0.38643
  Beta virt. eigenvalues --    0.39552   0.40509   0.41730   0.43103   0.44639
  Beta virt. eigenvalues --    0.44932   0.46053   0.49776   0.50221   0.50665
  Beta virt. eigenvalues --    0.50736   0.51224   0.53605   0.53613   0.53964
  Beta virt. eigenvalues --    0.54333   0.55091   0.56129   0.56207   0.57298
  Beta virt. eigenvalues --    0.57850   0.58214   0.58888   0.59016   0.59389
  Beta virt. eigenvalues --    0.60480   0.60974   0.62019   0.63015   0.63730
  Beta virt. eigenvalues --    0.64214   0.65231   0.66162   0.66486   0.67237
  Beta virt. eigenvalues --    0.67429   0.69179   0.69633   0.70322   0.72488
  Beta virt. eigenvalues --    0.74068   0.75663   0.76089   0.77361   0.78512
  Beta virt. eigenvalues --    0.79669   0.80496   0.81382   0.83182   0.83765
  Beta virt. eigenvalues --    0.84237   0.84859   0.85297   0.85995   0.86942
  Beta virt. eigenvalues --    0.88061   0.88990   0.89995   0.90226   0.91401
  Beta virt. eigenvalues --    0.92101   0.94027   0.94501   0.95661   0.95884
  Beta virt. eigenvalues --    0.97877   0.98732   0.98942   0.99801   1.00947
  Beta virt. eigenvalues --    1.01316   1.03287   1.03583   1.05840   1.06643
  Beta virt. eigenvalues --    1.07202   1.09015   1.09375   1.09755   1.10914
  Beta virt. eigenvalues --    1.12264   1.14234   1.15181   1.20335   1.21218
  Beta virt. eigenvalues --    1.21888   1.22604   1.23925   1.26445   1.28103
  Beta virt. eigenvalues --    1.28837   1.30303   1.31110   1.34974   1.35302
  Beta virt. eigenvalues --    1.40349   1.43215   1.45754   1.46764   1.49155
  Beta virt. eigenvalues --    1.50813   1.51821   1.52092   1.52842   1.54338
  Beta virt. eigenvalues --    1.54983   1.55850   1.56444   1.57150   1.57165
  Beta virt. eigenvalues --    1.58804   1.59495   1.60764   1.60789   1.63914
  Beta virt. eigenvalues --    1.65307   1.65733   1.66227   1.68070   1.70078
  Beta virt. eigenvalues --    1.72004   1.73299   1.74134   1.74407   1.76777
  Beta virt. eigenvalues --    1.76827   1.78720   1.78741   1.80964   1.84268
  Beta virt. eigenvalues --    1.87119   1.88175   1.89059   1.89547   1.91825
  Beta virt. eigenvalues --    1.91985   1.92280   1.92652   1.93506   1.94999
  Beta virt. eigenvalues --    1.95895   1.96758   1.97790   1.98782   2.02949
  Beta virt. eigenvalues --    2.03863   2.06274   2.07186   2.07436   2.08548
  Beta virt. eigenvalues --    2.10965   2.13751   2.15700   2.18698   2.20292
  Beta virt. eigenvalues --    2.22710   2.25813   2.26410   2.29034   2.32724
  Beta virt. eigenvalues --    2.32886   2.39336   2.41619   2.45629   2.46553
  Beta virt. eigenvalues --    2.48040   2.48167   2.50764   2.51481   2.54543
  Beta virt. eigenvalues --    2.54813   2.59316   2.59612   2.62747   2.64151
  Beta virt. eigenvalues --    2.64789   2.65028   2.68267   2.69589   2.70208
  Beta virt. eigenvalues --    2.71510   2.71650   2.72034   2.73725   2.73890
  Beta virt. eigenvalues --    2.75840   2.76971   2.77933   2.78402   2.79164
  Beta virt. eigenvalues --    2.81413   2.81642   2.82768   2.86344   2.86746
  Beta virt. eigenvalues --    2.89018   2.89855   2.89947   2.93095   2.93376
  Beta virt. eigenvalues --    2.94325   2.99764   3.01098   3.04136   3.07123
  Beta virt. eigenvalues --    3.08051   3.08967   3.11661   3.14468   3.17763
  Beta virt. eigenvalues --    3.19719   3.20542   3.23208   3.28154   3.31128
  Beta virt. eigenvalues --    3.31583   3.33475   3.37778   3.39934   3.43133
  Beta virt. eigenvalues --    3.46927   3.49414   3.52377   3.55012   3.59119
  Beta virt. eigenvalues --    3.60611   3.62596   3.67691   3.69607   3.75003
  Beta virt. eigenvalues --    3.77018   3.99403   4.00148   4.03761   4.06161
  Beta virt. eigenvalues --    4.07954   4.12589   4.15853   4.17237   4.18749
  Beta virt. eigenvalues --    4.25788   4.30146   4.68228   4.84661   5.01603
  Beta virt. eigenvalues --    5.02767   5.04382   5.19254   5.22783   5.42162
  Beta virt. eigenvalues --    5.68676   5.76771   5.84330  23.61656  23.65365
  Beta virt. eigenvalues --   23.74176  23.82558  23.87734  23.89168  23.95237
  Beta virt. eigenvalues --   23.96709  24.06683  24.09705  24.16592  24.18923
  Beta virt. eigenvalues --   24.22350  49.95924  49.98573  50.01699
          Condensed to atoms (all electrons):
               1          2          3          4          5          6
     1  C   15.826856  -5.472567   2.416913  -1.581867  -1.898468  -1.209140
     2  C   -5.472567  12.480609  -3.388642   2.000701   1.037636  -1.243296
     3  C    2.416913  -3.388642  10.448453  -2.218993  -1.584677   0.523339
     4  C   -1.581867   2.000701  -2.218993   9.986786  -2.404989   0.102111
     5  C   -1.898468   1.037636  -1.584677  -2.404989  16.862521  -4.878589
     6  C   -1.209140  -1.243296   0.523339   0.102111  -4.878589  11.597664
     7  O    0.339877  -0.074932  -0.041647   0.032553  -0.109684  -0.080618
     8  O   -0.009988   0.019156  -0.133641   0.353157  -0.071974   0.026541
     9  C   -1.073583   0.042678  -0.314713   0.369387  -0.804410   0.307126
    10  O    0.007064   0.001927  -0.021529   0.063854  -0.044486  -0.042418
    11  C    0.017728  -0.012852  -0.126032   0.074618  -0.107256  -0.526350
    12  C   -0.006063  -0.024685   0.037302  -0.073986  -0.062164   0.217092
    13  C    0.000458  -0.032580  -0.024886   0.040893  -0.139556   0.145625
    14  C    0.023531  -0.011031   0.009782  -0.004108  -0.018898   0.027019
    15  C   -0.088690  -0.012239  -0.003111   0.005901  -0.005162   0.193097
    16  C    0.007719   0.000100  -0.000564  -0.007756  -0.038051   0.081221
    17  H   -0.110975   0.480284  -0.059365   0.026463   0.081191  -0.083420
    18  H    0.039857  -0.074804   0.493568  -0.082174  -0.121502   0.069751
    19  H    0.007457   0.100406  -0.189728  -0.201441   0.757643  -0.130088
    20  H    0.007741  -0.048062   0.010751  -0.004480  -0.036029   0.058422
    21  H    0.009885  -0.047909   0.010889  -0.004702  -0.037401   0.057980
    22  H   -0.030012  -0.007908   0.003248  -0.001514   0.051803   0.011563
    23  H   -0.003956  -0.000479   0.001588   0.007435  -0.026063   0.010520
    24  H   -0.000426  -0.000041  -0.000004   0.000718   0.003515  -0.004319
    25  H   -0.000036   0.000211  -0.000145   0.000371  -0.000521  -0.004205
    26  H    0.000028  -0.000015   0.000000  -0.000183  -0.000880   0.002393
               7          8          9         10         11         12
     1  C    0.339877  -0.009988  -1.073583   0.007064   0.017728  -0.006063
     2  C   -0.074932   0.019156   0.042678   0.001927  -0.012852  -0.024685
     3  C   -0.041647  -0.133641  -0.314713  -0.021529  -0.126032   0.037302
     4  C    0.032553   0.353157   0.369387   0.063854   0.074618  -0.073986
     5  C   -0.109684  -0.071974  -0.804410  -0.044486  -0.107256  -0.062164
     6  C   -0.080618   0.026541   0.307126  -0.042418  -0.526350   0.217092
     7  O    8.070980   0.000347   0.109715  -0.000941   0.007826   0.000055
     8  O    0.000347   8.073327  -0.003266  -0.001514  -0.004165   0.000225
     9  C    0.109715  -0.003266   9.783807   0.085462  -0.281965   1.396930
    10  O   -0.000941  -0.001514   0.085462   8.275500   0.081519   0.260630
    11  C    0.007826  -0.004165  -0.281965   0.081519  11.746408  -1.828629
    12  C    0.000055   0.000225   1.396930   0.260630  -1.828629  13.980718
    13  C   -0.003023  -0.000271  -2.705214  -0.581346  -1.227294  -7.567571
    14  C   -0.000548   0.000266   0.166464   0.037048  -0.134152   1.239888
    15  C    0.000710  -0.000062  -1.489000   0.057682  -1.763520  -2.015796
    16  C    0.000029   0.000005  -0.064956   0.024726  -0.040398  -0.418145
    17  H   -0.013720   0.001670  -0.014333   0.000449   0.003158  -0.000681
    18  H    0.001077  -0.013354   0.001006  -0.000219  -0.001479   0.000811
    19  H   -0.000246  -0.023125  -0.036213  -0.003718   0.015597  -0.017025
    20  H   -0.016177  -0.000247   0.288954  -0.040981  -0.092391   0.109702
    21  H   -0.016164  -0.000247   0.289432  -0.041184  -0.092898   0.109261
    22  H   -0.001199   0.000055   0.094817  -0.009507  -0.266974   0.762172
    23  H    0.000109   0.000308  -0.026547  -0.009724  -0.079575  -0.058889
    24  H   -0.000000  -0.000005   0.001334  -0.002125   0.067432   0.057513
    25  H    0.000084  -0.000001  -0.007907  -0.003051   0.025796  -0.066092
    26  H    0.000001   0.000000  -0.003796   0.001334   0.022739  -0.027456
              13         14         15         16         17         18
     1  C    0.000458   0.023531  -0.088690   0.007719  -0.110975   0.039857
     2  C   -0.032580  -0.011031  -0.012239   0.000100   0.480284  -0.074804
     3  C   -0.024886   0.009782  -0.003111  -0.000564  -0.059365   0.493568
     4  C    0.040893  -0.004108   0.005901  -0.007756   0.026463  -0.082174
     5  C   -0.139556  -0.018898  -0.005162  -0.038051   0.081191  -0.121502
     6  C    0.145625   0.027019   0.193097   0.081221  -0.083420   0.069751
     7  O   -0.003023  -0.000548   0.000710   0.000029  -0.013720   0.001077
     8  O   -0.000271   0.000266  -0.000062   0.000005   0.001670  -0.013354
     9  C   -2.705214   0.166464  -1.489000  -0.064956  -0.014333   0.001006
    10  O   -0.581346   0.037048   0.057682   0.024726   0.000449  -0.000219
    11  C   -1.227294  -0.134152  -1.763520  -0.040398   0.003158  -0.001479
    12  C   -7.567571   1.239888  -2.015796  -0.418145  -0.000681   0.000811
    13  C   16.650571  -1.167110   2.964042  -0.399236   0.000684  -0.000123
    14  C   -1.167110   6.052652  -0.538474   0.144076  -0.000119   0.000072
    15  C    2.964042  -0.538474   8.083397   0.668889   0.000146   0.000071
    16  C   -0.399236   0.144076   0.668889   5.999089   0.000034   0.000005
    17  H    0.000684  -0.000119   0.000146   0.000034   0.482447  -0.019400
    18  H   -0.000123   0.000072   0.000071   0.000005  -0.019400   0.483604
    19  H    0.016601  -0.008597  -0.002108   0.004754   0.004373  -0.007106
    20  H   -0.018848   0.002794   0.030858   0.003409  -0.000630   0.000422
    21  H   -0.018569   0.002842   0.030747   0.003348  -0.000629   0.000424
    22  H   -0.224167   0.039396  -0.120364   0.016691  -0.000192   0.000053
    23  H    0.537076  -0.067055   0.043719   0.008063  -0.000030   0.000062
    24  H   -0.178753   0.465659  -0.021573  -0.073581   0.000000  -0.000001
    25  H    0.061868   0.010877   0.369000  -0.076645   0.000006  -0.000002
    26  H   -0.034009  -0.064534  -0.062686   0.507442   0.000000   0.000000
              19         20         21         22         23         24
     1  C    0.007457   0.007741   0.009885  -0.030012  -0.003956  -0.000426
     2  C    0.100406  -0.048062  -0.047909  -0.007908  -0.000479  -0.000041
     3  C   -0.189728   0.010751   0.010889   0.003248   0.001588  -0.000004
     4  C   -0.201441  -0.004480  -0.004702  -0.001514   0.007435   0.000718
     5  C    0.757643  -0.036029  -0.037401   0.051803  -0.026063   0.003515
     6  C   -0.130088   0.058422   0.057980   0.011563   0.010520  -0.004319
     7  O   -0.000246  -0.016177  -0.016164  -0.001199   0.000109  -0.000000
     8  O   -0.023125  -0.000247  -0.000247   0.000055   0.000308  -0.000005
     9  C   -0.036213   0.288954   0.289432   0.094817  -0.026547   0.001334
    10  O   -0.003718  -0.040981  -0.041184  -0.009507  -0.009724  -0.002125
    11  C    0.015597  -0.092391  -0.092898  -0.266974  -0.079575   0.067432
    12  C   -0.017025   0.109702   0.109261   0.762172  -0.058889   0.057513
    13  C    0.016601  -0.018848  -0.018569  -0.224167   0.537076  -0.178753
    14  C   -0.008597   0.002794   0.002842   0.039396  -0.067055   0.465659
    15  C   -0.002108   0.030858   0.030747  -0.120364   0.043719  -0.021573
    16  C    0.004754   0.003409   0.003348   0.016691   0.008063  -0.073581
    17  H    0.004373  -0.000630  -0.000629  -0.000192  -0.000030   0.000000
    18  H   -0.007106   0.000422   0.000424   0.000053   0.000062  -0.000001
    19  H    0.490988  -0.001895  -0.001893   0.000135  -0.007644   0.000130
    20  H   -0.001895   0.611317  -0.103149   0.000139   0.000847  -0.000016
    21  H   -0.001893  -0.103149   0.611466   0.000117   0.000838  -0.000016
    22  H    0.000135   0.000139   0.000117   0.555855  -0.003056   0.000676
    23  H   -0.007644   0.000847   0.000838  -0.003056   0.530982  -0.018569
    24  H    0.000130  -0.000016  -0.000016   0.000676  -0.018569   0.544408
    25  H   -0.000129  -0.000254  -0.000249  -0.015969   0.001251   0.000270
    26  H    0.000063   0.000018   0.000016   0.001253   0.000534  -0.020614
              25         26
     1  C   -0.000036   0.000028
     2  C    0.000211  -0.000015
     3  C   -0.000145   0.000000
     4  C    0.000371  -0.000183
     5  C   -0.000521  -0.000880
     6  C   -0.004205   0.002393
     7  O    0.000084   0.000001
     8  O   -0.000001   0.000000
     9  C   -0.007907  -0.003796
    10  O   -0.003051   0.001334
    11  C    0.025796   0.022739
    12  C   -0.066092  -0.027456
    13  C    0.061868  -0.034009
    14  C    0.010877  -0.064534
    15  C    0.369000  -0.062686
    16  C   -0.076645   0.507442
    17  H    0.000006   0.000000
    18  H   -0.000002   0.000000
    19  H   -0.000129   0.000063
    20  H   -0.000254   0.000018
    21  H   -0.000249   0.000016
    22  H   -0.015969   0.001253
    23  H    0.001251   0.000534
    24  H    0.000270  -0.020614
    25  H    0.538327  -0.019858
    26  H   -0.019858   0.550513
          Atomic-Atomic Spin Densities.
               1          2          3          4          5          6
     1  C   -0.000000   0.000000  -0.000000  -0.000000   0.000000  -0.000000
     2  C    0.000000  -0.000000   0.000000   0.000000  -0.000000   0.000000
     3  C   -0.000000   0.000000   0.000000  -0.000000   0.000000  -0.000000
     4  C   -0.000000   0.000000  -0.000000   0.000000  -0.000000  -0.000000
     5  C    0.000000  -0.000000   0.000000  -0.000000  -0.000000   0.000000
     6  C   -0.000000   0.000000  -0.000000  -0.000000   0.000000  -0.000000
     7  O   -0.000000  -0.000000  -0.000000  -0.000000   0.000000   0.000000
     8  O    0.000000  -0.000000   0.000000  -0.000000   0.000000   0.000000
     9  C   -0.000000   0.000000  -0.000000   0.000000   0.000000  -0.000000
    10  O   -0.000000   0.000000  -0.000000   0.000000  -0.000000   0.000000
    11  C   -0.000000   0.000000  -0.000000   0.000000   0.000000   0.000000
    12  C    0.000000  -0.000000  -0.000000   0.000000  -0.000000   0.000000
    13  C   -0.000000   0.000000  -0.000000  -0.000000   0.000000  -0.000000
    14  C    0.000000   0.000000   0.000000  -0.000000   0.000000  -0.000000
    15  C   -0.000000   0.000000  -0.000000   0.000000   0.000000  -0.000000
    16  C   -0.000000   0.000000  -0.000000  -0.000000   0.000000   0.000000
    17  H    0.000000  -0.000000   0.000000  -0.000000  -0.000000  -0.000000
    18  H   -0.000000   0.000000  -0.000000   0.000000   0.000000  -0.000000
    19  H    0.000000  -0.000000   0.000000  -0.000000  -0.000000   0.000000
    20  H   -0.000000   0.000000  -0.000000   0.000000   0.000000  -0.000000
    21  H   -0.000000   0.000000  -0.000000   0.000000   0.000000  -0.000000
    22  H    0.000000  -0.000000   0.000000   0.000000  -0.000000  -0.000000
    23  H   -0.000000   0.000000  -0.000000   0.000000   0.000000  -0.000000
    24  H    0.000000   0.000000  -0.000000   0.000000  -0.000000   0.000000
    25  H   -0.000000   0.000000  -0.000000   0.000000   0.000000  -0.000000
    26  H   -0.000000   0.000000  -0.000000  -0.000000   0.000000   0.000000
               7          8          9         10         11         12
     1  C   -0.000000   0.000000  -0.000000  -0.000000  -0.000000   0.000000
     2  C   -0.000000  -0.000000   0.000000   0.000000   0.000000  -0.000000
     3  C   -0.000000   0.000000  -0.000000  -0.000000  -0.000000  -0.000000
     4  C   -0.000000  -0.000000   0.000000   0.000000   0.000000   0.000000
     5  C    0.000000   0.000000   0.000000  -0.000000   0.000000  -0.000000
     6  C    0.000000   0.000000  -0.000000   0.000000   0.000000   0.000000
     7  O   -0.000000   0.000000  -0.000000   0.000000   0.000000  -0.000000
     8  O    0.000000  -0.000000  -0.000000  -0.000000  -0.000000  -0.000000
     9  C   -0.000000  -0.000000  -0.000000  -0.000000   0.000000  -0.000000
    10  O    0.000000  -0.000000  -0.000000   0.000000  -0.000000  -0.000000
    11  C    0.000000  -0.000000   0.000000  -0.000000  -0.000000   0.000000
    12  C   -0.000000  -0.000000  -0.000000  -0.000000   0.000000  -0.000000
    13  C    0.000000   0.000000   0.000000   0.000000  -0.000000   0.000000
    14  C    0.000000   0.000000   0.000000  -0.000000   0.000000  -0.000000
    15  C    0.000000  -0.000000  -0.000000   0.000000  -0.000000   0.000000
    16  C   -0.000000   0.000000  -0.000000   0.000000   0.000000  -0.000000
    17  H    0.000000  -0.000000   0.000000  -0.000000  -0.000000   0.000000
    18  H   -0.000000   0.000000  -0.000000   0.000000  -0.000000  -0.000000
    19  H    0.000000   0.000000   0.000000  -0.000000  -0.000000  -0.000000
    20  H    0.000000   0.000000   0.000000  -0.000000  -0.000000   0.000000
    21  H    0.000000   0.000000   0.000000  -0.000000  -0.000000   0.000000
    22  H   -0.000000  -0.000000  -0.000000  -0.000000   0.000000  -0.000000
    23  H    0.000000  -0.000000  -0.000000   0.000000   0.000000   0.000000
    24  H    0.000000  -0.000000  -0.000000  -0.000000  -0.000000  -0.000000
    25  H    0.000000  -0.000000   0.000000   0.000000  -0.000000   0.000000
    26  H    0.000000   0.000000   0.000000   0.000000  -0.000000   0.000000
              13         14         15         16         17         18
     1  C   -0.000000   0.000000  -0.000000  -0.000000   0.000000  -0.000000
     2  C    0.000000   0.000000   0.000000   0.000000  -0.000000   0.000000
     3  C   -0.000000   0.000000  -0.000000  -0.000000   0.000000  -0.000000
     4  C   -0.000000  -0.000000   0.000000  -0.000000  -0.000000   0.000000
     5  C    0.000000   0.000000   0.000000   0.000000  -0.000000   0.000000
     6  C   -0.000000  -0.000000  -0.000000   0.000000  -0.000000  -0.000000
     7  O    0.000000   0.000000   0.000000  -0.000000   0.000000  -0.000000
     8  O    0.000000   0.000000  -0.000000   0.000000  -0.000000   0.000000
     9  C    0.000000   0.000000  -0.000000  -0.000000   0.000000  -0.000000
    10  O    0.000000  -0.000000   0.000000   0.000000  -0.000000   0.000000
    11  C   -0.000000   0.000000  -0.000000   0.000000  -0.000000  -0.000000
    12  C    0.000000  -0.000000   0.000000  -0.000000   0.000000  -0.000000
    13  C   -0.000000  -0.000000  -0.000000  -0.000000   0.000000  -0.000000
    14  C   -0.000000  -0.000000  -0.000000  -0.000000   0.000000  -0.000000
    15  C   -0.000000  -0.000000   0.000000   0.000000   0.000000  -0.000000
    16  C   -0.000000  -0.000000   0.000000   0.000000   0.000000  -0.000000
    17  H    0.000000   0.000000   0.000000   0.000000  -0.000000   0.000000
    18  H   -0.000000  -0.000000  -0.000000  -0.000000   0.000000  -0.000000
    19  H    0.000000   0.000000   0.000000   0.000000  -0.000000   0.000000
    20  H   -0.000000  -0.000000  -0.000000  -0.000000   0.000000  -0.000000
    21  H   -0.000000  -0.000000  -0.000000  -0.000000   0.000000  -0.000000
    22  H    0.000000  -0.000000  -0.000000  -0.000000  -0.000000   0.000000
    23  H   -0.000000  -0.000000  -0.000000  -0.000000   0.000000  -0.000000
    24  H    0.000000  -0.000000   0.000000   0.000000  -0.000000  -0.000000
    25  H   -0.000000   0.000000  -0.000000  -0.000000  -0.000000  -0.000000
    26  H   -0.000000  -0.000000   0.000000   0.000000   0.000000  -0.000000
              19         20         21         22         23         24
     1  C    0.000000  -0.000000  -0.000000   0.000000  -0.000000   0.000000
     2  C   -0.000000   0.000000   0.000000  -0.000000   0.000000   0.000000
     3  C    0.000000  -0.000000  -0.000000   0.000000  -0.000000  -0.000000
     4  C   -0.000000   0.000000   0.000000   0.000000   0.000000   0.000000
     5  C   -0.000000   0.000000   0.000000  -0.000000   0.000000  -0.000000
     6  C    0.000000  -0.000000  -0.000000  -0.000000  -0.000000   0.000000
     7  O    0.000000   0.000000   0.000000  -0.000000   0.000000   0.000000
     8  O    0.000000   0.000000   0.000000  -0.000000  -0.000000  -0.000000
     9  C    0.000000   0.000000   0.000000  -0.000000  -0.000000  -0.000000
    10  O   -0.000000  -0.000000  -0.000000  -0.000000   0.000000  -0.000000
    11  C   -0.000000  -0.000000  -0.000000   0.000000   0.000000  -0.000000
    12  C   -0.000000   0.000000   0.000000  -0.000000   0.000000  -0.000000
    13  C    0.000000  -0.000000  -0.000000   0.000000  -0.000000   0.000000
    14  C    0.000000  -0.000000  -0.000000  -0.000000  -0.000000  -0.000000
    15  C    0.000000  -0.000000  -0.000000  -0.000000  -0.000000   0.000000
    16  C    0.000000  -0.000000  -0.000000  -0.000000  -0.000000   0.000000
    17  H   -0.000000   0.000000   0.000000  -0.000000   0.000000  -0.000000
    18  H    0.000000  -0.000000  -0.000000   0.000000  -0.000000  -0.000000
    19  H   -0.000000   0.000000   0.000000  -0.000000   0.000000  -0.000000
    20  H    0.000000   0.000000  -0.000000   0.000000  -0.000000   0.000000
    21  H    0.000000  -0.000000   0.000000   0.000000  -0.000000   0.000000
    22  H   -0.000000   0.000000   0.000000  -0.000000   0.000000  -0.000000
    23  H    0.000000  -0.000000  -0.000000   0.000000  -0.000000   0.000000
    24  H   -0.000000   0.000000   0.000000  -0.000000   0.000000  -0.000000
    25  H    0.000000  -0.000000  -0.000000   0.000000  -0.000000   0.000000
    26  H    0.000000  -0.000000  -0.000000   0.000000   0.000000  -0.000000
              25         26
     1  C   -0.000000  -0.000000
     2  C    0.000000   0.000000
     3  C   -0.000000  -0.000000
     4  C    0.000000  -0.000000
     5  C    0.000000   0.000000
     6  C   -0.000000   0.000000
     7  O    0.000000   0.000000
     8  O   -0.000000   0.000000
     9  C    0.000000   0.000000
    10  O    0.000000   0.000000
    11  C   -0.000000  -0.000000
    12  C    0.000000   0.000000
    13  C   -0.000000  -0.000000
    14  C    0.000000  -0.000000
    15  C   -0.000000   0.000000
    16  C   -0.000000   0.000000
    17  H   -0.000000   0.000000
    18  H   -0.000000  -0.000000
    19  H    0.000000   0.000000
    20  H   -0.000000  -0.000000
    21  H   -0.000000  -0.000000
    22  H    0.000000   0.000000
    23  H   -0.000000   0.000000
    24  H    0.000000  -0.000000
    25  H    0.000000  -0.000000
    26  H   -0.000000   0.000000
 Mulliken charges and spin densities:
               1          2
     1  C   -1.219343  -0.000000
     2  C    0.288334   0.000000
     3  C    0.151846  -0.000000
     4  C   -0.478754   0.000000
     5  C   -0.403548  -0.000000
     6  C    0.770978  -0.000000
     7  O   -0.204465   0.000000
     8  O   -0.213196   0.000000
     9  C   -0.111207  -0.000000
    10  O   -0.094451  -0.000000
    11  C    0.523106   0.000000
    12  C   -0.005116  -0.000000
    13  C   -0.095261   0.000000
    14  C   -0.207738  -0.000000
    15  C   -0.325473  -0.000000
    16  C   -0.350268  -0.000000
    17  H    0.222589   0.000000
    18  H    0.229379   0.000000
    19  H    0.232811   0.000000
    20  H    0.237785   0.000000
    21  H    0.237765   0.000000
    22  H    0.142887  -0.000000
    23  H    0.158254   0.000000
    24  H    0.178390  -0.000000
    25  H    0.187005   0.000000
    26  H    0.147694   0.000000
 Sum of Mulliken charges =  -0.00000  -0.00000
 Mulliken charges and spin densities with hydrogens summed into heavy atoms:
               1          2
     1  C   -1.219343  -0.000000
     2  C    0.510923   0.000000
     3  C    0.381224  -0.000000
     4  C   -0.478754   0.000000
     5  C   -0.170737  -0.000000
     6  C    0.770978  -0.000000
     7  O   -0.204465   0.000000
     8  O   -0.213196   0.000000
     9  C    0.364343  -0.000000
    10  O   -0.094451  -0.000000
    11  C    0.523106   0.000000
    12  C    0.137771  -0.000000
    13  C    0.062993   0.000000
    14  C   -0.029349  -0.000000
    15  C   -0.138468  -0.000000
    16  C   -0.202575   0.000000
 Electronic spatial extent (au):  <R**2>=           8886.7419
[...]
 ,0.00081137,-0.00112331,0.00014920,0.00052144,0.00050059,-0.00003977,-
 0.00002811,-0.00021724,0.00000216,-0.00000655,-0.00006221,-0.00003606,
 -0.00000451,0.00003065,0.00005697,0.00000257,0.00001301,0.00000068,-0.
 00000840,-0.00003237,-0.00007509,-0.00000659,-0.00003750,0.00059738,-0
 .00033410,-0.00002058,0.12357969,-0.00572680,0.00481202,0.00336021,0.0
 0116695,-0.00086845,0.00017130,-0.00056687,0.00109299,0.00085491,0.000
 39860,0.00280116,0.00272610,-0.11853131,-0.19887961,-0.09088017,-0.013
 81250,-0.01030596,-0.00928894,0.00002480,-0.00258018,-0.00033333,0.001
 44526,0.00041861,-0.00064411,0.00261303,-0.00272742,-0.00176753,0.0006
 8195,0.00021922,-0.00152924,0.00060015,0.00053379,0.00079568,-0.000049
 38,-0.00004862,-0.00032676,-0.00002623,-0.00001842,-0.00009581,0.00000
 161,-0.00003659,0.00005024,0.00000617,0.00006192,0.00001982,-0.0000096
 1,-0.00000053,-0.00005484,-0.00000730,-0.00007230,-0.00007135,-0.00026
 408,0.00045248,0.00009026,0.13239676,0.20499240,-0.00029121,0.00105719
 ,-0.00409778,0.00033125,0.00019563,0.00071703,0.00080665,0.00176230,-0
 .00534298,-0.01763500,-0.02389282,-0.01030447,-0.06897135,-0.09158574,
 -0.11056758,0.00973603,0.01324118,0.01481532,0.00135563,0.00164937,0.0
 0053029,0.00152035,0.00166210,0.00411627,0.00058599,0.00025411,0.00017
 930,0.00066990,0.00103009,-0.00178735,-0.00043699,-0.00053297,-0.00126
 870,0.00002873,0.00002093,0.00022806,0.00017654,0.00024376,0.00009342,
 -0.00004377,-0.00005516,-0.00011712,-0.00003169,-0.00004416,0.00004300
 ,-0.00001910,-0.00003651,0.00011791,-0.00003057,-0.00006142,0.00014546
 ,-0.00084331,-0.00107454,-0.00057091,0.07363713,0.09689759,0.11297713,
 0.00075228,0.00100689,-0.00124781,-0.00022366,-0.00011653,0.00004238,-
 0.00009059,-0.00014607,-0.00004987,-0.00002314,0.00027875,0.00076632,-
 0.00011619,0.00004614,-0.00043622,0.00115663,-0.00179252,0.00298029,0.
 00022211,-0.00061900,0.00095064,0.00004000,-0.00006302,-0.00021942,-0.
 09025080,0.09131953,-0.03127164,0.00707093,-0.02659316,0.00298984,0.00
 126665,-0.00007164,0.00241465,0.00061278,0.00128791,-0.00041242,-0.000
 61194,-0.00015063,-0.00032408,-0.00021060,0.00003053,0.00028208,-0.000
 42267,-0.00033061,-0.00014618,0.00014112,0.00020967,-0.00019603,-0.000
 02886,0.00002651,-0.00002910,-0.00000826,-0.00003238,0.00000141,0.0000
 6262,-0.00013635,-0.00017375,0.09344594,-0.00137264,-0.00124586,0.0004
 0899,0.00013176,0.00018442,0.00001327,-0.00013458,-0.00013581,-0.00012
 938,0.00049580,-0.00021794,0.00108568,0.00074563,0.00078751,-0.0016385
 9,0.00132331,-0.00028064,0.00670176,-0.00037118,0.00034734,-0.00159082
 ,0.00001262,0.00026695,-0.00034867,0.08886730,-0.22865458,0.05792173,-
 0.00409444,-0.03368688,-0.00403114,0.00080766,0.00063491,0.00596040,-0
 .00034895,-0.00008809,-0.00028392,-0.00062094,-0.00046697,-0.00114471,
 -0.00013898,0.00016222,0.00052198,0.00001676,0.00024804,-0.00023936,0.
 00022543,0.00014557,-0.00034775,-0.00001413,0.00001249,0.00005558,-0.0
 0000491,0.00000063,-0.00000778,-0.00013856,0.00010992,-0.00031657,-0.0
 8967431,0.26321555,0.00121969,0.00131506,-0.00094512,0.00003678,0.0000
 8639,-0.00016426,-0.00051939,-0.00005044,-0.00021429,0.00314247,-0.000
 83607,0.00133296,-0.00019333,-0.00224273,-0.00352272,-0.01313798,0.029
 16930,-0.01237084,-0.00033739,-0.00119099,0.00089640,-0.00054715,0.000
 48019,-0.00088914,-0.03112315,0.06487285,-0.06850282,0.00216159,-0.017
 21438,0.00128781,0.00113005,-0.00069120,0.00420355,0.00052650,0.000562
 08,0.00018726,-0.00072177,-0.00045832,-0.00093387,-0.00025853,-0.00013
 996,0.00091785,-0.00074000,-0.00004058,-0.00072435,0.00050677,0.000703
 56,-0.00013070,0.00002493,-0.00007639,0.00000762,-0.00003791,-0.000054
 02,-0.00003208,-0.00106360,0.00081469,0.00011430,0.03248838,-0.0642764
 0,0.07623086,-0.00078097,-0.00187138,0.00068465,0.00013886,0.00026286,
 -0.00001115,-0.00004192,-0.00015026,-0.00012751,-0.00051350,0.00050950
 ,0.00094137,0.00013826,0.00095741,-0.00163957,0.00291111,0.00047512,0.
 00412528,0.00041503,-0.00017978,-0.00180006,0.00028032,0.00007984,-0.0
 0034403,-0.25784224,0.01980120,0.08150721,-0.02103403,-0.01356112,-0.0
 0376912,0.00079719,0.00029997,0.00510138,-0.00028596,-0.00061683,-0.00
 012968,-0.00033714,-0.00049590,-0.00104756,0.00018744,-0.00005815,0.00
 045352,0.00026718,0.00021941,-0.00024517,0.00002547,0.00024991,-0.0002
 6101,0.00000257,-0.00000608,0.00006227,0.00000738,-0.00000159,-0.00001
 106,0.00026312,-0.00013805,-0.00026029,-0.01284378,0.00346573,0.006350
 27,0.28795246,0.00028855,0.00037054,-0.00099417,0.00001024,-0.00017932
 ,0.00004356,-0.00014194,-0.00015165,-0.00007557,0.00031067,-0.00000558
 ,0.00099223,0.00029602,0.00033883,-0.00077537,-0.00351243,0.00065899,0
 .00612486,-0.00038452,-0.00006107,0.00033142,-0.00004182,0.00008496,-0
 .00026727,0.02167740,-0.04779479,-0.01039084,-0.03483816,-0.00722471,0
 .00379500,0.00001924,0.00115457,0.00413110,0.00088431,0.00081708,-0.00
 053270,-0.00006018,-0.00075512,-0.00067978,0.00019353,-0.00020710,0.00
 036322,-0.00010888,-0.00039295,-0.00019189,0.00010954,0.00025501,-0.00
 029050,0.00004170,-0.00001940,-0.00001365,-0.00002312,-0.00001606,0.00
 000148,-0.00017160,0.00003711,-0.00026477,0.02608211,-0.00189057,-0.00
 972675,-0.01028677,0.05480489,0.00084497,0.00182462,-0.00103651,0.0000
 4646,0.00004139,-0.00016273,0.00010323,-0.00049195,-0.00024678,-0.0016
 6778,0.00256978,0.00161141,-0.00233027,-0.00080197,-0.00333141,0.03051
 216,-0.00178598,-0.01506085,-0.00100161,-0.00076246,0.00109987,0.00053
 945,-0.00030573,-0.00094802,0.08808768,-0.00775165,-0.08181613,-0.0171
 3026,-0.00319387,0.00297441,-0.00077591,0.00063290,0.00415808,0.000435
 25,0.00076962,0.00017289,-0.00024282,-0.00078783,-0.00092010,0.0000241
 3,-0.00035085,0.00088848,0.00012267,-0.00070934,-0.00077369,0.00048701
 ,0.00071921,-0.00012522,-0.00007758,-0.00000331,0.00000828,-0.00004313
 ,-0.00005304,-0.00003106,0.00110047,-0.00072240,-0.00000910,-0.0084241
 9,0.00203960,0.00471554,-0.08916658,0.00840072,0.09010285,0.00008872,0
 .00002009,0.00008958,-0.00000454,-0.00000831,-0.00001990,-0.00001350,-
 0.00001599,-0.00000886,0.00006363,-0.00000539,0.00017525,-0.00003549,-
 0.00004580,-0.00030353,0.00001314,0.00062879,0.00016827,-0.00011936,-0
 .00000690,-0.00002405,0.00001353,0.00006852,-0.00010452,-0.00041548,-0
 .00019659,-0.00091583,-0.00172040,0.00161796,-0.00013506,-0.00342301,-
 0.00890852,-0.00574922,-0.12957391,-0.13583318,-0.04525599,0.00333488,
 -0.00328796,0.00202371,-0.00040794,0.00065298,0.00040894,-0.00038843,-
 0.00304273,-0.00034776,0.00518841,-0.00220385,-0.00103002,0.00000478,-
 0.00000766,-0.00000671,-0.00000130,-0.00000204,-0.00000472,0.00000260,
 -0.00000856,-0.00002191,-0.00011138,0.00056173,0.00083787,0.00029082,-
 0.00016511,-0.00129072,0.13012856,0.00002942,0.00009852,0.00013754,-0.
 00001073,-0.00000985,-0.00003231,-0.00001887,-0.00002712,-0.00001485,0
 .00001067,0.00004753,0.00028114,-0.00007019,-0.00004640,-0.00045172,0.
 00062790,0.00043262,0.00024020,-0.00001231,-0.00012563,-0.00005544,0.0
 0006384,0.00007603,-0.00016428,-0.00032256,-0.00058429,-0.00112327,0.0
 0169403,-0.00040198,-0.00051880,-0.01039119,-0.01083731,-0.00887551,-0
 .13577094,-0.21897507,-0.06012614,-0.00324488,0.00060966,0.00357670,0.
 00066337,-0.00000202,0.00060738,-0.00152500,-0.00039920,0.00005660,-0.
 00223636,0.00365897,-0.00042000,-0.00000850,-0.00000064,-0.00000989,-0
 .00000256,-0.00000259,-0.00000750,-0.00001150,-0.00000366,-0.00003139,
 -0.00043589,0.00050488,-0.00094807,0.00081951,-0.00001419,0.00050813,0
 .14834169,0.22756716,-0.00002073,-0.00001953,-0.00004503,0.00000907,0.
 00000882,0.00004972,0.00002454,0.00003265,0.00002404,-0.00001069,0.000
 01665,-0.00032091,-0.00001510,-0.00004154,0.00025000,0.00017333,0.0002
 4659,-0.00044588,0.00004029,0.00003624,0.00012941,-0.00004746,-0.00008
 277,0.00015566,0.00050282,0.00088246,-0.00226314,-0.00104874,-0.001812
 20,0.00092023,0.01156167,0.01570301,0.01143655,-0.04594365,-0.06109724
 ,-0.08017342,0.00153658,0.00288368,-0.00266672,0.00028627,0.00043501,-
 0.00122546,-0.01805046,-0.02509697,-0.00464619,-0.00065122,0.00011710,
 -0.00537943,0.00000327,0.00000427,0.00001506,0.00000159,0.00000146,0.0
 0000960,0.00001227,0.00001735,0.00001182,0.00007120,-0.00027248,-0.001
 44371,-0.00036630,0.00007471,-0.00127405,0.05171763,0.06811581,0.08575
 974,-0.00001595,-0.00010922,-0.00003268,-0.00001105,0.00001028,0.00001
 297,0.00000599,0.00000643,0.00002046,0.00002450,0.00001449,-0.00006025
 ,-0.00002494,-0.00006880,-0.00001632,-0.00001094,0.00007428,0.00002952
 ,0.00003727,0.00006253,-0.00000659,-0.00003068,0.00001870,0.00003415,-
 0.00049498,0.00034070,-0.00021920,-0.00131377,0.00259195,0.00065549,-0
 .00213043,-0.01107967,0.01372573,0.00172102,-0.00455590,-0.00203064,-0
 .08622688,-0.08060866,0.07347755,0.00505918,0.00418320,-0.00430262,-0.
 00085320,0.00042243,-0.00065202,0.00520586,-0.00300945,-0.00170169,0.0
 0000231,0.00000086,0.00000337,0.00001088,-0.00000100,0.00000401,0.0000
 4561,-0.00004626,-0.00009398,0.00011884,0.00021435,0.00009981,0.000013
 43,-0.00007888,0.00000056,-0.00023343,-0.00048523,0.00064459,0.0818735
 6,-0.00010659,-0.00008473,-0.00003970,0.00001055,-0.00000541,0.0000151
 4,0.00000763,0.00000868,0.00002741,0.00000860,0.00003644,-0.00007673,-
 0.00006717,-0.00006878,-0.00002144,0.00006961,0.00003084,0.00003509,0.
 00005879,0.00007765,-0.00000990,0.00002199,-0.00001803,0.00004014,0.00
 032490,-0.00022713,-0.00038015,0.00261714,0.00049061,0.00056369,-0.009
 51977,-0.01032669,0.01920732,-0.00460821,-0.00128607,-0.00246441,-0.08
 069678,-0.15858561,0.11730086,0.00269853,0.00660380,-0.00463414,0.0004
 0574,-0.00045051,-0.00099164,-0.00297336,0.00332325,-0.00140813,0.0000
 0099,0.00000253,0.00000433,-0.00000085,0.00000958,0.00000621,-0.000051
 31,0.00002080,-0.00011887,-0.00003991,0.00005897,0.00004221,0.00018167
 ,0.00016045,0.00010255,-0.00040296,-0.00057966,0.00089286,0.08935102,0
 .16168136,-0.00006650,-0.00008754,-0.00001566,0.00000965,0.00001039,0.
 00001964,0.00000687,0.00000802,0.00002042,0.00000934,0.00002197,-0.000
 08468,-0.00004077,-0.00005581,-0.00000018,0.00008551,0.00011400,0.0000
 2092,0.00004112,0.00005772,-0.00000091,-0.00000345,-0.00001314,0.00005
 216,-0.00003294,-0.00011595,0.00008758,0.00037308,0.00016291,0.0011064
 2,-0.00450371,-0.00668702,0.00822952,-0.00141455,-0.00159041,0.0001526
 7,0.07449025,0.11873918,-0.18481073,0.01304098,0.02000108,-0.01486817,
 -0.00045750,-0.00071317,-0.00036956,-0.00211809,-0.00199990,-0.0043576
 3,0.00000196,0.00000232,0.00000687,0.00000280,0.00000444,0.00000555,-0
 .00003579,-0.00003558,-0.00009557,-0.00000848,0.00002965,0.00000390,0.
 00004039,0.00001744,0.00000737,-0.00031749,-0.00047371,0.00033391,-0.0
 7986456,-0.12805195,0.19429272,0.00002327,0.00001315,0.00001610,-0.000
 00217,-0.00000625,-0.00001253,-0.00000483,-0.00000441,-0.00000516,-0.0
 0000008,-0.00001640,0.00006043,-0.00000799,0.00001284,-0.00004009,-0.0
 0005566,-0.00001616,0.00003671,-0.00001534,-0.00000696,-0.00002138,0.0
 0000890,0.00002384,-0.00003384,-0.00005598,0.00026419,0.00003560,-0.00
 003987,-0.00042297,-0.00031070,0.00600591,-0.00269566,-0.00060028,-0.0
 0041860,0.00074470,0.00026517,0.00063672,-0.00376741,-0.00023721,-0.13
 124491,-0.12962680,-0.04784372,0.00396677,-0.00385874,0.00210796,-0.00
 305752,-0.00874879,-0.00544303,0.00000192,-0.00000264,-0.00000386,-0.0
 0000095,-0.00000069,-0.00000228,0.00000091,-0.00000958,0.00001069,0.00
 001675,0.00000808,0.00001971,-0.00003242,-0.00005461,-0.00002603,-0.00
 056538,0.00035127,0.00000656,-0.00265710,0.00243656,0.00006825,0.12991
 775,0.00001229,0.00002799,0.00002593,-0.00000593,-0.00000405,-0.000015
 69,-0.00000448,-0.00000715,-0.00000687,-0.00000990,-0.00001276,0.00007
 733,0.00000973,0.00000363,-0.00005209,-0.00000377,-0.00005544,0.000043
 47,-0.00000767,-0.00001755,-0.00002859,0.00001836,0.00002382,-0.000043
 65,0.00025033,0.00010685,0.00005613,-0.00035110,-0.00019217,-0.0003520
 5,-0.00272022,0.00405588,0.00021463,0.00075180,0.00007625,0.00038694,-
 0.00224880,0.00007499,0.00040305,-0.12964861,-0.21581509,-0.06392203,-
 0.00382061,0.00080608,0.00375540,-0.01026766,-0.01043994,-0.00836331,-
 0.00000287,0.00000031,-0.00000420,-0.00000080,-0.00000122,-0.00000298,
 -0.00000782,-0.00000526,0.00001460,-0.00003834,-0.00004379,-0.00001999
 ,-0.00000457,0.00000083,0.00001216,0.00035145,-0.00030817,-0.00006711,
 0.00240190,-0.00093281,-0.00036708,0.14372019,0.22391119,0.00002726,0.
 00004147,-0.00002220,-0.00001621,-0.00002082,-0.00002160,-0.00000472,-
 0.00000622,-0.00000688,-0.00001619,-0.00003146,0.00010794,-0.00000411,
 -0.00000084,-0.00007235,-0.00010850,-0.00016276,0.00005667,-0.00001305
 ,-0.00001675,-0.00002983,0.00003140,0.00004888,-0.00005754,0.00019565,
 0.00028308,-0.00030900,-0.00114718,-0.00154023,-0.00076490,-0.00031217
 ,0.00062402,-0.00453329,0.00017824,0.00026397,-0.00108112,-0.01797958,
 -0.02480113,-0.00534200,-0.04756608,-0.06352643,-0.08431085,0.00166716
 ,0.00312937,-0.00232802,0.01227584,0.01680689,0.01080463,-0.00000114,-
 0.00000033,-0.00001092,-0.00000093,-0.00000108,-0.00000331,-0.00001036
 ,-0.00001526,0.00001389,-0.00000966,-0.00004522,0.00000029,-0.00003699
 ,-0.00002013,0.00000483,0.00000549,-0.00006869,0.00007904,0.00047457,0
 .00020980,0.00104179,0.05190866,0.06859837,0.08565089,0.00000238,-0.00
 000449,-0.00001575,0.00000974,-0.00000776,0.00000432,-0.00000268,0.000
 00640,0.00000206,0.00000724,-0.00000652,-0.00002448,0.00001116,-0.0000
 0855,0.00001681,-0.00003216,0.00001389,-0.00001594,-0.00001580,0.00001
 451,0.00001477,-0.00000615,-0.00000299,0.00001444,0.00001268,-0.000001
 69,0.00002866,0.00019972,0.00018556,-0.00025887,0.00492311,-0.00287593
 ,-0.00172962,0.00503491,0.00328845,-0.00448876,-0.00078250,0.00050667,
 -0.00055225,0.00295841,-0.00553720,-0.00210061,-0.08906594,-0.08156899
 ,0.07305681,-0.00283320,-0.01017154,0.01298499,0.00000109,0.,0.0000007
 2,0.00000125,-0.00000075,0.00000087,-0.00000648,0.00000253,-0.00000107
 ,0.00001780,-0.00000437,0.00003562,-0.00001035,0.00000328,-0.00005412,
 -0.00234270,0.00225761,0.00040763,-0.00048137,0.00034523,0.00008644,-0
 .00023997,-0.00053857,0.00063341,0.08501985,-0.00001347,-0.00001077,-0
 .00002071,-0.00000604,0.00000555,0.00000914,0.00000754,0.00000305,0.00
 000412,-0.00000842,0.00000501,-0.00004358,-0.00000834,0.00000167,0.000
 03206,0.00001862,-0.00001208,-0.00002932,0.00002108,0.00000147,0.00001
 772,-0.00000262,-0.00001071,0.00002511,-0.00003484,-0.00003840,0.00001
 140,0.00011741,0.00026915,-0.00020596,-0.00284073,0.00314653,-0.001527
 08,0.00178770,0.00593528,-0.00472719,0.00049901,-0.00032510,-0.0008470
 6,-0.00557599,-0.00073044,-0.00243735,-0.08155724,-0.16184312,0.116026
 90,-0.00864598,-0.01027073,0.01786912,0.00000022,0.00000118,0.00000208
 ,-0.00000043,0.00000096,0.00000182,0.00000390,-0.00000221,-0.00000536,
 0.00000927,-0.00000200,-0.00004459,-0.00000629,0.00001773,0.00002087,0
 .00228475,-0.00072327,0.00014833,0.00034612,-0.00024289,0.00005919,-0.
 00046048,-0.00062840,0.00087980,0.09170455,0.16613477,0.00008794,0.000
 12607,-0.00001206,-0.00001532,-0.00001864,-0.00002074,-0.00001136,-0.0
 0001493,-0.00002086,-0.00000207,-0.00001164,0.00011542,0.00001475,0.00
 002910,-0.00007873,-0.00007217,-0.00010918,0.00003770,-0.00006146,-0.0
 0009024,0.00000996,0.00000985,0.00001845,-0.00005821,0.00041529,0.0005
 6069,0.00035227,0.00053309,0.00091846,-0.00180297,-0.00213804,-0.00210
 764,-0.00380713,0.01303208,0.02016280,-0.01626074,-0.00045424,-0.00070
 640,-0.00038795,-0.00164579,-0.00179103,0.00059728,0.07290950,0.115817
 81,-0.17898570,-0.00482834,-0.00743594,0.01028399,-0.00000190,-0.00000
 163,-0.00001120,-0.00000290,-0.00000352,-0.00000505,-0.00001718,-0.000
 02811,0.00003682,-0.00000584,-0.00006337,-0.00001298,-0.00005842,-0.00
 002592,-0.00000473,0.00009114,-0.00030109,0.00106310,0.00007578,0.0000
 4402,0.00001246,-0.00028004,-0.00041804,0.00033646,-0.07804891,-0.1248
 1514,0.18792347,0.00001020,-0.00000974,0.00001245,-0.00000409,0.000002
 91,-0.00000488,-0.00000196,-0.00000306,-0.00000164,0.00000444,-0.00000
 197,0.00003124,-0.00000050,-0.00001088,-0.00004041,-0.00000014,0.00004
 362,0.00003459,-0.00000594,0.00000232,-0.00001564,0.00000190,0.0000139
 2,-0.00001694,-0.00021971,0.00011666,-0.00001035,-0.00036643,0.0004905
 0,0.00000370,-0.00067606,-0.00063369,0.00031420,0.00278796,-0.00559638
 ,-0.00074292,0.00338791,-0.00439485,0.00142914,0.00450356,0.00271584,0
 .01318002,0.00008795,-0.00112871,-0.01791007,-0.04857096,-0.01800942,-
 0.04389120,0.00000052,-0.00000107,-0.00000125,0.00000135,-0.00000088,-
 0.00000097,-0.00000036,-0.00000493,-0.00000490,0.00001741,0.00004184,0
 .00009974,0.00003165,-0.00004855,-0.00007304,0.00022719,-0.00031259,-0
 .00084497,0.00036628,-0.00007203,0.00060720,-0.00218013,0.00216569,-0.
 00017084,-0.00238002,0.00236072,0.00047455,0.04297800,-0.00001126,-0.0
 0000103,0.00001626,0.00000286,-0.00000134,-0.00000571,-0.00000251,-0.0
 0000313,-0.00000138,0.00000082,0.00000199,0.00003629,-0.00001496,-0.00
 000732,-0.00005103,0.00004779,0.00003138,0.00004217,0.00000290,-0.0000
 0077,-0.00002017,0.00001143,0.00001101,-0.00001997,0.00011042,-0.00014
 079,-0.00004296,0.00049791,-0.00000062,-0.00004562,-0.00063639,-0.0011
 8416,0.00036794,-0.00555883,-0.00107288,-0.00061055,-0.00443595,-0.000
 13129,0.00262151,0.00425194,0.00610658,0.02022234,-0.00267108,0.000290
 57,-0.02480049,-0.01800227,-0.05562193,-0.03741795,-0.00000104,-0.0000
 0002,-0.00000120,-0.00000083,0.00000093,-0.00000084,-0.00000516,-0.000
 00321,-0.00000855,-0.00005696,0.00003370,-0.00003544,0.00005464,0.0000
 1151,0.00007883,-0.00038641,0.00004568,-0.00112716,0.00000382,0.000303
 35,0.00096295,0.00212372,-0.00062402,-0.00062830,0.00240068,-0.0006822
 3,0.00026507,0.02227473,0.05263806,0.00002972,0.00004071,0.00003345,-0
 .00000398,-0.00000451,-0.00001985,-0.00000799,-0.00001035,-0.00001079,
 -0.00000172,-0.00001045,0.00009805,0.00000789,0.00001758,-0.00006545,-
 0.00001507,-0.00002841,0.00004984,-0.00002233,-0.00002956,-0.00003068,
 0.00001282,0.00002219,-0.00005474,0.00006238,0.00005991,0.00003148,-0.
 00008289,-0.00016864,-0.00011818,0.00033869,0.00040253,0.00067050,-0.0
 0117807,-0.00122849,0.00157738,0.00191013,0.00330626,-0.00051565,-0.00
 475920,-0.00526527,-0.01567640,0.00011429,0.00080407,-0.00554360,-0.04
 398551,-0.03755044,-0.32443344,-0.00000162,-0.00000173,-0.00000531,-0.
 00000157,-0.00000169,-0.00000417,-0.00000228,-0.00000471,0.00002153,-0
 .00003253,-0.00000248,-0.00001146,0.00000818,-0.00002643,-0.00000363,0
 .00001839,0.00009916,-0.00035395,-0.00027800,-0.00029458,-0.00079082,0
 .00032429,0.00007570,0.00079737,0.00000279,-0.00040433,0.00070012,0.04
 754319,0.04020395,0.34365842\\0.00003181,0.00001093,0.00003139,0.00000
 145,0.00001648,-0.00003757,-0.00001236,-0.00001134,0.00000039,-0.00001
 321,-0.00003766,0.00003705,0.00000223,0.00001161,-0.00001386,-0.000013
 25,-0.00001049,0.00002674,-0.00001316,-0.00000648,-0.00000380,0.000016
 26,0.00003021,-0.00001767,-0.00002923,-0.00004725,0.00001429,0.0000244
 6,0.00003960,-0.00002432,-0.00001149,-0.00002039,0.00002188,0.00000224
 ,0.00000718,-0.00003969,0.00000274,0.00000344,-0.00000121,0.00000383,0
 .00000557,-0.00000442,0.00000213,0.00000250,0.00000800,-0.00000262,-0.
 00000375,-0.00000306,-0.00000400,-0.00000705,0.00001646,0.00000871,0.0
 0001093,-0.00000091,0.00000432,0.00000405,-0.00000117,0.00000346,0.000
 00516,-0.00000081,0.00000216,0.00000654,-0.00000120,-0.00000571,-0.000
 00735,-0.00000621,-0.00000064,-0.00000158,-0.00000030,-0.00000006,-0.0
 0000087,0.00000106,-0.00000033,-0.00000006,-0.00000204,0.00000027,0.00
 000007,0.00000099\\\@


 EDUCATION IS NOT TRAINING BUT RATHER THE PROCESS THAT EQUIPS YOU TO
 ENTERTAIN YOURSELF, A FRIEND, OR AN IDEA.  -- WALLACE STERLING
 Job cpu time:       0 days  3 hours  3 minutes  2.3 seconds.
 Elapsed time:       0 days  0 hours 23 minutes  5.2 seconds.
 File lengths (MBytes):  RWF=    853 Int=      0 D2E=      0 Chk=     21 Scr=      1
 Normal termination of Gaussian 16 at Wed Jan 10 05:15:49 2024.
