 Entering Gaussian System, Link 0=g16
 Input=261.com
 Output=261.log
 Initial command:
 /sysapps/ubuntu-applications/gaussian/Gaussian/AVX2/g16/l1.exe "/scratch/selhajj1/4300064/Gau-1616303.inp" -scrdir="/scratch/selhajj1/4300064/"
 Entering Link 1 = /sysapps/ubuntu-applications/gaussian/Gaussian/AVX2/g16/l1.exe PID=   1616308.
  
 Copyright (c) 1988,1990,1992,1993,1995,1998,2003,2009,2016,
            Gaussian, Inc.  All Rights Reserved.
  
 This is part of the Gaussian(R) 16 program.  It is based on
 the Gaussian(R) 09 system (copyright 2009, Gaussian, Inc.),
 the Gaussian(R) 03 system (copyright 2003, Gaussian, Inc.),
 the Gaussian(R) 98 system (copyright 1998, Gaussian, Inc.),
 the Gaussian(R) 94 system (copyright 1995, Gaussian, Inc.),
 the Gaussian 92(TM) system (copyright 1992, Gaussian, Inc.),
 the Gaussian 90(TM) system (copyright 1990, Gaussian, Inc.),
 the Gaussian 88(TM) system (copyright 1988, Gaussian, Inc.),
 the Gaussian 86(TM) system (copyright 1986, Carnegie Mellon
 University), and the Gaussian 82(TM) system (copyright 1983,
 Carnegie Mellon University). Gaussian is a federally registered
 trademark of Gaussian, Inc.
  
 This software contains proprietary and confidential information,
 including trade secrets, belonging to Gaussian, Inc.
  
 This software is provided under written license and may be
 used, copied, transmitted, or stored only in accord with that
 written license.
  
 The following legend is applicable only to US Government
 contracts under FAR:
  
                    RESTRICTED RIGHTS LEGEND
  
 Use, reproduction and disclosure by the US Government is
 subject to restrictions as set forth in subparagraphs (a)
 and (c) of the Commercial Computer Software - Restricted
 Rights clause in FAR 52.227-19.
  
 Gaussian, Inc.
 340 Quinnipiac St., Bldg. 40, Wallingford CT 06492
  
  
 ---------------------------------------------------------------
 Warning -- This program may not be used in any manner that
 competes with the business of Gaussian, Inc. or will provide
 assistance to any competitor of Gaussian, Inc.  The licensee
 of this program is prohibited from giving any competitor of
 Gaussian, Inc. access to this program.  By using this program,
 the user acknowledges that Gaussian, Inc. is engaged in the
 business of creating and licensing software in the field of
 computational chemistry and represents and warrants to the
 licensee that it is not a competitor of Gaussian, Inc. and that
 it will not use this program in any manner prohibited above.
 ---------------------------------------------------------------
  

 Cite this work as:
 Gaussian 16, Revision A.03,
 M. J. Frisch, G. W. Trucks, H. B. Schlegel, G. E. Scuseria, 
 M. A. Robb, J. R. Cheeseman, G. Scalmani, V. Barone, 
 G. A. Petersson, H. Nakatsuji, X. Li, M. Caricato, A. V. Marenich, 
 J. Bloino, B. G. Janesko, R. Gomperts, B. Mennucci, H. P. Hratchian, 
 J. V. Ortiz, A. F. Izmaylov, J. L. Sonnenberg, D. Williams-Young, 
 F. Ding, F. Lipparini, F. Egidi, J. Goings, B. Peng, A. Petrone, 
 T. Henderson, D. Ranasinghe, V. G. Zakrzewski, J. Gao, N. Rega, 
 G. Zheng, W. Liang, M. Hada, M. Ehara, K. Toyota, R. Fukuda, 
 J. Hasegawa, M. Ishida, T. Nakajima, Y. Honda, O. Kitao, H. Nakai, 
 T. Vreven, K. Throssell, J. A. Montgomery, Jr., J. E. Peralta, 
 F. Ogliaro, M. J. Bearpark, J. J. Heyd, E. N. Brothers, K. N. Kudin, 
 V. N. Staroverov, T. A. Keith, R. Kobayashi, J. Normand, 
 K. Raghavachari, A. P. Rendell, J. C. Burant, S. S. Iyengar, 
 J. Tomasi, M. Cossi, J. M. Millam, M. Klene, C. Adamo, R. Cammi, 
 J. W. Ochterski, R. L. Martin, K. Morokuma, O. Farkas, 
 J. B. Foresman, and D. J. Fox, Gaussian, Inc., Wallingford CT, 2016.
 
 ******************************************
 Gaussian 16:  ES64L-G16RevA.03 25-Dec-2016
                19-Jan-2024 
 ******************************************
 %chk=261.chk
 %nproc=8
 Will use up to    8 processors via shared memory.
 %mem=30GB
 --------------------------------------
 #P UB3LYP/6-311++G(d,p) nosym opt freq
 --------------------------------------
 1/18=20,19=15,26=3,38=1/1,3;
 2/9=110,12=2,15=1,17=6,18=5,40=1/2;
 3/5=4,6=6,7=1111,11=2,25=1,30=1,71=1,74=-5,116=2/1,2,3;
 4//1;
 5/5=2,38=5/2;
 6/7=2,8=2,9=2,10=2,28=1/1;
 7/30=1/1,2,3,16;
 1/18=20,19=15,26=3/3(2);
 2/9=110,15=1/2;
 99//99;
 2/9=110,15=1/2;
 3/5=4,6=6,7=1111,11=2,25=1,30=1,71=1,74=-5,116=2/1,2,3;
 4/5=5,16=3,69=1/1;
 5/5=2,38=5/2;
 7/30=1/1,2,3,16;
 1/18=20,19=15,26=3/3(-5);
 2/9=110,15=1/2;
 6/7=2,8=2,9=2,10=2,19=2,28=1/1;
 99/9=1/99;
 Leave Link    1 at Fri Jan 19 03:47:09 2024, MaxMem=  4026531840 cpu:               0.7 elap:               0.2
 (Enter /sysapps/ubuntu-applications/gaussian/Gaussian/AVX2/g16/l101.exe)
 --------
 Oxidized
 --------
 Symbolic Z-matrix:
 Charge =  0 Multiplicity = 1
 C                     2.90662   2.52005  -0.36593 
 O                     2.54393   1.15198  -0.23593 
 C                     1.23868   0.81262  -0.15982 
 C                     0.21697   1.76768  -0.18971 
 C                    -1.11365   1.3944   -0.11592 
 C                    -1.48271   0.04916  -0.00715 
 O                    -2.77406  -0.3399    0.05894 
 C                    -3.80402   0.63758   0.01164 
 C                    -0.47134  -0.94208   0.02719 
 C                    -0.83762  -2.39128   0.13501 
 O                    -1.98045  -2.79721   0.27512 
 C                     0.26304  -3.38222   0.07278 
 C                     1.54599  -3.02224   0.00284 
 C                     1.97126  -1.60313  -0.01613 
 O                     3.16794  -1.35203  -0.00298 
 C                     0.89748  -0.55805  -0.04818 
 H                     3.99405   2.52581  -0.41457 
 H                     2.58142   3.10697   0.50025 
 H                     2.49979   2.95947  -1.28298 
 H                     0.45521   2.81883  -0.27392 
 H                    -1.86926   2.16677  -0.14301 
 H                    -4.73443   0.07736   0.07604 
 H                    -3.741     1.33218   0.85626 
 H                    -3.78442   1.19849  -0.92967 
 H                    -0.05491  -4.4193    0.11055 
 H                     2.35649  -3.7427   -0.01885 
 
 ITRead=  0  0  0  0  0  0  0  0  0  0  0  0  0  0  0  0  0  0  0  0
 ITRead=  0  0  0  0  0  0
 MicOpt= -1 -1 -1 -1 -1 -1 -1 -1 -1 -1 -1 -1 -1 -1 -1 -1 -1 -1 -1 -1
 MicOpt= -1 -1 -1 -1 -1 -1
 NAtoms=     26 NQM=       26 NQMF=       0 NMMI=      0 NMMIF=      0
                NMic=       0 NMicF=      0.
                    Isotopes and Nuclear Properties:
 (Nuclear quadrupole moments (NQMom) in fm**2, nuclear magnetic moments (NMagM)
  in nuclear magnetons)

  Atom         1           2           3           4           5           6           7           8           9          10
 IAtWgt=          12          16          12          12          12          12          16          12          12          12
 AtmWgt=  12.0000000  15.9949146  12.0000000  12.0000000  12.0000000  12.0000000  15.9949146  12.0000000  12.0000000  12.0000000
 NucSpn=           0           0           0           0           0           0           0           0           0           0
 AtZEff=  -0.0000000  -0.0000000  -0.0000000  -0.0000000  -0.0000000  -0.0000000  -0.0000000  -0.0000000  -0.0000000  -0.0000000
 NQMom=    0.0000000   0.0000000   0.0000000   0.0000000   0.0000000   0.0000000   0.0000000   0.0000000   0.0000000   0.0000000
 NMagM=    0.0000000   0.0000000   0.0000000   0.0000000   0.0000000   0.0000000   0.0000000   0.0000000   0.0000000   0.0000000
 AtZNuc=   6.0000000   8.0000000   6.0000000   6.0000000   6.0000000   6.0000000   8.0000000   6.0000000   6.0000000   6.0000000

  Atom        11          12          13          14          15          16          17          18          19          20
 IAtWgt=          16          12          12          12          16          12           1           1           1           1
 AtmWgt=  15.9949146  12.0000000  12.0000000  12.0000000  15.9949146  12.0000000   1.0078250   1.0078250   1.0078250   1.0078250
 NucSpn=           0           0           0           0           0           0           1           1           1           1
 AtZEff=  -0.0000000  -0.0000000  -0.0000000  -0.0000000  -0.0000000  -0.0000000  -0.0000000  -0.0000000  -0.0000000  -0.0000000
 NQMom=    0.0000000   0.0000000   0.0000000   0.0000000   0.0000000   0.0000000   0.0000000   0.0000000   0.0000000   0.0000000
 NMagM=    0.0000000   0.0000000   0.0000000   0.0000000   0.0000000   0.0000000   2.7928460   2.7928460   2.7928460   2.7928460
 AtZNuc=   8.0000000   6.0000000   6.0000000   6.0000000   8.0000000   6.0000000   1.0000000   1.0000000   1.0000000   1.0000000

  Atom        21          22          23          24          25          26
 IAtWgt=           1           1           1           1           1           1
 AtmWgt=   1.0078250   1.0078250   1.0078250   1.0078250   1.0078250   1.0078250
 NucSpn=           1           1           1           1           1           1
 AtZEff=  -0.0000000  -0.0000000  -0.0000000  -0.0000000  -0.0000000  -0.0000000
 NQMom=    0.0000000   0.0000000   0.0000000   0.0000000   0.0000000   0.0000000
 NMagM=    2.7928460   2.7928460   2.7928460   2.7928460   2.7928460   2.7928460
 AtZNuc=   1.0000000   1.0000000   1.0000000   1.0000000   1.0000000   1.0000000
 Leave Link  101 at Fri Jan 19 03:47:10 2024, MaxMem=  4026531840 cpu:               4.1 elap:               0.6
 (Enter /sysapps/ubuntu-applications/gaussian/Gaussian/AVX2/g16/l103.exe)

 GradGradGradGradGradGradGradGradGradGradGradGradGradGradGradGradGradGrad
 Berny optimization.
 Initialization pass.
                           ----------------------------
                           !    Initial Parameters    !
                           ! (Angstroms and Degrees)  !
 --------------------------                            --------------------------
 ! Name  Definition              Value          Derivative Info.                !
 --------------------------------------------------------------------------------
 ! R1    R(1,2)                  1.4213         estimate D2E/DX2                !
 ! R2    R(1,17)                 1.0885         estimate D2E/DX2                !
 ! R3    R(1,18)                 1.0957         estimate D2E/DX2                !
 ! R4    R(1,19)                 1.0953         estimate D2E/DX2                !
 ! R5    R(2,3)                  1.3508         estimate D2E/DX2                !
 ! R6    R(3,4)                  1.3989         estimate D2E/DX2                !
 ! R7    R(3,16)                 1.4169         estimate D2E/DX2                !
 ! R8    R(4,5)                  1.384          estimate D2E/DX2                !
 ! R9    R(4,20)                 1.0811         estimate D2E/DX2                !
 ! R10   R(5,6)                  1.3992         estimate D2E/DX2                !
 ! R11   R(5,21)                 1.0808         estimate D2E/DX2                !
 ! R12   R(6,7)                  1.3503         estimate D2E/DX2                !
 ! R13   R(6,9)                  1.4165         estimate D2E/DX2                !
 ! R14   R(7,8)                  1.4207         estimate D2E/DX2                !
 ! R15   R(8,22)                 1.088          estimate D2E/DX2                !
 ! R16   R(8,23)                 1.0954         estimate D2E/DX2                !
 ! R17   R(8,24)                 1.0959         estimate D2E/DX2                !
 ! R18   R(9,10)                 1.4987         estimate D2E/DX2                !
 ! R19   R(9,16)                 1.4237         estimate D2E/DX2                !
 ! R20   R(10,11)                1.2208         estimate D2E/DX2                !
 ! R21   R(10,12)                1.4823         estimate D2E/DX2                !
 ! R22   R(12,13)                1.3343         estimate D2E/DX2                !
 ! R23   R(12,25)                1.0854         estimate D2E/DX2                !
 ! R24   R(13,14)                1.4816         estimate D2E/DX2                !
 ! R25   R(13,26)                1.0846         estimate D2E/DX2                !
 ! R26   R(14,15)                1.2228         estimate D2E/DX2                !
 ! R27   R(14,16)                1.4987         estimate D2E/DX2                !
 ! A1    A(2,1,17)             105.3143         estimate D2E/DX2                !
 ! A2    A(2,1,18)             111.5656         estimate D2E/DX2                !
 ! A3    A(2,1,19)             111.591          estimate D2E/DX2                !
 ! A4    A(17,1,18)            109.2077         estimate D2E/DX2                !
 ! A5    A(17,1,19)            109.3621         estimate D2E/DX2                !
 ! A6    A(18,1,19)            109.679          estimate D2E/DX2                !
 ! A7    A(1,2,3)              119.5751         estimate D2E/DX2                !
 ! A8    A(2,3,4)              122.2094         estimate D2E/DX2                !
 ! A9    A(2,3,16)             118.6962         estimate D2E/DX2                !
 ! A10   A(4,3,16)             119.0944         estimate D2E/DX2                !
 ! A11   A(3,4,5)              121.1272         estimate D2E/DX2                !
 ! A12   A(3,4,20)             120.2994         estimate D2E/DX2                !
 ! A13   A(5,4,20)             118.5733         estimate D2E/DX2                !
 ! A14   A(4,5,6)              121.1358         estimate D2E/DX2                !
 ! A15   A(4,5,21)             118.5596         estimate D2E/DX2                !
 ! A16   A(6,5,21)             120.3046         estimate D2E/DX2                !
 ! A17   A(5,6,7)              122.2139         estimate D2E/DX2                !
 ! A18   A(5,6,9)              119.1003         estimate D2E/DX2                !
 ! A19   A(7,6,9)              118.6847         estimate D2E/DX2                !
 ! A20   A(6,7,8)              119.5659         estimate D2E/DX2                !
 ! A21   A(7,8,22)             105.2908         estimate D2E/DX2                !
 ! A22   A(7,8,23)             111.6476         estimate D2E/DX2                !
 ! A23   A(7,8,24)             111.5776         estimate D2E/DX2                !
 ! A24   A(22,8,23)            109.2742         estimate D2E/DX2                !
 ! A25   A(22,8,24)            109.2497         estimate D2E/DX2                !
 ! A26   A(23,8,24)            109.6767         estimate D2E/DX2                !
 ! A27   A(6,9,10)             120.2591         estimate D2E/DX2                !
 ! A28   A(6,9,16)             119.764          estimate D2E/DX2                !
 ! A29   A(10,9,16)            119.9761         estimate D2E/DX2                !
 ! A30   A(9,10,11)            123.9572         estimate D2E/DX2                !
 ! A31   A(9,10,12)            117.5128         estimate D2E/DX2                !
 ! A32   A(11,10,12)           118.5294         estimate D2E/DX2                !
 ! A33   A(10,12,13)           122.3967         estimate D2E/DX2                !
 ! A34   A(10,12,25)           114.8206         estimate D2E/DX2                !
 ! A35   A(13,12,25)           122.7696         estimate D2E/DX2                !
 ! A36   A(12,13,14)           122.3486         estimate D2E/DX2                !
 ! A37   A(12,13,26)           122.7057         estimate D2E/DX2                !
 ! A38   A(14,13,26)           114.9281         estimate D2E/DX2                !
 ! A39   A(13,14,15)           118.5193         estimate D2E/DX2                !
 ! A40   A(13,14,16)           117.5498         estimate D2E/DX2                !
 ! A41   A(15,14,16)           123.9308         estimate D2E/DX2                !
 ! A42   A(3,16,9)             119.778          estimate D2E/DX2                !
 ! A43   A(3,16,14)            120.2455         estimate D2E/DX2                !
 ! A44   A(9,16,14)            119.9758         estimate D2E/DX2                !
 ! D1    D(17,1,2,3)          -179.5163         estimate D2E/DX2                !
 ! D2    D(18,1,2,3)            62.1236         estimate D2E/DX2                !
 ! D3    D(19,1,2,3)           -60.9581         estimate D2E/DX2                !
 ! D4    D(1,2,3,4)             -0.7161         estimate D2E/DX2                !
 ! D5    D(1,2,3,16)           179.1828         estimate D2E/DX2                !
 ! D6    D(2,3,4,5)            179.7202         estimate D2E/DX2                !
 ! D7    D(2,3,4,20)            -0.1329         estimate D2E/DX2                !
 ! D8    D(16,3,4,5)            -0.1783         estimate D2E/DX2                !
 ! D9    D(16,3,4,20)          179.9686         estimate D2E/DX2                !
 ! D10   D(2,3,16,9)          -179.7016         estimate D2E/DX2                !
 ! D11   D(2,3,16,14)           -0.0053         estimate D2E/DX2                !
 ! D12   D(4,3,16,9)             0.2005         estimate D2E/DX2                !
 ! D13   D(4,3,16,14)          179.8968         estimate D2E/DX2                !
 ! D14   D(3,4,5,6)              0.0843         estimate D2E/DX2                !
 ! D15   D(3,4,5,21)          -179.9768         estimate D2E/DX2                !
 ! D16   D(20,4,5,6)           179.9399         estimate D2E/DX2                !
 ! D17   D(20,4,5,21)           -0.1213         estimate D2E/DX2                !
 ! D18   D(4,5,6,7)           -179.6289         estimate D2E/DX2                !
 ! D19   D(4,5,6,9)             -0.0116         estimate D2E/DX2                !
 ! D20   D(21,5,6,7)             0.4333         estimate D2E/DX2                !
 ! D21   D(21,5,6,9)          -179.9494         estimate D2E/DX2                !
 ! D22   D(5,6,7,8)              0.2873         estimate D2E/DX2                !
 ! D23   D(9,6,7,8)           -179.3315         estimate D2E/DX2                !
 ! D24   D(5,6,9,10)          -179.6363         estimate D2E/DX2                !
 ! D25   D(5,6,9,16)             0.0361         estimate D2E/DX2                !
 ! D26   D(7,6,9,10)            -0.0054         estimate D2E/DX2                !
 ! D27   D(7,6,9,16)           179.6671         estimate D2E/DX2                !
 ! D28   D(6,7,8,22)           179.7303         estimate D2E/DX2                !
 ! D29   D(6,7,8,23)           -61.801          estimate D2E/DX2                !
 ! D30   D(6,7,8,24)            61.3278         estimate D2E/DX2                !
 ! D31   D(6,9,10,11)           -4.3728         estimate D2E/DX2                !
 ! D32   D(6,9,10,12)          175.9211         estimate D2E/DX2                !
 ! D33   D(16,9,10,11)         175.9555         estimate D2E/DX2                !
 ! D34   D(16,9,10,12)          -3.7507         estimate D2E/DX2                !
 ! D35   D(6,9,16,3)            -0.1314         estimate D2E/DX2                !
 ! D36   D(6,9,16,14)         -179.8285         estimate D2E/DX2                !
 ! D37   D(10,9,16,3)          179.542          estimate D2E/DX2                !
 ! D38   D(10,9,16,14)          -0.1551         estimate D2E/DX2                !
 ! D39   D(9,10,12,13)           3.8837         estimate D2E/DX2                !
 ! D40   D(9,10,12,25)        -177.3978         estimate D2E/DX2                !
 ! D41   D(11,10,12,13)       -175.8389         estimate D2E/DX2                !
 ! D42   D(11,10,12,25)          2.8796         estimate D2E/DX2                !
 ! D43   D(10,12,13,14)          0.0906         estimate D2E/DX2                !
 ! D44   D(10,12,13,26)        178.4875         estimate D2E/DX2                !
 ! D45   D(25,12,13,14)       -178.5261         estimate D2E/DX2                !
 ! D46   D(25,12,13,26)         -0.1292         estimate D2E/DX2                !
 ! D47   D(12,13,14,15)        175.8076         estimate D2E/DX2                !
 ! D48   D(12,13,14,16)         -4.0912         estimate D2E/DX2                !
 ! D49   D(26,13,14,15)         -2.7049         estimate D2E/DX2                !
 ! D50   D(26,13,14,16)        177.3964         estimate D2E/DX2                !
 ! D51   D(13,14,16,3)        -175.6711         estimate D2E/DX2                !
 ! D52   D(13,14,16,9)           4.0246         estimate D2E/DX2                !
 ! D53   D(15,14,16,3)           4.4361         estimate D2E/DX2                !
 ! D54   D(15,14,16,9)        -175.8682         estimate D2E/DX2                !
 --------------------------------------------------------------------------------
 Trust Radius=3.00D-01 FncErr=1.00D-07 GrdErr=1.00D-06 EigMax=2.50D+02 EigMin=1.00D-04
 Number of steps in this run=    135 maximum allowed number of steps=    156.
 GradGradGradGradGradGradGradGradGradGradGradGradGradGradGradGradGradGrad

 Leave Link  103 at Fri Jan 19 03:47:10 2024, MaxMem=  4026531840 cpu:               0.3 elap:               0.1
 (Enter /sysapps/ubuntu-applications/gaussian/Gaussian/AVX2/g16/l202.exe)
                          Input orientation:                          
 ---------------------------------------------------------------------
 Center     Atomic      Atomic             Coordinates (Angstroms)
 Number     Number       Type             X           Y           Z
 ---------------------------------------------------------------------
      1          6           0        2.906624    2.520046   -0.365931
      2          8           0        2.543933    1.151983   -0.235931
      3          6           0        1.238683    0.812616   -0.159822
      4          6           0        0.216967    1.767680   -0.189707
      5          6           0       -1.113651    1.394404   -0.115923
      6          6           0       -1.482713    0.049162   -0.007148
      7          8           0       -2.774063   -0.339904    0.058943
      8          6           0       -3.804023    0.637577    0.011639
      9          6           0       -0.471342   -0.942075    0.027193
     10          6           0       -0.837622   -2.391275    0.135014
     11          8           0       -1.980452   -2.797211    0.275118
     12          6           0        0.263042   -3.382220    0.072780
     13          6           0        1.545986   -3.022239    0.002839
     14          6           0        1.971264   -1.603127   -0.016133
     15          8           0        3.167937   -1.352033   -0.002978
     16          6           0        0.897483   -0.558053   -0.048178
     17          1           0        3.994053    2.525812   -0.414571
     18          1           0        2.581421    3.106969    0.500246
     19          1           0        2.499790    2.959468   -1.282977
     20          1           0        0.455214    2.818828   -0.273922
     21          1           0       -1.869255    2.166768   -0.143013
     22          1           0       -4.734434    0.077355    0.076040
     23          1           0       -3.741000    1.332177    0.856262
     24          1           0       -3.784421    1.198491   -0.929671
     25          1           0       -0.054909   -4.419297    0.110553
     26          1           0        2.356492   -3.742704   -0.018846
 ---------------------------------------------------------------------
                    Distance matrix (angstroms):
                    1          2          3          4          5
     1  C    0.000000
     2  O    1.421282   0.000000
     3  C    2.395793   1.350792   0.000000
     4  C    2.798457   2.407486   1.398908   0.000000
     5  C    4.182366   3.667573   2.423609   1.383952   0.000000
     6  C    5.049779   4.181200   2.830577   2.423952   1.399184
     7  O    6.374169   5.531163   4.180705   3.667424   2.407358
     8  C    6.979902   6.373574   5.048655   4.181630   2.797706
     9  C    4.852987   3.680516   2.457255   2.804209   2.427381
    10  C    6.196079   4.911944   3.829215   4.302849   3.804015
    11  O    7.250357   6.027219   4.856218   5.087528   4.298127
    12  C    6.482109   5.084955   4.313076   5.156791   4.974639
    13  C    5.718763   4.298493   3.850585   4.974604   5.156986
    14  C    4.242383   2.822568   2.528465   3.803949   4.302540
    15  O    3.897822   2.591089   2.903847   4.298337   5.087993
    16  C    3.689486   2.381233   1.416903   2.427379   2.803808
    17  H    1.088532   2.005534   3.254536   3.858977   5.240030
    18  H    1.095672   2.089338   2.739104   2.803636   4.118993
    19  H    1.095253   2.089319   2.731454   2.797656   4.107115
    20  H    2.471264   2.672557   2.156787   1.081095   2.124920
    21  H    4.794113   4.529310   3.390175   2.124564   1.080841
    22  H    8.034167   7.363883   6.022820   5.238720   3.857660
    23  H    6.862630   6.381672   5.108778   4.116943   2.802138
    24  H    6.843566   6.366436   5.096385   4.108848   2.798853
    25  H    7.559907   6.157369   5.396239   6.200222   5.913658
    26  H    6.296440   4.903083   4.692580   5.913636   6.200096
                    6          7          8          9         10
     6  C    0.000000
     7  O    1.350306   0.000000
     8  C    2.394800   1.420748   0.000000
     9  C    1.416546   2.380366   3.688130   0.000000
    10  C    2.528257   2.822005   4.241309   1.498655   0.000000
    11  O    2.903318   2.591314   3.897769   2.404248   1.220850
    12  C    3.850770   4.298824   5.718699   2.548667   1.482331
    13  C    4.313539   5.085361   6.482047   2.897807   2.469245
    14  C    3.828851   4.911160   6.194793   2.530848   2.921278
    15  O    4.857150   6.027902   7.250310   3.662421   4.140479
    16  C    2.456772   3.679581   4.851522   1.423670   2.530781
    17  H    6.024513   7.365048   8.034742   5.671080   6.915553
    18  H    5.111244   6.384112   6.863711   5.092926   6.484901
    19  H    5.094895   6.363971   6.841437   5.076043   6.463704
    20  H    3.390838   4.529527   4.793798   3.885044   5.383663
    21  H    2.156880   2.672614   2.470965   3.412922   4.681594
    22  H    3.252907   2.004358   1.087962   4.383558   4.613324
    23  H    2.737054   2.089627   1.095367   4.068199   4.776390
    24  H    2.733105   2.089220   1.095935   4.058830   4.764829
    25  H    4.692505   4.902847   6.295841   3.503061   2.173962
    26  H    5.396099   6.156922   7.559083   3.980237   3.471656
                   11         12         13         14         15
    11  O    0.000000
    12  C    2.327325   0.000000
    13  C    3.544085   1.334325   0.000000
    14  C    4.138445   2.468015   1.481587   0.000000
    15  O    5.354604   3.544829   2.328164   1.222803   0.000000
    16  C    3.660718   2.897079   2.548602   1.498737   2.405703
    17  H    8.031498   7.004484   6.078498   4.615037   3.986171
    18  H    7.464631   6.904142   6.235923   4.777441   4.525476
    19  H    7.459194   6.859893   6.192244   4.764610   4.546852
    20  H    6.146040   6.213705   5.948482   4.681725   4.982806
    21  H    4.982799   5.948489   6.213770   5.383103   6.146127
    22  H    3.985872   6.078111   7.004036   6.913675   8.030994
    23  H    4.526489   6.234720   6.902282   6.481284   7.461681
    24  H    4.546587   6.194334   6.862753   6.466183   7.463191
    25  H    2.523086   1.085379   2.127496   3.471634   4.450588
    26  H    4.448534   2.126235   1.084647   2.173982   2.524679
                   16         17         18         19         20
    16  C    0.000000
    17  H    4.385569   0.000000
    18  H    4.070479   1.780495   0.000000
    19  H    4.057717   1.781855   1.791174   0.000000
    20  H    3.413193   3.553734   2.281034   2.284352   0.000000
    21  H    3.884390   5.880564   4.594157   4.584370   2.417742
    22  H    5.669009   9.078663   7.929707   7.904904   5.879676
    23  H    5.089843   7.929113   6.576446   6.794989   4.593001
    24  H    5.077667   7.907703   6.797860   6.535838   4.585848
    25  H    3.980132   8.056326   7.984158   7.931872   7.266258
    26  H    3.503080   6.490955   6.872996   6.821852   6.836200
                   21         22         23         24         25
    21  H    0.000000
    22  H    3.552869   0.000000
    23  H    2.280027   1.780516   0.000000
    24  H    2.285662   1.780709   1.791456   0.000000
    25  H    6.836110   6.489917   6.871885   6.822820   0.000000
    26  H    7.265963   8.055004   7.981205   7.934471   2.507863
                   26
    26  H    0.000000
 Symmetry turned off by external request.
 Stoichiometry    C12H10O4
 Framework group  C1[X(C12H10O4)]
 Deg. of freedom    72
 Full point group                 C1      NOp   1
 Rotational constants (GHZ):           0.7213791           0.5081616           0.2994336
 Leave Link  202 at Fri Jan 19 03:47:10 2024, MaxMem=  4026531840 cpu:               0.4 elap:               0.1
 (Enter /sysapps/ubuntu-applications/gaussian/Gaussian/AVX2/g16/l301.exe)
 Standard basis: 6-311++G(d,p) (5D, 7F)
 Ernie: Thresh=  0.10000D-02 Tol=  0.10000D-05 Strict=F.
   422 basis functions,   666 primitive gaussians,   438 cartesian basis functions
    57 alpha electrons       57 beta electrons
       nuclear repulsion energy      1068.3091151967 Hartrees.
 IExCor=  402 DFT=T Ex+Corr=B3LYP ExCW=0 ScaHFX=  0.200000
 ScaDFX=  0.800000  0.720000  1.000000  0.810000 ScalE2=  1.000000  1.000000
 IRadAn=      5 IRanWt=     -1 IRanGd=            0 ICorTp=0 IEmpDi=  4
 NAtoms=   26 NActive=   26 NUniq=   26 SFac= 1.00D+00 NAtFMM=   60 NAOKFM=F Big=F
 Integral buffers will be    131072 words long.
 Raffenetti 2 integral format.
 Two-electron integral symmetry is turned off.
 Leave Link  301 at Fri Jan 19 03:47:10 2024, MaxMem=  4026531840 cpu:               0.6 elap:               0.1
 (Enter /sysapps/ubuntu-applications/gaussian/Gaussian/AVX2/g16/l302.exe)
 NPDir=0 NMtPBC=     1 NCelOv=     1 NCel=       1 NClECP=     1 NCelD=      1
         NCelK=      1 NCelE2=     1 NClLst=     1 CellRange=     0.0.
 One-electron integrals computed using PRISM.
 NBasis=   422 RedAO= T EigKep=  1.09D-06  NBF=   422
 NBsUse=   418 1.00D-06 EigRej=  8.64D-07 NBFU=   418
 Precomputing XC quadrature grid using
 IXCGrd= 4 IRadAn=           5 IRanWt=          -1 IRanGd=           0 AccXCQ= 0.00D+00.
 Generated NRdTot=       0 NPtTot=           0 NUsed=           0 NTot=          32
 NSgBfM=   437   437   437   437   437 MxSgAt=    26 MxSgA2=    26.
 Leave Link  302 at Fri Jan 19 03:47:11 2024, MaxMem=  4026531840 cpu:               4.0 elap:               0.6
 (Enter /sysapps/ubuntu-applications/gaussian/Gaussian/AVX2/g16/l303.exe)
 DipDrv:  MaxL=1.
 Leave Link  303 at Fri Jan 19 03:47:11 2024, MaxMem=  4026531840 cpu:               1.2 elap:               0.2
 (Enter /sysapps/ubuntu-applications/gaussian/Gaussian/AVX2/g16/l401.exe)
 ExpMin= 3.60D-02 ExpMax= 8.59D+03 ExpMxC= 1.30D+03 IAcc=3 IRadAn=         5 AccDes= 0.00D+00
 Harris functional with IExCor=  402 and IRadAn=       5 diagonalized for initial guess.
 HarFok:  IExCor=  402 AccDes= 0.00D+00 IRadAn=         5 IDoV= 1 UseB2=F ITyADJ=14
 ICtDFT=  3500011 ScaDFX=  1.000000  1.000000  1.000000  1.000000
 FoFCou: FMM=F IPFlag=           0 FMFlag=      100000 FMFlg1=           0
         NFxFlg=           0 DoJE=T BraDBF=F KetDBF=T FulRan=T
         wScrn=  0.000000 ICntrl=       500 IOpCl=  0 I1Cent=   200000004 NGrid=           0
         NMat0=    1 NMatS0=      1 NMatT0=    0 NMatD0=    1 NMtDS0=    0 NMtDT0=    0
 Symmetry not used in FoFCou.
 Harris En= -764.377062976817    
 JPrj=0 DoOrth=F DoCkMO=F.
 Initial guess <Sx>= 0.0000 <Sy>= 0.0000 <Sz>= 0.0000 <S**2>=-0.0000 S=-0.0000
 Leave Link  401 at Fri Jan 19 03:47:15 2024, MaxMem=  4026531840 cpu:              29.6 elap:               3.8
 (Enter /sysapps/ubuntu-applications/gaussian/Gaussian/AVX2/g16/l502.exe)
 Two-electron integral symmetry not used.
 UHF open shell SCF:
 Using DIIS extrapolation, IDIIS=  1040.
 NGot=  4026531840 LenX=  4026141480 LenY=  4025949195
 Requested convergence on RMS density matrix=1.00D-08 within 128 cycles.
 Requested convergence on MAX density matrix=1.00D-06.
 Requested convergence on             energy=1.00D-06.
 No special actions if energy rises.
 Fock matrices will be formed incrementally for  20 cycles.

 Cycle   1  Pass 1  IDiag  1:
 FoFJK:  IHMeth= 1 ICntrl=       0 DoSepK=F KAlg= 0 I1Cent=           0 FoldK=F
 IRaf= 870000000 NMat=       1 IRICut=       1 DoRegI=T DoRafI=F ISym2E= 0 IDoP0=0 IntGTp=1.
 FoFCou: FMM=F IPFlag=           0 FMFlag=      100000 FMFlg1=           0
         NFxFlg=           0 DoJE=F BraDBF=F KetDBF=F FulRan=T
         wScrn=  0.000000 ICntrl=         0 IOpCl=  1 I1Cent=           0 NGrid=           0
         NMat0=    1 NMatS0=      1 NMatT0=    0 NMatD0=    1 NMtDS0=    0 NMtDT0=    0
 Symmetry not used in FoFCou.
 E= -764.008181413549    
 DIIS: error= 3.31D-02 at cycle   1 NSaved=   1.
 NSaved= 1 IEnMin= 1 EnMin= -764.008181413549     IErMin= 1 ErrMin= 3.31D-02
 ErrMax= 3.31D-02  0.00D+00 EMaxC= 1.00D-01 BMatC= 1.76D+00 BMatP= 1.76D+00
 IDIUse=3 WtCom= 6.69D-01 WtEn= 3.31D-01
 Coeff-Com:  0.100D+01
 Coeff-En:   0.100D+01
 Coeff:      0.100D+01
 Gap=     0.129 Goal=   None    Shift=    0.000
 Gap=     0.129 Goal=   None    Shift=    0.000
 GapD=    0.129 DampG=1.000 DampE=0.500 DampFc=0.5000 IDamp=-1.
 Damping current iteration by 5.00D-01
 RMSDP=3.25D-02 MaxDP=1.88D+00              OVMax= 2.77D-01

 Cycle   2  Pass 1  IDiag  1:
 RMSU=  1.19D-02    CP:  1.15D+00
 E= -764.104677197520     Delta-E=       -0.096495783971 Rises=F Damp=T
 DIIS: error= 1.81D-02 at cycle   2 NSaved=   2.
 NSaved= 2 IEnMin= 2 EnMin= -764.104677197520     IErMin= 2 ErrMin= 1.81D-02
 ErrMax= 1.81D-02  0.00D+00 EMaxC= 1.00D-01 BMatC= 3.02D-01 BMatP= 1.76D+00
 IDIUse=3 WtCom= 8.19D-01 WtEn= 1.81D-01
 Coeff-Com:  0.200D+00 0.800D+00
 Coeff-En:   0.327D+00 0.673D+00
 Coeff:      0.223D+00 0.777D+00
 Gap=     0.160 Goal=   None    Shift=    0.000
 Gap=     0.160 Goal=   None    Shift=    0.000
 RMSDP=1.13D-02 MaxDP=9.59D-01 DE=-9.65D-02 OVMax= 2.19D-01

 Cycle   3  Pass 1  IDiag  1:
 RMSU=  6.70D-03    CP:  1.04D+00  6.66D-01
 E= -764.274037395245     Delta-E=       -0.169360197725 Rises=F Damp=F
 DIIS: error= 2.29D-02 at cycle   3 NSaved=   3.
 NSaved= 3 IEnMin= 3 EnMin= -764.274037395245     IErMin= 2 ErrMin= 1.81D-02
 ErrMax= 2.29D-02  0.00D+00 EMaxC= 1.00D-01 BMatC= 3.59D-01 BMatP= 3.02D-01
 IDIUse=2 WtCom= 0.00D+00 WtEn= 1.00D+00
 Coeff-En:   0.000D+00 0.000D+00 0.100D+01
 Coeff:      0.000D+00 0.000D+00 0.100D+01
 Gap=     0.122 Goal=   None    Shift=    0.000
 Gap=     0.122 Goal=   None    Shift=    0.000
 RMSDP=2.20D-02 MaxDP=2.32D+00 DE=-1.69D-01 OVMax= 2.70D-01

 Cycle   4  Pass 1  IDiag  1:
 RMSU=  1.16D-02    CP:  1.27D+00  8.85D-01 -1.43D-01
 E= -763.856749991633     Delta-E=        0.417287403612 Rises=F Damp=F
 DIIS: error= 7.18D-02 at cycle   4 NSaved=   4.
 NSaved= 4 IEnMin= 3 EnMin= -764.274037395245     IErMin= 2 ErrMin= 1.81D-02
 ErrMax= 7.18D-02  0.00D+00 EMaxC= 1.00D-01 BMatC= 2.45D+00 BMatP= 3.02D-01
 IDIUse=2 WtCom= 0.00D+00 WtEn= 1.00D+00
 Coeff-En:   0.000D+00 0.000D+00 0.809D+00 0.191D+00
 Coeff:      0.000D+00 0.000D+00 0.809D+00 0.191D+00
 Gap=     0.125 Goal=   None    Shift=    0.000
 Gap=     0.125 Goal=   None    Shift=    0.000
 RMSDP=1.31D-02 MaxDP=1.33D+00 DE= 4.17D-01 OVMax= 1.25D-01

 Cycle   5  Pass 1  IDiag  1:
 RMSU=  8.81D-04    CP:  1.12D+00  6.46D-01  4.70D-01  4.82D-01
 E= -764.310297495979     Delta-E=       -0.453547504346 Rises=F Damp=F
 DIIS: error= 1.87D-02 at cycle   5 NSaved=   5.
 NSaved= 5 IEnMin= 5 EnMin= -764.310297495979     IErMin= 2 ErrMin= 1.81D-02
 ErrMax= 1.87D-02  0.00D+00 EMaxC= 1.00D-01 BMatC= 1.95D-01 BMatP= 3.02D-01
 IDIUse=3 WtCom= 8.13D-01 WtEn= 1.87D-01
 Coeff-Com: -0.272D-02 0.389D-01 0.315D+00-0.107D+00 0.756D+00
 Coeff-En:   0.000D+00 0.000D+00 0.383D+00 0.000D+00 0.617D+00
 Coeff:     -0.221D-02 0.316D-01 0.328D+00-0.873D-01 0.730D+00
 Gap=     0.114 Goal=   None    Shift=    0.000
 Gap=     0.114 Goal=   None    Shift=    0.000
 RMSDP=5.00D-03 MaxDP=5.41D-01 DE=-4.54D-01 OVMax= 5.96D-02

 Cycle   6  Pass 1  IDiag  1:
 RMSU=  2.96D-04    CP:  1.07D+00  6.15D-01  6.97D-01  2.60D-01  8.96D-01
 E= -764.350060293165     Delta-E=       -0.039762797186 Rises=F Damp=F
 DIIS: error= 6.60D-04 at cycle   6 NSaved=   6.
 NSaved= 6 IEnMin= 6 EnMin= -764.350060293165     IErMin= 6 ErrMin= 6.60D-04
 ErrMax= 6.60D-04  0.00D+00 EMaxC= 1.00D-01 BMatC= 3.40D-04 BMatP= 1.95D-01
 IDIUse=3 WtCom= 9.93D-01 WtEn= 6.60D-03
 Coeff-Com: -0.392D-02 0.134D-01 0.114D+00-0.481D-01 0.322D+00 0.602D+00
 Coeff-En:   0.000D+00 0.000D+00 0.000D+00 0.000D+00 0.000D+00 0.100D+01
 Coeff:     -0.389D-02 0.133D-01 0.114D+00-0.478D-01 0.320D+00 0.604D+00
 Gap=     0.116 Goal=   None    Shift=    0.000
 Gap=     0.116 Goal=   None    Shift=    0.000
 RMSDP=2.82D-04 MaxDP=1.74D-02 DE=-3.98D-02 OVMax= 7.24D-03

 Cycle   7  Pass 1  IDiag  1:
 RMSU=  1.37D-04    CP:  1.07D+00  6.25D-01  7.06D-01  2.53D-01  9.03D-01
                    CP:  9.43D-01
 E= -764.350108073764     Delta-E=       -0.000047780599 Rises=F Damp=F
 DIIS: error= 4.08D-04 at cycle   7 NSaved=   7.
 NSaved= 7 IEnMin= 7 EnMin= -764.350108073764     IErMin= 7 ErrMin= 4.08D-04
 ErrMax= 4.08D-04  0.00D+00 EMaxC= 1.00D-01 BMatC= 9.44D-05 BMatP= 3.40D-04
 IDIUse=3 WtCom= 9.96D-01 WtEn= 4.08D-03
 Coeff-Com: -0.131D-02 0.928D-03 0.310D-01-0.125D-01 0.917D-01 0.423D+00
 Coeff-Com:  0.467D+00
 Coeff-En:   0.000D+00 0.000D+00 0.000D+00 0.000D+00 0.000D+00 0.291D+00
 Coeff-En:   0.709D+00
 Coeff:     -0.131D-02 0.924D-03 0.309D-01-0.124D-01 0.913D-01 0.422D+00
 Coeff:      0.468D+00
 Gap=     0.115 Goal=   None    Shift=    0.000
 Gap=     0.115 Goal=   None    Shift=    0.000
 RMSDP=1.37D-04 MaxDP=8.30D-03 DE=-4.78D-05 OVMax= 2.78D-03

 Cycle   8  Pass 1  IDiag  1:
 RMSU=  2.64D-05    CP:  1.07D+00  6.19D-01  7.01D-01  2.61D-01  9.03D-01
                    CP:  9.11D-01  5.50D-01
 E= -764.350132157568     Delta-E=       -0.000024083804 Rises=F Damp=F
 DIIS: error= 5.36D-05 at cycle   8 NSaved=   8.
 NSaved= 8 IEnMin= 8 EnMin= -764.350132157568     IErMin= 8 ErrMin= 5.36D-05
 ErrMax= 5.36D-05  0.00D+00 EMaxC= 1.00D-01 BMatC= 3.44D-06 BMatP= 9.44D-05
 IDIUse=1 WtCom= 1.00D+00 WtEn= 0.00D+00
 Coeff-Com: -0.403D-03-0.328D-03 0.958D-02-0.387D-02 0.291D-01 0.199D+00
 Coeff-Com:  0.249D+00 0.518D+00
 Coeff:     -0.403D-03-0.328D-03 0.958D-02-0.387D-02 0.291D-01 0.199D+00
 Coeff:      0.249D+00 0.518D+00
 Gap=     0.115 Goal=   None    Shift=    0.000
 Gap=     0.115 Goal=   None    Shift=    0.000
 RMSDP=1.50D-05 MaxDP=8.30D-04 DE=-2.41D-05 OVMax= 3.12D-04

 Cycle   9  Pass 1  IDiag  1:
 RMSU=  1.12D-05    CP:  1.07D+00  6.19D-01  7.01D-01  2.61D-01  9.06D-01
                    CP:  9.25D-01  5.45D-01  8.47D-01
 E= -764.350132850043     Delta-E=       -0.000000692475 Rises=F Damp=F
 DIIS: error= 3.43D-05 at cycle   9 NSaved=   9.
 NSaved= 9 IEnMin= 9 EnMin= -764.350132850043     IErMin= 9 ErrMin= 3.43D-05
 ErrMax= 3.43D-05  0.00D+00 EMaxC= 1.00D-01 BMatC= 4.74D-07 BMatP= 3.44D-06
 IDIUse=1 WtCom= 1.00D+00 WtEn= 0.00D+00
 Coeff-Com: -0.381D-04-0.155D-03 0.964D-03-0.612D-03 0.358D-02 0.481D-01
 Coeff-Com:  0.584D-01 0.290D+00 0.600D+00
 Coeff:     -0.381D-04-0.155D-03 0.964D-03-0.612D-03 0.358D-02 0.481D-01
 Coeff:      0.584D-01 0.290D+00 0.600D+00
 Gap=     0.115 Goal=   None    Shift=    0.000
 Gap=     0.115 Goal=   None    Shift=    0.000
 RMSDP=8.78D-06 MaxDP=6.36D-04 DE=-6.92D-07 OVMax= 2.05D-04

 Cycle  10  Pass 1  IDiag  1:
 RMSU=  5.32D-06    CP:  1.07D+00  6.19D-01  7.02D-01  2.61D-01  9.07D-01
                    CP:  9.33D-01  5.56D-01  8.98D-01  6.75D-01
 E= -764.350132911553     Delta-E=       -0.000000061510 Rises=F Damp=F
 DIIS: error= 2.22D-05 at cycle  10 NSaved=  10.
 NSaved=10 IEnMin=10 EnMin= -764.350132911553     IErMin=10 ErrMin= 2.22D-05
 ErrMax= 2.22D-05  0.00D+00 EMaxC= 1.00D-01 BMatC= 1.94D-07 BMatP= 4.74D-07
 IDIUse=1 WtCom= 1.00D+00 WtEn= 0.00D+00
 Coeff-Com:  0.301D-04-0.949D-04-0.687D-03 0.131D-03-0.161D-02 0.868D-02
 Coeff-Com:  0.652D-02 0.139D+00 0.449D+00 0.398D+00
 Coeff:      0.301D-04-0.949D-04-0.687D-03 0.131D-03-0.161D-02 0.868D-02
 Coeff:      0.652D-02 0.139D+00 0.449D+00 0.398D+00
 Gap=     0.115 Goal=   None    Shift=    0.000
 Gap=     0.115 Goal=   None    Shift=    0.000
 RMSDP=3.32D-06 MaxDP=2.56D-04 DE=-6.15D-08 OVMax= 8.74D-05

 Cycle  11  Pass 1  IDiag  1:
 RMSU=  1.04D-06    CP:  1.07D+00  6.19D-01  7.02D-01  2.61D-01  9.07D-01
                    CP:  9.32D-01  5.56D-01  8.88D-01  8.26D-01  6.83D-01
 E= -764.350132956527     Delta-E=       -0.000000044974 Rises=F Damp=F
 DIIS: error= 2.04D-06 at cycle  11 NSaved=  11.
 NSaved=11 IEnMin=11 EnMin= -764.350132956527     IErMin=11 ErrMin= 2.04D-06
 ErrMax= 2.04D-06  0.00D+00 EMaxC= 1.00D-01 BMatC= 4.93D-09 BMatP= 1.94D-07
 IDIUse=1 WtCom= 1.00D+00 WtEn= 0.00D+00
 Coeff-Com:  0.121D-04-0.317D-04-0.361D-03 0.114D-03-0.930D-03-0.447D-03
 Coeff-Com: -0.542D-02 0.288D-01 0.138D+00 0.160D+00 0.680D+00
 Coeff:      0.121D-04-0.317D-04-0.361D-03 0.114D-03-0.930D-03-0.447D-03
 Coeff:     -0.542D-02 0.288D-01 0.138D+00 0.160D+00 0.680D+00
 Gap=     0.115 Goal=   None    Shift=    0.000
 Gap=     0.115 Goal=   None    Shift=    0.000
 RMSDP=1.23D-06 MaxDP=8.86D-05 DE=-4.50D-08 OVMax= 1.19D-05

 Cycle  12  Pass 1  IDiag  1:
 RMSU=  4.90D-07    CP:  1.07D+00  6.18D-01  7.02D-01  2.61D-01  9.07D-01
                    CP:  9.32D-01  5.53D-01  9.00D-01  8.25D-01  6.66D-01
                    CP:  1.01D+00
 E= -764.350132957636     Delta-E=       -0.000000001109 Rises=F Damp=F
 DIIS: error= 8.51D-07 at cycle  12 NSaved=  12.
 NSaved=12 IEnMin=12 EnMin= -764.350132957636     IErMin=12 ErrMin= 8.51D-07
 ErrMax= 8.51D-07  0.00D+00 EMaxC= 1.00D-01 BMatC= 9.21D-10 BMatP= 4.93D-09
 IDIUse=1 WtCom= 1.00D+00 WtEn= 0.00D+00
 Coeff-Com: -0.749D-06 0.546D-05-0.103D-03 0.354D-04-0.246D-03-0.114D-02
 Coeff-Com: -0.419D-02-0.312D-02 0.144D-01 0.248D-01 0.334D+00 0.636D+00
 Coeff:     -0.749D-06 0.546D-05-0.103D-03 0.354D-04-0.246D-03-0.114D-02
 Coeff:     -0.419D-02-0.312D-02 0.144D-01 0.248D-01 0.334D+00 0.636D+00
 Gap=     0.115 Goal=   None    Shift=    0.000
 Gap=     0.115 Goal=   None    Shift=    0.000
 RMSDP=6.33D-07 MaxDP=5.78D-05 DE=-1.11D-09 OVMax= 7.83D-06

 Cycle  13  Pass 1  IDiag  1:
 RMSU=  9.58D-08    CP:  1.07D+00  6.18D-01  7.02D-01  2.61D-01  9.07D-01
                    CP:  9.32D-01  5.52D-01  9.03D-01  8.37D-01  6.76D-01
                    CP:  1.03D+00  7.97D-01
 E= -764.350132957871     Delta-E=       -0.000000000235 Rises=F Damp=F
 DIIS: error= 3.43D-07 at cycle  13 NSaved=  13.
 NSaved=13 IEnMin=13 EnMin= -764.350132957871     IErMin=13 ErrMin= 3.43D-07
 ErrMax= 3.43D-07  0.00D+00 EMaxC= 1.00D-01 BMatC= 7.44D-11 BMatP= 9.21D-10
 IDIUse=1 WtCom= 1.00D+00 WtEn= 0.00D+00
 Coeff-Com: -0.262D-05 0.699D-05 0.378D-05-0.131D-05 0.273D-04-0.416D-03
 Coeff-Com: -0.135D-02-0.501D-02-0.110D-01-0.122D-01 0.387D-01 0.243D+00
 Coeff-Com:  0.749D+00
 Coeff:     -0.262D-05 0.699D-05 0.378D-05-0.131D-05 0.273D-04-0.416D-03
 Coeff:     -0.135D-02-0.501D-02-0.110D-01-0.122D-01 0.387D-01 0.243D+00
 Coeff:      0.749D+00
 Gap=     0.115 Goal=   None    Shift=    0.000
 Gap=     0.115 Goal=   None    Shift=    0.000
 RMSDP=1.00D-07 MaxDP=6.06D-06 DE=-2.35D-10 OVMax= 2.34D-06

 Cycle  14  Pass 1  IDiag  1:
 RMSU=  5.43D-08    CP:  1.07D+00  6.18D-01  7.02D-01  2.61D-01  9.07D-01
                    CP:  9.33D-01  5.53D-01  9.03D-01  8.39D-01  6.83D-01
                    CP:  1.04D+00  8.29D-01  9.38D-01
 E= -764.350132957903     Delta-E=       -0.000000000032 Rises=F Damp=F
 DIIS: error= 6.86D-08 at cycle  14 NSaved=  14.
 NSaved=14 IEnMin=14 EnMin= -764.350132957903     IErMin=14 ErrMin= 6.86D-08
 ErrMax= 6.86D-08  0.00D+00 EMaxC= 1.00D-01 BMatC= 3.61D-12 BMatP= 7.44D-11
 IDIUse=1 WtCom= 1.00D+00 WtEn= 0.00D+00
 Coeff-Com: -0.832D-06 0.183D-05 0.695D-05-0.204D-05 0.227D-04-0.696D-04
 Coeff-Com: -0.309D-03-0.160D-02-0.470D-02-0.621D-02-0.396D-02 0.503D-01
 Coeff-Com:  0.272D+00 0.694D+00
 Coeff:     -0.832D-06 0.183D-05 0.695D-05-0.204D-05 0.227D-04-0.696D-04
 Coeff:     -0.309D-03-0.160D-02-0.470D-02-0.621D-02-0.396D-02 0.503D-01
 Coeff:      0.272D+00 0.694D+00
 Gap=     0.115 Goal=   None    Shift=    0.000
 Gap=     0.115 Goal=   None    Shift=    0.000
 RMSDP=4.49D-08 MaxDP=2.70D-06 DE=-3.21D-11 OVMax= 4.47D-07

 Cycle  15  Pass 1  IDiag  1:
 RMSU=  1.34D-08    CP:  1.07D+00  6.18D-01  7.02D-01  2.61D-01  9.07D-01
                    CP:  9.33D-01  5.52D-01  9.03D-01  8.39D-01  6.83D-01
                    CP:  1.04D+00  8.34D-01  9.27D-01  8.54D-01
 E= -764.350132957898     Delta-E=        0.000000000005 Rises=F Damp=F
 DIIS: error= 1.74D-08 at cycle  15 NSaved=  15.
 NSaved=15 IEnMin=14 EnMin= -764.350132957903     IErMin=15 ErrMin= 1.74D-08
 ErrMax= 1.74D-08  0.00D+00 EMaxC= 1.00D-01 BMatC= 5.42D-13 BMatP= 3.61D-12
 IDIUse=1 WtCom= 1.00D+00 WtEn= 0.00D+00
 Coeff-Com: -0.995D-07 0.244D-06 0.277D-05-0.971D-06 0.779D-05 0.119D-04
 Coeff-Com: -0.235D-04-0.192D-03-0.924D-03-0.162D-02-0.481D-02-0.204D-02
 Coeff-Com:  0.506D-01 0.338D+00 0.621D+00
 Coeff:     -0.995D-07 0.244D-06 0.277D-05-0.971D-06 0.779D-05 0.119D-04
 Coeff:     -0.235D-04-0.192D-03-0.924D-03-0.162D-02-0.481D-02-0.204D-02
 Coeff:      0.506D-01 0.338D+00 0.621D+00
 Gap=     0.115 Goal=   None    Shift=    0.000
 Gap=     0.115 Goal=   None    Shift=    0.000
 RMSDP=1.00D-08 MaxDP=6.36D-07 DE= 5.00D-12 OVMax= 1.53D-07

 Cycle  16  Pass 1  IDiag  1:
 RMSU=  3.90D-09    CP:  1.07D+00  6.18D-01  7.02D-01  2.61D-01  9.07D-01
                    CP:  9.33D-01  5.52D-01  9.03D-01  8.39D-01  6.82D-01
                    CP:  1.05D+00  8.36D-01  9.37D-01  8.48D-01  8.97D-01
 E= -764.350132957899     Delta-E=       -0.000000000001 Rises=F Damp=F
 DIIS: error= 8.77D-09 at cycle  16 NSaved=  16.
 NSaved=16 IEnMin=14 EnMin= -764.350132957903     IErMin=16 ErrMin= 8.77D-09
 ErrMax= 8.77D-09  0.00D+00 EMaxC= 1.00D-01 BMatC= 6.75D-14 BMatP= 5.42D-13
 IDIUse=1 WtCom= 1.00D+00 WtEn= 0.00D+00
 Coeff-Com:  0.324D-07-0.555D-07 0.948D-06-0.323D-06 0.221D-05 0.113D-04
 Coeff-Com:  0.915D-05 0.234D-04-0.144D-03-0.406D-03-0.216D-02-0.503D-02
 Coeff-Com:  0.571D-02 0.124D+00 0.329D+00 0.549D+00
 Coeff:      0.324D-07-0.555D-07 0.948D-06-0.323D-06 0.221D-05 0.113D-04
 Coeff:      0.915D-05 0.234D-04-0.144D-03-0.406D-03-0.216D-02-0.503D-02
 Coeff:      0.571D-02 0.124D+00 0.329D+00 0.549D+00
 Gap=     0.115 Goal=   None    Shift=    0.000
 Gap=     0.115 Goal=   None    Shift=    0.000
 RMSDP=2.72D-09 MaxDP=1.35D-07 DE=-1.14D-12 OVMax= 6.88D-08

 SCF Done:  E(UB3LYP) =  -764.350132958     A.U. after   16 cycles
            NFock= 16  Conv=0.27D-08     -V/T= 2.0039
 <Sx>= 0.0000 <Sy>= 0.0000 <Sz>= 0.0000 <S**2>=-0.0000 S=-0.0000
 <L.S>=  0.00000000000    
 KE= 7.613704553299D+02 PE=-3.922728063198D+03 EE= 1.328698359714D+03
 Annihilation of the first spin contaminant:
 S**2 before annihilation    -0.0000,   after     0.0000
 Leave Link  502 at Fri Jan 19 03:51:10 2024, MaxMem=  4026531840 cpu:            1858.9 elap:             234.3
 (Enter /sysapps/ubuntu-applications/gaussian/Gaussian/AVX2/g16/l601.exe)
 Copying SCF densities to generalized density rwf, IOpCl= 1 IROHF=0.

 **********************************************************************

            Population analysis using the SCF density.

 **********************************************************************

 Alpha  occ. eigenvalues --  -19.16806 -19.16794 -19.11534 -19.11524 -10.27027
 Alpha  occ. eigenvalues --  -10.27020 -10.26109 -10.26108 -10.23775 -10.23773
 Alpha  occ. eigenvalues --  -10.21051 -10.21005 -10.20325 -10.20266 -10.20035
 Alpha  occ. eigenvalues --  -10.19950  -1.09021  -1.08908  -1.04813  -1.04597
 Alpha  occ. eigenvalues --   -0.88483  -0.83360  -0.78786  -0.78284  -0.73642
 Alpha  occ. eigenvalues --   -0.70486  -0.69274  -0.64589  -0.63852  -0.58535
 Alpha  occ. eigenvalues --   -0.54892  -0.54889  -0.52476  -0.52082  -0.49396
 Alpha  occ. eigenvalues --   -0.49090  -0.48553  -0.47719  -0.45975  -0.44584
 Alpha  occ. eigenvalues --   -0.43979  -0.43925  -0.43326  -0.42387  -0.40660
 Alpha  occ. eigenvalues --   -0.40383  -0.39413  -0.39334  -0.36609  -0.35624
 Alpha  occ. eigenvalues --   -0.35041  -0.31687  -0.29545  -0.28379  -0.26196
 Alpha  occ. eigenvalues --   -0.25316  -0.22915
 Alpha virt. eigenvalues --   -0.11381  -0.03568  -0.03504  -0.02029  -0.00706
 Alpha virt. eigenvalues --    0.00524   0.01340   0.01837   0.01926   0.02696
 Alpha virt. eigenvalues --    0.03279   0.03770   0.03793   0.04265   0.04787
 Alpha virt. eigenvalues --    0.05705   0.06012   0.06340   0.07338   0.07836
 Alpha virt. eigenvalues --    0.08313   0.08954   0.09043   0.09374   0.09812
 Alpha virt. eigenvalues --    0.09997   0.10938   0.11202   0.11318   0.12300
 Alpha virt. eigenvalues --    0.12531   0.12570   0.12925   0.13326   0.13780
 Alpha virt. eigenvalues --    0.14001   0.14078   0.14369   0.14425   0.14978
 Alpha virt. eigenvalues --    0.15178   0.15771   0.15938   0.16294   0.16695
 Alpha virt. eigenvalues --    0.17159   0.17916   0.18164   0.18189   0.18999
 Alpha virt. eigenvalues --    0.19145   0.19342   0.20768   0.21236   0.21534
 Alpha virt. eigenvalues --    0.22158   0.22599   0.23474   0.24308   0.24474
 Alpha virt. eigenvalues --    0.24586   0.25648   0.26218   0.26502   0.26927
 Alpha virt. eigenvalues --    0.27029   0.27295   0.27747   0.27982   0.29031
 Alpha virt. eigenvalues --    0.29523   0.29740   0.30430   0.30624   0.30976
 Alpha virt. eigenvalues --    0.31484   0.31681   0.32786   0.33268   0.33334
 Alpha virt. eigenvalues --    0.33531   0.34297   0.34449   0.35087   0.35713
 Alpha virt. eigenvalues --    0.35905   0.36638   0.37838   0.38254   0.39475
 Alpha virt. eigenvalues --    0.39906   0.41251   0.41494   0.42675   0.43681
 Alpha virt. eigenvalues --    0.44273   0.45308   0.46083   0.46889   0.47086
 Alpha virt. eigenvalues --    0.48933   0.50051   0.52477   0.53075   0.53254
 Alpha virt. eigenvalues --    0.53661   0.54956   0.56085   0.56455   0.58478
 Alpha virt. eigenvalues --    0.59274   0.59551   0.59930   0.60561   0.60816
 Alpha virt. eigenvalues --    0.61085   0.62926   0.63626   0.64510   0.64591
 Alpha virt. eigenvalues --    0.64684   0.65179   0.65849   0.66226   0.67551
 Alpha virt. eigenvalues --    0.68188   0.69231   0.69557   0.71666   0.72508
 Alpha virt. eigenvalues --    0.74273   0.74900   0.75419   0.75795   0.76889
 Alpha virt. eigenvalues --    0.77855   0.80236   0.82237   0.83590   0.84272
 Alpha virt. eigenvalues --    0.86290   0.87943   0.88003   0.89150   0.89742
 Alpha virt. eigenvalues --    0.90603   0.91351   0.91981   0.94094   0.96132
 Alpha virt. eigenvalues --    0.96818   0.97232   0.98761   1.00711   1.01381
 Alpha virt. eigenvalues --    1.02328   1.02923   1.03768   1.04108   1.04470
 Alpha virt. eigenvalues --    1.04830   1.05545   1.07995   1.09227   1.09295
 Alpha virt. eigenvalues --    1.10171   1.10642   1.11705   1.12956   1.14535
 Alpha virt. eigenvalues --    1.16317   1.19777   1.21349   1.22783   1.23407
 Alpha virt. eigenvalues --    1.24346   1.25103   1.26904   1.28072   1.28587
 Alpha virt. eigenvalues --    1.31105   1.34632   1.38356   1.38829   1.41973
 Alpha virt. eigenvalues --    1.42602   1.42665   1.45308   1.47334   1.47697
 Alpha virt. eigenvalues --    1.48642   1.49166   1.51408   1.52593   1.53124
 Alpha virt. eigenvalues --    1.53809   1.54628   1.56316   1.56671   1.56958
 Alpha virt. eigenvalues --    1.57264   1.59694   1.60250   1.64620   1.65733
 Alpha virt. eigenvalues --    1.68059   1.68950   1.69166   1.69341   1.70133
 Alpha virt. eigenvalues --    1.71483   1.73540   1.73575   1.75260   1.76289
 Alpha virt. eigenvalues --    1.78424   1.79003   1.79648   1.82117   1.85873
 Alpha virt. eigenvalues --    1.87163   1.87840   1.87915   1.88720   1.89083
 Alpha virt. eigenvalues --    1.90644   1.92419   1.93090   1.96843   1.97388
 Alpha virt. eigenvalues --    1.97983   2.01023   2.03211   2.05256   2.07054
 Alpha virt. eigenvalues --    2.07584   2.08353   2.10098   2.10567   2.12630
 Alpha virt. eigenvalues --    2.13265   2.15542   2.16370   2.19797   2.20494
 Alpha virt. eigenvalues --    2.21400   2.25800   2.30811   2.31643   2.33479
 Alpha virt. eigenvalues --    2.39615   2.43313   2.44650   2.45457   2.45601
 Alpha virt. eigenvalues --    2.45697   2.47458   2.50361   2.52428   2.53680
 Alpha virt. eigenvalues --    2.55327   2.57049   2.58633   2.60484   2.63820
 Alpha virt. eigenvalues --    2.64013   2.66585   2.67909   2.69161   2.69729
 Alpha virt. eigenvalues --    2.70511   2.71174   2.72446   2.74603   2.77467
 Alpha virt. eigenvalues --    2.79684   2.80015   2.81543   2.83241   2.83316
 Alpha virt. eigenvalues --    2.84733   2.87640   2.88330   2.93346   2.93582
 Alpha virt. eigenvalues --    2.93999   2.98226   2.99817   3.04434   3.05391
 Alpha virt. eigenvalues --    3.05525   3.05698   3.08835   3.11449   3.13476
 Alpha virt. eigenvalues --    3.14349   3.18114   3.20010   3.22175   3.22378
 Alpha virt. eigenvalues --    3.23664   3.25024   3.26153   3.34086   3.34622
 Alpha virt. eigenvalues --    3.36667   3.39170   3.41149   3.45732   3.47278
 Alpha virt. eigenvalues --    3.53115   3.53673   3.59398   3.64516   3.65052
 Alpha virt. eigenvalues --    3.69888   3.75888   3.76038   3.76249   3.81113
 Alpha virt. eigenvalues --    3.84939   3.87066   4.04407   4.07966   4.08059
 Alpha virt. eigenvalues --    4.11780   4.13343   4.18054   4.24783   4.28516
 Alpha virt. eigenvalues --    4.36848   4.69373   4.84614   5.01691   5.03719
 Alpha virt. eigenvalues --    5.05120   5.07638   5.22280   5.24655   5.43188
 Alpha virt. eigenvalues --    5.46439   5.72244   5.79048   5.81567   5.85939
 Alpha virt. eigenvalues --   23.55985  23.74677  23.85573  23.89438  23.90585
 Alpha virt. eigenvalues --   23.90732  23.92434  23.92531  23.99146  24.00288
 Alpha virt. eigenvalues --   24.15361  24.25166  49.96136  50.01126  50.02491
 Alpha virt. eigenvalues --   50.06625
  Beta  occ. eigenvalues --  -19.16806 -19.16794 -19.11534 -19.11524 -10.27027
  Beta  occ. eigenvalues --  -10.27020 -10.26109 -10.26108 -10.23775 -10.23773
  Beta  occ. eigenvalues --  -10.21051 -10.21005 -10.20325 -10.20266 -10.20035
  Beta  occ. eigenvalues --  -10.19950  -1.09021  -1.08908  -1.04813  -1.04597
  Beta  occ. eigenvalues --   -0.88483  -0.83360  -0.78786  -0.78284  -0.73642
  Beta  occ. eigenvalues --   -0.70486  -0.69274  -0.64589  -0.63852  -0.58535
  Beta  occ. eigenvalues --   -0.54892  -0.54889  -0.52476  -0.52082  -0.49396
  Beta  occ. eigenvalues --   -0.49090  -0.48553  -0.47719  -0.45975  -0.44584
  Beta  occ. eigenvalues --   -0.43979  -0.43925  -0.43326  -0.42387  -0.40660
  Beta  occ. eigenvalues --   -0.40383  -0.39413  -0.39334  -0.36609  -0.35624
  Beta  occ. eigenvalues --   -0.35041  -0.31687  -0.29545  -0.28379  -0.26196
  Beta  occ. eigenvalues --   -0.25316  -0.22915
  Beta virt. eigenvalues --   -0.11381  -0.03568  -0.03504  -0.02029  -0.00706
  Beta virt. eigenvalues --    0.00524   0.01340   0.01837   0.01926   0.02696
  Beta virt. eigenvalues --    0.03279   0.03770   0.03793   0.04265   0.04787
  Beta virt. eigenvalues --    0.05705   0.06012   0.06340   0.07338   0.07836
  Beta virt. eigenvalues --    0.08313   0.08954   0.09043   0.09374   0.09812
  Beta virt. eigenvalues --    0.09997   0.10938   0.11202   0.11318   0.12300
  Beta virt. eigenvalues --    0.12531   0.12570   0.12925   0.13326   0.13780
  Beta virt. eigenvalues --    0.14001   0.14078   0.14369   0.14425   0.14978
  Beta virt. eigenvalues --    0.15178   0.15771   0.15938   0.16294   0.16695
  Beta virt. eigenvalues --    0.17159   0.17916   0.18164   0.18189   0.18999
  Beta virt. eigenvalues --    0.19145   0.19342   0.20768   0.21236   0.21534
  Beta virt. eigenvalues --    0.22158   0.22599   0.23474   0.24308   0.24474
  Beta virt. eigenvalues --    0.24586   0.25648   0.26218   0.26502   0.26927
  Beta virt. eigenvalues --    0.27029   0.27295   0.27747   0.27982   0.29031
  Beta virt. eigenvalues --    0.29523   0.29740   0.30430   0.30624   0.30976
  Beta virt. eigenvalues --    0.31484   0.31681   0.32786   0.33268   0.33334
  Beta virt. eigenvalues --    0.33531   0.34297   0.34449   0.35087   0.35713
  Beta virt. eigenvalues --    0.35905   0.36638   0.37838   0.38254   0.39475
  Beta virt. eigenvalues --    0.39906   0.41251   0.41494   0.42675   0.43681
  Beta virt. eigenvalues --    0.44273   0.45308   0.46083   0.46889   0.47086
  Beta virt. eigenvalues --    0.48933   0.50051   0.52477   0.53075   0.53254
  Beta virt. eigenvalues --    0.53661   0.54956   0.56085   0.56455   0.58478
  Beta virt. eigenvalues --    0.59274   0.59551   0.59930   0.60561   0.60816
  Beta virt. eigenvalues --    0.61085   0.62926   0.63626   0.64510   0.64591
  Beta virt. eigenvalues --    0.64684   0.65179   0.65849   0.66226   0.67551
  Beta virt. eigenvalues --    0.68188   0.69231   0.69557   0.71666   0.72508
  Beta virt. eigenvalues --    0.74273   0.74900   0.75419   0.75795   0.76889
  Beta virt. eigenvalues --    0.77855   0.80236   0.82237   0.83590   0.84272
  Beta virt. eigenvalues --    0.86290   0.87943   0.88003   0.89150   0.89742
  Beta virt. eigenvalues --    0.90603   0.91351   0.91981   0.94094   0.96132
  Beta virt. eigenvalues --    0.96818   0.97232   0.98761   1.00711   1.01381
  Beta virt. eigenvalues --    1.02328   1.02923   1.03768   1.04108   1.04470
  Beta virt. eigenvalues --    1.04830   1.05545   1.07995   1.09227   1.09295
  Beta virt. eigenvalues --    1.10171   1.10642   1.11705   1.12956   1.14535
  Beta virt. eigenvalues --    1.16317   1.19777   1.21349   1.22783   1.23407
  Beta virt. eigenvalues --    1.24346   1.25103   1.26904   1.28072   1.28587
  Beta virt. eigenvalues --    1.31105   1.34632   1.38356   1.38829   1.41973
  Beta virt. eigenvalues --    1.42602   1.42665   1.45308   1.47334   1.47697
  Beta virt. eigenvalues --    1.48642   1.49166   1.51408   1.52593   1.53124
  Beta virt. eigenvalues --    1.53809   1.54628   1.56316   1.56671   1.56958
  Beta virt. eigenvalues --    1.57264   1.59694   1.60250   1.64620   1.65733
  Beta virt. eigenvalues --    1.68059   1.68950   1.69166   1.69341   1.70133
  Beta virt. eigenvalues --    1.71483   1.73540   1.73575   1.75260   1.76289
  Beta virt. eigenvalues --    1.78424   1.79003   1.79648   1.82117   1.85873
  Beta virt. eigenvalues --    1.87163   1.87840   1.87915   1.88720   1.89083
  Beta virt. eigenvalues --    1.90644   1.92419   1.93090   1.96843   1.97388
  Beta virt. eigenvalues --    1.97983   2.01023   2.03211   2.05256   2.07054
  Beta virt. eigenvalues --    2.07584   2.08353   2.10098   2.10567   2.12630
  Beta virt. eigenvalues --    2.13265   2.15542   2.16370   2.19797   2.20494
  Beta virt. eigenvalues --    2.21400   2.25800   2.30811   2.31643   2.33479
  Beta virt. eigenvalues --    2.39615   2.43313   2.44650   2.45457   2.45601
  Beta virt. eigenvalues --    2.45697   2.47458   2.50361   2.52428   2.53680
  Beta virt. eigenvalues --    2.55327   2.57049   2.58633   2.60484   2.63820
  Beta virt. eigenvalues --    2.64013   2.66585   2.67909   2.69161   2.69729
  Beta virt. eigenvalues --    2.70511   2.71174   2.72446   2.74603   2.77467
  Beta virt. eigenvalues --    2.79684   2.80015   2.81543   2.83241   2.83316
  Beta virt. eigenvalues --    2.84733   2.87640   2.88330   2.93346   2.93582
  Beta virt. eigenvalues --    2.93999   2.98226   2.99817   3.04434   3.05391
  Beta virt. eigenvalues --    3.05525   3.05698   3.08835   3.11449   3.13476
  Beta virt. eigenvalues --    3.14349   3.18114   3.20010   3.22175   3.22378
  Beta virt. eigenvalues --    3.23664   3.25024   3.26153   3.34086   3.34622
  Beta virt. eigenvalues --    3.36667   3.39170   3.41149   3.45732   3.47278
  Beta virt. eigenvalues --    3.53115   3.53673   3.59398   3.64516   3.65052
  Beta virt. eigenvalues --    3.69888   3.75888   3.76038   3.76249   3.81113
  Beta virt. eigenvalues --    3.84939   3.87066   4.04407   4.07966   4.08059
  Beta virt. eigenvalues --    4.11780   4.13343   4.18054   4.24783   4.28516
  Beta virt. eigenvalues --    4.36848   4.69373   4.84614   5.01691   5.03719
  Beta virt. eigenvalues --    5.05120   5.07638   5.22280   5.24655   5.43188
  Beta virt. eigenvalues --    5.46439   5.72244   5.79048   5.81567   5.85939
  Beta virt. eigenvalues --   23.55985  23.74677  23.85573  23.89438  23.90585
  Beta virt. eigenvalues --   23.90732  23.92434  23.92531  23.99146  24.00288
  Beta virt. eigenvalues --   24.15361  24.25166  49.96136  50.01126  50.02491
  Beta virt. eigenvalues --   50.06625
          Condensed to atoms (all electrons):
               1          2          3          4          5          6
     1  C    5.242318   0.142449   0.550905  -0.776217  -0.443300  -0.084300
     2  O    0.142449   8.182663   0.225808   0.408031   0.138702   0.054292
     3  C    0.550905   0.225808  23.503542  -1.416510  -4.513646   5.550883
     4  C   -0.776217   0.408031  -1.416510  16.892940   5.354558  -4.536819
     5  C   -0.443300   0.138702  -4.513646   5.354558  16.770277  -1.333121
     6  C   -0.084300   0.054292   5.550883  -4.536819  -1.333121  23.486713
     7  O   -0.000588   0.000264   0.053961   0.137546   0.404313   0.224685
     8  C   -0.002627  -0.000586  -0.080105  -0.442698  -0.767688   0.553103
     9  C    0.037666  -0.055783  -7.364442  -3.331915  -4.149381  -8.255342
    10  C   -0.058586  -0.009572  -0.206287  -0.470153  -1.000267  -0.557814
    11  O    0.000048  -0.000000   0.032850  -0.009478  -0.014439   0.074493
    12  C    0.016582   0.001181  -0.790678  -0.590952  -0.381267  -0.417838
    13  C   -0.008219  -0.028868  -0.556751  -0.419270  -0.603498  -0.879054
    14  C    0.043580  -0.245342  -0.400846  -0.959242  -0.458773  -0.112725
    15  O    0.007782  -0.003103   0.068420  -0.014946  -0.008689   0.031503
    16  C    0.428329  -0.530498  -8.341534  -4.267128  -3.431741  -7.499887
    17  H    0.410863  -0.096180   0.064813  -0.079996  -0.037564  -0.021498
    18  H    0.394210  -0.024839  -0.069425   0.099563   0.026984   0.015732
    19  H    0.393730  -0.022971  -0.071628   0.091828   0.029076   0.015656
    20  H   -0.002067  -0.034699  -0.123114   0.442668   0.033751  -0.026275
    21  H    0.004902  -0.000890  -0.022795   0.033621   0.438730  -0.121818
    22  H   -0.000160  -0.000052  -0.021003  -0.036804  -0.078127   0.064995
    23  H    0.000124   0.000107   0.015453   0.028879   0.102360  -0.073551
    24  H    0.000149   0.000125   0.014254   0.024599   0.084735  -0.065163
    25  H    0.000128   0.000020  -0.027427  -0.006686  -0.007035  -0.052078
    26  H   -0.000118  -0.000122  -0.054402  -0.007529  -0.006845  -0.028271
               7          8          9         10         11         12
     1  C   -0.000588  -0.002627   0.037666  -0.058586   0.000048   0.016582
     2  O    0.000264  -0.000586  -0.055783  -0.009572  -0.000000   0.001181
     3  C    0.053961  -0.080105  -7.364442  -0.206287   0.032850  -0.790678
     4  C    0.137546  -0.442698  -3.331915  -0.470153  -0.009478  -0.590952
     5  C    0.404313  -0.767688  -4.149381  -1.000267  -0.014439  -0.381267
     6  C    0.224685   0.553103  -8.255342  -0.557814   0.074493  -0.417838
     7  O    8.182821   0.142747  -0.523985  -0.245334  -0.003051  -0.028094
     8  C    0.142747   5.242803   0.414771   0.044792   0.007997  -0.009089
     9  C   -0.523985   0.414771  24.321935  -3.480486  -0.103237  -0.235574
    10  C   -0.245334   0.044792  -3.480486  14.006478   0.436981  -1.768380
    11  O   -0.003051   0.007997  -0.103237   0.436981   8.105996  -0.191524
    12  C   -0.028094  -0.009089  -0.235574  -1.768380  -0.191524   9.992957
    13  C    0.000872   0.017076   0.741936  -1.345369  -0.002503   0.715346
    14  C   -0.009184  -0.059503  -0.403458   1.171858  -0.031966  -1.346214
    15  O    0.000003   0.000057  -0.047062  -0.031583   0.000456  -0.002098
    16  C   -0.057016   0.034150   8.327244  -0.303933  -0.047823   0.657045
    17  H   -0.000052  -0.000164   0.020940  -0.003750   0.000009   0.001925
    18  H    0.000109   0.000127  -0.023824   0.000793  -0.000002  -0.001588
    19  H    0.000125   0.000166  -0.020866   0.001808  -0.000001  -0.001636
    20  H   -0.000889   0.004806   0.032763  -0.006588  -0.000399   0.002441
    21  H   -0.034592  -0.002408   0.021634  -0.021721   0.001081  -0.005536
    22  H   -0.096132   0.410721   0.075637   0.021116  -0.002592  -0.006029
    23  H   -0.024520   0.393438  -0.053961  -0.012075  -0.000211   0.001554
    24  H   -0.023653   0.395258  -0.043034  -0.010116  -0.000278   0.001069
    25  H   -0.000115  -0.000134  -0.007142  -0.081075  -0.016017   0.471908
    26  H    0.000015   0.000130   0.055952  -0.009558   0.001283  -0.004997
              13         14         15         16         17         18
     1  C   -0.008219   0.043580   0.007782   0.428329   0.410863   0.394210
     2  O   -0.028868  -0.245342  -0.003103  -0.530498  -0.096180  -0.024839
     3  C   -0.556751  -0.400846   0.068420  -8.341534   0.064813  -0.069425
     4  C   -0.419270  -0.959242  -0.014946  -4.267128  -0.079996   0.099563
     5  C   -0.603498  -0.458773  -0.008689  -3.431741  -0.037564   0.026984
     6  C   -0.879054  -0.112725   0.031503  -7.499887  -0.021498   0.015732
     7  O    0.000872  -0.009184   0.000003  -0.057016  -0.000052   0.000109
     8  C    0.017076  -0.059503   0.000057   0.034150  -0.000164   0.000127
     9  C    0.741936  -0.403458  -0.047062   8.327244   0.020940  -0.023824
    10  C   -1.345369   1.171858  -0.031583  -0.303933  -0.003750   0.000793
    11  O   -0.002503  -0.031966   0.000456  -0.047823   0.000009  -0.000002
    12  C    0.715346  -1.346214  -0.002098   0.657045   0.001925  -0.001588
    13  C   10.129446  -1.895334  -0.193528  -0.045349  -0.005755   0.001464
    14  C   -1.895334  14.158858   0.440595  -3.719929   0.020996  -0.010946
    15  O   -0.193528   0.440595   8.104611  -0.096409  -0.002599  -0.000269
    16  C   -0.045349  -3.719929  -0.096409  24.789821   0.078363  -0.054942
    17  H   -0.005755   0.020996  -0.002599   0.078363   0.496109  -0.028158
    18  H    0.001464  -0.010946  -0.000269  -0.054942  -0.028158   0.602868
    19  H    0.000814  -0.011361  -0.000253  -0.047013  -0.028594  -0.063888
    20  H   -0.005690  -0.021291   0.001107   0.022290   0.006248  -0.012922
    21  H    0.002856  -0.006867  -0.000393   0.032990   0.000129   0.001496
    22  H    0.001981  -0.003817   0.000010   0.020659  -0.000007   0.000001
    23  H   -0.001711   0.000963  -0.000003  -0.023280   0.000001  -0.000086
    24  H   -0.001644   0.001702  -0.000002  -0.020679   0.000003   0.000019
    25  H   -0.004123  -0.008931   0.001282   0.054789   0.000016  -0.000011
    26  H    0.476440  -0.084705  -0.016145  -0.004247   0.000069  -0.000000
              19         20         21         22         23         24
     1  C    0.393730  -0.002067   0.004902  -0.000160   0.000124   0.000149
     2  O   -0.022971  -0.034699  -0.000890  -0.000052   0.000107   0.000125
     3  C   -0.071628  -0.123114  -0.022795  -0.021003   0.015453   0.014254
     4  C    0.091828   0.442668   0.033621  -0.036804   0.028879   0.024599
     5  C    0.029076   0.033751   0.438730  -0.078127   0.102360   0.084735
     6  C    0.015656  -0.026275  -0.121818   0.064995  -0.073551  -0.065163
     7  O    0.000125  -0.000889  -0.034592  -0.096132  -0.024520  -0.023653
     8  C    0.000166   0.004806  -0.002408   0.410721   0.393438   0.395258
     9  C   -0.020866   0.032763   0.021634   0.075637  -0.053961  -0.043034
    10  C    0.001808  -0.006588  -0.021721   0.021116  -0.012075  -0.010116
    11  O   -0.000001  -0.000399   0.001081  -0.002592  -0.000211  -0.000278
    12  C   -0.001636   0.002441  -0.005536  -0.006029   0.001554   0.001069
    13  C    0.000814  -0.005690   0.002856   0.001981  -0.001711  -0.001644
    14  C   -0.011361  -0.021291  -0.006867  -0.003817   0.000963   0.001702
    15  O   -0.000253   0.001107  -0.000393   0.000010  -0.000003  -0.000002
    16  C   -0.047013   0.022290   0.032990   0.020659  -0.023280  -0.020679
    17  H   -0.028594   0.006248   0.000129  -0.000007   0.000001   0.000003
    18  H   -0.063888  -0.012922   0.001496   0.000001  -0.000086   0.000019
    19  H    0.600599  -0.012190   0.001351   0.000004   0.000020  -0.000090
    20  H   -0.012190   0.528821  -0.014896   0.000129   0.001488   0.001384
    21  H    0.001351  -0.014896   0.528846   0.006198  -0.012919  -0.012149
    22  H    0.000004   0.000129   0.006198   0.496037  -0.028268  -0.028298
    23  H    0.000020   0.001488  -0.012919  -0.028268   0.602992  -0.064016
    24  H   -0.000090   0.001384  -0.012149  -0.028298  -0.064016   0.600232
    25  H   -0.000013   0.000033  -0.000101   0.000064   0.000005  -0.000029
    26  H   -0.000032  -0.000096   0.000035   0.000015  -0.000011  -0.000013
              25         26
     1  C    0.000128  -0.000118
     2  O    0.000020  -0.000122
     3  C   -0.027427  -0.054402
     4  C   -0.006686  -0.007529
     5  C   -0.007035  -0.006845
     6  C   -0.052078  -0.028271
     7  O   -0.000115   0.000015
     8  C   -0.000134   0.000130
     9  C   -0.007142   0.055952
    10  C   -0.081075  -0.009558
    11  O   -0.016017   0.001283
    12  C    0.471908  -0.004997
    13  C   -0.004123   0.476440
    14  C   -0.008931  -0.084705
    15  O    0.001282  -0.016145
    16  C    0.054789  -0.004247
    17  H    0.000016   0.000069
    18  H   -0.000011  -0.000000
    19  H   -0.000013  -0.000032
    20  H    0.000033  -0.000096
    21  H   -0.000101   0.000035
    22  H    0.000064   0.000015
    23  H    0.000005  -0.000011
    24  H   -0.000029  -0.000013
    25  H    0.488867  -0.016841
    26  H   -0.016841   0.489391
          Atomic-Atomic Spin Densities.
               1          2          3          4          5          6
     1  C   -0.000000  -0.000000  -0.000000  -0.000000   0.000000  -0.000000
     2  O   -0.000000  -0.000000  -0.000000  -0.000000  -0.000000  -0.000000
     3  C   -0.000000  -0.000000  -0.000000  -0.000000   0.000000  -0.000000
     4  C   -0.000000  -0.000000  -0.000000   0.000000   0.000000   0.000000
     5  C    0.000000  -0.000000   0.000000   0.000000  -0.000000  -0.000000
     6  C   -0.000000  -0.000000  -0.000000   0.000000  -0.000000  -0.000000
     7  O    0.000000   0.000000  -0.000000  -0.000000  -0.000000  -0.000000
     8  C    0.000000  -0.000000   0.000000   0.000000  -0.000000  -0.000000
     9  C    0.000000   0.000000   0.000000   0.000000  -0.000000   0.000000
    10  C    0.000000   0.000000   0.000000   0.000000   0.000000   0.000000
    11  O   -0.000000  -0.000000  -0.000000  -0.000000  -0.000000  -0.000000
    12  C    0.000000   0.000000  -0.000000  -0.000000  -0.000000  -0.000000
    13  C    0.000000   0.000000  -0.000000  -0.000000  -0.000000   0.000000
    14  C   -0.000000   0.000000  -0.000000   0.000000   0.000000  -0.000000
    15  O   -0.000000  -0.000000  -0.000000  -0.000000  -0.000000  -0.000000
    16  C    0.000000   0.000000   0.000000  -0.000000  -0.000000   0.000000
    17  H    0.000000   0.000000  -0.000000  -0.000000   0.000000   0.000000
    18  H   -0.000000  -0.000000  -0.000000   0.000000   0.000000  -0.000000
    19  H   -0.000000  -0.000000  -0.000000   0.000000   0.000000  -0.000000
    20  H    0.000000   0.000000   0.000000   0.000000  -0.000000   0.000000
    21  H    0.000000   0.000000   0.000000  -0.000000  -0.000000   0.000000
    22  H    0.000000  -0.000000   0.000000   0.000000   0.000000   0.000000
    23  H   -0.000000   0.000000  -0.000000  -0.000000  -0.000000  -0.000000
    24  H   -0.000000   0.000000  -0.000000  -0.000000  -0.000000  -0.000000
    25  H    0.000000   0.000000   0.000000  -0.000000  -0.000000   0.000000
    26  H    0.000000   0.000000   0.000000  -0.000000  -0.000000   0.000000
               7          8          9         10         11         12
     1  C    0.000000   0.000000   0.000000   0.000000  -0.000000   0.000000
     2  O    0.000000  -0.000000   0.000000   0.000000  -0.000000   0.000000
     3  C   -0.000000   0.000000   0.000000   0.000000  -0.000000  -0.000000
     4  C   -0.000000   0.000000   0.000000   0.000000  -0.000000  -0.000000
     5  C   -0.000000  -0.000000  -0.000000   0.000000  -0.000000  -0.000000
     6  C   -0.000000  -0.000000   0.000000   0.000000  -0.000000  -0.000000
     7  O   -0.000000  -0.000000   0.000000   0.000000   0.000000   0.000000
     8  C   -0.000000   0.000000  -0.000000  -0.000000   0.000000   0.000000
     9  C    0.000000  -0.000000  -0.000000  -0.000000   0.000000   0.000000
    10  C    0.000000  -0.000000  -0.000000  -0.000000   0.000000  -0.000000
    11  O    0.000000   0.000000   0.000000   0.000000  -0.000000   0.000000
    12  C    0.000000   0.000000   0.000000  -0.000000   0.000000   0.000000
    13  C   -0.000000   0.000000   0.000000  -0.000000   0.000000   0.000000
    14  C    0.000000   0.000000  -0.000000   0.000000  -0.000000  -0.000000
    15  O   -0.000000   0.000000   0.000000   0.000000   0.000000   0.000000
    16  C    0.000000  -0.000000  -0.000000  -0.000000   0.000000   0.000000
    17  H    0.000000   0.000000   0.000000   0.000000  -0.000000   0.000000
    18  H   -0.000000  -0.000000   0.000000   0.000000  -0.000000  -0.000000
    19  H   -0.000000  -0.000000   0.000000   0.000000  -0.000000  -0.000000
    20  H    0.000000  -0.000000  -0.000000  -0.000000   0.000000   0.000000
    21  H    0.000000   0.000000  -0.000000   0.000000   0.000000   0.000000
    22  H    0.000000  -0.000000  -0.000000  -0.000000   0.000000   0.000000
    23  H   -0.000000   0.000000   0.000000   0.000000  -0.000000  -0.000000
    24  H   -0.000000   0.000000   0.000000   0.000000  -0.000000  -0.000000
    25  H   -0.000000   0.000000   0.000000  -0.000000   0.000000   0.000000
    26  H   -0.000000   0.000000  -0.000000  -0.000000   0.000000  -0.000000
              13         14         15         16         17         18
     1  C    0.000000  -0.000000  -0.000000   0.000000   0.000000  -0.000000
     2  O    0.000000   0.000000  -0.000000   0.000000   0.000000  -0.000000
     3  C   -0.000000  -0.000000  -0.000000   0.000000  -0.000000  -0.000000
     4  C   -0.000000   0.000000  -0.000000  -0.000000  -0.000000   0.000000
     5  C   -0.000000   0.000000  -0.000000  -0.000000   0.000000   0.000000
     6  C    0.000000  -0.000000  -0.000000   0.000000   0.000000  -0.000000
     7  O   -0.000000   0.000000  -0.000000   0.000000   0.000000  -0.000000
     8  C    0.000000   0.000000   0.000000  -0.000000   0.000000  -0.000000
     9  C    0.000000  -0.000000   0.000000  -0.000000   0.000000   0.000000
    10  C   -0.000000   0.000000   0.000000  -0.000000   0.000000   0.000000
    11  O    0.000000  -0.000000   0.000000   0.000000  -0.000000  -0.000000
    12  C    0.000000  -0.000000   0.000000   0.000000   0.000000  -0.000000
    13  C    0.000000  -0.000000   0.000000   0.000000   0.000000  -0.000000
    14  C   -0.000000   0.000000  -0.000000  -0.000000  -0.000000  -0.000000
    15  O    0.000000  -0.000000  -0.000000   0.000000   0.000000  -0.000000
    16  C    0.000000  -0.000000   0.000000  -0.000000   0.000000   0.000000
    17  H    0.000000  -0.000000   0.000000   0.000000  -0.000000   0.000000
    18  H   -0.000000  -0.000000  -0.000000   0.000000   0.000000  -0.000000
    19  H   -0.000000   0.000000  -0.000000   0.000000   0.000000  -0.000000
    20  H    0.000000   0.000000   0.000000  -0.000000  -0.000000   0.000000
    21  H   -0.000000  -0.000000   0.000000  -0.000000  -0.000000  -0.000000
    22  H   -0.000000   0.000000  -0.000000  -0.000000   0.000000   0.000000
    23  H    0.000000  -0.000000  -0.000000   0.000000  -0.000000  -0.000000
    24  H    0.000000  -0.000000  -0.000000   0.000000  -0.000000  -0.000000
    25  H    0.000000  -0.000000  -0.000000  -0.000000   0.000000   0.000000
    26  H    0.000000   0.000000   0.000000   0.000000  -0.000000   0.000000
              19         20         21         22         23         24
     1  C   -0.000000   0.000000   0.000000   0.000000  -0.000000  -0.000000
     2  O   -0.000000   0.000000   0.000000  -0.000000   0.000000   0.000000
     3  C   -0.000000   0.000000   0.000000   0.000000  -0.000000  -0.000000
     4  C    0.000000   0.000000  -0.000000   0.000000  -0.000000  -0.000000
     5  C    0.000000  -0.000000  -0.000000   0.000000  -0.000000  -0.000000
     6  C   -0.000000   0.000000   0.000000   0.000000  -0.000000  -0.000000
     7  O   -0.000000   0.000000   0.000000   0.000000  -0.000000  -0.000000
     8  C   -0.000000  -0.000000   0.000000  -0.000000   0.000000   0.000000
     9  C    0.000000  -0.000000  -0.000000  -0.000000   0.000000   0.000000
    10  C    0.000000  -0.000000   0.000000  -0.000000   0.000000   0.000000
    11  O   -0.000000   0.000000   0.000000   0.000000  -0.000000  -0.000000
    12  C   -0.000000   0.000000   0.000000   0.000000  -0.000000  -0.000000
    13  C   -0.000000   0.000000  -0.000000  -0.000000   0.000000   0.000000
    14  C    0.000000   0.000000  -0.000000   0.000000  -0.000000  -0.000000
    15  O   -0.000000   0.000000   0.000000  -0.000000  -0.000000  -0.000000
    16  C    0.000000  -0.000000  -0.000000  -0.000000   0.000000   0.000000
    17  H    0.000000  -0.000000  -0.000000   0.000000  -0.000000  -0.000000
    18  H   -0.000000   0.000000  -0.000000   0.000000  -0.000000  -0.000000
    19  H   -0.000000   0.000000   0.000000   0.000000  -0.000000  -0.000000
    20  H    0.000000   0.000000  -0.000000  -0.000000   0.000000   0.000000
    21  H    0.000000  -0.000000  -0.000000  -0.000000   0.000000   0.000000
    22  H    0.000000  -0.000000  -0.000000  -0.000000   0.000000   0.000000
    23  H   -0.000000   0.000000   0.000000   0.000000  -0.000000  -0.000000
    24  H   -0.000000   0.000000   0.000000   0.000000  -0.000000  -0.000000
    25  H    0.000000  -0.000000   0.000000  -0.000000   0.000000   0.000000
    26  H    0.000000  -0.000000  -0.000000  -0.000000   0.000000   0.000000
              25         26
     1  C    0.000000   0.000000
     2  O    0.000000   0.000000
     3  C    0.000000   0.000000
     4  C   -0.000000  -0.000000
     5  C   -0.000000  -0.000000
     6  C    0.000000   0.000000
     7  O   -0.000000  -0.000000
     8  C    0.000000   0.000000
     9  C    0.000000  -0.000000
    10  C   -0.000000  -0.000000
    11  O    0.000000   0.000000
    12  C    0.000000  -0.000000
    13  C    0.000000   0.000000
    14  C   -0.000000   0.000000
    15  O   -0.000000   0.000000
    16  C   -0.000000   0.000000
    17  H    0.000000  -0.000000
    18  H    0.000000   0.000000
    19  H    0.000000   0.000000
    20  H   -0.000000  -0.000000
    21  H    0.000000  -0.000000
    22  H   -0.000000  -0.000000
    23  H    0.000000   0.000000
    24  H    0.000000   0.000000
    25  H   -0.000000   0.000000
    26  H    0.000000   0.000000
 Mulliken charges and spin densities:
               1          2
     1  C   -0.297584   0.000000
     2  O   -0.100137  -0.000000
     3  C   -0.020297   0.000000
     4  C   -0.147888  -0.000000
     5  C   -0.148109  -0.000000
     6  C   -0.006501   0.000000
     7  O   -0.100255   0.000000
     8  C   -0.297140  -0.000000
     9  C    0.049015   0.000000
    10  C   -0.061182  -0.000000
    11  O   -0.237674   0.000000
    12  C   -0.080513   0.000000
    13  C   -0.091562   0.000000
    14  C   -0.048118  -0.000000
    15  O   -0.238747   0.000000
    16  C    0.045727  -0.000000
    17  H    0.203832   0.000000
    18  H    0.147533  -0.000000
    19  H    0.145360  -0.000000
    20  H    0.183190  -0.000000
    21  H    0.183218  -0.000000
    22  H    0.203722   0.000000
    23  H    0.147228  -0.000000
    24  H    0.145633  -0.000000
    25  H    0.210648  -0.000000
    26  H    0.210601   0.000000
 Sum of Mulliken charges =  -0.00000   0.00000
 Mulliken charges and spin densities with hydrogens summed into heavy atoms:
               1          2
     1  C    0.199141   0.000000
[...]
 6,-0.00014745,0.00020102,-0.00004218,0.00011896,-0.00004750,0.00004289
 ,-0.00001434,0.00089896,-0.00001768,-0.00017147,-0.00009076,-0.0002911
 4,0.00002742,0.00017496,0.00011932,-0.00001483,0.00001621,-0.00002938,
 0.00003362,-0.00002781,-0.00001074,-0.00004986,0.00024263,-0.00014494,
 0.00010150,-0.00015961,-0.00010150,0.00001816,-0.00070871,-0.00056552,
 -0.00033131,-0.00950672,0.01111430,-0.02743359,0.00401388,-0.00348290,
 0.00957163,0.08971350,0.03322703,-0.07994365,0.07279723,0.00331480,-0.
 03194605,0.02979841,0.00791809,0.00245909,0.00057361,-0.00082234,0.000
 93047,-0.00030750,-0.00027197,-0.00010275,-0.00016529,0.00026978,0.000
 27075,0.00007870,-0.00061068,-0.00004978,0.00005430,0.00017510,-0.0001
 7866,0.00000710,0.00020538,0.00003383,-0.00031448,0.00013942,-0.000007
 32,-0.00000034,-0.00019002,-0.00008731,0.00002621,-0.00005164,-0.00001
 106,0.00001040,-0.00008165,-0.00002028,0.00008929,-0.00015400,0.000739
 67,0.00018449,0.00029688,-0.00064243,-0.00023938,-0.00055210,-0.001300
 17,-0.00045613,0.00140078,0.00128645,0.00041107,-0.00602822,0.00887074
 ,-0.01290637,-0.03758083,0.09940657,-0.08182881,0.07634029,-0.23130506
 ,0.00454486,0.00758330,0.00367534,-0.00283144,-0.00071723,0.00078508,-
 0.00009135,0.00109596,0.00000383,0.00008775,-0.00059104,0.00001518,-0.
 00031918,0.00013472,-0.00010013,0.00033960,-0.00006131,0.00003305,-0.0
 0008760,0.00010205,-0.00002005,0.00005599,-0.00022631,0.00004016,-0.00
 005569,0.00014967,-0.00000057,0.00008163,-0.00001400,-0.00000265,0.000
 04808,-0.00002835,0.00000600,0.00005194,-0.00001429,-0.00002915,0.0000
 0744,-0.00035998,-0.00000109,-0.00002074,0.00014131,0.00007979,0.00031
 217,0.00045453,-0.00023435,0.00064208,-0.00199678,0.00257903,-0.010968
 56,0.00879335,-0.02017921,0.08946719,-0.09007989,0.24487075,-0.0027685
 8,0.00117465,0.00007550,0.00043824,-0.00233350,0.00004925,0.01160867,0
 .02153602,-0.00177956,-0.07058434,-0.05796743,0.00543274,-0.00387440,-
 0.03065263,0.00234183,-0.00484223,-0.00034795,0.00045642,-0.00074701,-
 0.00160102,0.00013497,0.00041857,-0.00026091,0.00000304,-0.00117326,0.
 00006454,0.00002220,-0.00000195,0.00011846,-0.00002696,-0.00000599,-0.
 00004184,0.00000222,-0.00004993,-0.00002035,0.00001373,-0.00035480,0.0
 0029083,0.00000220,0.00107925,0.00098912,-0.00009677,-0.00014298,-0.00
 022128,0.00001522,-0.00337261,0.00289789,0.00005262,-0.00001073,0.0001
 9293,-0.00004401,-0.00159743,-0.00058722,-0.00029805,-0.00143092,-0.00
 049487,0.00048169,0.07635358,-0.00194004,-0.00065676,0.00015709,-0.000
 96381,0.00003912,-0.00013957,-0.00745821,-0.01641118,0.00170392,-0.057
 04986,-0.32758904,0.02239549,-0.00048304,-0.00447785,0.00050810,-0.000
 77555,0.00235555,0.00037789,-0.00036529,-0.00043154,0.00003578,0.00021
 159,-0.00018313,0.00000525,0.00064748,0.00072494,-0.00014342,0.0000243
 5,-0.00020288,-0.00003511,-0.00001691,-0.00000312,0.00000686,-0.000003
 82,0.00002463,0.00003084,0.00037167,-0.00020097,-0.00000973,-0.0015055
 8,-0.00045451,0.00005586,0.00045206,0.00016845,-0.00001096,0.00385344,
 -0.00154419,0.00029504,-0.00036543,0.00088271,-0.00008889,-0.00075049,
 0.00028057,0.00068648,-0.00062196,0.00024135,-0.00069057,0.06688287,0.
 34648524,0.00025798,-0.00000231,0.00017246,-0.00002038,-0.00010038,-0.
 00267027,0.00015430,0.00074107,0.00410674,0.00544156,0.02240983,-0.034
 20468,0.00021711,0.00158330,0.00258242,0.00050747,0.00040133,0.0073815
 2,0.00005230,0.00009039,-0.00009210,-0.00002903,0.00001981,-0.00005004
 ,-0.00000798,-0.00006979,-0.00081432,-0.00003753,-0.00009181,-0.000614
 45,0.00002476,0.00001213,-0.00001423,0.00001631,0.00001846,0.00040669,
 0.00000545,0.00001483,-0.00004749,0.00005645,-0.00007692,-0.00006943,-
 0.00004709,0.00001645,0.00002747,0.00000040,0.00030191,0.00441132,-0.0
 0000005,-0.00010761,-0.00051457,-0.00120149,-0.00045304,-0.00008273,0.
 00142785,0.00044106,-0.00023104,-0.00662445,-0.02477550,0.02457975,0.0
 0023101,0.00051447,-0.00005036,-0.00154387,0.00092694,-0.00001001,-0.0
 0339676,-0.00311867,0.00062143,-0.01801119,0.02245601,-0.00078604,-0.1
 9326907,0.14193734,-0.00395173,0.01022875,-0.00518216,0.00014651,-0.00
 114930,0.00159006,-0.00016678,-0.00252701,-0.00232564,0.00020415,0.000
 13719,-0.00183363,0.00029584,0.00043163,-0.00045401,0.00001424,0.00004
 675,0.00014808,-0.00001320,-0.00001946,-0.00017710,0.00000550,-0.00004
 089,-0.00001806,0.00001911,0.00001286,0.00000269,-0.00002409,-0.000034
 41,0.00002404,-0.00000418,-0.00033418,-0.00071601,0.00002639,-0.000006
 17,-0.00006621,0.00000751,-0.00000086,-0.00006983,-0.00004203,0.000008
 08,-0.00006216,0.00005303,0.00111927,-0.00007660,-0.00019217,0.2110421
 3,0.00004233,0.00000164,-0.00000295,-0.00031023,0.00035517,-0.00002135
 ,-0.00269367,0.00092732,0.00055511,-0.00771647,0.00950043,-0.00018339,
 0.14099639,-0.20631574,0.00681258,0.02381781,-0.01499167,0.00047916,0.
 00022664,0.00159738,-0.00030142,0.00080792,-0.00090724,0.00004828,-0.0
 0278376,-0.00500929,0.00078319,0.00204472,0.00018723,-0.00011731,-0.00
 052601,-0.00001729,0.00003754,-0.00025998,-0.00053591,0.00003049,-0.00
 003312,0.00001628,0.00003407,0.00010197,-0.00021448,-0.00003825,-0.000
 00069,0.00002217,0.00000405,-0.00130571,-0.00010742,-0.00002101,0.0000
 0815,-0.00002636,0.00000494,-0.00002717,-0.00000261,-0.00002167,-0.000
 01543,0.00000191,0.00002496,0.00011267,0.00099863,-0.00036520,-0.15165
 161,0.21327659,-0.00001574,-0.00002242,-0.00004726,0.00006644,-0.00005
 978,-0.00008246,0.00055288,0.00059217,0.00736429,0.00134344,-0.0012763
 4,0.00273852,-0.00393812,0.00673145,-0.03277935,-0.00183904,0.00162467
 ,0.00412781,-0.00010038,-0.00035956,-0.00264921,0.00004001,0.00013902,
 0.00017635,0.00035908,0.00072131,0.00436768,-0.00012046,-0.00005448,-0
 .00006392,0.00004378,0.00002350,0.00002368,-0.00000744,0.00004273,-0.0
 0004809,0.00002300,0.00002007,0.00040621,0.00001409,-0.00007140,-0.000
 61749,-0.00002602,-0.00000676,-0.00001102,0.00003464,0.00000264,-0.000
 82068,0.00000216,0.00000704,0.00005462,-0.00007208,-0.00000301,0.00002
 023,0.00007638,0.00001535,0.00000816,-0.00019983,-0.00035663,-0.004183
 01,0.00364543,-0.00760853,0.02300484,0.00003136,0.00013028,-0.00001128
 ,-0.00028873,-0.00017050,0.00002218,0.00022312,0.00019067,-0.00002585,
 0.00004579,-0.00017227,0.00001778,0.00011685,0.00044089,-0.00002405,0.
 00027675,0.00380883,-0.00030439,-0.03432599,-0.00451413,0.00132390,-0.
 23526825,-0.12225374,0.01380249,-0.00096358,-0.00023867,0.00004192,-0.
 00047771,-0.00067935,0.00007836,0.00048278,0.00028380,-0.00004873,0.00
 003379,0.00004571,-0.00001319,-0.00000161,0.00002131,0.00000255,0.0001
 5870,-0.00027703,0.00001130,-0.00022291,0.00007562,-0.00000340,-0.0002
 6353,0.00033453,0.00000604,-0.00001199,-0.00000459,0.00000081,0.000007
 58,-0.00002003,-0.00000386,0.00000787,-0.00001959,0.00000641,-0.000038
 03,-0.00001473,0.00000456,0.00016247,-0.00008457,-0.00001229,0.2686357
 4,0.00001106,-0.00001247,-0.00000019,0.00001773,0.00006514,-0.00000703
 ,-0.00014551,-0.00000175,0.00001244,0.00001726,0.00053561,-0.00002944,
 0.00005389,-0.00144916,0.00011278,0.00324727,-0.00293388,0.00019023,0.
 03280727,0.00993608,-0.00157507,-0.13572648,-0.12968008,0.00938279,0.0
 0114716,0.00048187,-0.00007102,0.00032402,0.00033648,-0.00003654,-0.00
 040125,0.00004070,-0.00000588,-0.00006316,-0.00002868,0.00001317,-0.00
 000160,0.00001111,0.00000666,0.00013617,0.00003283,-0.00001567,-0.0000
 1307,-0.00002661,0.00000422,-0.00007396,-0.00031044,0.00001578,-0.0000
 0497,0.00000361,-0.00000027,0.00000046,0.00000200,0.00000720,-0.000000
 43,0.00000079,-0.00000757,0.00005960,0.00000503,0.00000020,-0.00064268
 ,0.00071379,-0.00006147,0.12643798,0.13778366,-0.00000152,-0.00000391,
 -0.00001009,0.00000576,-0.00000112,-0.00002359,0.00000572,-0.00000763,
 0.00002621,-0.00000524,-0.00001967,0.00014700,0.00001274,0.00011636,0.
 00037489,-0.00020964,0.00013861,0.00054910,-0.00140740,-0.00055241,0.0
 0066242,0.01477749,0.00901392,-0.05187170,-0.00006015,-0.00002118,0.00
 010242,-0.00000536,0.00000274,0.00012952,0.00001249,-0.00001928,-0.000
 13015,0.00000431,0.00000025,-0.00004854,0.00000135,-0.00000265,0.00004
 176,-0.00001806,0.00000564,-0.00007290,0.00000730,0.00000011,0.0000080
 9,0.00002071,0.00001584,0.00001503,0.00000059,-0.00000036,-0.00000240,
 0.00000035,-0.00000027,-0.00000020,-0.00000084,0.00000111,0.00000048,-
 0.00000100,0.00000334,0.00005506,0.00003048,-0.00008066,-0.00051857,-0
 .01513478,-0.00995693,0.04810234,0.00001336,0.00007751,-0.00001856,-0.
 00016772,-0.00002047,0.00013219,0.00035905,-0.00080261,0.00002059,-0.0
 0089454,0.00006811,-0.00045291,0.00062945,-0.00103889,0.00011095,0.006
 03722,0.00231595,0.00168506,-0.00799910,0.02426365,0.02123587,-0.05344
 392,-0.01882250,-0.02280890,-0.00137555,0.00051773,-0.00062939,0.00019
 946,-0.00018183,0.00018980,-0.00017131,0.00029731,-0.00016433,-0.00006
 203,-0.00002104,0.00001677,-0.00003341,0.00001461,0.00003520,-0.000135
 72,0.00022801,0.00000651,0.00006578,-0.00002760,0.00000277,0.00073719,
 0.00038721,-0.00033999,-0.00000269,-0.00000242,0.00000018,0.00001524,-
 0.00000414,-0.00000871,0.00000287,-0.00001130,0.00000616,-0.00003246,0
 .00000398,0.00006846,-0.00152972,-0.00033165,0.00142023,0.00020745,-0.
 01519168,-0.02169621,0.05637332,-0.00005779,-0.00025102,0.00001184,0.0
 0056014,0.00033424,0.00000383,-0.00022579,-0.00046644,-0.00011390,-0.0
 0029052,0.00021702,-0.00011096,0.00071937,0.00068273,0.00030577,-0.005
 91670,-0.00126752,0.00028865,0.01402350,-0.02302032,-0.01604248,-0.015
 60293,-0.13976850,-0.11799610,0.00056604,-0.00066797,0.00028945,-0.000
 10462,0.00079405,-0.00017228,-0.00006640,-0.00051961,0.00030068,0.0000
 3712,0.00001894,-0.00010406,0.00004327,0.00004490,-0.00000951,-0.00021
 694,0.00001166,-0.00000812,0.00029982,0.00002540,-0.00000241,0.0002281
 6,0.00023110,0.00015398,0.00001703,0.00001239,-0.00000258,-0.00000981,
 0.00004139,0.00001408,-0.00001062,0.00003896,-0.00001657,0.00004898,0.
 00004193,0.00002919,-0.00057970,0.00040825,0.00028405,-0.00211774,-0.0
 0868467,-0.01369265,0.00860936,0.16008827,-0.00001317,-0.00009995,-0.0
 0000767,0.00017897,0.00019396,0.00002403,-0.00015555,-0.00027944,-0.00
 006088,-0.00025138,0.00053541,-0.00006510,0.00044186,-0.00112239,0.000
 07307,-0.00185534,-0.00055355,0.00082148,0.00570132,0.00030204,0.00749
 744,-0.01909030,-0.11982528,-0.20803087,0.00037566,-0.00013574,-0.0002
 6180,-0.00015642,0.00021627,0.00000192,0.00004592,-0.00003369,0.000043
 66,0.00002697,0.00003134,-0.00001611,0.00001602,0.00004674,0.00001136,
 0.00004660,-0.00014439,0.00000282,0.00003350,0.00005039,0.00000223,-0.
 00006059,0.00021071,-0.00002318,-0.00000068,0.00000811,-0.00000033,0.0
 0000088,0.00001654,0.00002031,-0.00000147,0.00001010,-0.00001709,0.000
 05134,0.00000238,0.00000735,0.00006750,0.00076714,-0.00025500,-0.00037
 959,0.00254913,0.00278076,0.01866064,0.13419751,0.21764631,0.00001657,
 0.00008815,0.00000201,-0.00019529,-0.00005047,-0.00010455,0.00038434,-
 0.00081035,0.00005808,-0.00088093,0.00010969,0.00050310,0.00062024,-0.
 00099730,-0.00001280,0.00611364,0.00204573,-0.00232087,-0.00962438,0.0
 2106063,-0.02357433,-0.05162987,-0.00990308,0.01552023,-0.00135615,0.0
 0056428,0.00062165,0.00024116,-0.00019531,-0.00020263,-0.00019488,0.00
 038336,0.00012752,-0.00007059,-0.00002174,0.00000113,-0.00003320,0.000
 01326,-0.00003070,-0.00013958,0.00022785,-0.00001513,0.00006477,-0.000
 02777,-0.00000727,0.00077917,0.00043509,0.00022090,-0.00000306,-0.0000
 0284,0.00000062,0.00000264,-0.00001329,-0.00000567,0.00001732,-0.00000
 323,0.00000958,-0.00004145,-0.00000563,-0.00006790,-0.00159094,-0.0005
 6766,-0.00127419,0.00149090,-0.01199959,0.02365924,0.00121849,0.000022
 92,-0.00368540,0.05482014,-0.00005524,-0.00023576,0.00002589,0.0005333
 8,0.00030016,-0.00007846,-0.00019558,-0.00039424,0.00017347,-0.0002334
 4,0.00014416,0.00007956,0.00062195,0.00078461,-0.00042848,-0.00563096,
 -0.00112828,0.00029516,0.01409404,-0.02028353,0.01940942,-0.00735341,-
 0.10749819,0.10390904,0.00047828,-0.00064535,-0.00025773,-0.00013122,0
 .00073262,0.00009875,-0.00005234,-0.00059951,-0.00019186,0.00006193,0.
 00002054,0.00009481,0.00004007,0.00003064,-0.00001315,-0.00021845,0.00
 004115,0.00000596,0.00028694,0.00001410,0.00000077,0.00020982,0.000171
 02,-0.00020602,0.00001731,0.00001133,-0.00000075,-0.00000967,0.0000387
 1,0.00000879,-0.00001155,0.00003779,-0.00001641,0.00003933,0.00003698,
 -0.00003171,-0.00060408,0.00023377,-0.00032307,-0.00124014,-0.00681107
 ,0.01506088,-0.00032335,0.01167855,-0.01695079,-0.00034726,0.12334454,
 0.00001926,0.00013019,-0.00002720,-0.00024884,-0.00023206,0.00007976,0
 .00015792,0.00037568,-0.00014047,0.00033414,-0.00056955,-0.00004843,-0
 .00057612,0.00107154,0.00004078,0.00239110,0.00069874,0.00070344,-0.00
 684431,0.00261156,0.00630675,0.01138771,0.10587726,-0.24208150,-0.0003
 9893,0.00017959,-0.00024610,0.00015957,-0.00031341,0.00000734,-0.00002
 564,0.00011085,0.00007382,-0.00003425,-0.00003845,-0.00002694,-0.00002
 325,-0.00005153,0.00001381,-0.00000987,0.00013246,-0.00000068,-0.00007
 748,-0.00005214,0.00000600,-0.00001400,-0.00027275,0.00002214,-0.00000
 164,-0.00000986,0.00000088,0.00000160,-0.00001767,-0.00001656,0.000001
 51,-0.00001905,0.00002522,-0.00005425,-0.00000640,0.00002228,0.0001108
 1,-0.00080186,-0.00005206,0.00064253,-0.00052582,-0.00032495,0.0025427
 9,0.01238208,-0.02018881,-0.00943376,-0.12065670,0.25585338,0.00004555
 ,0.00006090,-0.00000153,0.00003483,-0.00004137,-0.00000324,0.00014450,
 -0.00003009,-0.00000622,-0.00005680,-0.00001483,0.00002658,-0.00026370
 ,0.00025512,-0.00003733,0.00090864,0.00075305,-0.00005842,0.00003313,-
 0.00007831,0.00001021,0.00003608,-0.00004160,0.00000390,-0.00397099,0.
 00192334,0.00033133,0.00779952,0.02411789,-0.00096740,0.00195477,-0.00
 211979,-0.00027731,-0.07761974,-0.07726342,0.00453748,-0.00404807,-0.0
 3175755,0.00154749,-0.00323840,0.00361954,0.00092072,-0.00198211,-0.00
 227056,-0.00017091,-0.00013237,-0.00072393,-0.00012729,-0.00000108,0.0
 0000555,-0.00000102,-0.00000077,-0.00001639,-0.00000737,0.00000131,-0.
 00001696,0.00001002,0.00001719,-0.00001722,-0.00000047,0.00003356,0.00
 012899,-0.00001345,-0.00001472,0.00001036,0.00000037,-0.00000341,0.000
 00457,-0.00000273,-0.00000399,0.00000545,0.00000181,0.07946184,0.00001
 474,0.00006875,-0.00000130,-0.00016995,-0.00009694,0.00000815,0.000143
 08,-0.00019810,-0.00000660,-0.00017239,0.00004187,0.00002133,0.0004659
 9,-0.00009680,-0.00000428,-0.00116218,-0.00093651,0.00011385,0.0002975
 4,0.00013598,-0.00002313,-0.00009056,0.00011375,-0.00000770,0.00409271
 ,-0.00100635,-0.00019030,-0.01033781,-0.01925163,0.00146516,-0.0002874
 8,0.00412557,-0.00014186,-0.07555956,-0.31465512,0.01139264,0.00006663
 ,-0.00183025,0.00034258,0.00070548,0.00185706,0.00040497,-0.00078781,-
 0.00033253,-0.00009861,0.00003720,0.00084154,-0.00009334,-0.00001089,-
 0.00000413,0.00000046,0.00000808,-0.00000840,0.00000135,0.00000886,-0.
 00000968,-0.00000026,-0.00000795,-0.00000502,-0.00000128,-0.00003229,-
 0.00012464,0.00000270,0.00002658,-0.00000890,0.00000008,0.00000280,-0.
 00002169,0.00000177,0.00000101,-0.00002116,0.00000196,0.08313547,0.330
 55441,-0.00000377,0.00000945,0.00009631,-0.00003330,-0.00000318,-0.000
 13910,-0.00000229,-0.00002262,-0.00014773,-0.00000465,0.00005169,0.000
 38649,0.00002064,-0.00001009,-0.00016770,0.00000349,-0.00000332,0.0006
 4082,-0.00002348,-0.00000865,-0.00002433,0.00000170,0.00000273,0.00002
 047,0.00031227,0.00001068,0.00188747,-0.00014039,-0.00073005,0.0033174
 0,-0.00018848,-0.00009870,-0.00165828,0.00474027,0.01209501,-0.0401603
 5,-0.00004368,0.00178602,0.00835045,0.00069939,-0.00016281,0.01404604,
 0.00024723,0.00029768,-0.00309067,0.00000736,-0.00000979,-0.00237324,0
 .00000116,-0.00000237,0.00000069,0.00000326,0.00002126,-0.00000398,-0.
 00000266,-0.00001450,-0.00000040,-0.00000366,-0.00000144,-0.00002889,-
 0.00000791,-0.00001542,-0.00013533,0.00000017,0.00000026,0.00000739,-0
 .00000183,-0.00000403,-0.00000223,0.00000065,0.00000548,-0.00000174,-0
 .00528865,-0.01298044,0.02595078,-0.00000161,-0.00002846,0.00000391,0.
 00015950,0.00009172,-0.00001868,0.00022828,-0.00004292,0.00003382,0.00
 010191,-0.00013436,0.00001067,-0.00011378,-0.00007425,0.00001948,0.000
 10150,0.00020952,-0.00002228,-0.00009260,0.00004372,-0.00000709,0.0000
 8561,-0.00004932,0.00000416,-0.00018038,0.00010106,-0.00006882,0.00006
 202,-0.00472386,0.00056064,-0.00291319,0.00071870,0.00015678,-0.017520
 89,0.02221985,0.00049883,-0.21035940,0.14140350,0.00345587,0.00659899,
 -0.00835239,-0.00003426,0.00149330,0.00049906,-0.00002151,-0.00050870,
 -0.00161197,0.00010679,0.00000329,-0.00000287,0.00000014,-0.00000452,0
 .00000535,0.00000149,-0.00000636,0.00000429,-0.00000222,0.00003433,-0.
 00003325,-0.00000640,0.00000015,0.00002016,-0.00000253,-0.00000412,-0.
 00000585,0.00000129,-0.00000733,0.00001929,0.00000543,-0.00000509,0.00
 001817,-0.00000843,0.00086524,-0.00038730,-0.00029283,0.22198386,0.000
 01902,0.00015107,-0.00001479,-0.00028446,0.00001052,0.00000305,0.00187
 536,-0.00025438,-0.00003837,-0.00034172,-0.00046129,0.00005976,0.00007
 840,0.00010011,0.00000501,0.00003925,-0.00015654,-0.00000567,0.0001716
 9,0.00003280,-0.00001406,-0.00000453,0.00002924,0.00000201,-0.00066157
 ,0.00087979,-0.00003849,-0.00177428,-0.00143871,0.00049161,-0.00078387
 ,0.00058059,-0.00002136,-0.00961885,0.01165772,0.00037530,0.13964486,-
 0.18246904,-0.00272726,0.02615712,-0.01802826,-0.00028496,-0.00132463,
 0.00460659,-0.00002134,-0.00379067,-0.00448079,0.00023322,-0.00001900,
 -0.00002680,0.00000289,0.00000771,-0.00002004,0.00000269,0.00000833,-0
 .00001924,0.00000041,0.00012907,-0.00012494,-0.00000439,0.00001084,0.0
 0001209,-0.00000327,0.00001086,-0.00000099,-0.00000015,-0.00000676,-0.
 00000204,0.00000567,-0.00000644,-0.00000358,-0.00000468,0.00037182,0.0
 0086895,-0.00021285,-0.14990757,0.18855716,-0.00000118,0.00000074,0.00
 002071,0.00001417,-0.00000547,-0.00002508,-0.00001194,0.00002539,0.000
 63901,-0.00003077,0.00000266,-0.00016858,0.00002670,0.00006336,0.00038
 515,-0.00001275,-0.00004070,-0.00014615,0.00001970,0.00000549,-0.00014
 149,-0.00000024,0.00001691,0.00009571,-0.00020847,-0.00011504,-0.00236
 387,0.00096299,0.00041479,0.01404186,-0.00035631,-0.00004943,-0.003073
 51,0.00200803,-0.00080127,0.00833661,0.00296485,-0.00240528,-0.0396099
 6,-0.00057741,0.00091300,0.00329378,-0.00007008,-0.00021816,-0.0016771
 1,0.00008060,0.00019639,0.00190075,0.00000073,0.00000143,0.00000730,0.
 00000366,-0.00000254,-0.00000279,-0.00000316,0.00000449,-0.00000127,-0
 .00000643,-0.00000610,-0.00013581,0.00000055,-0.00000250,-0.00002893,0
 .00000042,-0.00000196,0.00000061,-0.00001333,0.00001453,-0.00000367,0.
 00001050,-0.00001289,-0.00000016,-0.00042655,-0.00020788,-0.00677033,-
 0.00437425,0.00221004,0.02542720\\0.00000230,-0.00001238,0.00000514,-0
 .00001571,0.00000822,-0.00000027,0.00001248,-0.00000615,-0.00000474,-0
 .00001310,0.00000218,-0.00000043,0.00000954,0.00001158,-0.00000004,0.0
 0000480,-0.00001554,0.00000489,-0.00001109,0.00001478,-0.00000199,0.00
 001966,-0.00002240,-0.00000118,-0.00001829,0.00000937,0.00000175,0.000
 00483,-0.00000655,-0.00000013,-0.00000405,0.00000141,0.00000238,-0.000
 00340,-0.00000794,-0.00000015,0.00000578,0.00000480,0.00000123,-0.0000
 2593,-0.00000645,-0.00000095,0.00001162,0.00000536,-0.00000041,0.00003
 085,-0.00000128,0.00000014,-0.00000012,0.00000229,-0.00000410,-0.00000
 096,0.00000108,-0.00000417,-0.00000199,0.00000136,-0.00000445,0.000003
 17,0.00000055,-0.00000107,-0.00000172,-0.00000116,-0.00000202,-0.00000
 257,0.00000105,0.00000276,-0.00000193,0.00000564,0.00000294,-0.0000020
 5,0.00000253,0.00000233,-0.00000349,0.00000387,0.00000260,0.00000136,0
 .00000377,-0.00000007\\\@


 My opinions may have changed, but not the fact that I am right.
                       -- Ashleigh Brilliant
 Job cpu time:       0 days  5 hours  5 minutes  8.8 seconds.
 Elapsed time:       0 days  0 hours 54 minutes 23.6 seconds.
 File lengths (MBytes):  RWF=    859 Int=      0 D2E=      0 Chk=     21 Scr=      1
 Normal termination of Gaussian 16 at Fri Jan 19 06:05:34 2024.
