 Entering Gaussian System, Link 0=g16
 Input=279.com
 Output=279.log
 Initial command:
 /sysapps/ubuntu-applications/gaussian/Gaussian/AVX2/g16/l1.exe "/scratch/selhajj1/4262601/Gau-2706484.inp" -scrdir="/scratch/selhajj1/4262601/"
 Entering Link 1 = /sysapps/ubuntu-applications/gaussian/Gaussian/AVX2/g16/l1.exe PID=   2706489.
  
 Copyright (c) 1988,1990,1992,1993,1995,1998,2003,2009,2016,
            Gaussian, Inc.  All Rights Reserved.
  
 This is part of the Gaussian(R) 16 program.  It is based on
 the Gaussian(R) 09 system (copyright 2009, Gaussian, Inc.),
 the Gaussian(R) 03 system (copyright 2003, Gaussian, Inc.),
 the Gaussian(R) 98 system (copyright 1998, Gaussian, Inc.),
 the Gaussian(R) 94 system (copyright 1995, Gaussian, Inc.),
 the Gaussian 92(TM) system (copyright 1992, Gaussian, Inc.),
 the Gaussian 90(TM) system (copyright 1990, Gaussian, Inc.),
 the Gaussian 88(TM) system (copyright 1988, Gaussian, Inc.),
 the Gaussian 86(TM) system (copyright 1986, Carnegie Mellon
 University), and the Gaussian 82(TM) system (copyright 1983,
 Carnegie Mellon University). Gaussian is a federally registered
 trademark of Gaussian, Inc.
  
 This software contains proprietary and confidential information,
 including trade secrets, belonging to Gaussian, Inc.
  
 This software is provided under written license and may be
 used, copied, transmitted, or stored only in accord with that
 written license.
  
 The following legend is applicable only to US Government
 contracts under FAR:
  
                    RESTRICTED RIGHTS LEGEND
  
 Use, reproduction and disclosure by the US Government is
 subject to restrictions as set forth in subparagraphs (a)
 and (c) of the Commercial Computer Software - Restricted
 Rights clause in FAR 52.227-19.
  
 Gaussian, Inc.
 340 Quinnipiac St., Bldg. 40, Wallingford CT 06492
  
  
 ---------------------------------------------------------------
 Warning -- This program may not be used in any manner that
 competes with the business of Gaussian, Inc. or will provide
 assistance to any competitor of Gaussian, Inc.  The licensee
 of this program is prohibited from giving any competitor of
 Gaussian, Inc. access to this program.  By using this program,
 the user acknowledges that Gaussian, Inc. is engaged in the
 business of creating and licensing software in the field of
 computational chemistry and represents and warrants to the
 licensee that it is not a competitor of Gaussian, Inc. and that
 it will not use this program in any manner prohibited above.
 ---------------------------------------------------------------
  

 Cite this work as:
 Gaussian 16, Revision A.03,
 M. J. Frisch, G. W. Trucks, H. B. Schlegel, G. E. Scuseria, 
 M. A. Robb, J. R. Cheeseman, G. Scalmani, V. Barone, 
 G. A. Petersson, H. Nakatsuji, X. Li, M. Caricato, A. V. Marenich, 
 J. Bloino, B. G. Janesko, R. Gomperts, B. Mennucci, H. P. Hratchian, 
 J. V. Ortiz, A. F. Izmaylov, J. L. Sonnenberg, D. Williams-Young, 
 F. Ding, F. Lipparini, F. Egidi, J. Goings, B. Peng, A. Petrone, 
 T. Henderson, D. Ranasinghe, V. G. Zakrzewski, J. Gao, N. Rega, 
 G. Zheng, W. Liang, M. Hada, M. Ehara, K. Toyota, R. Fukuda, 
 J. Hasegawa, M. Ishida, T. Nakajima, Y. Honda, O. Kitao, H. Nakai, 
 T. Vreven, K. Throssell, J. A. Montgomery, Jr., J. E. Peralta, 
 F. Ogliaro, M. J. Bearpark, J. J. Heyd, E. N. Brothers, K. N. Kudin, 
 V. N. Staroverov, T. A. Keith, R. Kobayashi, J. Normand, 
 K. Raghavachari, A. P. Rendell, J. C. Burant, S. S. Iyengar, 
 J. Tomasi, M. Cossi, J. M. Millam, M. Klene, C. Adamo, R. Cammi, 
 J. W. Ochterski, R. L. Martin, K. Morokuma, O. Farkas, 
 J. B. Foresman, and D. J. Fox, Gaussian, Inc., Wallingford CT, 2016.
 
 ******************************************
 Gaussian 16:  ES64L-G16RevA.03 25-Dec-2016
                 8-Jan-2024 
 ******************************************
 %chk=279.chk
 %nproc=8
 Will use up to    8 processors via shared memory.
 %mem=30GB
 --------------------------------------
 #P UB3LYP/6-311++G(d,p) nosym opt freq
 --------------------------------------
 1/18=20,19=15,26=3,38=1/1,3;
 2/9=110,12=2,15=1,17=6,18=5,40=1/2;
 3/5=4,6=6,7=1111,11=2,25=1,30=1,71=1,74=-5,116=2/1,2,3;
 4//1;
 5/5=2,38=5/2;
 6/7=2,8=2,9=2,10=2,28=1/1;
 7/30=1/1,2,3,16;
 1/18=20,19=15,26=3/3(2);
 2/9=110,15=1/2;
 99//99;
 2/9=110,15=1/2;
 3/5=4,6=6,7=1111,11=2,25=1,30=1,71=1,74=-5,116=2/1,2,3;
 4/5=5,16=3,69=1/1;
 5/5=2,38=5/2;
 7/30=1/1,2,3,16;
 1/18=20,19=15,26=3/3(-5);
 2/9=110,15=1/2;
 6/7=2,8=2,9=2,10=2,19=2,28=1/1;
 99/9=1/99;
 Leave Link    1 at Mon Jan  8 01:20:49 2024, MaxMem=  4026531840 cpu:               0.8 elap:               0.1
 (Enter /sysapps/ubuntu-applications/gaussian/Gaussian/AVX2/g16/l101.exe)
 --------
 Oxidized
 --------
 Symbolic Z-matrix:
 Charge =  0 Multiplicity = 1
 O                    -1.28068   2.46488   0.33077 
 C                    -1.24632   1.24833   0.21553 
 C                    -2.47396   0.4508    0.19377 
 C                    -2.43538  -0.8914    0.06662 
 O                    -3.52818  -1.66024   0.04159 
 C                    -1.14548  -1.64522  -0.05924 
 O                    -1.20992  -2.86242  -0.17006 
 C                     0.11109  -0.87429  -0.04107 
 C                     1.33843  -1.53364  -0.15533 
 C                     2.52039  -0.8006   -0.13749 
 C                     2.4783    0.58887  -0.00582 
 C                     1.25691   1.24989   0.10835 
 C                     0.06682   0.52546   0.09168 
 H                    -3.41304   0.98288   0.28382 
 H                     1.34673  -2.61202  -0.25648 
 H                     3.47342  -1.30902  -0.22588 
 H                     3.40085   1.15804   0.00781 
 H                     1.20547   2.32683   0.21118 
 H                    -3.21596  -2.58001  -0.05793 
 
 ITRead=  0  0  0  0  0  0  0  0  0  0  0  0  0  0  0  0  0  0  0
 MicOpt= -1 -1 -1 -1 -1 -1 -1 -1 -1 -1 -1 -1 -1 -1 -1 -1 -1 -1 -1
 NAtoms=     19 NQM=       19 NQMF=       0 NMMI=      0 NMMIF=      0
                NMic=       0 NMicF=      0.
                    Isotopes and Nuclear Properties:
 (Nuclear quadrupole moments (NQMom) in fm**2, nuclear magnetic moments (NMagM)
  in nuclear magnetons)

  Atom         1           2           3           4           5           6           7           8           9          10
 IAtWgt=          16          12          12          12          16          12          16          12          12          12
 AtmWgt=  15.9949146  12.0000000  12.0000000  12.0000000  15.9949146  12.0000000  15.9949146  12.0000000  12.0000000  12.0000000
 NucSpn=           0           0           0           0           0           0           0           0           0           0
 AtZEff=  -0.0000000  -0.0000000  -0.0000000  -0.0000000  -0.0000000  -0.0000000  -0.0000000  -0.0000000  -0.0000000  -0.0000000
 NQMom=    0.0000000   0.0000000   0.0000000   0.0000000   0.0000000   0.0000000   0.0000000   0.0000000   0.0000000   0.0000000
 NMagM=    0.0000000   0.0000000   0.0000000   0.0000000   0.0000000   0.0000000   0.0000000   0.0000000   0.0000000   0.0000000
 AtZNuc=   8.0000000   6.0000000   6.0000000   6.0000000   8.0000000   6.0000000   8.0000000   6.0000000   6.0000000   6.0000000

  Atom        11          12          13          14          15          16          17          18          19
 IAtWgt=          12          12          12           1           1           1           1           1           1
 AtmWgt=  12.0000000  12.0000000  12.0000000   1.0078250   1.0078250   1.0078250   1.0078250   1.0078250   1.0078250
 NucSpn=           0           0           0           1           1           1           1           1           1
 AtZEff=  -0.0000000  -0.0000000  -0.0000000  -0.0000000  -0.0000000  -0.0000000  -0.0000000  -0.0000000  -0.0000000
 NQMom=    0.0000000   0.0000000   0.0000000   0.0000000   0.0000000   0.0000000   0.0000000   0.0000000   0.0000000
 NMagM=    0.0000000   0.0000000   0.0000000   2.7928460   2.7928460   2.7928460   2.7928460   2.7928460   2.7928460
 AtZNuc=   6.0000000   6.0000000   6.0000000   1.0000000   1.0000000   1.0000000   1.0000000   1.0000000   1.0000000
 Leave Link  101 at Mon Jan  8 01:20:50 2024, MaxMem=  4026531840 cpu:               4.7 elap:               0.8
 (Enter /sysapps/ubuntu-applications/gaussian/Gaussian/AVX2/g16/l103.exe)

 GradGradGradGradGradGradGradGradGradGradGradGradGradGradGradGradGradGrad
 Berny optimization.
 Initialization pass.
                           ----------------------------
                           !    Initial Parameters    !
                           ! (Angstroms and Degrees)  !
 --------------------------                            --------------------------
 ! Name  Definition              Value          Derivative Info.                !
 --------------------------------------------------------------------------------
 ! R1    R(1,2)                  1.2225         estimate D2E/DX2                !
 ! R2    R(2,3)                  1.4641         estimate D2E/DX2                !
 ! R3    R(2,13)                 1.5041         estimate D2E/DX2                !
 ! R4    R(3,4)                  1.3488         estimate D2E/DX2                !
 ! R5    R(3,14)                 1.0831         estimate D2E/DX2                !
 ! R6    R(4,5)                  1.3364         estimate D2E/DX2                !
 ! R7    R(4,6)                  1.4993         estimate D2E/DX2                !
 ! R8    R(5,19)                 0.9764         estimate D2E/DX2                !
 ! R9    R(6,7)                  1.2239         estimate D2E/DX2                !
 ! R10   R(6,8)                  1.4743         estimate D2E/DX2                !
 ! R11   R(8,9)                  1.3979         estimate D2E/DX2                !
 ! R12   R(8,13)                 1.4067         estimate D2E/DX2                !
 ! R13   R(9,10)                 1.3909         estimate D2E/DX2                !
 ! R14   R(9,15)                 1.0831         estimate D2E/DX2                !
 ! R15   R(10,11)                1.3963         estimate D2E/DX2                !
 ! R16   R(10,16)                1.0838         estimate D2E/DX2                !
 ! R17   R(11,12)                1.3935         estimate D2E/DX2                !
 ! R18   R(11,17)                1.0841         estimate D2E/DX2                !
 ! R19   R(12,13)                1.3933         estimate D2E/DX2                !
 ! R20   R(12,18)                1.0831         estimate D2E/DX2                !
 ! A1    A(1,2,3)              121.3267         estimate D2E/DX2                !
 ! A2    A(1,2,13)             120.7026         estimate D2E/DX2                !
 ! A3    A(3,2,13)             117.9707         estimate D2E/DX2                !
 ! A4    A(2,3,4)              121.2982         estimate D2E/DX2                !
 ! A5    A(2,3,14)             117.2683         estimate D2E/DX2                !
 ! A6    A(4,3,14)             121.4335         estimate D2E/DX2                !
 ! A7    A(3,4,5)              123.4276         estimate D2E/DX2                !
 ! A8    A(3,4,6)              122.1983         estimate D2E/DX2                !
 ! A9    A(5,4,6)              114.3741         estimate D2E/DX2                !
 ! A10   A(4,5,19)             106.4011         estimate D2E/DX2                !
 ! A11   A(4,6,7)              117.5365         estimate D2E/DX2                !
 ! A12   A(4,6,8)              117.9905         estimate D2E/DX2                !
 ! A13   A(7,6,8)              124.473          estimate D2E/DX2                !
 ! A14   A(6,8,9)              120.0437         estimate D2E/DX2                !
 ! A15   A(6,8,13)             119.6467         estimate D2E/DX2                !
 ! A16   A(9,8,13)             120.3096         estimate D2E/DX2                !
 ! A17   A(8,9,10)             119.7655         estimate D2E/DX2                !
 ! A18   A(8,9,15)             118.9438         estimate D2E/DX2                !
 ! A19   A(10,9,15)            121.2908         estimate D2E/DX2                !
 ! A20   A(9,10,11)            120.001          estimate D2E/DX2                !
 ! A21   A(9,10,16)            119.932          estimate D2E/DX2                !
 ! A22   A(11,10,16)           120.067          estimate D2E/DX2                !
 ! A23   A(10,11,12)           120.4102         estimate D2E/DX2                !
 ! A24   A(10,11,17)           119.8664         estimate D2E/DX2                !
 ! A25   A(12,11,17)           119.7235         estimate D2E/DX2                !
 ! A26   A(11,12,13)           120.0681         estimate D2E/DX2                !
 ! A27   A(11,12,18)           121.4056         estimate D2E/DX2                !
 ! A28   A(13,12,18)           118.5263         estimate D2E/DX2                !
 ! A29   A(2,13,8)             120.8956         estimate D2E/DX2                !
 ! A30   A(2,13,12)            119.6587         estimate D2E/DX2                !
 ! A31   A(8,13,12)            119.4457         estimate D2E/DX2                !
 ! D1    D(1,2,3,4)           -179.9991         estimate D2E/DX2                !
 ! D2    D(1,2,3,14)             0.007          estimate D2E/DX2                !
 ! D3    D(13,2,3,4)            -0.0094         estimate D2E/DX2                !
 ! D4    D(13,2,3,14)          179.9967         estimate D2E/DX2                !
 ! D5    D(1,2,13,8)           179.9976         estimate D2E/DX2                !
 ! D6    D(1,2,13,12)           -0.0043         estimate D2E/DX2                !
 ! D7    D(3,2,13,8)             0.0078         estimate D2E/DX2                !
 ! D8    D(3,2,13,12)         -179.9941         estimate D2E/DX2                !
 ! D9    D(2,3,4,5)           -179.9919         estimate D2E/DX2                !
 ! D10   D(2,3,4,6)              0.0045         estimate D2E/DX2                !
 ! D11   D(14,3,4,5)             0.0018         estimate D2E/DX2                !
 ! D12   D(14,3,4,6)           179.9982         estimate D2E/DX2                !
 ! D13   D(3,4,5,19)           179.9919         estimate D2E/DX2                !
 ! D14   D(6,4,5,19)            -0.0048         estimate D2E/DX2                !
 ! D15   D(3,4,6,7)            179.9881         estimate D2E/DX2                !
 ! D16   D(3,4,6,8)              0.0021         estimate D2E/DX2                !
 ! D17   D(5,4,6,7)             -0.0151         estimate D2E/DX2                !
 ! D18   D(5,4,6,8)            179.9989         estimate D2E/DX2                !
 ! D19   D(4,6,8,9)            179.9963         estimate D2E/DX2                !
 ! D20   D(4,6,8,13)            -0.0036         estimate D2E/DX2                !
 ! D21   D(7,6,8,9)              0.0114         estimate D2E/DX2                !
 ! D22   D(7,6,8,13)          -179.9885         estimate D2E/DX2                !
 ! D23   D(6,8,9,10)          -179.9998         estimate D2E/DX2                !
 ! D24   D(6,8,9,15)            -0.0009         estimate D2E/DX2                !
 ! D25   D(13,8,9,10)            0.0001         estimate D2E/DX2                !
 ! D26   D(13,8,9,15)          179.999          estimate D2E/DX2                !
 ! D27   D(6,8,13,2)            -0.0014         estimate D2E/DX2                !
 ! D28   D(6,8,13,12)         -179.9995         estimate D2E/DX2                !
 ! D29   D(9,8,13,2)           179.9987         estimate D2E/DX2                !
 ! D30   D(9,8,13,12)            0.0006         estimate D2E/DX2                !
 ! D31   D(8,9,10,11)           -0.0007         estimate D2E/DX2                !
 ! D32   D(8,9,10,16)          179.9993         estimate D2E/DX2                !
 ! D33   D(15,9,10,11)        -179.9996         estimate D2E/DX2                !
 ! D34   D(15,9,10,16)           0.0003         estimate D2E/DX2                !
 ! D35   D(9,10,11,12)           0.0006         estimate D2E/DX2                !
 ! D36   D(9,10,11,17)        -179.9992         estimate D2E/DX2                !
 ! D37   D(16,10,11,12)       -179.9993         estimate D2E/DX2                !
 ! D38   D(16,10,11,17)          0.0008         estimate D2E/DX2                !
 ! D39   D(10,11,12,13)          0.0001         estimate D2E/DX2                !
 ! D40   D(10,11,12,18)       -179.9979         estimate D2E/DX2                !
 ! D41   D(17,11,12,13)        179.9999         estimate D2E/DX2                !
 ! D42   D(17,11,12,18)          0.0019         estimate D2E/DX2                !
 ! D43   D(11,12,13,2)        -179.9988         estimate D2E/DX2                !
 ! D44   D(11,12,13,8)          -0.0007         estimate D2E/DX2                !
 ! D45   D(18,12,13,2)          -0.0007         estimate D2E/DX2                !
 ! D46   D(18,12,13,8)         179.9974         estimate D2E/DX2                !
 --------------------------------------------------------------------------------
 Trust Radius=3.00D-01 FncErr=1.00D-07 GrdErr=1.00D-06 EigMax=2.50D+02 EigMin=1.00D-04
 Number of steps in this run=    107 maximum allowed number of steps=    114.
 GradGradGradGradGradGradGradGradGradGradGradGradGradGradGradGradGradGrad

 Leave Link  103 at Mon Jan  8 01:20:50 2024, MaxMem=  4026531840 cpu:               0.3 elap:               0.1
 (Enter /sysapps/ubuntu-applications/gaussian/Gaussian/AVX2/g16/l202.exe)
                          Input orientation:                          
 ---------------------------------------------------------------------
 Center     Atomic      Atomic             Coordinates (Angstroms)
 Number     Number       Type             X           Y           Z
 ---------------------------------------------------------------------
      1          8           0       -1.280683    2.464882    0.330770
      2          6           0       -1.246324    1.248333    0.215532
      3          6           0       -2.473957    0.450797    0.193773
      4          6           0       -2.435380   -0.891404    0.066622
      5          8           0       -3.528184   -1.660237    0.041589
      6          6           0       -1.145482   -1.645219   -0.059243
      7          8           0       -1.209924   -2.862421   -0.170057
      8          6           0        0.111094   -0.874288   -0.041066
      9          6           0        1.338431   -1.533637   -0.155332
     10          6           0        2.520391   -0.800600   -0.137494
     11          6           0        2.478297    0.588867   -0.005818
     12          6           0        1.256905    1.249888    0.108348
     13          6           0        0.066823    0.525455    0.091677
     14          1           0       -3.413044    0.982883    0.283815
     15          1           0        1.346728   -2.612017   -0.256476
     16          1           0        3.473419   -1.309016   -0.225876
     17          1           0        3.400853    1.158045    0.007814
     18          1           0        1.205468    2.326827    0.211180
     19          1           0       -3.215958   -2.580011   -0.057930
 ---------------------------------------------------------------------
                    Distance matrix (angstroms):
                    1          2          3          4          5
     1  O    0.000000
     2  C    1.222478   0.000000
     3  C    2.345039   1.464111   0.000000
     4  C    3.559179   2.452448   1.348762   0.000000
     5  O    4.706537   3.700935   2.364534   1.336395   0.000000
     6  C    4.130777   2.908318   2.494423   1.499305   2.384882
     7  O    5.351261   4.128959   3.564767   2.332953   2.619994
     8  C    3.636669   2.532577   2.914359   2.548807   3.724096
     9  C    4.804603   3.815476   4.312094   3.834498   4.872243
    10  C    5.032972   4.302429   5.159384   4.960804   6.111981
    11  C    4.214576   3.789023   4.958197   5.132316   6.413933
    12  C    2.822239   2.505523   3.816435   4.268471   5.600925
    13  C    2.373671   1.504077   2.543926   2.875611   4.207592
    14  H    2.597208   2.183988   1.083101   2.125077   2.656692
    15  H    5.746569   4.674293   4.917437   4.167642   4.975891
    16  H    6.095379   5.386172   6.216456   5.930755   7.015507
    17  H    4.871232   4.652693   5.920150   6.185896   7.480335
    18  H    2.492851   2.678517   4.130128   4.861449   6.191357
    19  H    5.417317   4.313984   3.130450   1.864459   0.976408
                    6          7          8          9         10
     6  C    0.000000
     7  O    1.223934   0.000000
     8  C    1.474330   2.390481   0.000000
     9  C    2.488274   2.874021   1.397911   0.000000
    10  C    3.762729   4.262325   2.412352   1.390932   0.000000
    11  C    4.257437   5.053844   2.783112   2.413850   1.396327
    12  C    3.765793   4.803524   2.418126   2.797174   2.421020
    13  C    2.490840   3.629916   1.406720   2.432665   2.798381
    14  H    3.488043   4.454896   3.996771   5.394649   6.209989
    15  H    2.680431   2.570338   2.143104   1.083145   2.161683
    16  H    4.634118   4.934560   3.395346   2.147930   1.083771
    17  H    5.341530   6.120053   3.867206   3.394901   2.152352
    18  H    4.623553   5.736528   3.392406   3.880102   3.410483
    19  H    2.271719   2.028916   3.738857   4.674061   6.006524
                   11         12         13         14         15
    11  C    0.000000
    12  C    1.393478   0.000000
    13  C    2.414277   1.393333   0.000000
    14  H    5.911602   4.680866   3.515058   0.000000
    15  H    3.404253   3.880139   3.406332   5.989211   0.000000
    16  H    2.154218   3.401857   3.882141   7.275710   2.494306
    17  H    1.084094   2.148268   3.394548   6.821734   4.301470
    18  H    2.165107   1.083059   2.134417   4.810625   4.962946
    19  H    6.516828   5.890864   4.521388   3.584668   4.567116
                   16         17         18         19
    16  H    0.000000
    17  H    2.479167   0.000000
    18  H    4.307432   2.495421   0.000000
    19  H    6.811123   7.599972   6.610483   0.000000
 Symmetry turned off by external request.
 Stoichiometry    C10H6O3
 Framework group  C1[X(C10H6O3)]
 Deg. of freedom    51
 Full point group                 C1      NOp   1
 Rotational constants (GHZ):           1.2930476           0.7786937           0.4860105
 Leave Link  202 at Mon Jan  8 01:20:50 2024, MaxMem=  4026531840 cpu:               0.4 elap:               0.1
 (Enter /sysapps/ubuntu-applications/gaussian/Gaussian/AVX2/g16/l301.exe)
 Standard basis: 6-311++G(d,p) (5D, 7F)
 Ernie: Thresh=  0.10000D-02 Tol=  0.10000D-05 Strict=F.
   328 basis functions,   522 primitive gaussians,   341 cartesian basis functions
    45 alpha electrons       45 beta electrons
       nuclear repulsion energy       727.2872787308 Hartrees.
 IExCor=  402 DFT=T Ex+Corr=B3LYP ExCW=0 ScaHFX=  0.200000
 ScaDFX=  0.800000  0.720000  1.000000  0.810000 ScalE2=  1.000000  1.000000
 IRadAn=      5 IRanWt=     -1 IRanGd=            0 ICorTp=0 IEmpDi=  4
 NAtoms=   19 NActive=   19 NUniq=   19 SFac= 1.00D+00 NAtFMM=   60 NAOKFM=F Big=F
 Integral buffers will be    131072 words long.
 Raffenetti 2 integral format.
 Two-electron integral symmetry is turned off.
 Leave Link  301 at Mon Jan  8 01:20:51 2024, MaxMem=  4026531840 cpu:               0.6 elap:               0.2
 (Enter /sysapps/ubuntu-applications/gaussian/Gaussian/AVX2/g16/l302.exe)
 NPDir=0 NMtPBC=     1 NCelOv=     1 NCel=       1 NClECP=     1 NCelD=      1
         NCelK=      1 NCelE2=     1 NClLst=     1 CellRange=     0.0.
 One-electron integrals computed using PRISM.
 NBasis=   328 RedAO= T EigKep=  1.29D-06  NBF=   328
 NBsUse=   326 1.00D-06 EigRej=  6.81D-07 NBFU=   326
 Precomputing XC quadrature grid using
 IXCGrd= 4 IRadAn=           5 IRanWt=          -1 IRanGd=           0 AccXCQ= 0.00D+00.
 Generated NRdTot=       0 NPtTot=           0 NUsed=           0 NTot=          32
 NSgBfM=   341   341   341   341   341 MxSgAt=    19 MxSgA2=    19.
 Leave Link  302 at Mon Jan  8 01:20:52 2024, MaxMem=  4026531840 cpu:               8.2 elap:               1.7
 (Enter /sysapps/ubuntu-applications/gaussian/Gaussian/AVX2/g16/l303.exe)
 DipDrv:  MaxL=1.
 Leave Link  303 at Mon Jan  8 01:20:53 2024, MaxMem=  4026531840 cpu:               1.1 elap:               0.3
 (Enter /sysapps/ubuntu-applications/gaussian/Gaussian/AVX2/g16/l401.exe)
 ExpMin= 3.60D-02 ExpMax= 8.59D+03 ExpMxC= 1.30D+03 IAcc=3 IRadAn=         5 AccDes= 0.00D+00
 Harris functional with IExCor=  402 and IRadAn=       5 diagonalized for initial guess.
 HarFok:  IExCor=  402 AccDes= 0.00D+00 IRadAn=         5 IDoV= 1 UseB2=F ITyADJ=14
 ICtDFT=  3500011 ScaDFX=  1.000000  1.000000  1.000000  1.000000
 FoFCou: FMM=F IPFlag=           0 FMFlag=      100000 FMFlg1=           0
         NFxFlg=           0 DoJE=T BraDBF=F KetDBF=T FulRan=T
         wScrn=  0.000000 ICntrl=       500 IOpCl=  0 I1Cent=   200000004 NGrid=           0
         NMat0=    1 NMatS0=      1 NMatT0=    0 NMatD0=    1 NMtDS0=    0 NMtDT0=    0
 Symmetry not used in FoFCou.
 Harris En= -610.536289225054    
 JPrj=0 DoOrth=F DoCkMO=F.
 Initial guess <Sx>= 0.0000 <Sy>= 0.0000 <Sz>= 0.0000 <S**2>=-0.0000 S=-0.0000
 Leave Link  401 at Mon Jan  8 01:20:55 2024, MaxMem=  4026531840 cpu:              17.8 elap:               2.5
 (Enter /sysapps/ubuntu-applications/gaussian/Gaussian/AVX2/g16/l502.exe)
 Two-electron integral symmetry not used.
 UHF open shell SCF:
 Using DIIS extrapolation, IDIIS=  1040.
 NGot=  4026531840 LenX=  4026294122 LenY=  4026177400
 Requested convergence on RMS density matrix=1.00D-08 within 128 cycles.
 Requested convergence on MAX density matrix=1.00D-06.
 Requested convergence on             energy=1.00D-06.
 No special actions if energy rises.
 Fock matrices will be formed incrementally for  20 cycles.

 Cycle   1  Pass 1  IDiag  1:
 FoFJK:  IHMeth= 1 ICntrl=       0 DoSepK=F KAlg= 0 I1Cent=           0 FoldK=F
 IRaf= 910000000 NMat=       1 IRICut=       1 DoRegI=T DoRafI=F ISym2E= 0 IDoP0=0 IntGTp=1.
 FoFCou: FMM=F IPFlag=           0 FMFlag=      100000 FMFlg1=           0
         NFxFlg=           0 DoJE=F BraDBF=F KetDBF=F FulRan=T
         wScrn=  0.000000 ICntrl=         0 IOpCl=  1 I1Cent=           0 NGrid=           0
         NMat0=    1 NMatS0=      1 NMatT0=    0 NMatD0=    1 NMtDS0=    0 NMtDT0=    0
 Symmetry not used in FoFCou.
 E= -610.219637328052    
 DIIS: error= 4.20D-02 at cycle   1 NSaved=   1.
 NSaved= 1 IEnMin= 1 EnMin= -610.219637328052     IErMin= 1 ErrMin= 4.20D-02
 ErrMax= 4.20D-02  0.00D+00 EMaxC= 1.00D-01 BMatC= 1.56D+00 BMatP= 1.56D+00
 IDIUse=3 WtCom= 5.80D-01 WtEn= 4.20D-01
 Coeff-Com:  0.100D+01
 Coeff-En:   0.100D+01
 Coeff:      0.100D+01
 Gap=     0.116 Goal=   None    Shift=    0.000
 Gap=     0.116 Goal=   None    Shift=    0.000
 GapD=    0.116 DampG=1.000 DampE=0.500 DampFc=0.5000 IDamp=-1.
 Damping current iteration by 5.00D-01
 RMSDP=2.70D-02 MaxDP=3.30D+00              OVMax= 3.06D-01

 Cycle   2  Pass 1  IDiag  1:
 RMSU=  1.24D-02    CP:  1.08D+00
 E= -610.277625482588     Delta-E=       -0.057988154535 Rises=F Damp=T
 DIIS: error= 1.75D-02 at cycle   2 NSaved=   2.
 NSaved= 2 IEnMin= 2 EnMin= -610.277625482588     IErMin= 2 ErrMin= 1.75D-02
 ErrMax= 1.75D-02  0.00D+00 EMaxC= 1.00D-01 BMatC= 3.15D-01 BMatP= 1.56D+00
 IDIUse=3 WtCom= 8.25D-01 WtEn= 1.75D-01
 Coeff-Com:  0.241D+00 0.759D+00
 Coeff-En:   0.402D+00 0.598D+00
 Coeff:      0.269D+00 0.731D+00
 Gap=     0.182 Goal=   None    Shift=    0.000
 Gap=     0.182 Goal=   None    Shift=    0.000
 RMSDP=1.24D-02 MaxDP=1.13D+00 DE=-5.80D-02 OVMax= 2.93D-01

 Cycle   3  Pass 1  IDiag  1:
 RMSU=  1.02D-02    CP:  1.08D+00  4.32D-01
 E= -610.455810416212     Delta-E=       -0.178184933624 Rises=F Damp=F
 DIIS: error= 2.07D-02 at cycle   3 NSaved=   3.
 NSaved= 3 IEnMin= 3 EnMin= -610.455810416212     IErMin= 2 ErrMin= 1.75D-02
 ErrMax= 2.07D-02  0.00D+00 EMaxC= 1.00D-01 BMatC= 2.76D-01 BMatP= 3.15D-01
 IDIUse=3 WtCom= 7.93D-01 WtEn= 2.07D-01
 Coeff-Com:  0.572D-01 0.475D+00 0.467D+00
 Coeff-En:   0.000D+00 0.000D+00 0.100D+01
 Coeff:      0.454D-01 0.377D+00 0.577D+00
 Gap=     0.150 Goal=   None    Shift=    0.000
 Gap=     0.150 Goal=   None    Shift=    0.000
 RMSDP=6.81D-03 MaxDP=5.17D-01 DE=-1.78D-01 OVMax= 1.55D-01

 Cycle   4  Pass 1  IDiag  1:
 RMSU=  4.27D-03    CP:  1.10D+00  6.78D-01  5.90D-01
 E= -610.490782553193     Delta-E=       -0.034972136981 Rises=F Damp=F
 DIIS: error= 1.47D-02 at cycle   4 NSaved=   4.
 NSaved= 4 IEnMin= 4 EnMin= -610.490782553193     IErMin= 4 ErrMin= 1.47D-02
 ErrMax= 1.47D-02  0.00D+00 EMaxC= 1.00D-01 BMatC= 1.31D-01 BMatP= 2.76D-01
 IDIUse=3 WtCom= 8.53D-01 WtEn= 1.47D-01
 Coeff-Com:  0.205D-01 0.109D+00 0.400D+00 0.471D+00
 Coeff-En:   0.000D+00 0.000D+00 0.351D+00 0.649D+00
 Coeff:      0.175D-01 0.929D-01 0.393D+00 0.497D+00
 Gap=     0.152 Goal=   None    Shift=    0.000
 Gap=     0.152 Goal=   None    Shift=    0.000
 RMSDP=3.70D-03 MaxDP=2.43D-01 DE=-3.50D-02 OVMax= 5.63D-02

 Cycle   5  Pass 1  IDiag  1:
 RMSU=  1.33D-03    CP:  1.07D+00  5.49D-01  7.14D-01  5.54D-01
 E= -610.517482484768     Delta-E=       -0.026699931575 Rises=F Damp=F
 DIIS: error= 2.22D-03 at cycle   5 NSaved=   5.
 NSaved= 5 IEnMin= 5 EnMin= -610.517482484768     IErMin= 5 ErrMin= 2.22D-03
 ErrMax= 2.22D-03  0.00D+00 EMaxC= 1.00D-01 BMatC= 5.93D-03 BMatP= 1.31D-01
 IDIUse=3 WtCom= 9.78D-01 WtEn= 2.22D-02
 Coeff-Com:  0.636D-02 0.983D-02 0.194D+00 0.315D+00 0.475D+00
 Coeff-En:   0.000D+00 0.000D+00 0.000D+00 0.000D+00 0.100D+01
 Coeff:      0.622D-02 0.962D-02 0.190D+00 0.308D+00 0.487D+00
 Gap=     0.141 Goal=   None    Shift=    0.000
 Gap=     0.141 Goal=   None    Shift=    0.000
 RMSDP=8.57D-04 MaxDP=4.79D-02 DE=-2.67D-02 OVMax= 1.36D-02

 Cycle   6  Pass 1  IDiag  1:
 RMSU=  6.12D-04    CP:  1.06D+00  5.42D-01  7.06D-01  5.52D-01  7.15D-01
 E= -610.518488293985     Delta-E=       -0.001005809217 Rises=F Damp=F
 DIIS: error= 1.26D-03 at cycle   6 NSaved=   6.
 NSaved= 6 IEnMin= 6 EnMin= -610.518488293985     IErMin= 6 ErrMin= 1.26D-03
 ErrMax= 1.26D-03  0.00D+00 EMaxC= 1.00D-01 BMatC= 9.61D-04 BMatP= 5.93D-03
 IDIUse=3 WtCom= 9.87D-01 WtEn= 1.26D-02
 Coeff-Com:  0.885D-03-0.544D-02 0.665D-01 0.127D+00 0.327D+00 0.484D+00
 Coeff-En:   0.000D+00 0.000D+00 0.000D+00 0.000D+00 0.152D+00 0.848D+00
 Coeff:      0.874D-03-0.537D-02 0.657D-01 0.126D+00 0.324D+00 0.489D+00
 Gap=     0.142 Goal=   None    Shift=    0.000
 Gap=     0.142 Goal=   None    Shift=    0.000
 RMSDP=2.70D-04 MaxDP=1.66D-02 DE=-1.01D-03 OVMax= 7.18D-03

 Cycle   7  Pass 1  IDiag  1:
 RMSU=  1.77D-04    CP:  1.06D+00  5.34D-01  7.12D-01  5.55D-01  6.92D-01
                    CP:  7.28D-01
 E= -610.518665000175     Delta-E=       -0.000176706190 Rises=F Damp=F
 DIIS: error= 4.44D-04 at cycle   7 NSaved=   7.
 NSaved= 7 IEnMin= 7 EnMin= -610.518665000175     IErMin= 7 ErrMin= 4.44D-04
 ErrMax= 4.44D-04  0.00D+00 EMaxC= 1.00D-01 BMatC= 1.18D-04 BMatP= 9.61D-04
 IDIUse=3 WtCom= 9.96D-01 WtEn= 4.44D-03
 Coeff-Com: -0.120D-03-0.425D-02 0.124D-01 0.312D-01 0.136D+00 0.314D+00
 Coeff-Com:  0.511D+00
 Coeff-En:   0.000D+00 0.000D+00 0.000D+00 0.000D+00 0.000D+00 0.110D+00
 Coeff-En:   0.890D+00
 Coeff:     -0.120D-03-0.423D-02 0.124D-01 0.311D-01 0.135D+00 0.313D+00
 Coeff:      0.513D+00
 Gap=     0.142 Goal=   None    Shift=    0.000
 Gap=     0.142 Goal=   None    Shift=    0.000
 RMSDP=1.89D-04 MaxDP=1.97D-02 DE=-1.77D-04 OVMax= 2.34D-03

 Cycle   8  Pass 1  IDiag  1:
 RMSU=  6.03D-05    CP:  1.06D+00  5.37D-01  7.14D-01  5.69D-01  7.03D-01
                    CP:  7.06D-01  5.29D-01
 E= -610.518690036367     Delta-E=       -0.000025036192 Rises=F Damp=F
 DIIS: error= 1.31D-04 at cycle   8 NSaved=   8.
 NSaved= 8 IEnMin= 8 EnMin= -610.518690036367     IErMin= 8 ErrMin= 1.31D-04
 ErrMax= 1.31D-04  0.00D+00 EMaxC= 1.00D-01 BMatC= 6.87D-06 BMatP= 1.18D-04
 IDIUse=3 WtCom= 9.99D-01 WtEn= 1.31D-03
 Coeff-Com: -0.288D-04-0.177D-02 0.162D-02 0.622D-02 0.492D-01 0.128D+00
 Coeff-Com:  0.276D+00 0.541D+00
 Coeff-En:   0.000D+00 0.000D+00 0.000D+00 0.000D+00 0.000D+00 0.000D+00
 Coeff-En:   0.000D+00 0.100D+01
 Coeff:     -0.288D-04-0.177D-02 0.162D-02 0.621D-02 0.491D-01 0.128D+00
 Coeff:      0.275D+00 0.542D+00
 Gap=     0.142 Goal=   None    Shift=    0.000
 Gap=     0.142 Goal=   None    Shift=    0.000
 RMSDP=2.20D-05 MaxDP=2.29D-03 DE=-2.50D-05 OVMax= 6.12D-04

 Cycle   9  Pass 1  IDiag  1:
 RMSU=  1.32D-05    CP:  1.06D+00  5.37D-01  7.15D-01  5.67D-01  7.06D-01
                    CP:  7.03D-01  5.43D-01  8.24D-01
 E= -610.518691584310     Delta-E=       -0.000001547942 Rises=F Damp=F
 DIIS: error= 2.55D-05 at cycle   9 NSaved=   9.
 NSaved= 9 IEnMin= 9 EnMin= -610.518691584310     IErMin= 9 ErrMin= 2.55D-05
 ErrMax= 2.55D-05  0.00D+00 EMaxC= 1.00D-01 BMatC= 6.81D-07 BMatP= 6.87D-06
 IDIUse=1 WtCom= 1.00D+00 WtEn= 0.00D+00
 Coeff-Com:  0.470D-04-0.374D-03-0.584D-03-0.789D-03 0.833D-02 0.251D-01
 Coeff-Com:  0.759D-01 0.280D+00 0.612D+00
 Coeff:      0.470D-04-0.374D-03-0.584D-03-0.789D-03 0.833D-02 0.251D-01
 Coeff:      0.759D-01 0.280D+00 0.612D+00
 Gap=     0.142 Goal=   None    Shift=    0.000
 Gap=     0.142 Goal=   None    Shift=    0.000
 RMSDP=1.01D-05 MaxDP=9.58D-04 DE=-1.55D-06 OVMax= 1.91D-04

 Cycle  10  Pass 1  IDiag  1:
 RMSU=  7.85D-06    CP:  1.06D+00  5.37D-01  7.15D-01  5.67D-01  7.08D-01
                    CP:  7.03D-01  5.51D-01  8.25D-01  1.08D+00
 E= -610.518691719405     Delta-E=       -0.000000135096 Rises=F Damp=F
 DIIS: error= 1.49D-05 at cycle  10 NSaved=  10.
 NSaved=10 IEnMin=10 EnMin= -610.518691719405     IErMin=10 ErrMin= 1.49D-05
 ErrMax= 1.49D-05  0.00D+00 EMaxC= 1.00D-01 BMatC= 1.21D-07 BMatP= 6.81D-07
 IDIUse=1 WtCom= 1.00D+00 WtEn= 0.00D+00
 Coeff-Com:  0.288D-04-0.131D-03-0.475D-03-0.961D-03 0.181D-02 0.688D-02
 Coeff-Com:  0.282D-01 0.133D+00 0.381D+00 0.451D+00
 Coeff:      0.288D-04-0.131D-03-0.475D-03-0.961D-03 0.181D-02 0.688D-02
 Coeff:      0.282D-01 0.133D+00 0.381D+00 0.451D+00
 Gap=     0.142 Goal=   None    Shift=    0.000
 Gap=     0.142 Goal=   None    Shift=    0.000
 RMSDP=2.42D-06 MaxDP=1.78D-04 DE=-1.35D-07 OVMax= 7.20D-05

 Cycle  11  Pass 1  IDiag  1:
 RMSU=  1.62D-06    CP:  1.06D+00  5.37D-01  7.15D-01  5.66D-01  7.08D-01
                    CP:  7.04D-01  5.53D-01  8.32D-01  1.08D+00  8.98D-01
 E= -610.518691749328     Delta-E=       -0.000000029923 Rises=F Damp=F
 DIIS: error= 3.37D-06 at cycle  11 NSaved=  11.
 NSaved=11 IEnMin=11 EnMin= -610.518691749328     IErMin=11 ErrMin= 3.37D-06
 ErrMax= 3.37D-06  0.00D+00 EMaxC= 1.00D-01 BMatC= 5.78D-09 BMatP= 1.21D-07
 IDIUse=1 WtCom= 1.00D+00 WtEn= 0.00D+00
 Coeff-Com:  0.629D-05 0.462D-05-0.103D-03-0.312D-03-0.627D-03-0.115D-02
 Coeff-Com: -0.227D-03 0.104D-01 0.719D-01 0.204D+00 0.716D+00
 Coeff:      0.629D-05 0.462D-05-0.103D-03-0.312D-03-0.627D-03-0.115D-02
 Coeff:     -0.227D-03 0.104D-01 0.719D-01 0.204D+00 0.716D+00
 Gap=     0.142 Goal=   None    Shift=    0.000
 Gap=     0.142 Goal=   None    Shift=    0.000
 RMSDP=1.17D-06 MaxDP=1.37D-04 DE=-2.99D-08 OVMax= 2.32D-05

 Cycle  12  Pass 1  IDiag  1:
 RMSU=  6.45D-07    CP:  1.06D+00  5.37D-01  7.15D-01  5.67D-01  7.08D-01
                    CP:  7.04D-01  5.51D-01  8.40D-01  1.08D+00  8.69D-01
                    CP:  8.35D-01
 E= -610.518691750772     Delta-E=       -0.000000001444 Rises=F Damp=F
 DIIS: error= 7.78D-07 at cycle  12 NSaved=  12.
 NSaved=12 IEnMin=12 EnMin= -610.518691750772     IErMin=12 ErrMin= 7.78D-07
 ErrMax= 7.78D-07  0.00D+00 EMaxC= 1.00D-01 BMatC= 5.75D-10 BMatP= 5.78D-09
 IDIUse=1 WtCom= 1.00D+00 WtEn= 0.00D+00
 Coeff-Com:  0.506D-06 0.121D-04-0.314D-04-0.116D-03-0.480D-03-0.111D-02
 Coeff-Com: -0.186D-02-0.353D-02 0.117D-01 0.645D-01 0.349D+00 0.582D+00
 Coeff:      0.506D-06 0.121D-04-0.314D-04-0.116D-03-0.480D-03-0.111D-02
 Coeff:     -0.186D-02-0.353D-02 0.117D-01 0.645D-01 0.349D+00 0.582D+00
 Gap=     0.142 Goal=   None    Shift=    0.000
 Gap=     0.142 Goal=   None    Shift=    0.000
 RMSDP=3.85D-07 MaxDP=4.43D-05 DE=-1.44D-09 OVMax= 5.16D-06

 Cycle  13  Pass 1  IDiag  1:
 RMSU=  1.39D-07    CP:  1.06D+00  5.37D-01  7.16D-01  5.67D-01  7.08D-01
                    CP:  7.04D-01  5.51D-01  8.41D-01  1.09D+00  8.85D-01
                    CP:  8.62D-01  8.54D-01
 E= -610.518691750898     Delta-E=       -0.000000000126 Rises=F Damp=F
 DIIS: error= 4.95D-07 at cycle  13 NSaved=  13.
 NSaved=13 IEnMin=13 EnMin= -610.518691750898     IErMin=13 ErrMin= 4.95D-07
 ErrMax= 4.95D-07  0.00D+00 EMaxC= 1.00D-01 BMatC= 1.21D-10 BMatP= 5.75D-10
 IDIUse=1 WtCom= 1.00D+00 WtEn= 0.00D+00
 Coeff-Com: -0.104D-05 0.478D-05 0.442D-05 0.669D-06-0.140D-03-0.399D-03
 Coeff-Com: -0.939D-03-0.412D-02-0.720D-02-0.574D-02 0.636D-01 0.343D+00
 Coeff-Com:  0.612D+00
 Coeff:     -0.104D-05 0.478D-05 0.442D-05 0.669D-06-0.140D-03-0.399D-03
 Coeff:     -0.939D-03-0.412D-02-0.720D-02-0.574D-02 0.636D-01 0.343D+00
 Coeff:      0.612D+00
 Gap=     0.142 Goal=   None    Shift=    0.000
 Gap=     0.142 Goal=   None    Shift=    0.000
 RMSDP=1.18D-07 MaxDP=1.32D-05 DE=-1.26D-10 OVMax= 3.57D-06

 Cycle  14  Pass 1  IDiag  1:
 RMSU=  6.42D-08    CP:  1.06D+00  5.37D-01  7.16D-01  5.67D-01  7.08D-01
                    CP:  7.04D-01  5.51D-01  8.41D-01  1.09D+00  8.92D-01
                    CP:  8.78D-01  8.76D-01  8.78D-01
 E= -610.518691750933     Delta-E=       -0.000000000035 Rises=F Damp=F
 DIIS: error= 2.05D-07 at cycle  14 NSaved=  14.
 NSaved=14 IEnMin=14 EnMin= -610.518691750933     IErMin=14 ErrMin= 2.05D-07
 ErrMax= 2.05D-07  0.00D+00 EMaxC= 1.00D-01 BMatC= 1.82D-11 BMatP= 1.21D-10
 IDIUse=1 WtCom= 1.00D+00 WtEn= 0.00D+00
 Coeff-Com: -0.569D-06 0.168D-05 0.491D-05 0.917D-05-0.459D-04-0.160D-03
 Coeff-Com: -0.416D-03-0.222D-02-0.523D-02-0.830D-02 0.136D-01 0.155D+00
 Coeff-Com:  0.369D+00 0.479D+00
 Coeff:     -0.569D-06 0.168D-05 0.491D-05 0.917D-05-0.459D-04-0.160D-03
 Coeff:     -0.416D-03-0.222D-02-0.523D-02-0.830D-02 0.136D-01 0.155D+00
 Coeff:      0.369D+00 0.479D+00
 Gap=     0.142 Goal=   None    Shift=    0.000
 Gap=     0.142 Goal=   None    Shift=    0.000
 RMSDP=4.16D-08 MaxDP=2.36D-06 DE=-3.55D-11 OVMax= 1.24D-06

 Cycle  15  Pass 1  IDiag  1:
 RMSU=  1.83D-08    CP:  1.06D+00  5.37D-01  7.16D-01  5.67D-01  7.08D-01
                    CP:  7.04D-01  5.51D-01  8.41D-01  1.09D+00  8.92D-01
                    CP:  8.86D-01  8.84D-01  8.83D-01  8.38D-01
 E= -610.518691750937     Delta-E=       -0.000000000004 Rises=F Damp=F
 DIIS: error= 3.39D-08 at cycle  15 NSaved=  15.
 NSaved=15 IEnMin=15 EnMin= -610.518691750937     IErMin=15 ErrMin= 3.39D-08
 ErrMax= 3.39D-08  0.00D+00 EMaxC= 1.00D-01 BMatC= 1.30D-12 BMatP= 1.82D-11
 IDIUse=1 WtCom= 1.00D+00 WtEn= 0.00D+00
 Coeff-Com:  0.443D-07-0.300D-06 0.175D-05 0.436D-05 0.486D-05-0.810D-05
 Coeff-Com: -0.225D-04-0.281D-03-0.109D-02-0.287D-02-0.473D-02 0.117D-01
 Coeff-Com:  0.707D-01 0.225D+00 0.701D+00
 Coeff:      0.443D-07-0.300D-06 0.175D-05 0.436D-05 0.486D-05-0.810D-05
 Coeff:     -0.225D-04-0.281D-03-0.109D-02-0.287D-02-0.473D-02 0.117D-01
 Coeff:      0.707D-01 0.225D+00 0.701D+00
 Gap=     0.142 Goal=   None    Shift=    0.000
 Gap=     0.142 Goal=   None    Shift=    0.000
 RMSDP=2.23D-08 MaxDP=2.62D-06 DE=-3.87D-12 OVMax= 3.75D-07

 Cycle  16  Pass 1  IDiag  1:
 RMSU=  6.81D-09    CP:  1.06D+00  5.37D-01  7.16D-01  5.67D-01  7.08D-01
                    CP:  7.04D-01  5.51D-01  8.41D-01  1.09D+00  8.91D-01
                    CP:  8.84D-01  8.95D-01  9.09D-01  8.17D-01  7.41D-01
 E= -610.518691750947     Delta-E=       -0.000000000010 Rises=F Damp=F
 DIIS: error= 1.11D-08 at cycle  16 NSaved=  16.
 NSaved=16 IEnMin=16 EnMin= -610.518691750947     IErMin=16 ErrMin= 1.11D-08
 ErrMax= 1.11D-08  0.00D+00 EMaxC= 1.00D-01 BMatC= 1.32D-13 BMatP= 1.30D-12
 IDIUse=1 WtCom= 1.00D+00 WtEn= 0.00D+00
 Coeff-Com:  0.897D-07-0.271D-06 0.601D-06 0.157D-05 0.590D-05 0.700D-05
 Coeff-Com:  0.171D-04 0.152D-04-0.227D-03-0.978D-03-0.405D-02-0.730D-02
 Coeff-Com:  0.482D-02 0.713D-01 0.331D+00 0.605D+00
 Coeff:      0.897D-07-0.271D-06 0.601D-06 0.157D-05 0.590D-05 0.700D-05
 Coeff:      0.171D-04 0.152D-04-0.227D-03-0.978D-03-0.405D-02-0.730D-02
 Coeff:      0.482D-02 0.713D-01 0.331D+00 0.605D+00
 Gap=     0.142 Goal=   None    Shift=    0.000
 Gap=     0.142 Goal=   None    Shift=    0.000
 RMSDP=4.60D-09 MaxDP=2.23D-07 DE=-9.78D-12 OVMax= 8.65D-08

 SCF Done:  E(UB3LYP) =  -610.518691751     A.U. after   16 cycles
            NFock= 16  Conv=0.46D-08     -V/T= 2.0039
 <Sx>= 0.0000 <Sy>= 0.0000 <Sz>= 0.0000 <S**2>=-0.0000 S=-0.0000
 <L.S>=  0.00000000000    
 KE= 6.081689171767D+02 PE=-2.880164514519D+03 EE= 9.341896268605D+02
 Annihilation of the first spin contaminant:
 S**2 before annihilation    -0.0000,   after     0.0000
 Leave Link  502 at Mon Jan  8 01:23:26 2024, MaxMem=  4026531840 cpu:            1115.7 elap:             151.0
 (Enter /sysapps/ubuntu-applications/gaussian/Gaussian/AVX2/g16/l601.exe)
 Copying SCF densities to generalized density rwf, IOpCl= 1 IROHF=0.

 **********************************************************************

            Population analysis using the SCF density.

 **********************************************************************

 Alpha  occ. eigenvalues --  -19.18722 -19.15761 -19.12774 -10.30126 -10.28169
 Alpha  occ. eigenvalues --  -10.27916 -10.22075 -10.21811 -10.21216 -10.21190
 Alpha  occ. eigenvalues --  -10.21021 -10.20671 -10.20195  -1.11805  -1.07636
 Alpha  occ. eigenvalues --   -1.06000  -0.90196  -0.84285  -0.79047  -0.78383
 Alpha  occ. eigenvalues --   -0.70787  -0.66813  -0.64997  -0.61369  -0.58318
 Alpha  occ. eigenvalues --   -0.55243  -0.53209  -0.50315  -0.49385  -0.47789
 Alpha  occ. eigenvalues --   -0.47305  -0.46239  -0.44952  -0.44203  -0.42717
 Alpha  occ. eigenvalues --   -0.41558  -0.41458  -0.39229  -0.38421  -0.38033
 Alpha  occ. eigenvalues --   -0.30954  -0.29875  -0.28903  -0.27862  -0.27353
 Alpha virt. eigenvalues --   -0.13195  -0.06449  -0.03685  -0.01430  -0.00350
 Alpha virt. eigenvalues --    0.00855   0.01845   0.01979   0.02374   0.03922
 Alpha virt. eigenvalues --    0.04036   0.04712   0.05422   0.06708   0.06842
 Alpha virt. eigenvalues --    0.07037   0.07463   0.08843   0.09584   0.10084
 Alpha virt. eigenvalues --    0.10293   0.10676   0.10767   0.11297   0.11410
 Alpha virt. eigenvalues --    0.12012   0.12524   0.13426   0.13844   0.14006
 Alpha virt. eigenvalues --    0.14182   0.15015   0.15312   0.15319   0.16205
 Alpha virt. eigenvalues --    0.17148   0.17512   0.18511   0.19301   0.19782
 Alpha virt. eigenvalues --    0.20176   0.20469   0.20505   0.20854   0.21901
 Alpha virt. eigenvalues --    0.22404   0.22905   0.23629   0.24448   0.24845
 Alpha virt. eigenvalues --    0.24986   0.25738   0.26449   0.26888   0.27503
 Alpha virt. eigenvalues --    0.28370   0.28506   0.28724   0.29890   0.30121
 Alpha virt. eigenvalues --    0.30815   0.30831   0.31369   0.32201   0.32605
 Alpha virt. eigenvalues --    0.33545   0.34292   0.34596   0.35316   0.35676
 Alpha virt. eigenvalues --    0.36930   0.38140   0.38716   0.40744   0.40862
 Alpha virt. eigenvalues --    0.42431   0.44508   0.46778   0.49605   0.49667
 Alpha virt. eigenvalues --    0.50255   0.50769   0.52313   0.53448   0.55349
 Alpha virt. eigenvalues --    0.56417   0.56919   0.57327   0.58736   0.58838
 Alpha virt. eigenvalues --    0.59050   0.60577   0.61044   0.61724   0.61968
 Alpha virt. eigenvalues --    0.62822   0.64413   0.65304   0.67288   0.69022
 Alpha virt. eigenvalues --    0.69938   0.71740   0.72812   0.72984   0.75337
 Alpha virt. eigenvalues --    0.76963   0.79156   0.80424   0.80718   0.83610
 Alpha virt. eigenvalues --    0.83805   0.85805   0.86709   0.87324   0.89460
 Alpha virt. eigenvalues --    0.90983   0.91248   0.91885   0.92672   0.93469
 Alpha virt. eigenvalues --    0.94980   0.96550   0.99316   1.00480   1.01909
 Alpha virt. eigenvalues --    1.02517   1.03920   1.04669   1.05501   1.07986
 Alpha virt. eigenvalues --    1.08208   1.08644   1.10387   1.13276   1.14543
 Alpha virt. eigenvalues --    1.16004   1.16408   1.19449   1.20481   1.20844
 Alpha virt. eigenvalues --    1.23614   1.24322   1.25683   1.28561   1.29577
 Alpha virt. eigenvalues --    1.34371   1.37540   1.38398   1.44196   1.46487
 Alpha virt. eigenvalues --    1.48244   1.48487   1.49414   1.50999   1.52976
 Alpha virt. eigenvalues --    1.54203   1.57771   1.58692   1.61231   1.62863
 Alpha virt. eigenvalues --    1.64193   1.65497   1.67825   1.70606   1.71324
 Alpha virt. eigenvalues --    1.71615   1.72696   1.72792   1.74763   1.76729
 Alpha virt. eigenvalues --    1.79626   1.81216   1.83639   1.87206   1.87819
 Alpha virt. eigenvalues --    1.88906   1.90498   1.92727   1.93225   1.94652
 Alpha virt. eigenvalues --    1.96742   1.98306   1.98587   1.99072   2.04646
 Alpha virt. eigenvalues --    2.06167   2.08840   2.10990   2.11180   2.11753
 Alpha virt. eigenvalues --    2.17975   2.23313   2.26530   2.27090   2.33415
 Alpha virt. eigenvalues --    2.35080   2.41561   2.45156   2.46506   2.49438
 Alpha virt. eigenvalues --    2.55900   2.57919   2.62064   2.62815   2.64485
 Alpha virt. eigenvalues --    2.66371   2.68164   2.69059   2.71043   2.71062
 Alpha virt. eigenvalues --    2.71839   2.73852   2.75163   2.77169   2.77298
 Alpha virt. eigenvalues --    2.80642   2.81628   2.82095   2.84943   2.86973
 Alpha virt. eigenvalues --    2.90098   2.91799   2.93119   2.94107   2.99004
 Alpha virt. eigenvalues --    3.00575   3.06382   3.07407   3.07563   3.15538
 Alpha virt. eigenvalues --    3.15548   3.19463   3.20499   3.21780   3.31658
 Alpha virt. eigenvalues --    3.32341   3.34712   3.35168   3.38122   3.42047
 Alpha virt. eigenvalues --    3.49215   3.50203   3.53327   3.55800   3.56660
 Alpha virt. eigenvalues --    3.64890   3.67106   3.77168   3.79209   3.87897
 Alpha virt. eigenvalues --    4.01223   4.03726   4.08779   4.12934   4.17871
 Alpha virt. eigenvalues --    4.21320   4.32214   4.69472   4.82209   4.95059
 Alpha virt. eigenvalues --    5.03786   5.05107   5.21336   5.23867   5.43780
 Alpha virt. eigenvalues --    5.66312   5.76717   5.79201  23.54244  23.69223
 Alpha virt. eigenvalues --   23.84486  23.89949  23.93047  23.93700  24.03363
 Alpha virt. eigenvalues --   24.06806  24.15589  24.16920  49.89455  50.01127
 Alpha virt. eigenvalues --   50.04327
  Beta  occ. eigenvalues --  -19.18722 -19.15761 -19.12774 -10.30126 -10.28169
  Beta  occ. eigenvalues --  -10.27916 -10.22075 -10.21811 -10.21216 -10.21190
  Beta  occ. eigenvalues --  -10.21021 -10.20671 -10.20195  -1.11805  -1.07636
  Beta  occ. eigenvalues --   -1.06000  -0.90196  -0.84285  -0.79047  -0.78383
  Beta  occ. eigenvalues --   -0.70787  -0.66813  -0.64997  -0.61369  -0.58318
  Beta  occ. eigenvalues --   -0.55243  -0.53209  -0.50315  -0.49385  -0.47789
  Beta  occ. eigenvalues --   -0.47305  -0.46239  -0.44952  -0.44203  -0.42717
  Beta  occ. eigenvalues --   -0.41558  -0.41458  -0.39229  -0.38421  -0.38033
  Beta  occ. eigenvalues --   -0.30954  -0.29875  -0.28903  -0.27862  -0.27353
  Beta virt. eigenvalues --   -0.13195  -0.06449  -0.03685  -0.01430  -0.00350
  Beta virt. eigenvalues --    0.00855   0.01845   0.01979   0.02374   0.03922
  Beta virt. eigenvalues --    0.04036   0.04712   0.05422   0.06708   0.06842
  Beta virt. eigenvalues --    0.07037   0.07463   0.08843   0.09584   0.10084
  Beta virt. eigenvalues --    0.10293   0.10676   0.10767   0.11297   0.11410
  Beta virt. eigenvalues --    0.12012   0.12524   0.13426   0.13844   0.14006
  Beta virt. eigenvalues --    0.14182   0.15015   0.15312   0.15319   0.16205
  Beta virt. eigenvalues --    0.17148   0.17512   0.18511   0.19301   0.19782
  Beta virt. eigenvalues --    0.20176   0.20469   0.20505   0.20854   0.21901
  Beta virt. eigenvalues --    0.22404   0.22905   0.23629   0.24448   0.24845
  Beta virt. eigenvalues --    0.24986   0.25738   0.26449   0.26888   0.27503
  Beta virt. eigenvalues --    0.28370   0.28506   0.28724   0.29890   0.30121
  Beta virt. eigenvalues --    0.30815   0.30831   0.31369   0.32201   0.32605
  Beta virt. eigenvalues --    0.33545   0.34292   0.34596   0.35316   0.35676
  Beta virt. eigenvalues --    0.36930   0.38140   0.38716   0.40744   0.40862
  Beta virt. eigenvalues --    0.42431   0.44508   0.46778   0.49605   0.49667
  Beta virt. eigenvalues --    0.50255   0.50769   0.52313   0.53448   0.55349
  Beta virt. eigenvalues --    0.56417   0.56919   0.57327   0.58736   0.58838
  Beta virt. eigenvalues --    0.59050   0.60577   0.61044   0.61724   0.61968
  Beta virt. eigenvalues --    0.62822   0.64413   0.65304   0.67288   0.69022
  Beta virt. eigenvalues --    0.69938   0.71740   0.72812   0.72984   0.75337
  Beta virt. eigenvalues --    0.76963   0.79156   0.80424   0.80718   0.83610
  Beta virt. eigenvalues --    0.83805   0.85805   0.86709   0.87324   0.89460
  Beta virt. eigenvalues --    0.90983   0.91248   0.91885   0.92672   0.93469
  Beta virt. eigenvalues --    0.94980   0.96550   0.99316   1.00480   1.01909
  Beta virt. eigenvalues --    1.02517   1.03920   1.04669   1.05501   1.07986
  Beta virt. eigenvalues --    1.08208   1.08644   1.10387   1.13276   1.14543
  Beta virt. eigenvalues --    1.16004   1.16408   1.19449   1.20481   1.20844
  Beta virt. eigenvalues --    1.23614   1.24322   1.25683   1.28561   1.29577
  Beta virt. eigenvalues --    1.34371   1.37540   1.38398   1.44196   1.46487
  Beta virt. eigenvalues --    1.48244   1.48487   1.49414   1.50999   1.52976
  Beta virt. eigenvalues --    1.54203   1.57771   1.58692   1.61231   1.62863
  Beta virt. eigenvalues --    1.64193   1.65497   1.67825   1.70606   1.71324
  Beta virt. eigenvalues --    1.71615   1.72696   1.72792   1.74763   1.76729
  Beta virt. eigenvalues --    1.79626   1.81216   1.83639   1.87206   1.87819
  Beta virt. eigenvalues --    1.88906   1.90498   1.92727   1.93225   1.94652
  Beta virt. eigenvalues --    1.96742   1.98306   1.98587   1.99072   2.04646
  Beta virt. eigenvalues --    2.06167   2.08840   2.10990   2.11180   2.11753
  Beta virt. eigenvalues --    2.17975   2.23313   2.26530   2.27090   2.33415
  Beta virt. eigenvalues --    2.35080   2.41561   2.45156   2.46506   2.49438
  Beta virt. eigenvalues --    2.55900   2.57919   2.62064   2.62815   2.64485
  Beta virt. eigenvalues --    2.66371   2.68164   2.69059   2.71043   2.71062
  Beta virt. eigenvalues --    2.71839   2.73852   2.75163   2.77169   2.77298
  Beta virt. eigenvalues --    2.80642   2.81628   2.82095   2.84943   2.86973
  Beta virt. eigenvalues --    2.90098   2.91799   2.93119   2.94107   2.99004
  Beta virt. eigenvalues --    3.00575   3.06382   3.07407   3.07563   3.15538
  Beta virt. eigenvalues --    3.15548   3.19463   3.20499   3.21780   3.31658
  Beta virt. eigenvalues --    3.32341   3.34712   3.35168   3.38122   3.42047
  Beta virt. eigenvalues --    3.49215   3.50203   3.53327   3.55800   3.56660
  Beta virt. eigenvalues --    3.64890   3.67106   3.77168   3.79209   3.87897
  Beta virt. eigenvalues --    4.01223   4.03726   4.08779   4.12934   4.17871
  Beta virt. eigenvalues --    4.21320   4.32214   4.69472   4.82209   4.95059
  Beta virt. eigenvalues --    5.03786   5.05107   5.21336   5.23867   5.43780
  Beta virt. eigenvalues --    5.66312   5.76717   5.79201  23.54244  23.69223
  Beta virt. eigenvalues --   23.84486  23.89949  23.93047  23.93700  24.03363
  Beta virt. eigenvalues --   24.06806  24.15589  24.16920  49.89455  50.01127
  Beta virt. eigenvalues --   50.04327
          Condensed to atoms (all electrons):
               1          2          3          4          5          6
     1  O    8.161282   0.350613  -0.117253  -0.026160  -0.000263   0.031244
     2  C    0.350613  10.175348  -1.046987   0.229727   0.030523   0.797013
     3  C   -0.117253  -1.046987  14.102761  -0.693969  -0.457291  -5.544998
     4  C   -0.026160   0.229727  -0.693969  11.779856   0.628050  -1.082909
     5  O   -0.000263   0.030523  -0.457291   0.628050   7.926250  -0.027161
     6  C    0.031244   0.797013  -5.544998  -1.082909  -0.027161  17.947454
     7  O    0.000056  -0.021998  -0.188950  -0.281286  -0.018673   0.573328
     8  C   -0.469404   0.771481  -0.023336  -0.966332  -0.092530  -7.057257
     9  C   -0.021077   0.403360  -0.870433  -0.651952   0.032292  -0.491877
    10  C   -0.008647   0.207148   0.069522  -0.047229   0.005444  -0.616180
    11  C    0.077147  -0.226276  -0.095264  -0.021128  -0.001225   0.541595
    12  C    0.206642  -0.799712   0.205844  -0.313179  -0.005586  -0.216951
    13  C    0.077748  -4.325633  -0.497272  -2.089992  -0.044712   1.942433
    14  H   -0.016207  -0.052002   0.644970  -0.126601  -0.025682  -0.123014
    15  H    0.000556  -0.019885   0.003261  -0.052574  -0.001451  -0.016530
    16  H   -0.000158  -0.013372   0.000588   0.017094   0.000027   0.015821
    17  H    0.002311   0.007095   0.008053  -0.005005  -0.000024  -0.013261
    18  H   -0.009142   0.014466   0.010434   0.011248   0.000141  -0.028282
    19  H    0.000179   0.015130   0.069581  -0.065812   0.253691  -0.037855
               7          8          9         10         11         12
     1  O    0.000056  -0.469404  -0.021077  -0.008647   0.077147   0.206642
     2  C   -0.021998   0.771481   0.403360   0.207148  -0.226276  -0.799712
     3  C   -0.188950  -0.023336  -0.870433   0.069522  -0.095264   0.205844
     4  C   -0.281286  -0.966332  -0.651952  -0.047229  -0.021128  -0.313179
     5  O   -0.018673  -0.092530   0.032292   0.005444  -0.001225  -0.005586
     6  C    0.573328  -7.057257  -0.491877  -0.616180   0.541595  -0.216951
     7  O    8.182954   0.218246   0.247091   0.058953  -0.017380  -0.012301
     8  C    0.218246  28.171734  -1.164297   1.015886  -1.359670  -3.840283
     9  C    0.247091  -1.164297  10.047702   0.249394  -0.935044   2.393536
    10  C    0.058953   1.015886   0.249394   7.218459  -0.129986  -0.524064
    11  C   -0.017380  -1.359670  -0.935044  -0.129986   7.083900  -0.026960
    12  C   -0.012301  -3.840283   2.393536  -0.524064  -0.026960   9.695358
    13  C   -0.504853  -9.703458  -3.777790  -1.402580   1.108083  -1.289593
    14  H    0.000363   0.054856  -0.028475   0.002093   0.000565  -0.012997
    15  H   -0.016812   0.039143   0.370093  -0.195102   0.012820   0.024953
    16  H    0.002564   0.073201  -0.064803   0.463189  -0.060975  -0.017107
    17  H   -0.000243  -0.057258  -0.015807  -0.073137   0.495741  -0.077900
    18  H    0.000661   0.156833   0.019731   0.023659  -0.169569   0.340348
    19  H    0.046877  -0.002663   0.004109   0.001408   0.001007  -0.003537
              13         14         15         16         17         18
     1  O    0.077748  -0.016207   0.000556  -0.000158   0.002311  -0.009142
     2  C   -4.325633  -0.052002  -0.019885  -0.013372   0.007095   0.014466
     3  C   -0.497272   0.644970   0.003261   0.000588   0.008053   0.010434
     4  C   -2.089992  -0.126601  -0.052574   0.017094  -0.005005   0.011248
     5  O   -0.044712  -0.025682  -0.001451   0.000027  -0.000024   0.000141
     6  C    1.942433  -0.123014  -0.016530   0.015821  -0.013261  -0.028282
     7  O   -0.504853   0.000363  -0.016812   0.002564  -0.000243   0.000661
     8  C   -9.703458   0.054856   0.039143   0.073201  -0.057258   0.156833
     9  C   -3.777790  -0.028475   0.370093  -0.064803  -0.015807   0.019731
    10  C   -1.402580   0.002093  -0.195102   0.463189  -0.073137   0.023659
    11  C    1.108083   0.000565   0.012820  -0.060975   0.495741  -0.169569
    12  C   -1.289593  -0.012997   0.024953  -0.017107  -0.077900   0.340348
    13  C   26.214360  -0.031111   0.182564  -0.090405   0.048947  -0.023964
    14  H   -0.031111   0.482215   0.000089   0.000028  -0.000045   0.000209
    15  H    0.182564   0.000089   0.501053  -0.018251   0.001393   0.000512
    16  H   -0.090405   0.000028  -0.018251   0.525286  -0.017668   0.001788
    17  H    0.048947  -0.000045   0.001393  -0.017668   0.528810  -0.016444
    18  H   -0.023964   0.000209   0.000512   0.001788  -0.016444   0.482874
    19  H    0.006272   0.001443   0.000535  -0.000066  -0.000030  -0.000078
              19
     1  O    0.000179
     2  C    0.015130
     3  C    0.069581
     4  C   -0.065812
     5  O    0.253691
     6  C   -0.037855
     7  O    0.046877
     8  C   -0.002663
     9  C    0.004109
    10  C    0.001408
    11  C    0.001007
    12  C   -0.003537
    13  C    0.006272
    14  H    0.001443
    15  H    0.000535
    16  H   -0.000066
    17  H   -0.000030
    18  H   -0.000078
    19  H    0.423547
          Atomic-Atomic Spin Densities.
               1          2          3          4          5          6
     1  O    0.000000   0.000000   0.000000  -0.000000   0.000000   0.000000
     2  C    0.000000  -0.000000   0.000000   0.000000  -0.000000  -0.000000
     3  C    0.000000   0.000000  -0.000000   0.000000   0.000000   0.000000
     4  C   -0.000000   0.000000   0.000000   0.000000  -0.000000  -0.000000
     5  O    0.000000  -0.000000   0.000000  -0.000000   0.000000   0.000000
     6  C    0.000000  -0.000000   0.000000  -0.000000   0.000000   0.000000
     7  O   -0.000000  -0.000000   0.000000   0.000000  -0.000000  -0.000000
     8  C   -0.000000   0.000000   0.000000   0.000000  -0.000000  -0.000000
     9  C    0.000000  -0.000000   0.000000   0.000000  -0.000000   0.000000
    10  C   -0.000000  -0.000000  -0.000000   0.000000  -0.000000   0.000000
    11  C    0.000000   0.000000   0.000000  -0.000000   0.000000  -0.000000
    12  C    0.000000  -0.000000  -0.000000  -0.000000   0.000000   0.000000
    13  C   -0.000000   0.000000  -0.000000  -0.000000   0.000000   0.000000
    14  H   -0.000000   0.000000  -0.000000   0.000000   0.000000  -0.000000
    15  H    0.000000   0.000000  -0.000000  -0.000000   0.000000   0.000000
    16  H   -0.000000  -0.000000  -0.000000   0.000000  -0.000000   0.000000
    17  H   -0.000000   0.000000   0.000000  -0.000000   0.000000  -0.000000
    18  H   -0.000000  -0.000000  -0.000000   0.000000  -0.000000  -0.000000
    19  H    0.000000  -0.000000   0.000000  -0.000000  -0.000000   0.000000
               7          8          9         10         11         12
     1  O   -0.000000  -0.000000   0.000000  -0.000000   0.000000   0.000000
     2  C   -0.000000   0.000000  -0.000000  -0.000000   0.000000  -0.000000
     3  C    0.000000   0.000000   0.000000  -0.000000   0.000000  -0.000000
     4  C    0.000000   0.000000   0.000000   0.000000  -0.000000  -0.000000
     5  O   -0.000000  -0.000000  -0.000000  -0.000000   0.000000   0.000000
     6  C   -0.000000  -0.000000   0.000000   0.000000  -0.000000   0.000000
     7  O    0.000000   0.000000  -0.000000   0.000000  -0.000000  -0.000000
     8  C    0.000000   0.000000  -0.000000   0.000000  -0.000000  -0.000000
     9  C   -0.000000  -0.000000  -0.000000  -0.000000   0.000000   0.000000
    10  C    0.000000   0.000000  -0.000000   0.000000   0.000000  -0.000000
    11  C   -0.000000  -0.000000   0.000000   0.000000  -0.000000   0.000000
    12  C   -0.000000  -0.000000   0.000000  -0.000000   0.000000   0.000000
    13  C   -0.000000  -0.000000   0.000000  -0.000000  -0.000000   0.000000
    14  H    0.000000   0.000000  -0.000000   0.000000   0.000000  -0.000000
    15  H   -0.000000  -0.000000   0.000000  -0.000000   0.000000   0.000000
    16  H    0.000000   0.000000  -0.000000   0.000000  -0.000000  -0.000000
    17  H   -0.000000  -0.000000   0.000000   0.000000  -0.000000   0.000000
    18  H    0.000000   0.000000  -0.000000   0.000000   0.000000  -0.000000
    19  H    0.000000  -0.000000   0.000000   0.000000  -0.000000   0.000000
              13         14         15         16         17         18
     1  O   -0.000000  -0.000000   0.000000  -0.000000  -0.000000  -0.000000
     2  C    0.000000   0.000000   0.000000  -0.000000   0.000000  -0.000000
     3  C   -0.000000  -0.000000  -0.000000  -0.000000   0.000000  -0.000000
     4  C   -0.000000   0.000000  -0.000000   0.000000  -0.000000   0.000000
     5  O    0.000000   0.000000   0.000000  -0.000000   0.000000  -0.000000
     6  C    0.000000  -0.000000   0.000000   0.000000  -0.000000  -0.000000
     7  O   -0.000000   0.000000  -0.000000   0.000000  -0.000000   0.000000
     8  C   -0.000000   0.000000  -0.000000   0.000000  -0.000000   0.000000
     9  C    0.000000  -0.000000   0.000000  -0.000000   0.000000  -0.000000
    10  C   -0.000000   0.000000  -0.000000   0.000000   0.000000   0.000000
    11  C   -0.000000   0.000000   0.000000  -0.000000  -0.000000   0.000000
    12  C    0.000000  -0.000000   0.000000  -0.000000   0.000000  -0.000000
    13  C    0.000000  -0.000000   0.000000  -0.000000   0.000000  -0.000000
    14  H   -0.000000   0.000000  -0.000000   0.000000  -0.000000   0.000000
    15  H    0.000000  -0.000000   0.000000  -0.000000   0.000000  -0.000000
    16  H   -0.000000   0.000000  -0.000000   0.000000  -0.000000   0.000000
    17  H    0.000000  -0.000000   0.000000  -0.000000  -0.000000  -0.000000
    18  H   -0.000000   0.000000  -0.000000   0.000000  -0.000000   0.000000
    19  H    0.000000  -0.000000   0.000000   0.000000  -0.000000   0.000000
              19
     1  O    0.000000
     2  C   -0.000000
     3  C    0.000000
     4  C   -0.000000
     5  O   -0.000000
     6  C    0.000000
     7  O    0.000000
     8  C   -0.000000
     9  C    0.000000
    10  C    0.000000
    11  C   -0.000000
    12  C    0.000000
    13  C    0.000000
    14  H   -0.000000
    15  H    0.000000
    16  H    0.000000
    17  H   -0.000000
    18  H    0.000000
    19  H    0.000000
 Mulliken charges and spin densities:
               1          2
     1  O   -0.239469  -0.000000
     2  C   -0.496040  -0.000000
     3  C    0.420740   0.000000
     4  C   -0.241848  -0.000000
     5  O   -0.201820   0.000000
     6  C   -0.592615  -0.000000
     7  O   -0.268598  -0.000000
     8  C    0.235107   0.000000
     9  C    0.254246   0.000000
    10  C   -0.318230   0.000000
    11  C   -0.277380  -0.000000
    12  C    0.273487  -0.000000
    13  C    0.200954   0.000000
    14  H    0.229303   0.000000
    15  H    0.183634  -0.000000
    16  H    0.183219   0.000000
    17  H    0.184471   0.000000
    18  H    0.184576   0.000000
    19  H    0.286260   0.000000
 Sum of Mulliken charges =  -0.00000   0.00000
 Mulliken charges and spin densities with hydrogens summed into heavy atoms:
               1          2
     1  O   -0.239469  -0.000000
     2  C   -0.496040  -0.000000
     3  C    0.650043   0.000000
     4  C   -0.241848  -0.000000
     5  O    0.084440   0.000000
     6  C   -0.592615  -0.000000
     7  O   -0.268598  -0.000000
     8  C    0.235107   0.000000
     9  C    0.437880   0.000000
    10  C   -0.135010   0.000000
    11  C   -0.092908  -0.000000
    12  C    0.458063  -0.000000
    13  C    0.200954   0.000000
 Electronic spatial extent (au):  <R**2>=           2263.5711
 Charge=             -0.0000 electrons
 Dipole moment (field-independent basis, Debye):
    X=              2.7751    Y=             -1.4588    Z=             -0.2559  Tot=              3.1456
 Quadrupole moment (field-independent basis, Debye-Ang):
   XX=            -68.1164   YY=            -82.5159   ZZ=            -75.6269
   XY=              2.9940   XZ=              0.0891   YZ=             -0.8458
 Traceless Quadrupole moment (field-independent basis, Debye-Ang):
   XX=              7.3033   YY=             -7.0961   ZZ=             -0.2072
   XY=              2.9940   XZ=              0.0891   YZ=             -0.8458
 Octapole moment (field-independent basis, Debye-Ang**2):
  XXX=            124.1099  YYY=             50.3330  ZZZ=             -7.6260  XYY=             45.3152
  XXY=             17.0884  XXZ=             -4.6957  XZZ=             25.1203  YZZ=             20.7428
  YYZ=             -4.9393  XYZ=              2.2203
 Hexadecapole moment (field-independent basis, Debye-Ang**3):
 XXXX=          -1736.8479 YYYY=          -1194.8222 ZZZZ=            -92.1386 XXXY=           -127.2731
 XXXZ=             26.6247 YYYX=            -53.3204 YYYZ=            -52.0540 ZZZX=             31.5882
 ZZZY=            -40.1425 XXYY=           -426.1648 XXZZ=           -324.5786 YYZZ=           -199.4354
 XXYZ=             -6.3853 YYXZ=             13.5748 ZZXY=            -35.3520
 N-N= 7.272872787308D+02 E-N=-2.880164515378D+03  KE= 6.081689171767D+02
                          Isotropic Fermi Contact Couplings
        Atom                 a.u.       MegaHertz       Gauss      10(-4) cm-1
     1  O(17)             -0.00000       0.00000       0.00000       0.00000
     2  C(13)             -0.00000      -0.00000      -0.00000      -0.00000
     3  C(13)             -0.00000      -0.00000      -0.00000      -0.00000
     4  C(13)              0.00000       0.00000       0.00000       0.00000
     5  O(17)              0.00000      -0.00000      -0.00000      -0.00000
     6  C(13)              0.00000       0.00000       0.00000       0.00000
     7  O(17)              0.00000      -0.00000      -0.00000      -0.00000
     8  C(13)             -0.00000      -0.00000      -0.00000      -0.00000
     9  C(13)             -0.00000      -0.00000      -0.00000      -0.00000
    10  C(13)              0.00000       0.00000       0.00000       0.00000
    11  C(13)             -0.00000      -0.00000      -0.00000      -0.00000
    12  C(13)              0.00000       0.00000       0.00000       0.00000
    13  C(13)             -0.00000      -0.00000      -0.00000      -0.00000
    14  H(1)               0.00000       0.00000       0.00000       0.00000
    15  H(1)               0.00000       0.00000       0.00000       0.00000
    16  H(1)               0.00000       0.00000       0.00000       0.00000
    17  H(1)               0.00000       0.00000       0.00000       0.00000
    18  H(1)              -0.00000      -0.00000      -0.00000      -0.00000
    19  H(1)               0.00000       0.00000       0.00000       0.00000
 --------------------------------------------------------
       Center         ----  Spin Dipole Couplings  ----
                      3XX-RR        3YY-RR        3ZZ-RR
 --------------------------------------------------------
     1   Atom        0.000000     -0.000000     -0.000000
     2   Atom       -0.000000      0.000000      0.000000
     3   Atom       -0.000000      0.000000     -0.000000
     4   Atom       -0.000000     -0.000000      0.000000
     5   Atom       -0.000000      0.000000      0.000000
     6   Atom       -0.000000      0.000000     -0.000000
     7   Atom        0.000000      0.000000     -0.000000
     8   Atom       -0.000000      0.000000     -0.000000
     9   Atom       -0.000000     -0.000000      0.000000
    10   Atom       -0.000000      0.000000      0.000000
    11   Atom       -0.000000      0.000000      0.000000
    12   Atom       -0.000000      0.000000     -0.000000
    13   Atom        0.000000     -0.000000      0.000000
    14   Atom        0.000000     -0.000000      0.000000
    15   Atom        0.000000     -0.000000      0.000000
    16   Atom        0.000000     -0.000000     -0.000000
    17   Atom        0.000000     -0.000000      0.000000
    18   Atom       -0.000000      0.000000     -0.000000
    19   Atom       -0.000000      0.000000     -0.000000
 --------------------------------------------------------
                        XY            XZ            YZ
 --------------------------------------------------------
     1   Atom       -0.000000     -0.000000      0.000000
     2   Atom        0.000000      0.000000      0.000000
     3   Atom        0.000000     -0.000000      0.000000
     4   Atom        0.000000      0.000000     -0.000000
     5   Atom       -0.000000     -0.000000      0.000000
     6   Atom       -0.000000     -0.000000      0.000000
     7   Atom       -0.000000     -0.000000      0.000000
     8   Atom        0.000000      0.000000      0.000000
     9   Atom       -0.000000      0.000000     -0.000000
    10   Atom        0.000000      0.000000      0.000000
    11   Atom        0.000000      0.000000      0.000000
    12   Atom       -0.000000     -0.000000      0.000000
    13   Atom        0.000000      0.000000     -0.000000
    14   Atom        0.000000      0.000000     -0.000000
    15   Atom       -0.000000     -0.000000     -0.000000
    16   Atom       -0.000000     -0.000000      0.000000
    17   Atom       -0.000000     -0.000000     -0.000000
    18   Atom        0.000000     -0.000000      0.000000
    19   Atom       -0.000000     -0.000000      0.000000
 --------------------------------------------------------


 ---------------------------------------------------------------------------------
              Anisotropic Spin Dipole Couplings in Principal Axis System
 ---------------------------------------------------------------------------------

       Atom             a.u.   MegaHertz   Gauss  10(-4) cm-1        Axes

              Baa    -0.0000     0.000     0.000     0.000  0.0576 -0.0106  0.9983
     1 O(17)  Bbb    -0.0000     0.000     0.000     0.000  0.1410  0.9900  0.0024
              Bcc     0.0000    -0.000    -0.000    -0.000  0.9883 -0.1406 -0.0585
 
              Baa    -0.0000    -0.000    -0.000    -0.000  0.9993 -0.0193 -0.0315
     2 C(13)  Bbb     0.0000     0.000     0.000     0.000  0.0303 -0.0568  0.9979
              Bcc     0.0000     0.000     0.000     0.000  0.0211  0.9982  0.0561
 
              Baa    -0.0000    -0.000    -0.000    -0.000  0.2316 -0.1192  0.9655
     3 C(13)  Bbb    -0.0000    -0.000    -0.000    -0.000  0.9623 -0.1173 -0.2453
              Bcc     0.0000     0.000     0.000     0.000  0.1425  0.9859  0.0876
 
              Baa    -0.0000    -0.000    -0.000    -0.000  0.8176 -0.5685 -0.0912
     4 C(13)  Bbb     0.0000     0.000     0.000     0.000  0.5725  0.8195  0.0242
              Bcc     0.0000     0.000     0.000     0.000  0.0610 -0.0720  0.9955
 
              Baa    -0.0000     0.000     0.000     0.000  0.7796  0.6253 -0.0361
     5 O(17)  Bbb     0.0000    -0.000    -0.000    -0.000  0.0986 -0.0656  0.9930
              Bcc     0.0000    -0.000    -0.000    -0.000 -0.6185  0.7776  0.1128
 
              Baa    -0.0000    -0.000    -0.000    -0.000  0.8449  0.5339 -0.0329
     6 C(13)  Bbb    -0.0000    -0.000    -0.000    -0.000  0.0932 -0.0865  0.9919
              Bcc     0.0000     0.000     0.000     0.000 -0.5267  0.8411  0.1229
 
              Baa    -0.0000     0.000     0.000     0.000  0.7005  0.7118  0.0523
     7 O(17)  Bbb    -0.0000     0.000     0.000     0.000  0.0154 -0.0883  0.9960
              Bcc     0.0000    -0.000    -0.000    -0.000  0.7135 -0.6968 -0.0728
 
              Baa    -0.0000    -0.000    -0.000    -0.000  0.9956 -0.0808  0.0472
     8 C(13)  Bbb    -0.0000    -0.000    -0.000    -0.000 -0.0543 -0.0871  0.9947
              Bcc     0.0000     0.000     0.000     0.000  0.0762  0.9929  0.0911
 
              Baa    -0.0000    -0.000    -0.000    -0.000  0.9635  0.2674 -0.0144
     9 C(13)  Bbb     0.0000     0.000     0.000     0.000 -0.2670  0.9633  0.0276
              Bcc     0.0000     0.000     0.000     0.000  0.0212 -0.0228  0.9995
 
              Baa    -0.0000    -0.000    -0.000    -0.000  0.9656 -0.2543 -0.0542
    10 C(13)  Bbb     0.0000     0.000     0.000     0.000  0.2361  0.9450 -0.2263
              Bcc     0.0000     0.000     0.000     0.000  0.1087  0.2057  0.9725
 
              Baa    -0.0000    -0.000    -0.000    -0.000  0.9635 -0.2608 -0.0609
    11 C(13)  Bbb     0.0000     0.000     0.000     0.000  0.0366 -0.0969  0.9946
              Bcc     0.0000     0.000     0.000     0.000  0.2653  0.9605  0.0839
 
              Baa    -0.0000    -0.000    -0.000    -0.000  0.8744  0.4850 -0.0161
    12 C(13)  Bbb    -0.0000    -0.000    -0.000    -0.000  0.0719 -0.0967  0.9927
              Bcc     0.0000     0.000     0.000     0.000 -0.4799  0.8692  0.1194
 
              Baa    -0.0000    -0.000    -0.000    -0.000 -0.2936  0.9507  0.1000
    13 C(13)  Bbb     0.0000     0.000     0.000     0.000  0.0576 -0.0868  0.9946
              Bcc     0.0000     0.000     0.000     0.000  0.9542  0.2977 -0.0293
 
              Baa    -0.0000    -0.000    -0.000    -0.000 -0.6378  0.7639  0.0978
    14 H(1)   Bbb     0.0000     0.000     0.000     0.000  0.0453 -0.0896  0.9950
              Bcc     0.0000     0.000     0.000     0.000  0.7688  0.6390  0.0225
 
              Baa    -0.0000    -0.000    -0.000    -0.000  0.3809  0.9211  0.0810
    15 H(1)   Bbb     0.0000     0.000     0.000     0.000  0.0373 -0.1028  0.9940
              Bcc     0.0000     0.000     0.000     0.000  0.9239 -0.3756 -0.0735
 
              Baa    -0.0000    -0.000    -0.000    -0.000  0.0151 -0.1460  0.9892
    16 H(1)   Bbb    -0.0000    -0.000    -0.000    -0.000  0.5581  0.8221  0.1128
              Bcc     0.0000     0.000     0.000     0.000  0.8296 -0.5504 -0.0939
 
              Baa    -0.0000    -0.000    -0.000    -0.000  0.2593  0.9630  0.0738
    17 H(1)   Bbb     0.0000     0.000     0.000     0.000  0.0442 -0.0882  0.9951
              Bcc     0.0000     0.000     0.000     0.000  0.9648 -0.2548 -0.0654
 
              Baa    -0.0000    -0.000    -0.000    -0.000  0.0805 -0.1017  0.9916
    18 H(1)   Bbb    -0.0000    -0.000    -0.000    -0.000  0.9876 -0.1261 -0.0931
              Bcc     0.0000     0.000     0.000     0.000  0.1345  0.9868  0.0903
 
              Baa    -0.0000    -0.000    -0.000    -0.000  0.9401  0.3409 -0.0058
    19 H(1)   Bbb    -0.0000    -0.000    -0.000    -0.000  0.0414 -0.0972  0.9944
              Bcc     0.0000     0.000     0.000     0.000 -0.3384  0.9351  0.1055
 

 ---------------------------------------------------------------------------------

 No NMR shielding tensors so no spin-rotation constants.
 Leave Link  601 at Mon Jan  8 01:23:27 2024, MaxMem=  4026531840 cpu:               6.5 elap:               1.2
 (Enter /sysapps/ubuntu-applications/gaussian/Gaussian/AVX2/g16/l701.exe)
 ... and contract with generalized density number  0.
 Compute integral first derivatives.
 Leave Link  701 at Mon Jan  8 01:23:28 2024, MaxMem=  4026531840 cpu:               3.4 elap:               0.7
 (Enter /sysapps/ubuntu-applications/gaussian/Gaussian/AVX2/g16/l702.exe)
 L702 exits ... SP integral derivatives will be done elsewhere.
 Leave Link  702 at Mon Jan  8 01:23:28 2024, MaxMem=  4026531840 cpu:               0.4 elap:               0.1
 (Enter /sysapps/ubuntu-applications/gaussian/Gaussian/AVX2/g16/l703.exe)
 Integral derivatives from FoFJK, PRISM(SPDF).
 Compute integral first derivatives, UseDBF=F ICtDFT=           0.
 Calling FoFJK, ICntrl=      2127 FMM=F ISym2X=0 I1Cent= 0 IOpClX= 1 NMat=1 NMatS=1 NMatT=0.
 FoFJK:  IHMeth= 1 ICntrl=    2127 DoSepK=F KAlg= 0 I1Cent=           0 FoldK=F
 IRaf=         0 NMat=       1 IRICut=       1 DoRegI=T DoRafI=F ISym2E= 0 IDoP0=0 IntGTp=1.
 FoFCou: FMM=F IPFlag=           0 FMFlag=      100000 FMFlg1=         800
         NFxFlg=           0 DoJE=F BraDBF=F KetDBF=F FulRan=T
         wScrn=  0.000000 ICntrl=      2127 IOpCl=  1 I1Cent=           0 NGrid=           0
         NMat0=    1 NMatS0=      1 NMatT0=    0 NMatD0=    1 NMtDS0=    0 NMtDT0=    0
 Symmetry not used in FoFCou.
 Leave Link  703 at Mon Jan  8 01:23:56 2024, MaxMem=  4026531840 cpu:             195.8 elap:              28.1
 (Enter /sysapps/ubuntu-applications/gaussian/Gaussian/AVX2/g16/l716.exe)
 Dipole        = 1.09180949D+00-5.73948161D-01-1.00694126D-01
 -------------------------------------------------------------------
 Center     Atomic                   Forces (Hartrees/Bohr)
 Number     Number              X              Y              Z
 -------------------------------------------------------------------
      1        8          -0.000000101    0.000041731   -0.000005165
      2        6          -0.000023408   -0.000037900    0.000025494
      3        6          -0.000031015    0.000108403    0.000003725
      4        6          -0.000127801   -0.000210763   -0.000030950
      5        8           0.000166170   -0.000003321   -0.000007579
      6        6           0.000002107    0.000035032    0.000036230
      7        8           0.000051179   -0.000046688   -0.000022167
      8        6          -0.000051171   -0.000007266   -0.000006998
      9        6           0.000035937    0.000045868    0.000001622
     10        6          -0.000039203   -0.000081044   -0.000005590
     11        6          -0.000019971    0.000060003    0.000006968
     12        6          -0.000035244    0.000005748    0.000003210
     13        6           0.000028495   -0.000057360   -0.000016145
     14        1           0.000009981   -0.000007927    0.000000714
     15        1           0.000015803   -0.000006295   -0.000002163
     16        1           0.000007038    0.000003009   -0.000000549
     17        1           0.000010086   -0.000010516   -0.000001002
     18        1           0.000014135   -0.000014025   -0.000000585
     19        1          -0.000013018    0.000183312    0.000020930
 -------------------------------------------------------------------
 Cartesian Forces:  Max     0.000210763 RMS     0.000055194
 Leave Link  716 at Mon Jan  8 01:23:57 2024, MaxMem=  4026531840 cpu:               0.5 elap:               0.1
 (Enter /sysapps/ubuntu-applications/gaussian/Gaussian/AVX2/g16/l103.exe)

 GradGradGradGradGradGradGradGradGradGradGradGradGradGradGradGradGradGrad
 Berny optimization.
 FormGI is forming the generalized inverse of G from B-inverse, IUseBI=4.
 Internal  Forces:  Max     0.000229041 RMS     0.000036403
 Search for a local minimum.
 Step number   1 out of a maximum of  107
 All quantities printed in internal units (Hartrees-Bohrs-Radians)
 RMS Force = .36403D-04 SwitMx=.10000D-02 MixMth= 2
 Mixed Optimization -- En-DIIS/RFO-DIIS
 Second derivative matrix not updated -- first step.
 ITU=  0
     Eigenvalues ---    0.00938   0.00954   0.00970   0.01501   0.01595
     Eigenvalues ---    0.01822   0.01907   0.01925   0.02149   0.02154
     Eigenvalues ---    0.02165   0.02169   0.02176   0.02182   0.02204
     Eigenvalues ---    0.02533   0.16000   0.16000   0.16000   0.16000
     Eigenvalues ---    0.16000   0.16000   0.22000   0.22583   0.23459
     Eigenvalues ---    0.24503   0.25000   0.25000   0.25000   0.25000
     Eigenvalues ---    0.25000   0.31192   0.32253   0.34232   0.35504
     Eigenvalues ---    0.35542   0.35617   0.35622   0.35627   0.36032
     Eigenvalues ---    0.40133   0.42348   0.44985   0.46215   0.46597
     Eigenvalues ---    0.46988   0.52089   0.53774   0.58020   0.93661
     Eigenvalues ---    0.94294
 RFO step:  Lambda=-3.58790073D-07 EMin= 9.38403183D-03
 Linear search not attempted -- first point.
 Iteration  1 RMS(Cart)=  0.00025510 RMS(Int)=  0.00000009
 Iteration  2 RMS(Cart)=  0.00000008 RMS(Int)=  0.00000006
 ITry= 1 IFail=0 DXMaxC= 1.01D-03 DCOld= 1.00D+10 DXMaxT= 3.00D-01 DXLimC= 3.00D+00 Rises=F
 Variable       Old X    -DE/DX   Delta X   Delta X   Delta X     New X
                                 (Linear)    (Quad)   (Total)
    R1        2.31015   0.00004   0.00000   0.00004   0.00004   2.31019
    R2        2.76677  -0.00003   0.00000  -0.00008  -0.00008   2.76669
    R3        2.84229   0.00002   0.00000   0.00005   0.00005   2.84235
    R4        2.54879   0.00008   0.00000   0.00015   0.00015   2.54894
    R5        2.04676  -0.00001   0.00000  -0.00004  -0.00004   2.04673
    R6        2.52542  -0.00023   0.00000  -0.00039  -0.00039   2.52503
    R7        2.83328   0.00003   0.00000   0.00011   0.00011   2.83339
    R8        1.84514  -0.00018   0.00000  -0.00034  -0.00034   1.84480
    R9        2.31290   0.00005   0.00000   0.00005   0.00005   2.31295
   R10        2.78608  -0.00005   0.00000  -0.00015  -0.00015   2.78593
[...]
 160,0.00039860,0.01475805,0.00082995,-0.02402965,-0.03821609,-0.000970
 53,0.04474816,-0.45577629,-0.04078103,0.05314333,0.85494483,0.00028281
 ,0.00097424,0.00577902,-0.00257871,-0.00068156,-0.01667297,0.00735607,
 -0.04012914,-0.04417612,-0.01426326,0.06653751,0.12591463,-0.00316621,
 -0.00532364,-0.00043790,0.01582926,0.01042470,0.00071404,-0.00511717,-
 0.02631046,-0.00189599,-0.26547864,-0.07492111,0.00268706,0.41942578,-
 0.00690442,-0.00966317,-0.00043999,0.02452868,0.00718319,-0.00130097,-
 0.06329867,-0.04748144,-0.00248150,-0.12777314,-0.17991440,-0.00763765
 ,0.00337639,0.61953387,-0.00058646,-0.00050852,-0.00180536,0.00203594,
 -0.00069358,0.00965926,-0.00535241,-0.00406564,0.00794167,-0.00226030,
 -0.00990917,-0.04046438,-0.01628376,0.05476918,0.03868244,-0.01084071,
 -0.00425443,0.00008084,0.03142248,0.00690702,-0.00076426,0.00358959,0.
 00158598,-0.00031439,-0.16718819,0.01800508,0.00615607,-0.05673568,-0.
 00243648,0.00242481,0.53852512,0.00065709,0.00176485,0.00010807,-0.003
 02394,-0.00062763,0.00020151,0.02536044,-0.02095419,-0.00238689,0.0286
 6120,-0.08048849,-0.00284864,-0.02149185,-0.00565879,-0.00007958,0.053
 26625,0.87526361,0.00053954,0.00031856,0.00030776,-0.00169361,-0.00022
 515,-0.00134629,0.00191619,-0.00135599,-0.00729631,0.00714586,-0.00240
 413,-0.06382655,0.00064033,-0.00089794,0.00496716,-0.01081557,0.063540
 06,0.17683561,0.00352711,0.00137541,-0.00001930,-0.01052798,-0.0023067
 3,0.00024933,-0.00347884,0.00604883,0.00084299,-0.00538063,0.03071224,
 0.00393608,0.00023539,0.02152798,0.00206758,-0.10281568,-0.02550930,-0
 .00059739,0.10809927,-0.00038499,-0.00067530,-0.00005422,0.00058473,0.
 00044051,-0.00001241,0.00863015,0.00708513,0.00001147,0.02530270,-0.07
 408279,-0.00983277,-0.00393334,0.00723133,0.00069594,-0.02154147,-0.64
 348006,-0.05340351,0.02120026,0.75845646,-0.00018375,-0.00013010,0.000
 07908,0.00051960,0.00011190,0.00028829,0.00108266,0.00012337,0.0029540
 4,0.00343353,-0.01006354,0.01848936,-0.00030923,-0.00039345,0.00154798
 ,-0.00023155,-0.05322532,-0.06634420,-0.00142767,0.06718871,0.03514926
 ,-0.00340825,0.00730648,0.00097868,-0.00322988,0.02371841,0.00194581,-
 0.00081792,0.00033573,0.00045614,-0.02506821,-0.00829594,0.00039496,-0
 .00255097,0.00298469,0.00054486,-0.19409802,-0.02369911,0.00373555,0.0
 0461763,-0.03481122,-0.00286587,0.65313284,0.00004546,0.00470227,0.000
 11360,0.00991707,-0.01705532,-0.00111270,-0.00198526,-0.00151956,-0.00
 090190,0.00772665,0.01794743,0.00111648,0.00730339,0.00067366,-0.00059
 273,-0.03650547,-0.11692818,-0.00422747,-0.04595628,-0.05009001,-0.003
 98204,-0.03000471,0.66425712,0.00029953,-0.00019565,0.00343587,0.00064
 904,-0.00171362,-0.00983298,0.00023866,-0.00100383,0.00893444,0.001909
 70,0.00180999,0.00246673,0.00094803,-0.00040834,0.00357665,0.00253190,
 -0.00477406,-0.05566856,-0.00389214,-0.00446226,0.01339517,-0.02566488
 ,0.05219384,0.12600411,-0.00316851,0.00172834,0.00023516,0.01211451,-0
 .00136863,-0.00027635,0.00065025,-0.00021027,-0.00015863,0.00120615,-0
 .00717439,-0.00060149,-0.00187999,-0.00004484,0.00009520,-0.04254943,-
 0.00408790,0.00148039,-0.00007872,0.01035091,0.00096311,-0.25954752,0.
 06081335,0.01418379,0.65565846,0.00299991,-0.00163171,-0.00014568,-0.0
 0556693,-0.00480549,-0.00102106,0.00023734,0.00049654,0.00027891,-0.00
 333838,-0.00364921,-0.00046327,-0.00195682,0.00086095,0.00012358,-0.01
 322408,0.02039934,0.00240047,-0.00055779,-0.00407164,-0.00034164,0.109
 39437,-0.17310299,-0.01513072,0.01557100,0.73620457,0.00035407,-0.0000
 9138,-0.00147371,-0.00066740,-0.00120108,0.00858536,-0.00011726,0.0002
 9729,-0.00255976,-0.00024161,-0.00029881,0.00282169,-0.00008351,0.0000
 4148,0.00044403,0.00062172,0.00201122,0.00093718,-0.00005561,-0.000812
 44,-0.00022068,0.01871374,-0.01304001,-0.06355145,-0.02076845,0.055328
 21,0.14335412,0.00069053,-0.00115280,-0.00012890,-0.00227773,-0.000858
 73,-0.00003424,-0.00086825,-0.00059133,0.00000671,-0.00101931,0.000993
 57,0.00008284,-0.00071578,-0.00058828,-0.00003082,-0.00244698,0.008317
 74,0.00118073,0.00253678,-0.00123455,-0.00024918,-0.05779036,0.0155910
 6,0.00434543,-0.27994666,-0.12456979,-0.00235534,0.72328792,0.00306638
 ,-0.00069572,-0.00021474,-0.00670248,-0.00273931,0.00014565,-0.0008676
 7,-0.00034614,-0.00004917,-0.00128479,0.00378219,0.00052690,0.00073351
 ,0.00009036,-0.00000902,0.00839883,0.00187567,-0.00083856,-0.00058519,
 -0.00081041,0.00000460,-0.02828056,0.05619268,0.00556288,-0.05991230,-
 0.18596807,-0.00890444,-0.03218770,0.66299914,0.00026544,-0.00003378,0
 .00018240,-0.00058085,-0.00010527,-0.00120698,-0.00001915,-0.00006118,
 0.00057439,-0.00013059,0.00042846,-0.00121437,0.00009281,0.00004785,-0
 .00015069,0.00118949,-0.00083346,0.00685547,-0.00018855,0.00003169,-0.
 00057780,0.00024474,0.00368276,0.00994171,0.00368267,-0.00613466,-0.06
 402970,-0.02827198,0.05082874,0.14009993,0.00314601,0.00077510,-0.0000
 8890,-0.00389312,-0.00797668,-0.00025845,-0.00166233,-0.00010091,0.000
 02384,-0.00117065,0.00229133,0.00029965,-0.00024419,-0.00051151,-0.000
 03494,-0.00020768,0.00034979,-0.00001576,0.00061091,0.00168746,0.00013
 679,-0.01657157,0.02744885,0.00295316,0.03747269,-0.02941038,-0.004071
 64,-0.13168944,-0.02702288,0.00046299,0.71398441,0.00037752,0.00090622
 ,0.00012622,-0.00393361,-0.00077356,-0.00059951,0.00067003,0.00279728,
 0.00031558,0.00087827,-0.00278988,-0.00037509,0.00044536,0.00111986,0.
 00008009,0.00329340,-0.00216752,-0.00021866,-0.00233442,-0.00118631,-0
 .00002282,0.02592179,-0.04473487,-0.00459705,-0.07263274,-0.03051992,-
 0.00035540,0.03901123,-0.32325331,-0.02608499,0.03927633,0.66895593,-0
 .00012611,0.00010970,-0.00060683,0.00011920,-0.00042687,0.00740776,0.0
 0009556,0.00034881,-0.00086008,0.00016732,-0.00043550,0.00076735,0.000
 05466,0.00012105,0.00006846,0.00025917,-0.00009311,-0.00135599,-0.0002
 3911,-0.00019471,0.00011827,0.00281213,-0.00466292,-0.00793346,-0.0081
 1429,-0.00220828,0.00671279,0.00662758,-0.02324941,-0.06464156,-0.0210
 5744,0.04801870,0.14275972,-0.00272388,-0.00729707,-0.00055547,-0.0360
 3233,-0.00072869,0.00156146,-0.00002195,0.00639568,0.00067169,0.001245
 59,-0.00329783,-0.00049612,0.00081422,0.00162075,0.00013144,0.00881795
 ,0.00523546,0.00052159,-0.00235446,-0.00465618,-0.00039997,0.02404446,
 -0.06810193,-0.00713907,-0.06300477,-0.00048760,0.00243207,0.03227784,
 0.07540794,0.00594422,-0.28484308,0.05071945,0.01425156,0.65862437,0.0
 0036205,-0.00435243,-0.00044599,0.01008221,0.02153045,0.00139537,0.004
 42859,-0.00200389,-0.00053583,-0.00077763,-0.00173422,0.00016224,0.000
 50395,0.00136228,0.00007352,0.00462986,-0.00573349,-0.00162909,-0.0030
 5270,-0.00146207,0.00013794,-0.02891152,-0.02850898,-0.00198707,-0.003
 81584,-0.00025718,0.00062315,0.03350199,-0.02223272,-0.00412556,0.1161
 5501,-0.17603469,-0.01553215,-0.01154673,0.73553310,0.00016195,-0.0001
 1911,0.00023768,0.00257203,0.00185997,0.00202829,0.00048785,-0.0006202
 2,0.00162092,-0.00026009,0.00027012,-0.00307931,0.00002699,0.00002552,
 0.00034651,0.00046458,-0.00165501,0.00939704,-0.00025035,0.00020567,-0
 .00150259,-0.00347446,-0.00030552,0.00608313,0.00212083,0.00047999,-0.
 00525259,0.00203116,-0.00592538,0.00592779,0.02035759,-0.01272001,-0.0
 6529912,-0.02345534,0.05645619,0.14315437,0.00400932,0.03465058,0.0037
 4853,-0.17273381,0.00412729,0.00505340,-0.02820023,0.00544230,0.001968
 23,-0.00102536,0.00714217,0.00116072,-0.00207099,-0.00375342,-0.000390
 08,0.00148226,-0.03101603,-0.00354938,-0.00472408,-0.00328045,0.000110
 14,-0.11849944,0.02854805,0.00569230,0.02059543,0.03165609,0.00236586,
 -0.01317506,-0.02340048,-0.00192931,-0.05694799,0.01908370,0.00455462,
 -0.26030161,-0.11743436,-0.00244123,0.63586387,0.04506719,-0.05137066,
 -0.00822200,0.01843571,-0.09930782,-0.00408425,-0.01270162,0.01475682,
 0.00138547,0.00182370,0.00017183,-0.00104163,0.00006286,-0.00121015,0.
 00016260,-0.01523895,-0.02384162,-0.00029965,0.00149428,0.00794036,0.0
 0021392,-0.01154962,-0.29618529,-0.02272030,0.07111033,-0.02351475,-0.
 00587515,-0.02811562,-0.04886441,-0.00268199,-0.02330237,0.06041854,0.
 00592400,-0.06570309,-0.18607521,-0.00885790,0.04627830,0.66312536,0.0
 0471520,-0.00778083,0.01494956,0.00638855,-0.00345890,-0.06471350,0.00
 026313,0.00060690,0.00573576,0.00066295,-0.00127594,0.01034246,-0.0000
 3248,0.00032802,-0.00295055,-0.00206867,0.00036628,-0.01349068,0.00055
 471,0.00042073,0.00497367,0.00195922,-0.02444138,-0.05027654,0.0060520
 2,-0.00418056,0.00606191,-0.00236958,-0.00288482,-0.00740880,0.0005905
 3,0.00410686,0.00804219,0.00238842,-0.00664402,-0.06194525,-0.01757533
 ,0.04831076,0.13068827,0.00396042,-0.00019560,-0.00027715,-0.01914209,
 0.01612366,0.00238626,-0.27044437,0.12227862,0.02159434,0.00475290,-0.
 00175541,-0.00002979,0.00010406,-0.00003964,-0.00023751,-0.00040261,-0
 .00152799,0.00037658,0.00069825,-0.00006624,-0.00015468,0.00084625,-0.
 00006887,-0.00015549,-0.00028244,0.00016644,0.00003035,0.00009865,0.00
 018812,0.00001827,-0.00015133,-0.00043677,-0.00004649,-0.00081298,0.00
 105110,0.00016760,-0.00195664,-0.00413195,-0.00016608,0.28300814,0.002
 04740,0.00120467,0.00021772,-0.01637302,0.01139576,0.00164212,0.121989
 54,-0.12488711,-0.01376037,0.02995547,-0.01038314,-0.00299379,-0.00025
 862,0.00280951,0.00077283,-0.00432144,-0.00249100,-0.00114141,0.001760
 23,-0.00240495,-0.00004145,0.00031223,-0.00026206,0.00020817,0.0000508
 1,0.00014926,0.00000620,-0.00001116,-0.00001861,-0.00001210,-0.0002329
 9,-0.00011593,0.00002563,-0.00055103,0.00074719,0.00001801,-0.00251446
 ,-0.00251464,-0.00042179,-0.13192613,0.12673040,-0.00006635,0.00031452
 ,-0.00203831,-0.00065079,0.00024594,0.00139940,0.02156432,-0.01377218,
 -0.03589073,0.00293566,-0.00163068,0.00760332,-0.00025703,0.00076367,-
 0.00525537,0.00011569,-0.00126143,0.01157734,0.00001633,0.00003550,-0.
 00276236,-0.00012048,0.00022443,-0.00260489,0.00001977,0.00000105,0.00
 005981,-0.00000038,-0.00002082,0.00011359,-0.00002755,0.00003453,-0.00
 027887,0.00001821,-0.00005088,0.00080100,-0.00001596,-0.00035276,0.003
 12487,-0.02352327,0.01542142,0.02477133,-0.00085882,0.00055459,0.00006
 585,0.00184982,0.00103375,0.00006002,-0.00012996,-0.00026310,-0.000016
 49,0.00055848,0.00009110,-0.00001707,-0.00006286,-0.00057557,-0.000046
 51,0.00025028,0.00258763,0.00006739,0.00046648,-0.00182723,-0.00018889
 ,0.00464018,0.02798722,0.00254762,-0.05888696,0.00359416,0.00118689,0.
 00517800,-0.02718351,-0.00257273,-0.00439454,-0.00239071,0.00028422,-0
 .00109462,-0.00003597,-0.00000179,-0.00531711,0.00166743,0.00067187,-0
 .00005392,-0.00006461,-0.00000411,0.05705788,0.00026283,-0.00029569,0.
 00001093,-0.00071654,-0.00020668,-0.00008192,0.00012502,0.00005990,-0.
 00000541,0.00006641,-0.00015972,-0.00001409,0.00003519,0.00009598,-0.0
 0000254,-0.00110748,-0.00208323,0.00020083,-0.00148696,0.00133095,0.00
 018972,0.00069771,-0.01124939,-0.00137987,0.00437358,-0.33744603,-0.02
 808233,0.00270150,-0.00936832,-0.00140535,-0.00257396,0.00044526,-0.00
 054390,-0.00026189,0.00055248,0.00016124,0.00237748,0.00106433,-0.0006
 3027,0.00000876,0.00000499,0.00000092,-0.00463838,0.35706228,0.0000385
 3,-0.00000149,-0.00053555,-0.00010366,-0.00015702,0.00098815,0.0000199
 2,0.00001115,0.00006070,-0.00001911,-0.00001541,-0.00003948,0.00001062
 ,0.00002361,0.00010881,-0.00026755,0.00003714,-0.00368044,-0.00017439,
 0.00021702,0.00001358,0.00000657,-0.00255990,0.00296668,0.00125806,-0.
 02804401,-0.04164797,0.00021961,-0.00012542,0.00440972,0.00026724,-0.0
 0055214,0.00737987,-0.00002301,0.00015225,-0.00104170,0.00073824,-0.00
 060007,0.00663079,0.00000277,0.00000405,-0.00000855,-0.00173228,0.0310
 9006,0.02946558,0.00001413,0.00014262,0.00001927,-0.00016313,-0.000068
 66,-0.00005388,0.00002837,0.00003589,0.00000591,-0.00017325,-0.0003472
 4,-0.00002735,-0.00027076,0.00005814,0.00000899,-0.00036732,0.00157611
 ,0.00017763,-0.00003581,-0.00045198,-0.00003755,-0.00272150,-0.0038751
 8,0.00006203,-0.01865157,0.01431270,0.00229673,-0.27417432,0.11473423,
 0.02084039,0.00335610,-0.00203116,-0.00017709,0.00168440,-0.00043577,0
 .00019625,0.00032634,-0.00080633,-0.00011805,-0.00000003,0.00001638,0.
 00000431,0.00096553,-0.00011536,-0.00022823,0.28939118,0.00022972,0.00
 015257,-0.00000984,-0.00011438,-0.00020035,0.00010507,0.00007916,0.000
 03802,-0.00000804,-0.00025162,-0.00025838,-0.00000826,-0.00008487,0.00
 006733,0.00002749,-0.00069060,0.00077435,0.00007013,0.00013598,-0.0000
 5114,-0.00001743,-0.00329371,-0.00110248,-0.00063222,-0.01646719,0.011
 62979,0.00144558,0.11479998,-0.12039509,-0.01260087,0.02885373,-0.0094
 1336,-0.00245744,-0.00091145,-0.00562102,-0.00115976,-0.00086052,-0.00
 090128,0.00001507,0.00001481,0.00001391,-0.00000541,0.00055949,0.00071
 527,0.00042558,-0.12293344,0.12393545,0.00002734,-0.00000613,0.0001507
 3,-0.00005833,0.00010328,-0.00125973,0.00000992,-0.00000624,0.00008652
 ,-0.00001829,-0.00000418,-0.00005357,-0.00000441,0.00002134,-0.0001857
 0,-0.00003427,-0.00002718,0.00033899,0.00001734,0.00000785,0.00007310,
 0.00011679,-0.00060688,0.00711006,-0.00058143,0.00012484,0.00376107,0.
 02084622,-0.01259766,-0.04030769,0.00270993,-0.00113384,0.00341863,0.0
 0015136,-0.00117955,0.00708530,-0.00012283,0.00001238,-0.00066046,0.00
 000418,-0.00000546,0.00006420,-0.00016430,0.00045511,-0.00404787,-0.02
 278810,0.01443403,0.02822397,0.00002112,0.00048426,0.00004815,-0.00018
 758,-0.00178447,-0.00015167,-0.00041825,0.00024931,0.00004007,0.000214
 96,0.00019592,0.00001772,-0.00016292,-0.00018522,-0.00001043,-0.000191
 73,0.00008198,-0.00004304,0.00002555,-0.00012587,-0.00000378,0.0002697
 9,0.00097102,0.00005053,0.00162034,0.00079135,0.00031716,0.00481380,0.
 00283859,0.00024142,-0.26003613,-0.12413479,-0.00214434,-0.01855200,-0
 .01613551,-0.00051761,-0.00337003,0.00364495,0.00078535,-0.00012193,-0
 .00008409,-0.00001032,0.00010179,0.00023453,0.00000876,0.00066728,-0.0
 0035036,-0.00022384,0.27428988,-0.00016281,-0.00009122,-0.00000970,0.0
 0061696,0.00080069,0.00003306,0.00022850,-0.00014995,-0.00002138,-0.00
 007180,-0.00010860,-0.00002585,-0.00002131,0.00007674,0.00000829,0.000
 03883,-0.00017005,0.00011076,-0.00019044,0.00011914,-0.00000047,0.0009
 5235,-0.00070539,-0.00004431,0.00113625,-0.00559204,-0.00125384,-0.027
 93652,-0.01101638,-0.00023008,-0.12405727,-0.13596422,-0.00370037,0.01
 442666,0.01170445,0.00005160,0.00322366,-0.00064483,-0.00085316,0.0000
 6685,0.00004176,0.00001782,-0.00128723,-0.00047878,0.00002959,0.000365
 55,0.00095575,0.00042785,0.13312094,0.14055556,-0.00001234,-0.00003740
 ,0.00008419,0.00007269,0.00013622,0.00017286,0.00003811,-0.00002230,-0
 .00002953,-0.00000731,-0.00003730,0.00019754,0.00000489,0.00001533,-0.
 00000096,-0.00004698,0.00010887,-0.00135981,-0.00000983,-0.00000323,0.
 00021146,0.00004893,-0.00004516,-0.00067503,0.00034994,-0.00123807,0.0
 0716772,-0.00263564,-0.00155037,0.00422868,-0.00213667,-0.00369678,-0.
 03972134,0.00234021,0.00136226,0.00456472,0.00074544,-0.00087219,0.006
 89222,0.00000375,0.00002429,-0.00017752,-0.00013346,-0.00003555,-0.000
 20339,-0.00015735,0.00045862,-0.00374192,0.00179408,0.00500298,0.02635
 692,0.00024203,0.00186241,0.00015017,-0.00024849,-0.00240572,-0.000382
 14,0.00035247,0.00084483,0.00007066,-0.00050550,-0.00033891,-0.0000082
 8,0.00032376,0.00061627,0.00004295,0.00183740,-0.00143704,-0.00017543,
 -0.00090601,-0.00040272,-0.00002146,-0.00506763,-0.00194546,0.00033910
 ,-0.00115219,-0.00008114,-0.00000416,-0.00447653,0.00198880,0.00068806
 ,0.00343895,0.02766145,0.00261738,-0.05866095,0.01104836,0.00182318,0.
 00663874,-0.02726207,-0.00266098,0.00000526,0.00000444,0.00000484,0.00
 010026,-0.00000477,-0.00003982,0.00003756,0.00128155,0.00011423,0.0010
 2028,-0.00049910,-0.00026349,0.05687159,0.00214842,0.00141741,0.000069
 45,0.00132016,-0.00247482,0.00008877,-0.00014367,-0.00001851,-0.000010
 47,-0.00010136,-0.00000039,0.00000051,-0.00001149,0.00004244,0.0000061
 3,0.00063257,-0.00032406,-0.00013988,-0.00027884,-0.00023627,0.0000396
 3,-0.00258418,0.00049259,-0.00050578,0.00005844,0.00060400,0.00015377,
 0.00203901,0.00089166,-0.00067975,-0.00175827,-0.00737297,-0.00100650,
 0.01017486,-0.33712205,-0.02817146,-0.00067585,-0.01335300,-0.00158142
 ,-0.00003634,0.00001979,-0.00000675,0.00002895,-0.00007945,0.00006771,
 -0.00019844,-0.00035526,-0.00001606,0.00015324,0.00068250,0.00043299,-
 0.01080937,0.35721812,0.00018804,0.00009049,-0.00029582,-0.00004258,0.
 00024551,-0.00399577,-0.00002200,-0.00005320,0.00015404,0.00001401,0.0
 0001075,0.00004082,-0.00001577,-0.00002084,-0.00001910,0.00001818,-0.0
 0005117,0.00087758,-0.00001008,0.00004488,-0.00052778,0.00028000,-0.00
 053373,0.00702581,0.00000856,0.00016062,-0.00105822,0.00069264,-0.0006
 7790,0.00713840,-0.00013020,-0.00226981,0.00400216,0.00174265,-0.02820
 367,-0.04297107,-0.00018248,-0.00045025,0.00386643,0.00000104,-0.00000
 849,0.00010796,-0.00003668,0.00006919,-0.00080942,-0.00002408,-0.00007
 959,-0.00009873,-0.00020175,0.00046107,-0.00396969,-0.00227674,0.03126
 319,0.03053945,-0.00142689,-0.00095769,-0.00007285,0.00420747,-0.00023
 164,-0.00005277,-0.00900296,-0.00536965,0.00002830,0.01480362,-0.03756
 104,-0.00435191,-0.09827632,0.15139830,0.01788144,-0.00808101,-0.01430
 054,-0.00089158,0.00948484,0.00496004,-0.00017224,0.00182012,0.0020910
 3,0.00010075,-0.00016907,0.00046954,0.00004639,-0.00030309,0.00007117,
 0.00002265,-0.00019702,0.00055565,0.00006148,0.00089380,0.00038292,-0.
 00000914,-0.00059363,-0.00077313,-0.00004076,-0.00010561,0.00020105,-0
 .00000288,-0.00036991,0.00002235,0.00001774,0.00008681,0.00000374,-0.0
 0000152,-0.00000422,0.00004994,0.00000501,0.00014899,0.00004216,-0.000
 00278,0.08708410,0.00088596,0.00109606,0.00016146,-0.00354594,-0.00215
 562,-0.00037448,0.00010179,0.00491056,0.00014193,-0.00946126,-0.044042
 71,-0.00326613,0.11142815,-0.39721957,-0.04085890,0.00256254,0.0048705
 1,0.00014062,-0.00199655,-0.00405294,0.00020848,-0.00019318,-0.0028212
 4,-0.00021979,0.00052109,0.00021458,0.00000797,0.00029041,-0.00012321,
 -0.00003046,0.00010963,-0.00031656,-0.00003673,-0.00043729,-0.00029201
 ,0.00000605,0.00040595,0.00030642,-0.00000153,0.00028658,-0.00003980,0
 .00004111,0.00016199,0.00003584,-0.00000272,0.00002193,0.00001591,-0.0
 0000350,0.00003422,-0.00001512,-0.00000320,-0.00012183,-0.00003174,0.0
 0000296,-0.10105419,0.43966064,0.00009944,0.00024059,-0.00101860,-0.00
 036253,-0.00051674,0.00344261,0.00053926,0.00037598,0.00335830,-0.0017
 1865,-0.00206056,-0.00489617,0.01414066,-0.04257635,-0.01651086,0.0006
 8077,0.00086268,0.00227469,-0.00081993,-0.00008392,-0.00535785,-0.0001
 1243,-0.00031877,-0.00039741,0.00005115,0.00001027,-0.00011160,0.00004
 313,-0.00002105,0.00006553,0.00001981,-0.00005587,0.00002007,-0.000085
 90,-0.00002912,-0.00015512,0.00006911,0.00004899,0.00013766,0.00000532
 ,0.00004443,-0.00060622,0.00003046,0.00000324,-0.00000951,0.00000019,-
 0.00000272,0.00004309,0.00000352,-0.00000387,0.00000288,-0.00001808,-0
 .00000408,-0.00000705,-0.01256531,0.04408687,0.01972557\\0.00000010,-0
 .00004172,0.00000517,0.00002340,0.00003791,-0.00002549,0.00003102,-0.0
 0010840,-0.00000373,0.00012777,0.00021073,0.00003095,-0.00016615,0.000
 00333,0.00000758,-0.00000212,-0.00003502,-0.00003623,-0.00005117,0.000
 04669,0.00002217,0.00005120,0.00000719,0.00000699,-0.00003594,-0.00004
 589,-0.00000162,0.00003922,0.00008106,0.00000559,0.00001994,-0.0000599
 7,-0.00000696,0.00003522,-0.00000576,-0.00000321,-0.00002846,0.0000574
 4,0.00001615,-0.00000999,0.00000793,-0.00000071,-0.00001580,0.00000628
 ,0.00000216,-0.00000703,-0.00000302,0.00000055,-0.00001009,0.00001051,
 0.00000100,-0.00001413,0.00001400,0.00000058,0.00001302,-0.00018330,-0
 .00002093\\\@


 NOTHING RESEMBLES A NEW PHENOMENON AS MUCH AS A MISTAKE.

                               -- ENRICO FERMI (?)
 Job cpu time:       0 days  2 hours 29 minutes 17.6 seconds.
 Elapsed time:       0 days  0 hours 20 minutes 19.9 seconds.
 File lengths (MBytes):  RWF=    418 Int=      0 D2E=      0 Chk=     12 Scr=      1
 Normal termination of Gaussian 16 at Mon Jan  8 01:44:21 2024.
