 Entering Gaussian System, Link 0=g16
 Input=080-rad.com
 Output=080-rad.log
 Initial command:
 /sysapps/ubuntu-applications/gaussian/Gaussian/AVX2/g16/l1.exe "/scratch/selhajj1/4219794/Gau-2428731.inp" -scrdir="/scratch/selhajj1/4219794/"
 Entering Link 1 = /sysapps/ubuntu-applications/gaussian/Gaussian/AVX2/g16/l1.exe PID=   2428740.
  
 Copyright (c) 1988,1990,1992,1993,1995,1998,2003,2009,2016,
            Gaussian, Inc.  All Rights Reserved.
  
 This is part of the Gaussian(R) 16 program.  It is based on
 the Gaussian(R) 09 system (copyright 2009, Gaussian, Inc.),
 the Gaussian(R) 03 system (copyright 2003, Gaussian, Inc.),
 the Gaussian(R) 98 system (copyright 1998, Gaussian, Inc.),
 the Gaussian(R) 94 system (copyright 1995, Gaussian, Inc.),
 the Gaussian 92(TM) system (copyright 1992, Gaussian, Inc.),
 the Gaussian 90(TM) system (copyright 1990, Gaussian, Inc.),
 the Gaussian 88(TM) system (copyright 1988, Gaussian, Inc.),
 the Gaussian 86(TM) system (copyright 1986, Carnegie Mellon
 University), and the Gaussian 82(TM) system (copyright 1983,
 Carnegie Mellon University). Gaussian is a federally registered
 trademark of Gaussian, Inc.
  
 This software contains proprietary and confidential information,
 including trade secrets, belonging to Gaussian, Inc.
  
 This software is provided under written license and may be
 used, copied, transmitted, or stored only in accord with that
 written license.
  
 The following legend is applicable only to US Government
 contracts under FAR:
  
                    RESTRICTED RIGHTS LEGEND
  
 Use, reproduction and disclosure by the US Government is
 subject to restrictions as set forth in subparagraphs (a)
 and (c) of the Commercial Computer Software - Restricted
 Rights clause in FAR 52.227-19.
  
 Gaussian, Inc.
 340 Quinnipiac St., Bldg. 40, Wallingford CT 06492
  
  
 ---------------------------------------------------------------
 Warning -- This program may not be used in any manner that
 competes with the business of Gaussian, Inc. or will provide
 assistance to any competitor of Gaussian, Inc.  The licensee
 of this program is prohibited from giving any competitor of
 Gaussian, Inc. access to this program.  By using this program,
 the user acknowledges that Gaussian, Inc. is engaged in the
 business of creating and licensing software in the field of
 computational chemistry and represents and warrants to the
 licensee that it is not a competitor of Gaussian, Inc. and that
 it will not use this program in any manner prohibited above.
 ---------------------------------------------------------------
  

 Cite this work as:
 Gaussian 16, Revision A.03,
 M. J. Frisch, G. W. Trucks, H. B. Schlegel, G. E. Scuseria, 
 M. A. Robb, J. R. Cheeseman, G. Scalmani, V. Barone, 
 G. A. Petersson, H. Nakatsuji, X. Li, M. Caricato, A. V. Marenich, 
 J. Bloino, B. G. Janesko, R. Gomperts, B. Mennucci, H. P. Hratchian, 
 J. V. Ortiz, A. F. Izmaylov, J. L. Sonnenberg, D. Williams-Young, 
 F. Ding, F. Lipparini, F. Egidi, J. Goings, B. Peng, A. Petrone, 
 T. Henderson, D. Ranasinghe, V. G. Zakrzewski, J. Gao, N. Rega, 
 G. Zheng, W. Liang, M. Hada, M. Ehara, K. Toyota, R. Fukuda, 
 J. Hasegawa, M. Ishida, T. Nakajima, Y. Honda, O. Kitao, H. Nakai, 
 T. Vreven, K. Throssell, J. A. Montgomery, Jr., J. E. Peralta, 
 F. Ogliaro, M. J. Bearpark, J. J. Heyd, E. N. Brothers, K. N. Kudin, 
 V. N. Staroverov, T. A. Keith, R. Kobayashi, J. Normand, 
 K. Raghavachari, A. P. Rendell, J. C. Burant, S. S. Iyengar, 
 J. Tomasi, M. Cossi, J. M. Millam, M. Klene, C. Adamo, R. Cammi, 
 J. W. Ochterski, R. L. Martin, K. Morokuma, O. Farkas, 
 J. B. Foresman, and D. J. Fox, Gaussian, Inc., Wallingford CT, 2016.
 
 ******************************************
 Gaussian 16:  ES64L-G16RevA.03 25-Dec-2016
                20-Dec-2023 
 ******************************************
 %chk=080-rad.chk
 %nproc=8
 Will use up to    8 processors via shared memory.
 %mem=30GB
 --------------------------------------
 #P UB3LYP/6-311++G(d,p) nosym opt freq
 --------------------------------------
 1/18=20,19=15,26=3,38=1/1,3;
 2/9=110,12=2,15=1,17=6,18=5,40=1/2;
 3/5=4,6=6,7=1111,11=2,25=1,30=1,71=1,74=-5,116=2/1,2,3;
 4//1;
 5/5=2,38=5/2;
 6/7=2,8=2,9=2,10=2,28=1/1;
 7/30=1/1,2,3,16;
 1/18=20,19=15,26=3/3(2);
 2/9=110,15=1/2;
 99//99;
 2/9=110,15=1/2;
 3/5=4,6=6,7=1111,11=2,25=1,30=1,71=1,74=-5,116=2/1,2,3;
 4/5=5,16=3,69=1/1;
 5/5=2,38=5/2;
 7/30=1/1,2,3,16;
 1/18=20,19=15,26=3/3(-5);
 2/9=110,15=1/2;
 6/7=2,8=2,9=2,10=2,19=2,28=1/1;
 99/9=1/99;
 Leave Link    1 at Wed Dec 20 01:21:57 2023, MaxMem=  4026531840 cpu:               0.7 elap:               0.2
 (Enter /sysapps/ubuntu-applications/gaussian/Gaussian/AVX2/g16/l101.exe)
 -------
 Radical
 -------
 Symbolic Z-matrix:
 Charge = -1 Multiplicity = 2
 C                     1.3801    1.1726   -2.64314 
 C                    -0.03171   1.55397  -2.8552 
 C                    -1.03476   1.01626  -2.14978 
 C                    -0.74517  -0.00517  -1.11187 
 C                     0.66122  -0.39423  -0.90705 
 O                     2.25856   1.72993  -3.28769 
 O                    -1.63391  -0.52609  -0.45061 
 H                    -0.20071   2.30867  -3.61599 
 C                     1.65903   0.12918  -1.63254 
 C                     3.02717  -0.35009  -1.30499 
 C                     4.00753  -0.58977  -2.39442 
 C                     5.36728  -0.40522  -2.11195 
 C                     3.61981  -1.05732  -3.6567 
 C                     6.3282   -0.65209  -3.09356 
 C                     5.93628  -1.09676  -4.35535 
 C                     4.5856   -1.30251  -4.636 
 O                     3.3483   -0.57649  -0.13993 
 H                     5.68166  -0.0666   -1.1266 
 H                     2.57799  -1.24437  -3.89741 
 H                     7.38161  -0.49942  -2.87234 
 H                     6.68548  -1.2878   -5.11996 
 H                     4.28556  -1.65685  -5.61924 
 C                    -2.47045   1.39159  -2.34105 
 H                     0.83085  -1.1376   -0.13373 
 H                    -2.59185   2.15232  -3.1196 
 H                    -2.88848   1.79676  -1.41369 
 H                    -3.05954   0.51737  -2.63712 
 
 ITRead=  0  0  0  0  0  0  0  0  0  0  0  0  0  0  0  0  0  0  0  0
 ITRead=  0  0  0  0  0  0  0
 MicOpt= -1 -1 -1 -1 -1 -1 -1 -1 -1 -1 -1 -1 -1 -1 -1 -1 -1 -1 -1 -1
 MicOpt= -1 -1 -1 -1 -1 -1 -1
 NAtoms=     27 NQM=       27 NQMF=       0 NMMI=      0 NMMIF=      0
                NMic=       0 NMicF=      0.
                    Isotopes and Nuclear Properties:
 (Nuclear quadrupole moments (NQMom) in fm**2, nuclear magnetic moments (NMagM)
  in nuclear magnetons)

  Atom         1           2           3           4           5           6           7           8           9          10
 IAtWgt=          12          12          12          12          12          16          16           1          12          12
 AtmWgt=  12.0000000  12.0000000  12.0000000  12.0000000  12.0000000  15.9949146  15.9949146   1.0078250  12.0000000  12.0000000
 NucSpn=           0           0           0           0           0           0           0           1           0           0
 AtZEff=  -0.0000000  -0.0000000  -0.0000000  -0.0000000  -0.0000000  -0.0000000  -0.0000000  -0.0000000  -0.0000000  -0.0000000
 NQMom=    0.0000000   0.0000000   0.0000000   0.0000000   0.0000000   0.0000000   0.0000000   0.0000000   0.0000000   0.0000000
 NMagM=    0.0000000   0.0000000   0.0000000   0.0000000   0.0000000   0.0000000   0.0000000   2.7928460   0.0000000   0.0000000
 AtZNuc=   6.0000000   6.0000000   6.0000000   6.0000000   6.0000000   8.0000000   8.0000000   1.0000000   6.0000000   6.0000000

  Atom        11          12          13          14          15          16          17          18          19          20
 IAtWgt=          12          12          12          12          12          12          16           1           1           1
 AtmWgt=  12.0000000  12.0000000  12.0000000  12.0000000  12.0000000  12.0000000  15.9949146   1.0078250   1.0078250   1.0078250
 NucSpn=           0           0           0           0           0           0           0           1           1           1
 AtZEff=  -0.0000000  -0.0000000  -0.0000000  -0.0000000  -0.0000000  -0.0000000  -0.0000000  -0.0000000  -0.0000000  -0.0000000
 NQMom=    0.0000000   0.0000000   0.0000000   0.0000000   0.0000000   0.0000000   0.0000000   0.0000000   0.0000000   0.0000000
 NMagM=    0.0000000   0.0000000   0.0000000   0.0000000   0.0000000   0.0000000   0.0000000   2.7928460   2.7928460   2.7928460
 AtZNuc=   6.0000000   6.0000000   6.0000000   6.0000000   6.0000000   6.0000000   8.0000000   1.0000000   1.0000000   1.0000000

  Atom        21          22          23          24          25          26          27
 IAtWgt=           1           1          12           1           1           1           1
 AtmWgt=   1.0078250   1.0078250  12.0000000   1.0078250   1.0078250   1.0078250   1.0078250
 NucSpn=           1           1           0           1           1           1           1
 AtZEff=  -0.0000000  -0.0000000  -0.0000000  -0.0000000  -0.0000000  -0.0000000  -0.0000000
 NQMom=    0.0000000   0.0000000   0.0000000   0.0000000   0.0000000   0.0000000   0.0000000
 NMagM=    2.7928460   2.7928460   0.0000000   2.7928460   2.7928460   2.7928460   2.7928460
 AtZNuc=   1.0000000   1.0000000   6.0000000   1.0000000   1.0000000   1.0000000   1.0000000
 Leave Link  101 at Wed Dec 20 01:21:57 2023, MaxMem=  4026531840 cpu:               3.6 elap:               0.6
 (Enter /sysapps/ubuntu-applications/gaussian/Gaussian/AVX2/g16/l103.exe)

 GradGradGradGradGradGradGradGradGradGradGradGradGradGradGradGradGradGrad
 Berny optimization.
 Initialization pass.
                           ----------------------------
                           !    Initial Parameters    !
                           ! (Angstroms and Degrees)  !
 --------------------------                            --------------------------
 ! Name  Definition              Value          Derivative Info.                !
 --------------------------------------------------------------------------------
 ! R1    R(1,2)                  1.4777         estimate D2E/DX2                !
 ! R2    R(1,6)                  1.2238         estimate D2E/DX2                !
 ! R3    R(1,9)                  1.4791         estimate D2E/DX2                !
 ! R4    R(2,3)                  1.339          estimate D2E/DX2                !
 ! R5    R(2,8)                  1.0849         estimate D2E/DX2                !
 ! R6    R(3,4)                  1.4847         estimate D2E/DX2                !
 ! R7    R(3,23)                 1.4962         estimate D2E/DX2                !
 ! R8    R(4,5)                  1.4735         estimate D2E/DX2                !
 ! R9    R(4,7)                  1.2241         estimate D2E/DX2                !
 ! R10   R(5,9)                  1.3401         estimate D2E/DX2                !
 ! R11   R(5,24)                 1.086          estimate D2E/DX2                !
 ! R12   R(9,10)                 1.4862         estimate D2E/DX2                !
 ! R13   R(10,11)                1.4851         estimate D2E/DX2                !
 ! R14   R(10,17)                1.2295         estimate D2E/DX2                !
 ! R15   R(11,12)                1.401          estimate D2E/DX2                !
 ! R16   R(11,13)                1.4008         estimate D2E/DX2                !
 ! R17   R(12,14)                1.3957         estimate D2E/DX2                !
 ! R18   R(12,18)                1.0883         estimate D2E/DX2                !
 ! R19   R(13,16)                1.3971         estimate D2E/DX2                !
 ! R20   R(13,19)                1.0855         estimate D2E/DX2                !
 ! R21   R(14,15)                1.3941         estimate D2E/DX2                !
 ! R22   R(14,20)                1.0872         estimate D2E/DX2                !
 ! R23   R(15,16)                1.3948         estimate D2E/DX2                !
 ! R24   R(15,21)                1.0874         estimate D2E/DX2                !
 ! R25   R(16,22)                1.0874         estimate D2E/DX2                !
 ! R26   R(23,25)                1.0953         estimate D2E/DX2                !
 ! R27   R(23,26)                1.0949         estimate D2E/DX2                !
 ! R28   R(23,27)                1.095          estimate D2E/DX2                !
 ! A1    A(2,1,6)              119.5167         estimate D2E/DX2                !
 ! A2    A(2,1,9)              117.4048         estimate D2E/DX2                !
 ! A3    A(6,1,9)              123.0745         estimate D2E/DX2                !
 ! A4    A(1,2,3)              122.4433         estimate D2E/DX2                !
 ! A5    A(1,2,8)              115.4046         estimate D2E/DX2                !
 ! A6    A(3,2,8)              122.1492         estimate D2E/DX2                !
 ! A7    A(2,3,4)              119.8972         estimate D2E/DX2                !
 ! A8    A(2,3,23)             123.4169         estimate D2E/DX2                !
 ! A9    A(4,3,23)             116.6856         estimate D2E/DX2                !
 ! A10   A(3,4,5)              117.7084         estimate D2E/DX2                !
 ! A11   A(3,4,7)              121.9224         estimate D2E/DX2                !
 ! A12   A(5,4,7)              120.3646         estimate D2E/DX2                !
 ! A13   A(4,5,9)              122.1593         estimate D2E/DX2                !
 ! A14   A(4,5,24)             115.391          estimate D2E/DX2                !
 ! A15   A(9,5,24)             122.4484         estimate D2E/DX2                !
 ! A16   A(1,9,5)              120.3306         estimate D2E/DX2                !
 ! A17   A(1,9,10)             123.4812         estimate D2E/DX2                !
 ! A18   A(5,9,10)             116.1139         estimate D2E/DX2                !
 ! A19   A(9,10,11)            119.8726         estimate D2E/DX2                !
 ! A20   A(9,10,17)            120.574          estimate D2E/DX2                !
 ! A21   A(11,10,17)           119.5373         estimate D2E/DX2                !
 ! A22   A(10,11,12)           118.1348         estimate D2E/DX2                !
 ! A23   A(10,11,13)           122.1539         estimate D2E/DX2                !
 ! A24   A(12,11,13)           119.6226         estimate D2E/DX2                !
 ! A25   A(11,12,14)           120.2074         estimate D2E/DX2                !
 ! A26   A(11,12,18)           120.2585         estimate D2E/DX2                !
 ! A27   A(14,12,18)           119.534          estimate D2E/DX2                !
 ! A28   A(11,13,16)           119.9254         estimate D2E/DX2                !
 ! A29   A(11,13,19)           121.5322         estimate D2E/DX2                !
 ! A30   A(16,13,19)           118.5408         estimate D2E/DX2                !
 ! A31   A(12,14,15)           119.9636         estimate D2E/DX2                !
 ! A32   A(12,14,20)           119.9454         estimate D2E/DX2                !
 ! A33   A(15,14,20)           120.0909         estimate D2E/DX2                !
 ! A34   A(14,15,16)           120.0936         estimate D2E/DX2                !
 ! A35   A(14,15,21)           119.9191         estimate D2E/DX2                !
 ! A36   A(16,15,21)           119.9866         estimate D2E/DX2                !
 ! A37   A(13,16,15)           120.1649         estimate D2E/DX2                !
 ! A38   A(13,16,22)           120.0182         estimate D2E/DX2                !
 ! A39   A(15,16,22)           119.8167         estimate D2E/DX2                !
 ! A40   A(3,23,25)            111.8058         estimate D2E/DX2                !
 ! A41   A(3,23,26)            110.5419         estimate D2E/DX2                !
 ! A42   A(3,23,27)            110.5192         estimate D2E/DX2                !
 ! A43   A(25,23,26)           107.6203         estimate D2E/DX2                !
 ! A44   A(25,23,27)           107.6202         estimate D2E/DX2                !
 ! A45   A(26,23,27)           108.6053         estimate D2E/DX2                !
 ! D1    D(6,1,2,3)           -177.6185         estimate D2E/DX2                !
 ! D2    D(6,1,2,8)              1.773          estimate D2E/DX2                !
 ! D3    D(9,1,2,3)              1.675          estimate D2E/DX2                !
 ! D4    D(9,1,2,8)           -178.9335         estimate D2E/DX2                !
 ! D5    D(2,1,9,5)             -2.8587         estimate D2E/DX2                !
 ! D6    D(2,1,9,10)          -179.6002         estimate D2E/DX2                !
 ! D7    D(6,1,9,5)            176.4076         estimate D2E/DX2                !
 ! D8    D(6,1,9,10)            -0.3339         estimate D2E/DX2                !
 ! D9    D(1,2,3,4)             -0.1248         estimate D2E/DX2                !
 ! D10   D(1,2,3,23)           179.6501         estimate D2E/DX2                !
 ! D11   D(8,2,3,4)           -179.4756         estimate D2E/DX2                !
 ! D12   D(8,2,3,23)             0.2993         estimate D2E/DX2                !
 ! D13   D(2,3,4,5)             -0.3649         estimate D2E/DX2                !
 ! D14   D(2,3,4,7)           -179.5955         estimate D2E/DX2                !
 ! D15   D(23,3,4,5)           179.8453         estimate D2E/DX2                !
 ! D16   D(23,3,4,7)             0.6148         estimate D2E/DX2                !
 ! D17   D(2,3,23,25)           -0.0876         estimate D2E/DX2                !
 ! D18   D(2,3,23,26)         -119.9617         estimate D2E/DX2                !
 ! D19   D(2,3,23,27)          119.771          estimate D2E/DX2                !
 ! D20   D(4,3,23,25)          179.6941         estimate D2E/DX2                !
 ! D21   D(4,3,23,26)           59.82           estimate D2E/DX2                !
 ! D22   D(4,3,23,27)          -60.4474         estimate D2E/DX2                !
 ! D23   D(3,4,5,9)             -0.8682         estimate D2E/DX2                !
 ! D24   D(3,4,5,24)           179.5246         estimate D2E/DX2                !
 ! D25   D(7,4,5,9)            178.3749         estimate D2E/DX2                !
 ! D26   D(7,4,5,24)            -1.2324         estimate D2E/DX2                !
 ! D27   D(4,5,9,1)              2.492          estimate D2E/DX2                !
 ! D28   D(4,5,9,10)           179.4654         estimate D2E/DX2                !
 ! D29   D(24,5,9,1)          -177.9284         estimate D2E/DX2                !
 ! D30   D(24,5,9,10)           -0.955          estimate D2E/DX2                !
 ! D31   D(1,9,10,11)          -41.9801         estimate D2E/DX2                !
 ! D32   D(1,9,10,17)          139.4877         estimate D2E/DX2                !
 ! D33   D(5,9,10,11)          141.152          estimate D2E/DX2                !
 ! D34   D(5,9,10,17)          -37.3802         estimate D2E/DX2                !
 ! D35   D(9,10,11,12)         149.7504         estimate D2E/DX2                !
 ! D36   D(9,10,11,13)         -33.6911         estimate D2E/DX2                !
 ! D37   D(17,10,11,12)        -31.7021         estimate D2E/DX2                !
 ! D38   D(17,10,11,13)        144.8564         estimate D2E/DX2                !
 ! D39   D(10,11,12,14)        178.3247         estimate D2E/DX2                !
 ! D40   D(10,11,12,18)         -1.7962         estimate D2E/DX2                !
 ! D41   D(13,11,12,14)          1.6763         estimate D2E/DX2                !
 ! D42   D(13,11,12,18)       -178.4446         estimate D2E/DX2                !
 ! D43   D(10,11,13,16)       -178.2037         estimate D2E/DX2                !
 ! D44   D(10,11,13,19)          1.3253         estimate D2E/DX2                !
 ! D45   D(12,11,13,16)         -1.6949         estimate D2E/DX2                !
 ! D46   D(12,11,13,19)        177.8342         estimate D2E/DX2                !
 ! D47   D(11,12,14,15)         -0.6521         estimate D2E/DX2                !
 ! D48   D(11,12,14,20)        179.4835         estimate D2E/DX2                !
 ! D49   D(18,12,14,15)        179.4679         estimate D2E/DX2                !
 ! D50   D(18,12,14,20)         -0.3966         estimate D2E/DX2                !
 ! D51   D(11,13,16,15)          0.6965         estimate D2E/DX2                !
 ! D52   D(11,13,16,22)       -179.4453         estimate D2E/DX2                !
 ! D53   D(19,13,16,15)       -178.8466         estimate D2E/DX2                !
 ! D54   D(19,13,16,22)          1.0117         estimate D2E/DX2                !
 ! D55   D(12,14,15,16)         -0.3583         estimate D2E/DX2                !
 ! D56   D(12,14,15,21)        179.9309         estimate D2E/DX2                !
 ! D57   D(20,14,15,16)        179.5059         estimate D2E/DX2                !
 ! D58   D(20,14,15,21)         -0.2049         estimate D2E/DX2                !
 ! D59   D(14,15,16,13)          0.3355         estimate D2E/DX2                !
 ! D60   D(14,15,16,22)       -179.523          estimate D2E/DX2                !
 ! D61   D(21,15,16,13)       -179.9538         estimate D2E/DX2                !
 ! D62   D(21,15,16,22)          0.1876         estimate D2E/DX2                !
 --------------------------------------------------------------------------------
 Trust Radius=3.00D-01 FncErr=1.00D-07 GrdErr=1.00D-06 EigMax=2.50D+02 EigMin=1.00D-04
 Number of steps in this run=    145 maximum allowed number of steps=    162.
 GradGradGradGradGradGradGradGradGradGradGradGradGradGradGradGradGradGrad

 Leave Link  103 at Wed Dec 20 01:21:58 2023, MaxMem=  4026531840 cpu:               0.4 elap:               0.1
 (Enter /sysapps/ubuntu-applications/gaussian/Gaussian/AVX2/g16/l202.exe)
                          Input orientation:                          
 ---------------------------------------------------------------------
 Center     Atomic      Atomic             Coordinates (Angstroms)
 Number     Number       Type             X           Y           Z
 ---------------------------------------------------------------------
      1          6           0        1.380100    1.172600   -2.643140
      2          6           0       -0.031710    1.553970   -2.855200
      3          6           0       -1.034760    1.016260   -2.149780
      4          6           0       -0.745170   -0.005170   -1.111870
      5          6           0        0.661220   -0.394230   -0.907050
      6          8           0        2.258560    1.729930   -3.287690
      7          8           0       -1.633910   -0.526090   -0.450610
      8          1           0       -0.200710    2.308670   -3.615990
      9          6           0        1.659030    0.129180   -1.632540
     10          6           0        3.027170   -0.350090   -1.304990
     11          6           0        4.007530   -0.589770   -2.394420
     12          6           0        5.367280   -0.405220   -2.111950
     13          6           0        3.619810   -1.057320   -3.656700
     14          6           0        6.328200   -0.652090   -3.093560
     15          6           0        5.936280   -1.096760   -4.355350
     16          6           0        4.585600   -1.302510   -4.636000
     17          8           0        3.348300   -0.576490   -0.139930
     18          1           0        5.681660   -0.066600   -1.126600
     19          1           0        2.577990   -1.244370   -3.897410
     20          1           0        7.381610   -0.499420   -2.872340
     21          1           0        6.685480   -1.287800   -5.119960
     22          1           0        4.285560   -1.656850   -5.619240
     23          6           0       -2.470450    1.391590   -2.341050
     24          1           0        0.830850   -1.137600   -0.133730
     25          1           0       -2.591850    2.152320   -3.119600
     26          1           0       -2.888480    1.796760   -1.413690
     27          1           0       -3.059540    0.517370   -2.637120
 ---------------------------------------------------------------------
                    Distance matrix (angstroms):
                    1          2          3          4          5
     1  C    0.000000
     2  C    1.477708   0.000000
     3  C    2.469695   1.338977   0.000000
     4  C    2.872055   2.445228   1.484735   0.000000
     5  C    2.446580   2.840937   2.531839   1.473517   0.000000
     6  O    1.223827   2.337380   3.556701   4.094772   3.568052
     7  O    4.095973   3.560302   2.371709   1.224125   2.343789
     8  H    2.176247   1.084866   2.125026   3.452667   3.922620
     9  C    1.479135   2.526564   2.882872   2.463600   1.340119
    10  C    2.611909   3.922415   4.368050   3.792995   2.399588
    11  C    3.173515   4.596020   5.297534   4.957303   3.667192
    12  C    4.320797   5.791368   6.558060   6.206629   4.857870
    13  C    3.319058   4.560136   5.313715   5.161030   4.093106
    14  C    5.293020   6.735872   7.608370   7.374155   6.079637
    15  C    5.370329   6.700278   7.610834   7.506897   6.341181
    16  C    4.513634   5.714042   6.568594   6.520713   5.489153
    17  O    3.633069   4.830737   5.078146   4.245889   2.800373
    18  H    4.726408   6.185216   6.879664   6.427140   5.035907
    19  H    2.974874   3.965784   4.606150   4.509794   3.652259
    20  H    6.234285   7.692465   8.582229   8.329951   7.002647
    21  H    6.351005   7.637109   8.586779   8.539583   7.405322
    22  H    5.030373   6.048810   6.891188   6.953609   6.077399
    23  C    3.868585   2.497633   1.496216   2.537403   3.879802
    24  H    3.454828   3.923641   3.490569   2.173245   1.086001
    25  H    4.118647   2.642394   2.157710   3.477926   4.686444
    26  H    4.485744   3.209055   2.141795   2.816350   4.202082
    27  H    4.487735   3.207780   2.141524   2.820593   4.203357
                    6          7          8          9         10
     6  O    0.000000
     7  O    5.318832   0.000000
     8  H    2.547691   4.484368   0.000000
     9  C    2.379361   3.559465   3.484664   0.000000
    10  C    2.974617   4.742005   4.777963   1.486202   0.000000
    11  C    3.039381   5.967269   5.253805   2.571537   1.485062
    12  C    3.950363   7.196619   6.374155   3.777107   2.475952
    13  C    3.123769   6.177604   5.091946   3.057722   2.526249
    14  C    4.719499   8.390248   7.187886   4.954403   3.766562
    15  C    4.759800   8.537004   7.057355   5.216463   4.280787
    16  C    4.053239   7.536751   6.081924   4.431176   3.798873
    17  O    4.051605   4.992142   5.744790   2.362094   1.229531
    18  H    4.428933   7.361091   6.814782   4.059046   2.675539
    19  H    3.052909   5.489668   4.519343   2.803705   2.778874
    20  H    5.602514   9.335153   8.119727   5.888987   4.630338
    21  H    5.662290   9.570542   7.913036   6.279740   5.368103
    22  H    4.584227   7.939363   6.313872   5.097288   4.680162
    23  C    4.834681   2.819762   2.760114   4.375874   5.859240
    24  H    4.495392   2.559179   5.006698   2.130034   2.610717
    25  H    4.871668   3.900646   2.447121   4.937046   6.413131
    26  H    5.477989   2.810178   3.512305   4.848563   6.294100
    27  H    5.493244   2.811060   3.512812   4.839915   6.290874
                   11         12         13         14         15
    11  C    0.000000
    12  C    1.400988   0.000000
    13  C    1.400814   2.421805   0.000000
    14  C    2.424498   1.395661   2.795839   0.000000
    15  C    2.796849   2.415540   2.419855   1.394076   0.000000
    16  C    2.422157   2.790516   1.397103   2.416365   1.394788
    17  O    2.348933   2.827451   3.559858   4.196361   4.973740
    18  H    2.164206   1.088307   3.410888   2.151684   3.398660
    19  H    2.175101   3.416457   1.085504   3.880856   3.392582
    20  H    3.408957   2.155132   3.882990   1.087161   2.155252
    21  H    3.884228   3.400694   3.404788   2.153619   1.087394
    22  H    3.408141   3.877858   2.157365   3.400144   2.153136
    23  C    6.774427   8.044316   6.694726   9.064168   8.995688
    24  H    3.937275   5.002892   4.494003   6.262361   6.624889
    25  H    7.183088   8.420458   7.012488   9.350545   9.209376
    26  H    7.362901   8.572856   7.452161   9.683286   9.741777
    27  H    7.157384   8.493425   6.937788   9.471306   9.299597
                   16         17         18         19         20
    16  C    0.000000
    17  O    4.719392   0.000000
    18  H    3.878751   2.584197   0.000000
    19  H    2.139952   3.893340   4.324037   0.000000
    20  H    3.401929   4.872329   2.474828   4.967946   0.000000
    21  H    2.154978   6.036839   4.294870   4.285789   2.481519
    22  H    1.087355   5.662903   4.966065   2.459804   4.297747
    23  C    7.893846   6.525038   8.370072   5.904006  10.045958
    24  H    5.864791   2.579232   5.065885   4.150805   7.128795
    25  H    8.108706   7.184025   8.794693   6.234560  10.322924
    26  H    8.709227   6.793541   8.775069   6.730500  10.624258
    27  H    8.108986   6.963684   8.889953   6.039355  10.493179
                   21         22         23         24         25
    21  H    0.000000
    22  H    2.478930   0.000000
    23  C    9.936424   8.104516   0.000000
    24  H    7.691667   6.503496   4.708253   0.000000
    25  H   10.094787   8.249651   1.095257   5.608375   0.000000
    26  H   10.719686   9.004495   1.094947   4.907360   1.767637
    27  H   10.217071   8.220144   1.094964   4.913351   1.767649
                   26         27
    26  H    0.000000
    27  H    1.778449   0.000000
 Symmetry turned off by external request.
 Stoichiometry    C14H10O3(1-,2)
 Framework group  C1[X(C14H10O3)]
 Deg. of freedom    75
 Full point group                 C1      NOp   1
 Rotational constants (GHZ):           1.1465350           0.2652909           0.2382474
 Leave Link  202 at Wed Dec 20 01:21:58 2023, MaxMem=  4026531840 cpu:               0.5 elap:               0.1
 (Enter /sysapps/ubuntu-applications/gaussian/Gaussian/AVX2/g16/l301.exe)
 Standard basis: 6-311++G(d,p) (5D, 7F)
 Ernie: Thresh=  0.10000D-02 Tol=  0.10000D-05 Strict=F.
   444 basis functions,   702 primitive gaussians,   461 cartesian basis functions
    60 alpha electrons       59 beta electrons
       nuclear repulsion energy      1088.1822809994 Hartrees.
 IExCor=  402 DFT=T Ex+Corr=B3LYP ExCW=0 ScaHFX=  0.200000
 ScaDFX=  0.800000  0.720000  1.000000  0.810000 ScalE2=  1.000000  1.000000
 IRadAn=      5 IRanWt=     -1 IRanGd=            0 ICorTp=0 IEmpDi=  4
 NAtoms=   27 NActive=   27 NUniq=   27 SFac= 1.00D+00 NAtFMM=   60 NAOKFM=F Big=F
 Integral buffers will be    131072 words long.
 Raffenetti 2 integral format.
 Two-electron integral symmetry is turned off.
 Leave Link  301 at Wed Dec 20 01:21:58 2023, MaxMem=  4026531840 cpu:               0.5 elap:               0.1
 (Enter /sysapps/ubuntu-applications/gaussian/Gaussian/AVX2/g16/l302.exe)
 NPDir=0 NMtPBC=     1 NCelOv=     1 NCel=       1 NClECP=     1 NCelD=      1
         NCelK=      1 NCelE2=     1 NClLst=     1 CellRange=     0.0.
 One-electron integrals computed using PRISM.
 NBasis=   444 RedAO= T EigKep=  1.20D-06  NBF=   444
 NBsUse=   442 1.00D-06 EigRej=  7.17D-07 NBFU=   442
 Precomputing XC quadrature grid using
 IXCGrd= 4 IRadAn=           5 IRanWt=          -1 IRanGd=           0 AccXCQ= 0.00D+00.
 Generated NRdTot=       0 NPtTot=           0 NUsed=           0 NTot=          32
 NSgBfM=   459   459   459   459   459 MxSgAt=    27 MxSgA2=    27.
 Leave Link  302 at Wed Dec 20 01:21:59 2023, MaxMem=  4026531840 cpu:               8.0 elap:               1.3
 (Enter /sysapps/ubuntu-applications/gaussian/Gaussian/AVX2/g16/l303.exe)
 DipDrv:  MaxL=1.
 Leave Link  303 at Wed Dec 20 01:22:00 2023, MaxMem=  4026531840 cpu:               1.3 elap:               0.3
 (Enter /sysapps/ubuntu-applications/gaussian/Gaussian/AVX2/g16/l401.exe)
 ExpMin= 3.60D-02 ExpMax= 8.59D+03 ExpMxC= 1.30D+03 IAcc=3 IRadAn=         5 AccDes= 0.00D+00
 Harris functional with IExCor=  402 and IRadAn=       5 diagonalized for initial guess.
 HarFok:  IExCor=  402 AccDes= 0.00D+00 IRadAn=         5 IDoV= 1 UseB2=F ITyADJ=14
 ICtDFT=  3500011 ScaDFX=  1.000000  1.000000  1.000000  1.000000
 FoFCou: FMM=F IPFlag=           0 FMFlag=      100000 FMFlg1=           0
         NFxFlg=           0 DoJE=T BraDBF=F KetDBF=T FulRan=T
         wScrn=  0.000000 ICntrl=       500 IOpCl=  0 I1Cent=   200000004 NGrid=           0
         NMat0=    1 NMatS0=      1 NMatT0=    0 NMatD0=    1 NMtDS0=    0 NMtDT0=    0
 Symmetry not used in FoFCou.
 Harris En= -765.642455050869    
 JPrj=0 DoOrth=F DoCkMO=F.
 Initial guess <Sx>= 0.0000 <Sy>= 0.0000 <Sz>= 0.5000 <S**2>= 0.7500 S= 0.5000
 Leave Link  401 at Wed Dec 20 01:22:03 2023, MaxMem=  4026531840 cpu:              26.6 elap:               3.5
 (Enter /sysapps/ubuntu-applications/gaussian/Gaussian/AVX2/g16/l502.exe)
 Two-electron integral symmetry not used.
 UHF open shell SCF:
 Using DIIS extrapolation, IDIIS=  1040.
 NGot=  4026531840 LenX=  4026099796 LenY=  4025886814
 Requested convergence on RMS density matrix=1.00D-08 within 128 cycles.
 Requested convergence on MAX density matrix=1.00D-06.
 Requested convergence on             energy=1.00D-06.
 No special actions if energy rises.
 Fock matrices will be formed incrementally for  20 cycles.

 Cycle   1  Pass 1  IDiag  1:
 FoFJK:  IHMeth= 1 ICntrl=       0 DoSepK=F KAlg= 0 I1Cent=           0 FoldK=F
 IRaf= 850000000 NMat=       1 IRICut=       1 DoRegI=T DoRafI=F ISym2E= 0 IDoP0=0 IntGTp=1.
 FoFCou: FMM=F IPFlag=           0 FMFlag=      100000 FMFlg1=           0
         NFxFlg=           0 DoJE=F BraDBF=F KetDBF=F FulRan=T
         wScrn=  0.000000 ICntrl=         0 IOpCl=  1 I1Cent=           0 NGrid=           0
         NMat0=    1 NMatS0=      1 NMatT0=    0 NMatD0=    1 NMtDS0=    0 NMtDT0=    0
 Symmetry not used in FoFCou.
 E= -764.936069692288    
 DIIS: error= 2.37D-02 at cycle   1 NSaved=   1.
 NSaved= 1 IEnMin= 1 EnMin= -764.936069692288     IErMin= 1 ErrMin= 2.37D-02
 ErrMax= 2.37D-02  0.00D+00 EMaxC= 1.00D-01 BMatC= 2.39D+00 BMatP= 2.39D+00
 IDIUse=3 WtCom= 7.63D-01 WtEn= 2.37D-01
 Coeff-Com:  0.100D+01
 Coeff-En:   0.100D+01
 Coeff:      0.100D+01
 Gap=     0.045 Goal=   None    Shift=    0.000
 Gap=     0.106 Goal=   None    Shift=    0.000
 GapD=    0.045 DampG=0.250 DampE=0.500 DampFc=0.2500 IDamp=-1.
 Damping current iteration by 2.50D-01
 RMSDP=9.79D-01 MaxDP=1.29D+02              OVMax= 9.94D-01

 Cycle   2  Pass 1  IDiag  1:
 RMSU=  2.24D-01    CP:  2.78D+00
 E= -765.049740097220     Delta-E=       -0.113670404932 Rises=F Damp=T
 DIIS: error= 9.77D-03 at cycle   2 NSaved=   2.
 NSaved= 2 IEnMin= 2 EnMin= -765.049740097220     IErMin= 2 ErrMin= 9.77D-03
 ErrMax= 9.77D-03  0.00D+00 EMaxC= 1.00D-01 BMatC= 4.60D-01 BMatP= 2.39D+00
 IDIUse=3 WtCom= 9.02D-01 WtEn= 9.77D-02
 Coeff-Com: -0.408D+00 0.141D+01
 Coeff-En:   0.179D+00 0.821D+00
 Coeff:     -0.350D+00 0.135D+01
 Gap=     0.391 Goal=   None    Shift=    0.000
 Gap=    -0.329 Goal=   None    Shift=    0.000
 RMSDP=2.46D-01 MaxDP=3.22D+01 DE=-1.14D-01 OVMax= 8.70D-01

 Cycle   3  Pass 1  IDiag  1:
 RMSU=  1.28D-02    CP:  1.01D+00 -5.94D-03
 E= -765.191970798661     Delta-E=       -0.142230701441 Rises=F Damp=F
 DIIS: error= 3.15D-02 at cycle   3 NSaved=   3.
 NSaved= 3 IEnMin= 3 EnMin= -765.191970798661     IErMin= 2 ErrMin= 9.77D-03
 ErrMax= 3.15D-02  0.00D+00 EMaxC= 1.00D-01 BMatC= 9.90D-01 BMatP= 4.60D-01
 IDIUse=2 WtCom= 0.00D+00 WtEn= 1.00D+00
 Coeff-En:   0.000D+00 0.279D+00 0.721D+00
 Coeff:      0.000D+00 0.279D+00 0.721D+00
 Gap=     0.061 Goal=   None    Shift=    0.000
 Gap=     0.279 Goal=   None    Shift=    0.000
 RMSDP=2.33D-01 MaxDP=5.20D+01 DE=-1.42D-01 OVMax= 9.96D-01

 Cycle   4  Pass 1  IDiag  1:
 RMSU=  1.79D-01    CP:  2.60D+00  5.27D-01 -2.71D-01
 E= -761.477829829634     Delta-E=        3.714140969027 Rises=F Damp=F
 DIIS: error= 1.26D-01 at cycle   4 NSaved=   4.
 NSaved= 4 IEnMin= 3 EnMin= -765.191970798661     IErMin= 2 ErrMin= 9.77D-03
 ErrMax= 1.26D-01  0.00D+00 EMaxC= 1.00D-01 BMatC= 8.52D+00 BMatP= 4.60D-01
 IDIUse=2 WtCom= 0.00D+00 WtEn= 1.00D+00
 Coeff-En:   0.000D+00 0.000D+00 0.877D+00 0.123D+00
 Coeff:      0.000D+00 0.000D+00 0.877D+00 0.123D+00
 Gap=     0.000 Goal=   None    Shift=    0.000
 Gap=     0.025 Goal=   None    Shift=    0.000
 RMSDP=2.34D-01 MaxDP=5.29D+01 DE= 3.71D+00 OVMax= 9.93D-01

 Cycle   5  Pass 1  IDiag  1:
 RMSU=  1.56D-02    CP:  1.03D+00 -1.36D-02  7.57D-01 -4.03D-03
 E= -765.250518604830     Delta-E=       -3.772688775196 Rises=F Damp=F
 DIIS: error= 2.81D-02 at cycle   5 NSaved=   5.
 NSaved= 5 IEnMin= 5 EnMin= -765.250518604830     IErMin= 2 ErrMin= 9.77D-03
 ErrMax= 2.81D-02  0.00D+00 EMaxC= 1.00D-01 BMatC= 8.77D-01 BMatP= 4.60D-01
 IDIUse=2 WtCom= 0.00D+00 WtEn= 1.00D+00
 Coeff-En:   0.000D+00 0.000D+00 0.447D+00 0.000D+00 0.553D+00
 Coeff:      0.000D+00 0.000D+00 0.447D+00 0.000D+00 0.553D+00
 Gap=     0.038 Goal=   None    Shift=    0.000
 Gap=     0.126 Goal=   None    Shift=    0.000
 RMSDP=1.40D-02 MaxDP=1.75D+00 DE=-3.77D+00 OVMax= 3.42D-01

 Cycle   6  Pass 1  IDiag  1:
 RMSU=  1.13D-02    CP:  9.76D-01 -9.71D-03  4.62D-01  3.31D-03  5.76D-01
 E= -765.397743342092     Delta-E=       -0.147224737262 Rises=F Damp=F
 DIIS: error= 7.85D-03 at cycle   6 NSaved=   6.
 NSaved= 6 IEnMin= 6 EnMin= -765.397743342092     IErMin= 6 ErrMin= 7.85D-03
 ErrMax= 7.85D-03  0.00D+00 EMaxC= 1.00D-01 BMatC= 1.58D-01 BMatP= 4.60D-01
 IDIUse=3 WtCom= 9.22D-01 WtEn= 7.85D-02
 Coeff-Com: -0.776D-01 0.182D+00 0.269D+00-0.110D-01 0.302D+00 0.336D+00
 Coeff-En:   0.000D+00 0.000D+00 0.000D+00 0.000D+00 0.155D+00 0.845D+00
 Coeff:     -0.715D-01 0.168D+00 0.248D+00-0.101D-01 0.290D+00 0.376D+00
 Gap=     0.067 Goal=   None    Shift=    0.000
 Gap=     0.152 Goal=   None    Shift=    0.000
 RMSDP=9.02D-03 MaxDP=1.04D+00 DE=-1.47D-01 OVMax= 2.59D-01

 Cycle   7  Pass 1  IDiag  1:
 RMSU=  4.48D-03    CP:  9.62D-01 -1.16D-02  6.75D-01 -1.40D-03  5.27D-01
                    CP:  3.64D-01
 E= -765.436861851795     Delta-E=       -0.039118509703 Rises=F Damp=F
 DIIS: error= 2.86D-03 at cycle   7 NSaved=   7.
 NSaved= 7 IEnMin= 7 EnMin= -765.436861851795     IErMin= 7 ErrMin= 2.86D-03
 ErrMax= 2.86D-03  0.00D+00 EMaxC= 1.00D-01 BMatC= 1.20D-02 BMatP= 1.58D-01
 IDIUse=3 WtCom= 9.71D-01 WtEn= 2.86D-02
 Coeff-Com: -0.367D-01 0.620D-01 0.427D-01-0.437D-02 0.590D-01 0.228D+00
 Coeff-Com:  0.649D+00
 Coeff-En:   0.000D+00 0.000D+00 0.000D+00 0.000D+00 0.000D+00 0.476D-01
 Coeff-En:   0.952D+00
 Coeff:     -0.357D-01 0.602D-01 0.415D-01-0.424D-02 0.574D-01 0.223D+00
 Coeff:      0.658D+00
 Gap=     0.071 Goal=   None    Shift=    0.000
 Gap=     0.138 Goal=   None    Shift=    0.000
 RMSDP=1.43D-03 MaxDP=9.97D-02 DE=-3.91D-02 OVMax= 5.28D-02

 Cycle   8  Pass 1  IDiag  1:
 RMSU=  1.22D-03    CP:  9.60D-01 -1.08D-02  6.63D-01 -1.04D-03  5.26D-01
                    CP:  4.12D-01  9.06D-01
 E= -765.439456159031     Delta-E=       -0.002594307236 Rises=F Damp=F
 DIIS: error= 1.25D-03 at cycle   8 NSaved=   8.
 NSaved= 8 IEnMin= 8 EnMin= -765.439456159031     IErMin= 8 ErrMin= 1.25D-03
 ErrMax= 1.25D-03  0.00D+00 EMaxC= 1.00D-01 BMatC= 3.09D-03 BMatP= 1.20D-02
 IDIUse=3 WtCom= 9.87D-01 WtEn= 1.25D-02
 Coeff-Com: -0.169D-01 0.217D-01-0.590D-02 0.181D-03-0.554D-02 0.109D+00
 Coeff-Com:  0.454D+00 0.444D+00
 Coeff-En:   0.000D+00 0.000D+00 0.000D+00 0.000D+00 0.000D+00 0.000D+00
 Coeff-En:   0.119D+00 0.881D+00
 Coeff:     -0.166D-01 0.214D-01-0.583D-02 0.178D-03-0.547D-02 0.107D+00
 Coeff:      0.450D+00 0.449D+00
 Gap=     0.072 Goal=   None    Shift=    0.000
 Gap=     0.138 Goal=   None    Shift=    0.000
 RMSDP=7.72D-04 MaxDP=7.30D-02 DE=-2.59D-03 OVMax= 1.24D-02

 Cycle   9  Pass 1  IDiag  1:
 RMSU=  5.89D-04    CP:  9.56D-01 -1.09D-02  6.57D-01 -1.01D-03  5.27D-01
                    CP:  4.22D-01  9.52D-01  7.02D-01
 E= -765.440154887823     Delta-E=       -0.000698728792 Rises=F Damp=F
 DIIS: error= 4.76D-04 at cycle   9 NSaved=   9.
 NSaved= 9 IEnMin= 9 EnMin= -765.440154887823     IErMin= 9 ErrMin= 4.76D-04
 ErrMax= 4.76D-04  0.00D+00 EMaxC= 1.00D-01 BMatC= 3.12D-04 BMatP= 3.09D-03
 IDIUse=3 WtCom= 9.95D-01 WtEn= 4.76D-03
 Coeff-Com: -0.974D-02 0.136D-01-0.992D-02 0.571D-03-0.954D-02 0.447D-01
 Coeff-Com:  0.193D+00 0.256D+00 0.522D+00
 Coeff-En:   0.000D+00 0.000D+00 0.000D+00 0.000D+00 0.000D+00 0.000D+00
 Coeff-En:   0.000D+00 0.000D+00 0.100D+01
 Coeff:     -0.969D-02 0.135D-01-0.987D-02 0.568D-03-0.949D-02 0.445D-01
 Coeff:      0.192D+00 0.255D+00 0.524D+00
 Gap=     0.072 Goal=   None    Shift=    0.000
 Gap=     0.138 Goal=   None    Shift=    0.000
 RMSDP=2.18D-04 MaxDP=2.07D-02 DE=-6.99D-04 OVMax= 3.35D-03

 Cycle  10  Pass 1  IDiag  1:
 RMSU=  1.83D-04    CP:  9.58D-01 -1.08D-02  6.54D-01 -9.38D-04  5.28D-01
                    CP:  4.25D-01  9.61D-01  6.84D-01  9.62D-01
 E= -765.440219221903     Delta-E=       -0.000064334080 Rises=F Damp=F
 DIIS: error= 4.01D-04 at cycle  10 NSaved=  10.
 NSaved=10 IEnMin=10 EnMin= -765.440219221903     IErMin=10 ErrMin= 4.01D-04
 ErrMax= 4.01D-04  0.00D+00 EMaxC= 1.00D-01 BMatC= 7.60D-05 BMatP= 3.12D-04
 IDIUse=3 WtCom= 9.96D-01 WtEn= 4.01D-03
 Coeff-Com: -0.229D-02 0.401D-02-0.464D-02 0.430D-03-0.146D-02-0.362D-02
 Coeff-Com: -0.415D-01-0.905D-02 0.268D+00 0.790D+00
 Coeff-En:   0.000D+00 0.000D+00 0.000D+00 0.000D+00 0.000D+00 0.000D+00
 Coeff-En:   0.000D+00 0.000D+00 0.000D+00 0.100D+01
 Coeff:     -0.228D-02 0.400D-02-0.462D-02 0.428D-03-0.146D-02-0.360D-02
 Coeff:     -0.413D-01-0.901D-02 0.267D+00 0.791D+00
 Gap=     0.072 Goal=   None    Shift=    0.000
 Gap=     0.137 Goal=   None    Shift=    0.000
 RMSDP=1.71D-04 MaxDP=2.16D-02 DE=-6.43D-05 OVMax= 4.19D-03

 Cycle  11  Pass 1  IDiag  1:
 RMSU=  1.18D-04    CP:  9.58D-01 -1.08D-02  6.52D-01 -8.52D-04  5.31D-01
                    CP:  4.33D-01  9.66D-01  6.96D-01  1.06D+00  1.06D+00
 E= -765.440250287495     Delta-E=       -0.000031065592 Rises=F Damp=F
 DIIS: error= 8.91D-05 at cycle  11 NSaved=  11.
 NSaved=11 IEnMin=11 EnMin= -765.440250287495     IErMin=11 ErrMin= 8.91D-05
 ErrMax= 8.91D-05  0.00D+00 EMaxC= 1.00D-01 BMatC= 1.37D-05 BMatP= 7.60D-05
 IDIUse=1 WtCom= 1.00D+00 WtEn= 0.00D+00
 Coeff-Com:  0.501D-03-0.420D-03-0.118D-02 0.778D-04 0.779D-03-0.120D-01
 Coeff-Com: -0.666D-01-0.601D-01 0.263D-01 0.444D+00 0.668D+00
 Coeff:      0.501D-03-0.420D-03-0.118D-02 0.778D-04 0.779D-03-0.120D-01
 Coeff:     -0.666D-01-0.601D-01 0.263D-01 0.444D+00 0.668D+00
 Gap=     0.071 Goal=   None    Shift=    0.000
 Gap=     0.138 Goal=   None    Shift=    0.000
 RMSDP=8.21D-05 MaxDP=8.12D-03 DE=-3.11D-05 OVMax= 1.49D-03

 Cycle  12  Pass 1  IDiag  1:
 RMSU=  4.63D-05    CP:  9.58D-01 -1.07D-02  6.52D-01 -8.15D-04  5.32D-01
                    CP:  4.32D-01  9.69D-01  7.09D-01  1.14D+00  1.24D+00
                    CP:  8.56D-01
 E= -765.440255904094     Delta-E=       -0.000005616598 Rises=F Damp=F
 DIIS: error= 6.62D-05 at cycle  12 NSaved=  12.
 NSaved=12 IEnMin=12 EnMin= -765.440255904094     IErMin=12 ErrMin= 6.62D-05
 ErrMax= 6.62D-05  0.00D+00 EMaxC= 1.00D-01 BMatC= 4.90D-06 BMatP= 1.37D-05
 IDIUse=1 WtCom= 1.00D+00 WtEn= 0.00D+00
 Coeff-Com:  0.572D-03-0.726D-03 0.990D-03-0.198D-04 0.500D-03-0.683D-02
 Coeff-Com: -0.288D-01-0.341D-01-0.603D-01 0.464D-01 0.440D+00 0.642D+00
 Coeff:      0.572D-03-0.726D-03 0.990D-03-0.198D-04 0.500D-03-0.683D-02
 Coeff:     -0.288D-01-0.341D-01-0.603D-01 0.464D-01 0.440D+00 0.642D+00
 Gap=     0.072 Goal=   None    Shift=    0.000
 Gap=     0.138 Goal=   None    Shift=    0.000
 RMSDP=5.15D-05 MaxDP=7.99D-03 DE=-5.62D-06 OVMax= 8.00D-04

 Cycle  13  Pass 1  IDiag  1:
 RMSU=  2.68D-05    CP:  9.58D-01 -1.07D-02  6.53D-01 -8.28D-04  5.31D-01
                    CP:  4.29D-01  9.72D-01  7.09D-01  1.17D+00  1.28D+00
                    CP:  8.62D-01  9.66D-01
 E= -765.440257823283     Delta-E=       -0.000001919190 Rises=F Damp=F
 DIIS: error= 2.42D-05 at cycle  13 NSaved=  13.
 NSaved=13 IEnMin=13 EnMin= -765.440257823283     IErMin=13 ErrMin= 2.42D-05
 ErrMax= 2.42D-05  0.00D+00 EMaxC= 1.00D-01 BMatC= 7.52D-07 BMatP= 4.90D-06
 IDIUse=1 WtCom= 1.00D+00 WtEn= 0.00D+00
 Coeff-Com:  0.494D-03-0.771D-03 0.744D-03-0.232D-05 0.638D-04-0.210D-02
 Coeff-Com: -0.513D-02-0.788D-02-0.269D-01-0.313D-01 0.862D-01 0.255D+00
 Coeff-Com:  0.732D+00
 Coeff:      0.494D-03-0.771D-03 0.744D-03-0.232D-05 0.638D-04-0.210D-02
 Coeff:     -0.513D-02-0.788D-02-0.269D-01-0.313D-01 0.862D-01 0.255D+00
 Coeff:      0.732D+00
 Gap=     0.072 Goal=   None    Shift=    0.000
 Gap=     0.138 Goal=   None    Shift=    0.000
 RMSDP=2.12D-05 MaxDP=2.07D-03 DE=-1.92D-06 OVMax= 3.16D-04

 Cycle  14  Pass 1  IDiag  1:
 RMSU=  8.71D-06    CP:  9.58D-01 -1.07D-02  6.53D-01 -8.26D-04  5.30D-01
                    CP:  4.28D-01  9.73D-01  7.11D-01  1.16D+00  1.26D+00
                    CP:  8.79D-01  1.07D+00  1.12D+00
 E= -765.440258058690     Delta-E=       -0.000000235407 Rises=F Damp=F
 DIIS: error= 2.00D-05 at cycle  14 NSaved=  14.
 NSaved=14 IEnMin=14 EnMin= -765.440258058690     IErMin=14 ErrMin= 2.00D-05
 ErrMax= 2.00D-05  0.00D+00 EMaxC= 1.00D-01 BMatC= 3.33D-07 BMatP= 7.52D-07
 IDIUse=1 WtCom= 1.00D+00 WtEn= 0.00D+00
 Coeff-Com:  0.166D-03-0.225D-03 0.212D-03 0.515D-06-0.276D-03 0.405D-03
 Coeff-Com:  0.524D-02 0.530D-02 0.181D-02-0.306D-01-0.761D-01-0.448D-01
 Coeff-Com:  0.455D+00 0.684D+00
 Coeff:      0.166D-03-0.225D-03 0.212D-03 0.515D-06-0.276D-03 0.405D-03
 Coeff:      0.524D-02 0.530D-02 0.181D-02-0.306D-01-0.761D-01-0.448D-01
 Coeff:      0.455D+00 0.684D+00
 Gap=     0.072 Goal=   None    Shift=    0.000
 Gap=     0.138 Goal=   None    Shift=    0.000
 RMSDP=1.35D-05 MaxDP=1.85D-03 DE=-2.35D-07 OVMax= 1.50D-04

 Cycle  15  Pass 1  IDiag  1:
 RMSU=  4.37D-06    CP:  9.58D-01 -1.07D-02  6.54D-01 -8.26D-04  5.30D-01
                    CP:  4.28D-01  9.74D-01  7.10D-01  1.17D+00  1.27D+00
                    CP:  8.71D-01  1.12D+00  1.33D+00  8.82D-01
 E= -765.440258167906     Delta-E=       -0.000000109216 Rises=F Damp=F
 DIIS: error= 3.88D-06 at cycle  15 NSaved=  15.
 NSaved=15 IEnMin=15 EnMin= -765.440258167906     IErMin=15 ErrMin= 3.88D-06
 ErrMax= 3.88D-06  0.00D+00 EMaxC= 1.00D-01 BMatC= 2.75D-08 BMatP= 3.33D-07
 IDIUse=1 WtCom= 1.00D+00 WtEn= 0.00D+00
 Coeff-Com:  0.666D-04-0.103D-03-0.314D-05 0.170D-05-0.104D-03 0.414D-03
 Coeff-Com:  0.279D-02 0.321D-02 0.404D-02-0.594D-02-0.437D-01-0.569D-01
 Coeff-Com:  0.991D-01 0.298D+00 0.699D+00
 Coeff:      0.666D-04-0.103D-03-0.314D-05 0.170D-05-0.104D-03 0.414D-03
 Coeff:      0.279D-02 0.321D-02 0.404D-02-0.594D-02-0.437D-01-0.569D-01
 Coeff:      0.991D-01 0.298D+00 0.699D+00
 Gap=     0.072 Goal=   None    Shift=    0.000
 Gap=     0.138 Goal=   None    Shift=    0.000
 RMSDP=4.10D-06 MaxDP=6.28D-04 DE=-1.09D-07 OVMax= 5.94D-05

 Cycle  16  Pass 1  IDiag  1:
 RMSU=  2.05D-06    CP:  9.58D-01 -1.07D-02  6.54D-01 -8.27D-04  5.30D-01
                    CP:  4.28D-01  9.74D-01  7.10D-01  1.17D+00  1.26D+00
                    CP:  8.59D-01  1.12D+00  1.36D+00  9.79D-01  8.91D-01
 E= -765.440258178311     Delta-E=       -0.000000010405 Rises=F Damp=F
 DIIS: error= 1.88D-06 at cycle  16 NSaved=  16.
 NSaved=16 IEnMin=16 EnMin= -765.440258178311     IErMin=16 ErrMin= 1.88D-06
 ErrMax= 1.88D-06  0.00D+00 EMaxC= 1.00D-01 BMatC= 8.84D-09 BMatP= 2.75D-08
 IDIUse=1 WtCom= 1.00D+00 WtEn= 0.00D+00
 Coeff-Com: -0.143D-04 0.255D-04-0.373D-04 0.832D-06-0.756D-05 0.126D-03
 Coeff-Com:  0.473D-03 0.730D-03 0.157D-02 0.393D-02-0.735D-02-0.217D-01
 Coeff-Com: -0.452D-01 0.309D-02 0.394D+00 0.670D+00
 Coeff:     -0.143D-04 0.255D-04-0.373D-04 0.832D-06-0.756D-05 0.126D-03
 Coeff:      0.473D-03 0.730D-03 0.157D-02 0.393D-02-0.735D-02-0.217D-01
 Coeff:     -0.452D-01 0.309D-02 0.394D+00 0.670D+00
 Gap=     0.072 Goal=   None    Shift=    0.000
 Gap=     0.138 Goal=   None    Shift=    0.000
 RMSDP=1.87D-06 MaxDP=1.44D-04 DE=-1.04D-08 OVMax= 3.35D-05

 Cycle  17  Pass 1  IDiag  1:
 RMSU=  9.25D-07    CP:  9.58D-01 -1.07D-02  6.54D-01 -8.28D-04  5.30D-01
                    CP:  4.27D-01  9.74D-01  7.10D-01  1.17D+00  1.26D+00
                    CP:  8.56D-01  1.12D+00  1.39D+00  9.81D-01  1.01D+00
                    CP:  9.17D-01
 E= -765.440258182294     Delta-E=       -0.000000003984 Rises=F Damp=F
 DIIS: error= 9.93D-07 at cycle  17 NSaved=  17.
 NSaved=17 IEnMin=17 EnMin= -765.440258182294     IErMin=17 ErrMin= 9.93D-07
 ErrMax= 9.93D-07  0.00D+00 EMaxC= 1.00D-01 BMatC= 1.53D-09 BMatP= 8.84D-09
 IDIUse=1 WtCom= 1.00D+00 WtEn= 0.00D+00
 Coeff-Com: -0.334D-04 0.521D-04-0.167D-04-0.956D-06 0.176D-04-0.444D-04
 Coeff-Com: -0.407D-03-0.352D-03-0.455D-03 0.298D-02 0.664D-02 0.480D-02
 Coeff-Com: -0.425D-01-0.768D-01-0.450D-02 0.286D+00 0.824D+00
 Coeff:     -0.334D-04 0.521D-04-0.167D-04-0.956D-06 0.176D-04-0.444D-04
 Coeff:     -0.407D-03-0.352D-03-0.455D-03 0.298D-02 0.664D-02 0.480D-02
 Coeff:     -0.425D-01-0.768D-01-0.450D-02 0.286D+00 0.824D+00
 Gap=     0.072 Goal=   None    Shift=    0.000
 Gap=     0.138 Goal=   None    Shift=    0.000
 RMSDP=8.67D-07 MaxDP=8.71D-05 DE=-3.98D-09 OVMax= 2.26D-05

 Cycle  18  Pass 1  IDiag  1:
 RMSU=  4.95D-07    CP:  9.58D-01 -1.07D-02  6.54D-01 -8.28D-04  5.30D-01
                    CP:  4.27D-01  9.74D-01  7.10D-01  1.17D+00  1.27D+00
                    CP:  8.56D-01  1.12D+00  1.40D+00  9.73D-01  1.08D+00
                    CP:  9.87D-01  8.47D-01
 E= -765.440258183265     Delta-E=       -0.000000000970 Rises=F Damp=F
 DIIS: error= 6.42D-07 at cycle  18 NSaved=  18.
 NSaved=18 IEnMin=18 EnMin= -765.440258183265     IErMin=18 ErrMin= 6.42D-07
 ErrMax= 6.42D-07  0.00D+00 EMaxC= 1.00D-01 BMatC= 6.79D-10 BMatP= 1.53D-09
 IDIUse=1 WtCom= 1.00D+00 WtEn= 0.00D+00
 Coeff-Com: -0.236D-04 0.345D-04-0.315D-05-0.741D-06 0.126D-04-0.494D-04
 Coeff-Com: -0.351D-03-0.369D-03-0.630D-03 0.879D-03 0.561D-02 0.884D-02
 Coeff-Com: -0.145D-01-0.487D-01-0.108D+00 0.668D-03 0.509D+00 0.648D+00
 Coeff:     -0.236D-04 0.345D-04-0.315D-05-0.741D-06 0.126D-04-0.494D-04
 Coeff:     -0.351D-03-0.369D-03-0.630D-03 0.879D-03 0.561D-02 0.884D-02
 Coeff:     -0.145D-01-0.487D-01-0.108D+00 0.668D-03 0.509D+00 0.648D+00
 Gap=     0.072 Goal=   None    Shift=    0.000
 Gap=     0.138 Goal=   None    Shift=    0.000
 RMSDP=3.70D-07 MaxDP=3.24D-05 DE=-9.70D-10 OVMax= 1.35D-05

 Cycle  19  Pass 1  IDiag  1:
 RMSU=  2.60D-07    CP:  9.58D-01 -1.07D-02  6.54D-01 -8.28D-04  5.30D-01
                    CP:  4.27D-01  9.74D-01  7.10D-01  1.17D+00  1.27D+00
                    CP:  8.56D-01  1.12D+00  1.40D+00  9.78D-01  1.08D+00
                    CP:  9.99D-01  9.80D-01  1.07D+00
 E= -765.440258183564     Delta-E=       -0.000000000299 Rises=F Damp=F
 DIIS: error= 2.37D-07 at cycle  19 NSaved=  19.
 NSaved=19 IEnMin=19 EnMin= -765.440258183564     IErMin=19 ErrMin= 2.37D-07
 ErrMax= 2.37D-07  0.00D+00 EMaxC= 1.00D-01 BMatC= 1.27D-10 BMatP= 6.79D-10
 IDIUse=1 WtCom= 1.00D+00 WtEn= 0.00D+00
 Coeff-Com: -0.692D-05 0.104D-04 0.280D-05-0.314D-06 0.153D-05-0.105D-04
 Coeff-Com: -0.750D-04-0.918D-04-0.232D-03-0.379D-03 0.716D-03 0.333D-02
 Coeff-Com:  0.389D-02-0.317D-02-0.472D-01-0.694D-01 0.295D-01 0.294D+00
 Coeff-Com:  0.789D+00
 Coeff:     -0.692D-05 0.104D-04 0.280D-05-0.314D-06 0.153D-05-0.105D-04
 Coeff:     -0.750D-04-0.918D-04-0.232D-03-0.379D-03 0.716D-03 0.333D-02
 Coeff:      0.389D-02-0.317D-02-0.472D-01-0.694D-01 0.295D-01 0.294D+00
 Coeff:      0.789D+00
 Gap=     0.072 Goal=   None    Shift=    0.000
 Gap=     0.138 Goal=   None    Shift=    0.000
 RMSDP=2.02D-07 MaxDP=1.99D-05 DE=-2.99D-10 OVMax= 5.57D-06

 Cycle  20  Pass 1  IDiag  1:
 RMSU=  1.10D-07    CP:  9.58D-01 -1.07D-02  6.54D-01 -8.28D-04  5.30D-01
                    CP:  4.27D-01  9.74D-01  7.10D-01  1.17D+00  1.27D+00
                    CP:  8.56D-01  1.12D+00  1.40D+00  9.74D-01  1.09D+00
                    CP:  1.01D+00  9.94D-01  1.18D+00  1.09D+00
 E= -765.440258183637     Delta-E=       -0.000000000073 Rises=F Damp=F
 DIIS: error= 1.05D-07 at cycle  20 NSaved=  20.
 NSaved=20 IEnMin=20 EnMin= -765.440258183637     IErMin=20 ErrMin= 1.05D-07
 ErrMax= 1.05D-07  0.00D+00 EMaxC= 1.00D-01 BMatC= 2.61D-11 BMatP= 1.27D-10
 IDIUse=1 WtCom= 1.00D+00 WtEn= 0.00D+00
 Coeff-Com: -0.347D-06 0.764D-06 0.211D-05-0.570D-07-0.327D-06 0.252D-05
 Coeff-Com:  0.507D-05-0.249D-05-0.293D-04-0.277D-03-0.549D-03 0.506D-03
 Coeff-Com:  0.399D-02 0.549D-02-0.500D-02-0.371D-01-0.707D-01 0.450D-01
 Coeff-Com:  0.413D+00 0.646D+00
 Coeff:     -0.347D-06 0.764D-06 0.211D-05-0.570D-07-0.327D-06 0.252D-05
 Coeff:      0.507D-05-0.249D-05-0.293D-04-0.277D-03-0.549D-03 0.506D-03
 Coeff:      0.399D-02 0.549D-02-0.500D-02-0.371D-01-0.707D-01 0.450D-01
 Coeff:      0.413D+00 0.646D+00
 Gap=     0.072 Goal=   None    Shift=    0.000
 Gap=     0.138 Goal=   None    Shift=    0.000
 RMSDP=7.74D-08 MaxDP=9.25D-06 DE=-7.32D-11 OVMax= 2.88D-06

 Cycle  21  Pass 1  IDiag  1:
 Restarting incremental Fock formation.
 E= -765.440258183643     Delta-E=       -0.000000000006 Rises=F Damp=F
 DIIS: error= 5.68D-08 at cycle  21 NSaved=  20.
 NSaved=20 IEnMin=20 EnMin= -765.440258183643     IErMin=20 ErrMin= 5.68D-08
 ErrMax= 5.68D-08  0.00D+00 EMaxC= 1.00D-01 BMatC= 5.33D-12 BMatP= 2.61D-11
 IDIUse=1 WtCom= 1.00D+00 WtEn= 0.00D+00
 Coeff-Com:  0.103D-05-0.116D-05 0.401D-06-0.106D-05 0.389D-05 0.218D-04
 Coeff-Com:  0.213D-04 0.389D-04-0.312D-04-0.447D-03-0.409D-03 0.827D-03
 Coeff-Com:  0.252D-02 0.929D-02-0.123D-02-0.341D-01-0.467D-01-0.258D-01
 Coeff-Com:  0.308D+00 0.788D+00
 Coeff:      0.103D-05-0.116D-05 0.401D-06-0.106D-05 0.389D-05 0.218D-04
 Coeff:      0.213D-04 0.389D-04-0.312D-04-0.447D-03-0.409D-03 0.827D-03
 Coeff:      0.252D-02 0.929D-02-0.123D-02-0.341D-01-0.467D-01-0.258D-01
 Coeff:      0.308D+00 0.788D+00
 Gap=     0.072 Goal=   None    Shift=    0.000
 Gap=     0.138 Goal=   None    Shift=    0.000
 RMSDP=5.92D-08 MaxDP=5.35D-06 DE=-5.91D-12 OVMax= 9.62D-07

 Cycle  22  Pass 1  IDiag  1:
 RMSU=  5.77D-08    CP:  1.00D+00
 E= -765.440258183667     Delta-E=       -0.000000000024 Rises=F Damp=F
 DIIS: error= 2.47D-08 at cycle  22 NSaved=  20.
 NSaved=20 IEnMin=20 EnMin= -765.440258183667     IErMin=20 ErrMin= 2.47D-08
 ErrMax= 2.47D-08  0.00D+00 EMaxC= 1.00D-01 BMatC= 8.09D-13 BMatP= 5.33D-12
 IDIUse=1 WtCom= 1.00D+00 WtEn= 0.00D+00
 Coeff-Com:  0.194D-06-0.190D-06-0.538D-06 0.147D-05 0.848D-05 0.102D-04
 Coeff-Com:  0.221D-04 0.313D-04-0.689D-04-0.171D-03-0.503D-03-0.405D-03
 Coeff-Com:  0.348D-02 0.451D-02 0.121D-02-0.196D-01-0.695D-01 0.300D-01
 Coeff-Com:  0.293D+00 0.758D+00
 Coeff:      0.194D-06-0.190D-06-0.538D-06 0.147D-05 0.848D-05 0.102D-04
 Coeff:      0.221D-04 0.313D-04-0.689D-04-0.171D-03-0.503D-03-0.405D-03
 Coeff:      0.348D-02 0.451D-02 0.121D-02-0.196D-01-0.695D-01 0.300D-01
 Coeff:      0.293D+00 0.758D+00
 Gap=     0.072 Goal=   None    Shift=    0.000
 Gap=     0.138 Goal=   None    Shift=    0.000
 RMSDP=2.40D-08 MaxDP=1.96D-06 DE=-2.41D-11 OVMax= 3.78D-07

 Cycle  23  Pass 1  IDiag  1:
 RMSU=  2.31D-08    CP:  1.00D+00  9.75D-01
 E= -765.440258183651     Delta-E=        0.000000000016 Rises=F Damp=F
 DIIS: error= 1.55D-08 at cycle  23 NSaved=  20.
 NSaved=20 IEnMin=19 EnMin= -765.440258183667     IErMin=20 ErrMin= 1.55D-08
 ErrMax= 1.55D-08  0.00D+00 EMaxC= 1.00D-01 BMatC= 2.93D-13 BMatP= 8.09D-13
 IDIUse=1 WtCom= 1.00D+00 WtEn= 0.00D+00
 Coeff-Com: -0.714D-07-0.111D-08-0.383D-06-0.983D-06-0.472D-06 0.270D-05
 Coeff-Com:  0.100D-04 0.467D-04-0.292D-04-0.249D-03-0.305D-03-0.310D-04
 Coeff-Com:  0.223D-02 0.639D-02-0.129D-02-0.297D-01-0.629D-01-0.577D-01
 Coeff-Com:  0.406D+00 0.737D+00
 Coeff:     -0.714D-07-0.111D-08-0.383D-06-0.983D-06-0.472D-06 0.270D-05
 Coeff:      0.100D-04 0.467D-04-0.292D-04-0.249D-03-0.305D-03-0.310D-04
 Coeff:      0.223D-02 0.639D-02-0.129D-02-0.297D-01-0.629D-01-0.577D-01
 Coeff:      0.406D+00 0.737D+00
 Gap=     0.072 Goal=   None    Shift=    0.000
 Gap=     0.138 Goal=   None    Shift=    0.000
 RMSDP=8.14D-09 MaxDP=6.62D-07 DE= 1.59D-11 OVMax= 2.60D-07

 SCF Done:  E(UB3LYP) =  -765.440258184     A.U. after   23 cycles
            NFock= 23  Conv=0.81D-08     -V/T= 2.0037
 <Sx>= 0.0000 <Sy>= 0.0000 <Sz>= 0.5000 <S**2>= 0.7582 S= 0.5041
 <L.S>=  0.00000000000    
 KE= 7.626174614131D+02 PE=-3.979405969071D+03 EE= 1.363165968475D+03
 Annihilation of the first spin contaminant:
 S**2 before annihilation     0.7582,   after     0.7500
 Leave Link  502 at Wed Dec 20 01:33:09 2023, MaxMem=  4026531840 cpu:            3513.6 elap:             665.3
 (Enter /sysapps/ubuntu-applications/gaussian/Gaussian/AVX2/g16/l601.exe)
 Copying SCF densities to generalized density rwf, IOpCl= 1 IROHF=0.

 **********************************************************************

            Population analysis using the SCF density.

 **********************************************************************

 Alpha  occ. eigenvalues --  -18.98272 -18.94677 -18.94484 -10.13320 -10.09976
 Alpha  occ. eigenvalues --  -10.08925 -10.08596 -10.08312 -10.08241 -10.07995
 Alpha  occ. eigenvalues --  -10.07896 -10.07843 -10.05088 -10.05056 -10.03828
 Alpha  occ. eigenvalues --  -10.03645 -10.03397  -0.91488  -0.88923  -0.88588
 Alpha  occ. eigenvalues --   -0.76211  -0.70373  -0.66880  -0.65431  -0.65127
 Alpha  occ. eigenvalues --   -0.58295  -0.55394  -0.52140  -0.51063  -0.47407
 Alpha  occ. eigenvalues --   -0.45923  -0.43686  -0.39697  -0.36777  -0.36250
 Alpha  occ. eigenvalues --   -0.35535  -0.33703  -0.32999  -0.32477  -0.31534
 Alpha  occ. eigenvalues --   -0.31216  -0.30285  -0.28724  -0.27451  -0.27352
 Alpha  occ. eigenvalues --   -0.27171  -0.26244  -0.25436  -0.25204  -0.24840
 Alpha  occ. eigenvalues --   -0.24004  -0.23677  -0.16189  -0.16127  -0.15535
 Alpha  occ. eigenvalues --   -0.14222  -0.12995  -0.11121  -0.09999  -0.02146
 Alpha virt. eigenvalues --    0.05026   0.06840   0.08112   0.08579   0.08814
 Alpha virt. eigenvalues --    0.09865   0.10244   0.11272   0.11926   0.12127
 Alpha virt. eigenvalues --    0.12822   0.13310   0.14056   0.14264   0.14711
 Alpha virt. eigenvalues --    0.15327   0.16638   0.16847   0.17295   0.17489
 Alpha virt. eigenvalues --    0.17873   0.18168   0.18394   0.18932   0.19282
 Alpha virt. eigenvalues --    0.19782   0.20145   0.20444   0.20964   0.21437
 Alpha virt. eigenvalues --    0.21675   0.22264   0.22335   0.22661   0.22741
 Alpha virt. eigenvalues --    0.23139   0.23484   0.23653   0.24357   0.24719
 Alpha virt. eigenvalues --    0.25006   0.25450   0.25647   0.26106   0.26703
 Alpha virt. eigenvalues --    0.26972   0.27461   0.27693   0.28341   0.28469
 Alpha virt. eigenvalues --    0.29138   0.29862   0.30044   0.30775   0.30899
 Alpha virt. eigenvalues --    0.31328   0.31698   0.32231   0.32527   0.32880
 Alpha virt. eigenvalues --    0.33105   0.33982   0.34505   0.34874   0.35324
 Alpha virt. eigenvalues --    0.35804   0.36157   0.36447   0.36920   0.37246
 Alpha virt. eigenvalues --    0.37485   0.38014   0.38398   0.38915   0.39239
 Alpha virt. eigenvalues --    0.39316   0.39843   0.40928   0.41368   0.41716
 Alpha virt. eigenvalues --    0.41947   0.43600   0.43861   0.44307   0.44533
 Alpha virt. eigenvalues --    0.44749   0.45315   0.45539   0.46233   0.46373
 Alpha virt. eigenvalues --    0.47406   0.47643   0.48418   0.48852   0.49173
 Alpha virt. eigenvalues --    0.49677   0.50619   0.51727   0.52087   0.53610
 Alpha virt. eigenvalues --    0.54451   0.54735   0.55967   0.56604   0.57602
 Alpha virt. eigenvalues --    0.58893   0.60044   0.61440   0.61655   0.63842
 Alpha virt. eigenvalues --    0.63976   0.65215   0.65367   0.65654   0.66791
 Alpha virt. eigenvalues --    0.66960   0.67925   0.69080   0.69997   0.70246
 Alpha virt. eigenvalues --    0.71337   0.71963   0.73388   0.73918   0.74521
 Alpha virt. eigenvalues --    0.75857   0.76148   0.77063   0.77513   0.77826
 Alpha virt. eigenvalues --    0.78239   0.79956   0.80114   0.80593   0.80873
 Alpha virt. eigenvalues --    0.81541   0.81825   0.82756   0.83451   0.83912
 Alpha virt. eigenvalues --    0.84303   0.85768   0.86581   0.87574   0.88449
 Alpha virt. eigenvalues --    0.88568   0.90120   0.90951   0.92419   0.93531
 Alpha virt. eigenvalues --    0.93798   0.94663   0.95148   0.96348   0.98620
 Alpha virt. eigenvalues --    0.99019   1.00109   1.00610   1.01991   1.02488
 Alpha virt. eigenvalues --    1.04371   1.05688   1.06267   1.07233   1.07755
 Alpha virt. eigenvalues --    1.08577   1.09576   1.10353   1.11065   1.11909
 Alpha virt. eigenvalues --    1.13398   1.14500   1.15390   1.16111   1.16956
 Alpha virt. eigenvalues --    1.18675   1.20987   1.21371   1.22548   1.22799
 Alpha virt. eigenvalues --    1.23243   1.26066   1.27092   1.29001   1.30705
 Alpha virt. eigenvalues --    1.33265   1.33936   1.35200   1.37449   1.38632
 Alpha virt. eigenvalues --    1.39244   1.40907   1.41621   1.42299   1.43283
 Alpha virt. eigenvalues --    1.44712   1.47850   1.50247   1.50650   1.52232
 Alpha virt. eigenvalues --    1.55540   1.57631   1.59957   1.60270   1.61098
 Alpha virt. eigenvalues --    1.61971   1.62229   1.64637   1.66051   1.66278
 Alpha virt. eigenvalues --    1.67121   1.68470   1.68782   1.69528   1.70018
 Alpha virt. eigenvalues --    1.71804   1.72324   1.74381   1.75079   1.77425
 Alpha virt. eigenvalues --    1.78189   1.78978   1.80342   1.81625   1.82650
 Alpha virt. eigenvalues --    1.83817   1.85738   1.88024   1.88236   1.91274
 Alpha virt. eigenvalues --    1.92174   1.92673   1.94348   1.95462   1.95917
 Alpha virt. eigenvalues --    1.97521   1.98932   1.99356   2.01296   2.02313
 Alpha virt. eigenvalues --    2.03340   2.04274   2.04632   2.04851   2.06411
 Alpha virt. eigenvalues --    2.08183   2.09711   2.10642   2.12226   2.12429
 Alpha virt. eigenvalues --    2.12722   2.15350   2.16362   2.18473   2.19275
 Alpha virt. eigenvalues --    2.21950   2.24802   2.26533   2.28009   2.31235
 Alpha virt. eigenvalues --    2.31938   2.35410   2.37555   2.39928   2.42336
 Alpha virt. eigenvalues --    2.43866   2.45386   2.48021   2.49173   2.52421
 Alpha virt. eigenvalues --    2.52870   2.55591   2.56106   2.57858   2.61567
 Alpha virt. eigenvalues --    2.65288   2.66418   2.67622   2.69660   2.72373
 Alpha virt. eigenvalues --    2.76572   2.77709   2.78421   2.78836   2.79945
 Alpha virt. eigenvalues --    2.80705   2.81399   2.82516   2.83026   2.85040
 Alpha virt. eigenvalues --    2.86779   2.87428   2.88534   2.90705   2.90833
 Alpha virt. eigenvalues --    2.91689   2.93062   2.93947   2.95310   2.96673
 Alpha virt. eigenvalues --    2.99426   3.00025   3.01090   3.02580   3.03631
 Alpha virt. eigenvalues --    3.03782   3.06056   3.06870   3.09301   3.10592
 Alpha virt. eigenvalues --    3.11366   3.12050   3.15274   3.16246   3.19570
 Alpha virt. eigenvalues --    3.21461   3.23574   3.26381   3.30484   3.31618
 Alpha virt. eigenvalues --    3.35375   3.38592   3.40574   3.45002   3.46033
 Alpha virt. eigenvalues --    3.47581   3.50146   3.50522   3.52578   3.59351
 Alpha virt. eigenvalues --    3.61223   3.63122   3.66107   3.68256   3.70966
 Alpha virt. eigenvalues --    3.75148   3.76757   3.78545   3.83388   3.88266
 Alpha virt. eigenvalues --    3.91445   3.93062   3.95757   4.00921   4.09773
 Alpha virt. eigenvalues --    4.12930   4.25192   4.26321   4.26675   4.31374
 Alpha virt. eigenvalues --    4.34160   4.36766   4.44794   4.56793   4.88895
 Alpha virt. eigenvalues --    4.94575   5.22260   5.22838   5.25314   5.36695
 Alpha virt. eigenvalues --    5.39880   5.43258   5.86924   5.89992   5.97822
 Alpha virt. eigenvalues --   23.71718  23.81809  23.93913  23.99114  24.04793
 Alpha virt. eigenvalues --   24.06502  24.07300  24.09510  24.10422  24.17364
 Alpha virt. eigenvalues --   24.18999  24.28186  24.35461  24.40459  50.13160
 Alpha virt. eigenvalues --   50.19647  50.22274
  Beta  occ. eigenvalues --  -18.98174 -18.94110 -18.93782 -10.13290 -10.09904
  Beta  occ. eigenvalues --  -10.08827 -10.08590 -10.08314 -10.08242 -10.07988
  Beta  occ. eigenvalues --  -10.07893 -10.07842 -10.05088 -10.05003 -10.03742
  Beta  occ. eigenvalues --  -10.03550 -10.03145  -0.91309  -0.87965  -0.87400
  Beta  occ. eigenvalues --   -0.76198  -0.69888  -0.66767  -0.65375  -0.64963
  Beta  occ. eigenvalues --   -0.58106  -0.54825  -0.51771  -0.50954  -0.47133
  Beta  occ. eigenvalues --   -0.45584  -0.43552  -0.39552  -0.36605  -0.36152
  Beta  occ. eigenvalues --   -0.35423  -0.33446  -0.32974  -0.32246  -0.31251
  Beta  occ. eigenvalues --   -0.30856  -0.30143  -0.28488  -0.27238  -0.26664
  Beta  occ. eigenvalues --   -0.26515  -0.25857  -0.25374  -0.24704  -0.23624
  Beta  occ. eigenvalues --   -0.23441  -0.22189  -0.16129  -0.15943  -0.14147
  Beta  occ. eigenvalues --   -0.12636  -0.12201  -0.10537  -0.09446
  Beta virt. eigenvalues --    0.04323   0.05882   0.06839   0.08140   0.08577
  Beta virt. eigenvalues --    0.08810   0.09911   0.11098   0.11284   0.11964
  Beta virt. eigenvalues --    0.12150   0.12918   0.13331   0.14111   0.14714
  Beta virt. eigenvalues --    0.15277   0.15350   0.16659   0.16959   0.17508
  Beta virt. eigenvalues --    0.17911   0.18101   0.18272   0.18570   0.19216
  Beta virt. eigenvalues --    0.19370   0.19883   0.20181   0.20552   0.21004
  Beta virt. eigenvalues --    0.21480   0.21796   0.22322   0.22363   0.22712
  Beta virt. eigenvalues --    0.22760   0.23153   0.23534   0.23706   0.24426
  Beta virt. eigenvalues --    0.24756   0.25078   0.25577   0.25701   0.26207
  Beta virt. eigenvalues --    0.26739   0.27031   0.27652   0.27724   0.28348
  Beta virt. eigenvalues --    0.28605   0.29156   0.30032   0.30108   0.30906
  Beta virt. eigenvalues --    0.30972   0.31351   0.31737   0.32240   0.32808
  Beta virt. eigenvalues --    0.33007   0.33251   0.34099   0.34599   0.34983
  Beta virt. eigenvalues --    0.35408   0.35857   0.36198   0.36503   0.36975
  Beta virt. eigenvalues --    0.37337   0.37551   0.38087   0.38445   0.39041
  Beta virt. eigenvalues --    0.39321   0.39446   0.39937   0.41044   0.41426
  Beta virt. eigenvalues --    0.41780   0.42079   0.43688   0.43991   0.44402
  Beta virt. eigenvalues --    0.44618   0.44822   0.45397   0.45892   0.46320
  Beta virt. eigenvalues --    0.46521   0.47565   0.47747   0.48640   0.48938
  Beta virt. eigenvalues --    0.49301   0.49769   0.50708   0.51811   0.52169
  Beta virt. eigenvalues --    0.53777   0.54609   0.54838   0.56107   0.56741
  Beta virt. eigenvalues --    0.57689   0.59052   0.60280   0.61551   0.61829
  Beta virt. eigenvalues --    0.63887   0.63992   0.65251   0.65410   0.65695
  Beta virt. eigenvalues --    0.66889   0.67030   0.67993   0.69173   0.70119
  Beta virt. eigenvalues --    0.70397   0.71654   0.72087   0.73607   0.74027
  Beta virt. eigenvalues --    0.74715   0.75952   0.76242   0.77239   0.77729
  Beta virt. eigenvalues --    0.77942   0.78594   0.80178   0.80319   0.80708
  Beta virt. eigenvalues --    0.81033   0.81577   0.81964   0.82858   0.83618
  Beta virt. eigenvalues --    0.84052   0.84380   0.85894   0.86823   0.87702
  Beta virt. eigenvalues --    0.88526   0.88681   0.90240   0.91079   0.92493
  Beta virt. eigenvalues --    0.93638   0.93896   0.94687   0.95195   0.96411
  Beta virt. eigenvalues --    0.98711   0.99103   1.00159   1.00672   1.02241
  Beta virt. eigenvalues --    1.02589   1.04592   1.05784   1.06396   1.07449
  Beta virt. eigenvalues --    1.07944   1.08641   1.09648   1.10464   1.11184
  Beta virt. eigenvalues --    1.12090   1.13520   1.14698   1.15498   1.16357
  Beta virt. eigenvalues --    1.17084   1.18790   1.21299   1.21508   1.22674
  Beta virt. eigenvalues --    1.23050   1.23688   1.26612   1.27630   1.29740
  Beta virt. eigenvalues --    1.31636   1.33663   1.34160   1.35539   1.37912
  Beta virt. eigenvalues --    1.39009   1.39749   1.41239   1.41956   1.42519
  Beta virt. eigenvalues --    1.43543   1.44953   1.48107   1.50508   1.50848
  Beta virt. eigenvalues --    1.52445   1.55623   1.57660   1.60078   1.60385
  Beta virt. eigenvalues --    1.61162   1.62076   1.62317   1.64784   1.66101
  Beta virt. eigenvalues --    1.66344   1.67204   1.68593   1.68911   1.69793
  Beta virt. eigenvalues --    1.70173   1.71937   1.72514   1.74422   1.75211
  Beta virt. eigenvalues --    1.77546   1.78539   1.79110   1.80599   1.81804
  Beta virt. eigenvalues --    1.82704   1.84013   1.85849   1.88155   1.88259
  Beta virt. eigenvalues --    1.91443   1.92236   1.92833   1.94667   1.95775
  Beta virt. eigenvalues --    1.96212   1.97784   1.99202   1.99581   2.01541
  Beta virt. eigenvalues --    2.02563   2.03569   2.04456   2.04806   2.04943
  Beta virt. eigenvalues --    2.06474   2.08302   2.10050   2.10831   2.12386
  Beta virt. eigenvalues --    2.12537   2.12886   2.15570   2.16516   2.18530
  Beta virt. eigenvalues --    2.19456   2.22012   2.24959   2.26737   2.28271
  Beta virt. eigenvalues --    2.31415   2.32208   2.35670   2.38071   2.40166
  Beta virt. eigenvalues --    2.42462   2.43940   2.45676   2.48109   2.49435
  Beta virt. eigenvalues --    2.52487   2.52891   2.55597   2.56117   2.57906
  Beta virt. eigenvalues --    2.61651   2.65339   2.66522   2.67782   2.69952
  Beta virt. eigenvalues --    2.72394   2.76603   2.77819   2.78521   2.78913
  Beta virt. eigenvalues --    2.79957   2.80843   2.81790   2.82565   2.83189
  Beta virt. eigenvalues --    2.85211   2.86875   2.87550   2.88701   2.90869
  Beta virt. eigenvalues --    2.91400   2.91849   2.93544   2.94232   2.95435
  Beta virt. eigenvalues --    2.96823   2.99595   3.00835   3.01873   3.02816
  Beta virt. eigenvalues --    3.03748   3.04087   3.06843   3.07644   3.10140
  Beta virt. eigenvalues --    3.11268   3.12102   3.13061   3.15982   3.16988
  Beta virt. eigenvalues --    3.19656   3.21989   3.23995   3.26463   3.30544
  Beta virt. eigenvalues --    3.31754   3.35553   3.38797   3.40854   3.45102
  Beta virt. eigenvalues --    3.46100   3.47690   3.50532   3.51938   3.54079
  Beta virt. eigenvalues --    3.59370   3.61465   3.63176   3.66351   3.68328
  Beta virt. eigenvalues --    3.71206   3.75403   3.76867   3.78764   3.83698
  Beta virt. eigenvalues --    3.88638   3.91694   3.93088   3.95871   4.01261
  Beta virt. eigenvalues --    4.09782   4.12939   4.25259   4.26443   4.26854
  Beta virt. eigenvalues --    4.31769   4.34299   4.37125   4.44928   4.57002
  Beta virt. eigenvalues --    4.89397   4.94584   5.23347   5.25412   5.27280
  Beta virt. eigenvalues --    5.36805   5.40416   5.43745   5.87100   5.90464
  Beta virt. eigenvalues --    5.98318  23.71736  23.81916  23.94069  23.99156
  Beta virt. eigenvalues --   24.04888  24.06509  24.07309  24.09541  24.10504
  Beta virt. eigenvalues --   24.17369  24.19003  24.28190  24.35601  24.40608
  Beta virt. eigenvalues --   50.13275  50.20286  50.22891
          Condensed to atoms (all electrons):
               1          2          3          4          5          6
     1  C   16.123095  -4.055278   1.437801  -2.082663   0.952289   0.299874
     2  C   -4.055278  16.721531  -5.461291   1.365977  -2.636678  -0.235666
     3  C    1.437801  -5.461291  13.258151  -1.846631  -0.729349   0.003668
     4  C   -2.082663   1.365977  -1.846631  11.039428  -1.329866  -0.003362
     5  C    0.952289  -2.636678  -0.729349  -1.329866  13.597259  -0.025159
     6  O    0.299874  -0.235666   0.003668  -0.003362  -0.025159   8.252959
     7  O    0.011063  -0.128896  -0.137794   0.525927  -0.265967   0.000240
     8  H    0.128974   0.350830  -0.053140   0.031919   0.021857  -0.021920
     9  C   -5.355626  -0.316045  -0.343344  -1.008393   0.276296   0.116732
    10  C    0.475301   0.580738  -0.138560   0.793705  -4.640454  -0.060655
    11  C    0.040701   0.316665  -0.202333   0.295434   0.283058  -0.008561
    12  C    0.323414   0.072886   0.019794   0.024451  -0.205868   0.014898
    13  C   -1.249057   0.045556   0.004620  -0.030471   0.225251  -0.059224
    14  C   -0.060675   0.047570  -0.003692  -0.038316  -0.202532   0.000759
    15  C    0.045951  -0.022277   0.001138  -0.003167   0.029503  -0.000035
    16  C   -0.018953  -0.097589   0.046494   0.097304   0.102894   0.017296
    17  O    0.034818   0.002046  -0.008249   0.008980  -0.033160   0.000569
    18  H   -0.012767  -0.005147  -0.000922   0.009785   0.037597   0.001980
    19  H   -0.054359   0.015706  -0.016594  -0.023560   0.001192   0.001980
    20  H    0.000698   0.000701   0.000186  -0.000807  -0.004306  -0.000512
    21  H   -0.002415  -0.000973  -0.000168   0.000198   0.002648  -0.000119
    22  H   -0.003741  -0.001340   0.002264   0.002796   0.002051   0.000832
    23  C    0.116783   0.023863  -0.711226  -0.906258  -0.115357   0.020715
    24  H    0.116647  -0.009410  -0.078226  -0.084384   0.308351  -0.002641
    25  H    0.025101   0.023805  -0.137823  -0.073494  -0.008201   0.000390
    26  H    0.012689  -0.082847   0.027487   0.010283   0.024368   0.000212
    27  H   -0.001431  -0.054509   0.028719   0.035794  -0.007693   0.000279
               7          8          9         10         11         12
     1  C    0.011063   0.128974  -5.355626   0.475301   0.040701   0.323414
     2  C   -0.128896   0.350830  -0.316045   0.580738   0.316665   0.072886
     3  C   -0.137794  -0.053140  -0.343344  -0.138560  -0.202333   0.019794
     4  C    0.525927   0.031919  -1.008393   0.793705   0.295434   0.024451
     5  C   -0.265967   0.021857   0.276296  -4.640454   0.283058  -0.205868
     6  O    0.000240  -0.021920   0.116732  -0.060655  -0.008561   0.014898
     7  O    8.314107  -0.002302  -0.015135   0.006752   0.003063   0.001525
     8  H   -0.002302   0.598034  -0.107788  -0.003907   0.008894  -0.000209
     9  C   -0.015135  -0.107788  18.416917  -3.213675  -4.079967   0.794468
    10  C    0.006752  -0.003907  -3.213675  22.108187  -7.691825   0.444836
    11  C    0.003063   0.008894  -4.079967  -7.691825  19.767632  -2.521390
    12  C    0.001525  -0.000209   0.794468   0.444836  -2.521390  13.864092
    13  C   -0.006091  -0.008383  -0.867265  -2.175564   0.992231  -7.264079
    14  C   -0.000017  -0.001018  -0.033811  -0.267652  -0.762379  -0.662274
    15  C   -0.000058   0.001929   0.095838  -0.513558   0.307189  -0.891929
    16  C    0.000100  -0.002729  -0.089951   1.590513  -1.992852   1.305587
    17  O   -0.000431   0.000448  -0.169087   0.446649  -0.181688   0.138222
    18  H   -0.000029  -0.000055   0.013346   0.064488  -0.020299   0.436112
    19  H   -0.000968  -0.000344   0.031720  -0.034190  -0.010443  -0.129242
    20  H    0.000001  -0.000059  -0.007506   0.000279  -0.001553  -0.149884
    21  H   -0.000001   0.000059   0.007046  -0.037023   0.044539  -0.028693
    22  H    0.000025  -0.000425  -0.003821   0.047465   0.024899   0.082368
    23  C    0.074126  -0.071546   0.172253  -0.156993  -0.020618   0.003510
    24  H   -0.014364   0.003321   0.014931   0.116328  -0.060159   0.017892
    25  H    0.004725  -0.008484   0.004554   0.002427  -0.000814  -0.000471
    26  H   -0.006081   0.001027  -0.002575   0.002466  -0.001794  -0.000429
    27  H   -0.005186   0.002598   0.000804  -0.003377   0.002040   0.000936
              13         14         15         16         17         18
     1  C   -1.249057  -0.060675   0.045951  -0.018953   0.034818  -0.012767
     2  C    0.045556   0.047570  -0.022277  -0.097589   0.002046  -0.005147
     3  C    0.004620  -0.003692   0.001138   0.046494  -0.008249  -0.000922
     4  C   -0.030471  -0.038316  -0.003167   0.097304   0.008980   0.009785
     5  C    0.225251  -0.202532   0.029503   0.102894  -0.033160   0.037597
     6  O   -0.059224   0.000759  -0.000035   0.017296   0.000569   0.001980
     7  O   -0.006091  -0.000017  -0.000058   0.000100  -0.000431  -0.000029
     8  H   -0.008383  -0.001018   0.001929  -0.002729   0.000448  -0.000055
     9  C   -0.867265  -0.033811   0.095838  -0.089951  -0.169087   0.013346
    10  C   -2.175564  -0.267652  -0.513558   1.590513   0.446649   0.064488
    11  C    0.992231  -0.762379   0.307189  -1.992852  -0.181688  -0.020299
    12  C   -7.264079  -0.662274  -0.891929   1.305587   0.138222   0.436112
    13  C   17.239144   1.218379   0.475830  -2.138169  -0.060868  -0.028312
    14  C    1.218379   6.907111   0.422845  -0.441128   0.028587  -0.208040
    15  C    0.475830   0.422845   6.149919  -0.178952   0.005340  -0.017714
    16  C   -2.138169  -0.441128  -0.178952   7.987336  -0.001338   0.025276
    17  O   -0.060868   0.028587   0.005340  -0.001338   8.036302  -0.001590
    18  H   -0.028312  -0.208040  -0.017714   0.025276  -0.001590   0.526635
    19  H    0.689009   0.040430   0.019828  -0.207050  -0.002131  -0.002496
    20  H    0.027264   0.500176  -0.065218   0.007094   0.000697  -0.015712
    21  H    0.026328  -0.088995   0.516619  -0.127254   0.000156   0.000816
    22  H   -0.250243  -0.002378  -0.125433   0.526282   0.000528   0.001084
    23  C   -0.005434  -0.000352  -0.000628  -0.000831  -0.001294   0.000084
    24  H   -0.046905  -0.000545  -0.000432  -0.001757  -0.008397  -0.000857
    25  H    0.002204  -0.000009  -0.000046   0.000542  -0.000038   0.000007
    26  H    0.001584   0.000023   0.000026   0.000118  -0.000027  -0.000009
    27  H   -0.003172  -0.000020  -0.000041  -0.000314   0.000010   0.000002
              19         20         21         22         23         24
     1  C   -0.054359   0.000698  -0.002415  -0.003741   0.116783   0.116647
     2  C    0.015706   0.000701  -0.000973  -0.001340   0.023863  -0.009410
     3  C   -0.016594   0.000186  -0.000168   0.002264  -0.711226  -0.078226
     4  C   -0.023560  -0.000807   0.000198   0.002796  -0.906258  -0.084384
     5  C    0.001192  -0.004306   0.002648   0.002051  -0.115357   0.308351
     6  O    0.001980  -0.000512  -0.000119   0.000832   0.020715  -0.002641
     7  O   -0.000968   0.000001  -0.000001   0.000025   0.074126  -0.014364
     8  H   -0.000344  -0.000059   0.000059  -0.000425  -0.071546   0.003321
     9  C    0.031720  -0.007506   0.007046  -0.003821   0.172253   0.014931
    10  C   -0.034190   0.000279  -0.037023   0.047465  -0.156993   0.116328
    11  C   -0.010443  -0.001553   0.044539   0.024899  -0.020618  -0.060159
    12  C   -0.129242  -0.149884  -0.028693   0.082368   0.003510   0.017892
    13  C    0.689009   0.027264   0.026328  -0.250243  -0.005434  -0.046905
    14  C    0.040430   0.500176  -0.088995  -0.002378  -0.000352  -0.000545
    15  C    0.019828  -0.065218   0.516619  -0.125433  -0.000628  -0.000432
    16  C   -0.207050   0.007094  -0.127254   0.526282  -0.000831  -0.001757
    17  O   -0.002131   0.000697   0.000156   0.000528  -0.001294  -0.008397
    18  H   -0.002496  -0.015712   0.000816   0.001084   0.000084  -0.000857
    19  H    0.535594   0.001146   0.000857  -0.021259  -0.000111  -0.002943
    20  H    0.001146   0.587891  -0.023204   0.000212   0.000004  -0.000005
    21  H    0.000857  -0.023204   0.609790  -0.024150  -0.000008  -0.000032
    22  H   -0.021259   0.000212  -0.024150   0.591665   0.000217   0.000021
    23  C   -0.000111   0.000004  -0.000008   0.000217   6.793946  -0.016130
    24  H   -0.002943  -0.000005  -0.000032   0.000021  -0.016130   0.543865
    25  H    0.000201   0.000001  -0.000001   0.000034   0.500345  -0.000170
    26  H    0.000096  -0.000000   0.000000  -0.000006   0.355864   0.000241
    27  H   -0.000323   0.000000  -0.000000   0.000010   0.345599  -0.000080
              25         26         27
     1  C    0.025101   0.012689  -0.001431
     2  C    0.023805  -0.082847  -0.054509
     3  C   -0.137823   0.027487   0.028719
     4  C   -0.073494   0.010283   0.035794
     5  C   -0.008201   0.024368  -0.007693
     6  O    0.000390   0.000212   0.000279
     7  O    0.004725  -0.006081  -0.005186
     8  H   -0.008484   0.001027   0.002598
[...]
 85011,0.00020944,-0.00090064,0.00000651,-0.01680180,-0.03714427,-0.010
 75341,-0.00866138,0.00169971,-0.00131808,-0.00005548,0.00611749,-0.003
 35204,-0.00013365,-0.00001626,0.00018589,-0.00019134,-0.00379990,0.001
 12329,-0.00006676,-0.00099451,0.00033697,0.01818934,0.02822208,0.00006
 872,0.00006523,-0.00005592,-0.00002871,0.00000327,0.00001996,0.0000094
 1,0.00001807,-0.00002414,0.00001092,0.00000788,0.00002098,0.00003272,-
 0.00005940,0.00005459,-0.00006602,-0.00003484,0.00006033,0.00002925,0.
 00000948,-0.00001468,0.00000384,-0.00000640,0.00000158,0.00018499,-0.0
 0002785,-0.00030219,0.00090410,-0.00010308,0.00090939,0.00315901,-0.00
 248193,-0.00207012,0.02191058,0.00164624,0.00903353,0.00041355,-0.0000
 1794,-0.00119065,-0.06218305,-0.01083624,-0.07189039,-0.02968382,-0.00
 105124,-0.00212432,-0.00059680,-0.00347360,-0.00452483,-0.00019399,0.0
 0006028,-0.00018786,-0.00060258,0.00134237,0.00057366,0.00000612,0.000
 32212,0.00001922,0.06749332,0.01350469,0.07138962,0.00003822,0.0000082
 0,-0.00000619,0.00005550,-0.00000585,-0.00000706,0.00000213,-0.0000532
 3,0.00006185,0.00004857,0.00005527,-0.00009026,0.00007862,0.00006425,-
 0.00008371,-0.00006495,0.00011696,0.00002947,-0.00011351,-0.00004601,0
 .00007631,-0.00000403,0.00000782,-0.00001170,-0.00013692,0.00004165,0.
 00009761,0.00021926,-0.00005099,-0.00018996,-0.00042749,-0.00027041,-0
 .00097939,0.00093468,-0.00055846,-0.00201797,-0.00501514,-0.00082626,-
 0.00292243,0.00894924,-0.00220420,-0.00733813,-0.18887301,0.03910262,0
 .12909194,-0.01556033,0.00716821,0.02373637,-0.00000876,0.00000208,0.0
 0019312,0.00024779,-0.00011203,-0.00038032,-0.00079511,0.00032766,0.00
 114480,0.00082461,0.00014874,0.00059406,0.19861759,0.00017726,0.000077
 53,-0.00018032,-0.00010763,-0.00000533,-0.00000171,0.00002149,0.000065
 56,-0.00007245,0.00000671,-0.00006561,0.00007373,-0.00003802,-0.000010
 01,0.00008663,-0.00017294,-0.00000413,0.00015723,0.00005217,0.00002208
 ,-0.00004804,0.00000386,-0.00000853,0.00000454,0.00021359,-0.00005788,
 -0.00010393,-0.00003443,-0.00097853,0.00019742,-0.00055206,-0.00093946
 ,-0.00000834,-0.00096339,0.00616413,-0.00311809,-0.00029546,0.00667549
 ,-0.00160554,0.00676380,0.00096953,-0.00508551,0.03907831,-0.04797714,
 -0.04574304,-0.00171490,0.00304459,0.00136476,0.00006084,0.00009275,0.
 00024096,0.00038434,0.00009759,-0.00029315,-0.00011600,0.00012473,0.00
 008646,-0.00016013,-0.00344311,0.00132668,-0.04273901,0.03961272,0.000
 00920,0.00001115,-0.00000702,-0.00001743,0.00000141,0.00001571,-0.0000
 0025,0.00003111,-0.00003876,-0.00003083,-0.00003674,0.00005780,-0.0000
 2999,-0.00003091,0.00007033,0.00002232,-0.00005756,-0.00000182,0.00007
 654,0.00003000,-0.00004752,0.00000390,-0.00000657,0.00000745,0.0001440
 5,-0.00004681,-0.00004446,-0.00032065,0.00044051,-0.00012620,-0.000860
 96,0.00025172,-0.00028579,-0.00324098,-0.00324780,-0.00391165,-0.00187
 361,-0.00161324,0.00155978,0.02293891,-0.00523064,-0.01467153,0.129099
 88,-0.04582922,-0.18522616,-0.00653833,0.00164129,0.00787653,0.0003143
 2,-0.00006204,-0.00002851,0.00106113,-0.00029855,-0.00068881,-0.000340
 75,0.00004028,0.00019379,-0.00048376,0.00131364,0.00060238,-0.14051889
 ,0.05145601,0.19425827,-0.00009665,-0.00006667,0.00010972,0.00003833,-
 0.00000279,-0.00002307,-0.00002728,-0.00002707,0.00002276,-0.00001984,
 0.00001294,-0.00001445,0.00001796,0.00001446,-0.00004219,0.00010216,-0
 .00001920,-0.00009780,-0.00000348,-0.00000193,-0.00000488,-0.00000558,
 0.00001217,0.00000098,-0.00014999,-0.00002972,0.00002016,0.00096804,0.
 00026604,0.00040690,-0.00258630,0.00137473,0.00314056,-0.00112927,0.00
 017555,0.00050861,0.00985244,0.00630406,0.02112742,-0.00556573,-0.0000
 1790,-0.00039891,-0.00366176,-0.00873374,-0.02962520,-0.08004948,-0.02
 077005,-0.07042262,-0.00026878,-0.00014129,0.00051239,0.00009911,-0.00
 002472,-0.00000583,0.00090082,-0.00024970,-0.00047740,-0.00041969,-0.0
 0042141,-0.00146553,0.00100414,0.00012411,0.00057877,0.08099502,0.0002
 1499,0.00010895,-0.00018584,-0.00012431,0.00001835,0.00002054,0.000045
 75,0.00006112,-0.00006315,0.00002709,-0.00004358,0.00004690,-0.0000645
 3,-0.00001868,0.00009013,-0.00020586,-0.00012643,0.00025083,0.00001836
 ,-0.00000335,-0.00001111,0.00001175,-0.00001957,0.00000301,0.00023592,
 -0.00002376,-0.00007092,-0.00063491,0.00025717,0.00005662,0.00146084,0
 .00646141,-0.00258114,0.00021391,-0.00073734,0.00064740,-0.00261870,0.
 00117024,-0.00615148,-0.00038012,0.00655269,-0.00141633,0.00028976,0.0
 0170894,-0.00147745,-0.02058661,-0.05639754,-0.07409646,0.00024210,-0.
 00021173,-0.00036873,-0.00003396,-0.00093770,0.00019863,-0.00016352,-0
 .00362876,0.00137950,0.00001769,0.00035496,-0.00020561,-0.00017319,-0.
 00346496,0.00125115,0.02221190,0.04892577,0.00018379,0.00011925,-0.000
 21974,-0.00014892,0.00000969,0.00004706,0.00004216,0.00011852,-0.00014
 265,-0.00002772,-0.00011723,0.00015319,-0.00010445,-0.00007031,0.00020
 850,-0.00011431,-0.00013742,0.00024732,0.00016567,0.00007466,-0.000101
 45,0.00001377,-0.00003030,0.00001285,0.00047094,-0.00006530,-0.0001420
 4,-0.00182265,-0.00000450,0.00017411,0.00427634,-0.00254140,-0.0005587
 0,0.00063149,0.00036876,0.00036138,-0.00872965,-0.00567245,-0.01631183
 ,-0.00158249,-0.00140028,0.00225267,0.00080130,-0.00174176,-0.00354363
 ,-0.07048764,-0.07436319,-0.28674312,0.00043333,0.00007603,-0.00072497
 ,-0.00004253,0.00025944,-0.00014680,0.00029317,0.00138354,0.00054753,0
 .00007010,-0.00019362,-0.00028737,-0.00048217,0.00126098,0.00043953,0.
 07614485,0.08267778,0.30448944,0.00534292,-0.00161139,0.00304468,-0.03
 304856,0.00638749,-0.00090498,-0.19426142,0.03003557,-0.01550338,-0.00
 660137,0.00905140,-0.00895968,0.00085394,-0.00033464,0.00075044,-0.001
 84634,-0.00011482,0.00005171,-0.00237761,-0.00249477,0.00280909,0.0013
 4298,0.00037614,-0.00170836,-0.00060551,0.00073783,-0.00091112,0.00011
 493,-0.00001560,0.00000415,0.00003773,-0.00003121,0.00000527,-0.000005
 83,0.00000356,-0.00000788,0.00000667,-0.00000661,-0.00000235,0.0000079
 5,0.00000388,-0.00000512,0.00000362,-0.00000215,0.00000690,-0.00000447
 ,0.00000323,0.00000411,-0.00007722,0.00009987,-0.00022526,0.00000083,-
 0.00000039,0.00000063,-0.00000948,0.00000314,0.00001222,-0.00000172,-0
 .00000182,-0.00000097,-0.00000099,0.00000059,0.00000152,0.00000083,-0.
 00000164,0.00000059,0.47649384,0.00011141,0.00567407,0.00800997,-0.009
 72659,0.00926180,0.00031436,0.03519254,-0.08630059,0.01445541,0.020680
 36,-0.00287973,0.00521983,0.00098274,-0.00060379,0.00426704,-0.0006783
 1,-0.00068646,-0.00154308,0.00191037,-0.00122389,-0.00276809,-0.001681
 07,-0.00343344,-0.00330382,-0.00129453,-0.00083635,-0.00021524,0.00042
 375,-0.00087720,-0.00000382,0.00007598,-0.00003789,0.00001487,0.000007
 99,0.00000848,-0.00000500,-0.00003745,0.00005196,0.00004901,0.00001513
 ,0.00002473,0.00002254,-0.00005840,-0.00001818,0.00001546,0.00002782,-
 0.00001947,-0.00002993,-0.00019349,0.00046092,-0.00044255,0.00000778,0
 .00000087,-0.00000262,0.00001053,0.00001330,-0.00002025,-0.00001009,0.
 00000076,-0.00000170,-0.00000725,0.00000756,0.00000359,0.00000301,0.00
 000466,0.00001094,0.01575805,0.53941029,0.00104103,0.00838878,0.002565
 92,0.01749280,-0.00319150,0.00870565,-0.02144996,0.01533170,-0.0837641
 4,-0.02261431,0.00722382,-0.00043801,-0.00091371,0.00495407,-0.0022568
 6,0.00125332,-0.00123476,-0.00084354,-0.00250950,-0.00207620,-0.000573
 31,0.00082418,-0.00338438,-0.00249743,0.00170305,-0.00128180,-0.000536
 48,-0.00096676,-0.00004673,-0.00089048,0.00000887,0.00015135,0.0000577
 6,-0.00000609,-0.00001202,-0.00003592,0.00001286,0.00000741,-0.0000055
 5,0.00001440,-0.00000024,-0.00000242,0.00001531,-0.00001534,-0.0000071
 3,0.00000676,0.00000282,0.00000639,0.00006939,-0.00020885,0.00068232,-
 0.00000797,0.00000303,0.00000664,0.00001695,0.00001425,0.00002236,0.00
 001378,-0.00000041,-0.00000267,0.00001059,-0.00000228,-0.00000728,0.00
 000178,-0.00000544,-0.00001330,-0.01178179,-0.02484830,0.55183945,-0.0
 0386943,0.00054993,0.00200416,-0.00054429,-0.00058593,0.00045897,-0.00
 555556,0.00120656,-0.00005323,-0.00210029,0.01970106,-0.02247617,-0.06
 695311,0.04046191,-0.04105699,0.00009716,-0.00151114,0.00122906,0.0036
 7364,-0.00165191,0.00094622,0.00003530,0.00001867,-0.00005811,0.008682
 96,-0.01464441,0.01681714,0.00043924,-0.00147100,0.00192680,0.00023794
 ,-0.00030432,-0.00027711,0.00001806,0.00001585,-0.00009241,0.00015135,
 -0.00000711,0.00005657,-0.00002990,0.00001592,0.00001440,-0.00000624,-
 0.00002021,-0.00004715,0.00002790,-0.00001094,-0.00006050,-0.00061198,
 0.00097449,-0.00113223,-0.00004337,-0.00001617,0.00001674,-0.00001397,
 -0.00003290,-0.00002976,0.00001872,0.00000056,-0.00000486,0.00000246,-
 0.00000260,-0.00001089,0.00001078,-0.00001183,-0.00002476,0.00019685,0
 .00101268,-0.00115383,0.06654692,-0.00137047,0.00566481,0.00298535,0.0
 0039397,-0.00034046,-0.00085234,0.00200184,0.00220161,0.00197443,-0.00
 101288,-0.00143170,0.00811019,0.03991604,-0.15858301,0.14155605,-0.000
 03148,-0.00100589,-0.00003143,-0.00067173,-0.00089318,-0.00273817,0.00
 002614,-0.00016847,-0.00000814,0.00340250,-0.00350043,0.00992843,0.000
 63972,-0.00287720,-0.00120711,0.00019469,0.00020845,0.00003399,0.00007
 030,0.00005920,-0.00012884,0.00003779,0.00000910,0.00012315,0.00000456
 ,-0.00001128,0.00005958,-0.00004973,-0.00000744,-0.00002765,0.00003924
 ,-0.00004223,-0.00005344,0.00025686,0.00075425,-0.00187407,-0.00001885
 ,0.00000689,-0.00000349,-0.00002539,0.00000134,-0.00004207,0.00000121,
 -0.00000490,-0.00000486,-0.00000625,0.00000626,-0.00000513,0.00000575,
 -0.00000251,-0.00000674,-0.00016454,-0.00040766,0.00020907,-0.04380926
 ,0.16046571,0.00347122,0.00224693,0.00366772,-0.00016071,-0.00078852,0
 .00005714,-0.00068788,0.00179338,0.00182673,0.00184497,0.00433681,-0.0
 0034061,-0.04166398,0.14178940,-0.19780540,-0.00015077,0.00087349,-0.0
 0165684,-0.00013598,-0.00246194,-0.00026374,-0.00003611,-0.00000340,-0
 .00014505,-0.00207451,0.01193072,-0.00869892,-0.00267608,-0.00113384,-
 0.00503984,0.00033991,0.00015030,0.00027530,0.00003947,-0.00000800,-0.
 00012977,0.00005368,-0.00004428,0.00002379,0.00003997,0.00000109,0.000
 03836,0.00001343,-0.00000361,-0.00000154,-0.00001500,-0.00001473,-0.00
 002288,-0.00124496,-0.00072922,0.00230690,0.00000968,0.00000899,0.0000
 1519,-0.00002167,0.00004089,-0.00001348,0.00001395,-0.00000119,-0.0000
 1208,-0.00000002,0.00000231,-0.00000172,0.00000401,0.00000571,-0.00001
 031,0.00008564,-0.00000639,-0.00021627,0.04309766,-0.15791325,0.206177
 14,-0.00010538,-0.00007683,0.00006562,0.00175256,0.00088381,-0.0013076
 0,-0.00302567,0.02167277,-0.02550020,-0.00643213,-0.00008983,0.0013843
 5,0.00018429,0.00121067,-0.00145306,0.00013525,-0.00004755,0.00004599,
 0.00131360,-0.00068684,0.00068478,-0.00019221,-0.00068977,0.00083618,0
 .00018890,-0.00002224,-0.00000585,0.00008412,-0.00009970,0.00004210,-0
 .00000928,0.00000743,-0.00000135,-0.00000273,-0.00000132,0.00001230,-0
 .00001951,0.00000643,0.00000032,-0.00000005,-0.00000027,0.00000234,-0.
 00000694,0.00000235,0.00000474,0.00000085,-0.00000860,0.00000260,-0.00
 006201,0.00000492,0.00001468,0.00000441,0.00000236,-0.00000250,0.00000
 263,0.00000338,-0.00000733,-0.00000268,0.00000089,0.00000067,-0.000001
 19,0.00000163,0.00000089,-0.00000162,0.00000367,0.00000394,-0.04814071
 ,0.01092312,-0.01304070,-0.00048340,0.00012062,-0.00006090,0.05352899,
 0.00017643,-0.00005235,-0.00028034,-0.00166152,-0.00000375,-0.00031041
 ,-0.00011731,-0.00662995,0.00615786,0.00116312,0.00091085,0.00047285,-
 0.00028362,-0.00034850,0.00072731,0.00011949,0.00007758,-0.00009717,0.
 00079967,0.00036431,0.00005325,0.00030818,0.00063429,-0.00039617,0.000
 16096,0.00013263,-0.00019861,-0.00032710,0.00024023,-0.00012874,0.0000
 2151,0.00000703,0.00000958,-0.00000813,-0.00000352,-0.00002773,0.00003
 338,-0.00001774,-0.00001787,0.00000286,-0.00000613,-0.00001741,0.00003
 280,-0.00000076,-0.00000776,-0.00000922,0.00001225,0.00001810,0.000123
 86,-0.00011185,0.00012203,-0.00001077,-0.00000034,0.00000455,-0.000005
 23,0.00000679,0.00002842,0.00001169,-0.00000193,-0.00000150,0.00000865
 ,-0.00000397,-0.00000554,0.00000180,-0.00000644,-0.00001434,0.01313086
 ,-0.15569485,0.12557766,0.00017399,-0.00010793,-0.00006396,-0.01488504
 ,0.16612126,-0.00020719,-0.00019585,0.00008766,0.00160745,-0.00058268,
 0.00009563,0.00041460,0.00260871,-0.00459766,-0.00009216,0.00065293,0.
 00069025,0.00030513,0.00043055,-0.00044130,-0.00018750,-0.00010685,0.0
 0013058,-0.00106287,0.00028224,0.00034935,-0.00029224,-0.00031426,0.00
 066424,-0.00018570,-0.00009918,0.00025482,0.00038140,-0.00022167,0.000
 18319,-0.00003273,-0.00001029,-0.00001461,0.00000766,0.00000132,0.0000
 2999,-0.00001992,0.00000844,0.00001717,-0.00000499,0.00000369,0.000014
 72,-0.00003008,0.00000061,0.00000945,0.00000613,-0.00000565,-0.0000162
 4,-0.00015644,0.00011099,-0.00016555,0.00001012,0.00000288,-0.00000708
 ,0.00000559,-0.00000905,-0.00002449,-0.00001463,0.00000200,0.00000075,
 -0.00000995,0.00000500,0.00000655,0.00000037,0.00000410,0.00001233,-0.
 01567205,0.12593753,-0.19549945,-0.00013915,-0.00004767,-0.00003764,0.
 01632358,-0.14142019,0.21063339,-0.00048413,-0.00234397,-0.00085830,-0
 .00204897,0.00204902,-0.00243385,-0.01620834,0.01251350,0.02736390,-0.
 00177837,-0.00124239,0.00063045,0.00053009,-0.00052326,-0.00008293,-0.
 00033227,0.00044230,0.00016303,0.00181589,0.00019079,-0.00092775,0.000
 07977,0.00071046,0.00073324,-0.00096852,0.00037616,0.00013157,0.000717
 36,-0.00022195,0.00039678,-0.00002427,-0.00005021,-0.00002953,0.000005
 12,0.00000497,0.00003791,-0.00002228,0.00001171,0.00001684,-0.00000720
 ,0.00001029,0.00001037,-0.00002872,0.00000114,0.00001355,-0.00000029,-
 0.00000154,-0.00001528,-0.00023748,0.00018540,-0.00042954,0.00001137,0
 .00000248,-0.00000871,-0.00000628,-0.00000907,-0.00002486,-0.00001735,
 -0.00000066,0.00000232,-0.00001073,0.00000407,0.00000734,-0.00000088,0
 .00000196,0.00001449,-0.07869509,0.04184975,0.08162570,0.00003444,0.00
 008237,0.00000518,0.00008512,-0.00204532,-0.00256435,0.09087198,-0.000
 18333,0.00044047,-0.00025681,-0.00007784,-0.00066530,0.00063450,0.0018
 9700,-0.00239892,-0.00590652,0.00257128,0.00064891,-0.00028038,-0.0006
 8605,0.00016553,0.00015021,-0.00001578,-0.00021909,0.00014756,-0.00196
 223,0.00044672,0.00033510,0.00003493,0.00020647,-0.00003103,0.00059938
 ,-0.00017226,-0.00005720,-0.00038524,0.00021721,-0.00018223,0.00000329
 ,0.00003513,0.00000844,0.00000361,-0.00000601,-0.00001590,0.00000966,-
 0.00001080,-0.00001011,-0.00000035,-0.00000582,-0.00000083,0.00001183,
 -0.00000208,-0.00001052,0.00000593,0.00000503,0.00000453,0.00011553,-0
 .00014903,0.00023610,-0.00000625,0.00000012,0.00000383,0.00000512,-0.0
 0000344,0.00001015,0.00000850,0.00000094,-0.00000091,0.00000537,-0.000
 00224,-0.00000382,-0.00000031,-0.00000138,-0.00000634,0.04200350,-0.08
 670807,-0.08567791,0.00001048,-0.00003356,-0.00001126,-0.00896000,0.00
 983553,0.01760678,-0.04466781,0.09086956,0.00016746,-0.00046755,0.0000
 2196,-0.00076219,-0.00039741,0.00033153,0.00150427,0.00274018,0.006561
 83,0.00027341,0.00139789,-0.00096306,-0.00001368,-0.00052333,0.0000707
 0,0.00000611,0.00013197,0.00004450,-0.00101078,-0.00005067,0.00034180,
 -0.00011898,-0.00022969,0.00008529,0.00001197,0.00012922,-0.00011362,-
 0.00011052,0.00007858,-0.00002491,-0.00000397,-0.00001490,-0.00000095,
 -0.00000664,-0.00000164,-0.00000387,-0.00000228,-0.00001111,-0.0000127
 1,0.00000196,0.00000283,-0.00001011,0.00001400,-0.00000143,0.00000086,
 -0.00000589,0.00000485,0.00000769,0.00007458,-0.00002303,0.00007544,-0
 .00000299,-0.00000055,0.00000328,-0.00000280,0.00000800,0.00000612,0.0
 0000753,-0.00000166,0.00000085,0.00000484,-0.00000170,-0.00000366,-0.0
 0000299,0.00000035,-0.00000195,0.07906785,-0.08595481,-0.22250778,0.00
 005677,-0.00001138,0.00002784,0.00766230,-0.00991902,-0.01825121,-0.08
 899048,0.09657924,0.24093772,0.00002363,0.00121980,0.00216455,-0.00205
 465,0.00236302,-0.00202129,-0.02147447,-0.02555838,-0.00496950,-0.0020
 0532,-0.00022837,0.00184172,0.00066261,0.00001092,0.00019931,-0.000272
 03,-0.00001630,-0.00050384,0.00231593,0.00066257,-0.00053688,-0.000074
 16,-0.00078922,-0.00062824,-0.00098282,0.00005716,0.00005888,0.0006786
 4,-0.00045301,0.00021278,-0.00002289,-0.00005095,-0.00001537,0.0000059
 1,0.00000916,0.00004120,-0.00006021,0.00004225,0.00002101,0.00000181,0
 .00000756,0.00002376,-0.00005049,0.00000820,0.00001313,0.00001735,-0.0
 0001366,-0.00001937,-0.00028495,0.00029729,-0.00037502,0.00001754,-0.0
 0000083,-0.00000662,0.00000182,-0.00001843,-0.00003139,-0.00001715,0.0
 0000275,0.00000274,-0.00001065,0.00000381,0.00000851,-0.00000330,0.000
 00350,0.00002138,-0.11872678,-0.11530583,-0.02966614,0.00003782,-0.000
 03299,-0.00009020,0.00120476,0.00308403,0.00160992,0.00672002,0.009659
 77,0.00218115,0.13435202,-0.00026644,-0.00020567,-0.00076638,0.0011324
 9,-0.00018599,-0.00040712,0.00268778,0.01004746,0.00229641,-0.00035862
 ,-0.00063146,0.00144361,-0.00005052,-0.00003495,-0.00048961,0.00004335
 ,0.00005721,0.00019688,0.00107215,0.00007134,-0.00015867,0.00010898,0.
 00021189,-0.00010426,0.00008975,-0.00003669,0.00016013,0.00007107,0.00
 002971,0.00001237,-0.00003040,-0.00001625,-0.00001067,0.00000605,0.000
 00408,0.00001063,-0.00000099,0.00000230,0.00000230,-0.00000457,0.00000
 783,0.00000518,-0.00000981,-0.00000320,0.00000046,0.00000441,0.0000053
 2,-0.00001218,-0.00004238,0.00000238,0.00000694,0.00000291,-0.00000236
 ,-0.00000121,0.00000205,-0.00000941,-0.00000937,-0.00000499,-0.0000015
 9,0.00000079,-0.00000434,0.00000040,0.00000269,0.,-0.00000050,0.000005
 56,-0.11281553,-0.21519178,-0.03987779,-0.00006236,0.00004022,0.000003
 58,-0.00927606,-0.01535275,-0.00464441,-0.00733019,-0.01249362,-0.0034
 6323,0.12503620,0.23368609,0.00029086,-0.00039394,0.00023545,0.0001203
 5,0.00023832,-0.00036273,-0.00005056,-0.00354851,-0.00063460,-0.002132
 30,0.00036102,0.00051415,0.00062685,-0.00001005,0.00000067,0.00006267,
 0.00016844,-0.00016813,0.00156333,0.00000185,0.00025513,0.00000786,0.0
 0003974,0.00032734,-0.00048252,0.00012394,-0.00002354,0.00028941,-0.00
 014082,0.00017638,0.00000098,-0.00002955,-0.00000197,-0.00000576,0.000
 00475,0.00001029,-0.00000046,0.00001048,-0.00000045,0.00000134,0.00000
 009,-0.00000311,-0.00000346,0.00000530,0.00000767,-0.00000875,-0.00000
 850,0.00000552,-0.00007788,0.00010448,-0.00019046,0.00000436,0.0000003
 5,-0.00000289,0.00000085,0.00000201,-0.00000131,-0.00000562,-0.0000002
 4,0.00000038,-0.00000280,0.00000139,0.00000280,0.00000158,0.00000102,0
 .00000196,-0.03016186,-0.03917494,-0.05378851,-0.00000734,-0.00002447,
 -0.00002002,0.01429212,0.01973516,0.00587512,-0.01478707,-0.02326469,-
 0.00662359,0.03046381,0.04579738,0.05440845\\0.00000896,-0.00000094,-0
 .00000163,-0.00001175,-0.00001055,0.00001152,0.00000065,0.00000602,-0.
 00000691,0.00000101,0.00000233,0.00000957,-0.00000672,-0.00000017,0.00
 000027,-0.00000467,0.00000223,-0.00000106,-0.00000181,-0.00000234,-0.0
 0000073,0.00000228,0.00000367,-0.00000306,0.00000990,0.00000491,-0.000
 00930,0.00000528,0.00000097,-0.00001005,-0.00001593,-0.00000409,0.0000
 0556,0.00001383,-0.00000124,-0.00000502,0.00000490,0.00000098,-0.00000
 200,-0.00000111,0.00000166,0.00000443,0.00000017,-0.00000316,-0.000001
 35,0.00000124,0.00000110,-0.00000214,0.00000192,-0.00000051,0.00001127
 ,-0.00000287,-0.00000041,0.00000156,0.00000187,-0.00000122,-0.00000067
 ,-0.00000120,-0.00000047,0.00000228,-0.00000072,0.00000077,-0.00000012
 ,-0.00000079,0.00000056,0.00000110,-0.00000120,0.00000400,0.00000041,-
 0.00000237,-0.00000229,0.00000169,-0.00000078,0.00000128,-0.00000117,0
 .00000081,-0.00000327,-0.00000045,-0.00000090,0.00000021,-0.00000399\\
 \@


 JUST WHEN YOU THINK YOU'VE GOT THE WORLD ON A STRING,
 YOU FIND OUT IT'S YOUR LEASH.
 Job cpu time:       0 days  4 hours 59 minutes  6.9 seconds.
 Elapsed time:       0 days  0 hours 39 minutes  7.6 seconds.
 File lengths (MBytes):  RWF=    977 Int=      0 D2E=      0 Chk=     23 Scr=      1
 Normal termination of Gaussian 16 at Wed Dec 20 03:27:39 2023.
