 Entering Gaussian System, Link 0=g16
 Input=248-an.com
 Output=248-an.log
 Initial command:
 /sysapps/ubuntu-applications/gaussian/Gaussian/AVX2/g16/l1.exe "/scratch/selhajj1/4407568/Gau-2215037.inp" -scrdir="/scratch/selhajj1/4407568/"
 Entering Link 1 = /sysapps/ubuntu-applications/gaussian/Gaussian/AVX2/g16/l1.exe PID=   2215039.
  
 Copyright (c) 1988,1990,1992,1993,1995,1998,2003,2009,2016,
            Gaussian, Inc.  All Rights Reserved.
  
 This is part of the Gaussian(R) 16 program.  It is based on
 the Gaussian(R) 09 system (copyright 2009, Gaussian, Inc.),
 the Gaussian(R) 03 system (copyright 2003, Gaussian, Inc.),
 the Gaussian(R) 98 system (copyright 1998, Gaussian, Inc.),
 the Gaussian(R) 94 system (copyright 1995, Gaussian, Inc.),
 the Gaussian 92(TM) system (copyright 1992, Gaussian, Inc.),
 the Gaussian 90(TM) system (copyright 1990, Gaussian, Inc.),
 the Gaussian 88(TM) system (copyright 1988, Gaussian, Inc.),
 the Gaussian 86(TM) system (copyright 1986, Carnegie Mellon
 University), and the Gaussian 82(TM) system (copyright 1983,
 Carnegie Mellon University). Gaussian is a federally registered
 trademark of Gaussian, Inc.
  
 This software contains proprietary and confidential information,
 including trade secrets, belonging to Gaussian, Inc.
  
 This software is provided under written license and may be
 used, copied, transmitted, or stored only in accord with that
 written license.
  
 The following legend is applicable only to US Government
 contracts under FAR:
  
                    RESTRICTED RIGHTS LEGEND
  
 Use, reproduction and disclosure by the US Government is
 subject to restrictions as set forth in subparagraphs (a)
 and (c) of the Commercial Computer Software - Restricted
 Rights clause in FAR 52.227-19.
  
 Gaussian, Inc.
 340 Quinnipiac St., Bldg. 40, Wallingford CT 06492
  
  
 ---------------------------------------------------------------
 Warning -- This program may not be used in any manner that
 competes with the business of Gaussian, Inc. or will provide
 assistance to any competitor of Gaussian, Inc.  The licensee
 of this program is prohibited from giving any competitor of
 Gaussian, Inc. access to this program.  By using this program,
 the user acknowledges that Gaussian, Inc. is engaged in the
 business of creating and licensing software in the field of
 computational chemistry and represents and warrants to the
 licensee that it is not a competitor of Gaussian, Inc. and that
 it will not use this program in any manner prohibited above.
 ---------------------------------------------------------------
  

 Cite this work as:
 Gaussian 16, Revision A.03,
 M. J. Frisch, G. W. Trucks, H. B. Schlegel, G. E. Scuseria, 
 M. A. Robb, J. R. Cheeseman, G. Scalmani, V. Barone, 
 G. A. Petersson, H. Nakatsuji, X. Li, M. Caricato, A. V. Marenich, 
 J. Bloino, B. G. Janesko, R. Gomperts, B. Mennucci, H. P. Hratchian, 
 J. V. Ortiz, A. F. Izmaylov, J. L. Sonnenberg, D. Williams-Young, 
 F. Ding, F. Lipparini, F. Egidi, J. Goings, B. Peng, A. Petrone, 
 T. Henderson, D. Ranasinghe, V. G. Zakrzewski, J. Gao, N. Rega, 
 G. Zheng, W. Liang, M. Hada, M. Ehara, K. Toyota, R. Fukuda, 
 J. Hasegawa, M. Ishida, T. Nakajima, Y. Honda, O. Kitao, H. Nakai, 
 T. Vreven, K. Throssell, J. A. Montgomery, Jr., J. E. Peralta, 
 F. Ogliaro, M. J. Bearpark, J. J. Heyd, E. N. Brothers, K. N. Kudin, 
 V. N. Staroverov, T. A. Keith, R. Kobayashi, J. Normand, 
 K. Raghavachari, A. P. Rendell, J. C. Burant, S. S. Iyengar, 
 J. Tomasi, M. Cossi, J. M. Millam, M. Klene, C. Adamo, R. Cammi, 
 J. W. Ochterski, R. L. Martin, K. Morokuma, O. Farkas, 
 J. B. Foresman, and D. J. Fox, Gaussian, Inc., Wallingford CT, 2016.
 
 ******************************************
 Gaussian 16:  ES64L-G16RevA.03 25-Dec-2016
                11-Feb-2024 
 ******************************************
 %chk=248-an.chk
 %nproc=8
 Will use up to    8 processors via shared memory.
 %mem=30GB
 ----------------------------------------------------------------------
 #P UB3LYP/6-311++G(d,p) nosym opt freq SCRF=(PCM,Solvent=n,n-DiMethylF
 ormamide)
 ----------------------------------------------------------------------
 1/18=20,19=15,26=3,38=1/1,3;
 2/9=110,12=2,15=1,17=6,18=5,40=1/2;
 3/5=4,6=6,7=1111,11=2,25=1,30=1,70=2201,71=1,72=148,74=-5,116=2/1,2,3;
 4//1;
 5/5=2,38=5,53=148/2;
 6/7=2,8=2,9=2,10=2,28=1/1;
 7/30=1/1,2,3,16;
 1/18=20,19=15,26=3/3(2);
 2/9=110,15=1/2;
 99//99;
 2/9=110,15=1/2;
 3/5=4,6=6,7=1111,11=2,25=1,30=1,70=2205,71=1,72=148,74=-5,116=2/1,2,3;
 4/5=5,16=3,69=1/1;
 5/5=2,38=5,53=148/2;
 7/30=1/1,2,3,16;
 1/18=20,19=15,26=3/3(-5);
 2/9=110,15=1/2;
 6/7=2,8=2,9=2,10=2,19=2,28=1/1;
 99/9=1/99;
 Leave Link    1 at Sun Feb 11 01:55:11 2024, MaxMem=  4026531840 cpu:              13.6 elap:               2.0
 (Enter /sysapps/ubuntu-applications/gaussian/Gaussian/AVX2/g16/l101.exe)
 -------
 Reduced
 -------
 Symbolic Z-matrix:
 Charge = -2 Multiplicity = 1
 C                     5.87926  -5.55522   0.90468 
 C                     6.39224  -5.56233  -0.38046 
 C                     5.94817  -4.59736  -1.31771 
 C                     4.91594  -4.60751   1.31808 
 C                     4.4666   -3.62952   0.36787 
 C                     5.00559  -3.6582   -0.93756 
 C                     4.40945  -4.63849   2.68665 
 C                     3.43012  -3.63659   3.00524 
 C                     2.99352  -2.67056   2.07454 
 C                     3.47605  -2.61811   0.72263 
 O                     4.82846  -5.50917   3.53438 
 O                     3.07461  -1.742    -0.12493 
 H                     7.13227  -6.30565  -0.67137 
 C                     1.9781   -1.61257   2.45212 
 H                     6.34623  -4.59618  -2.33071 
 C                     2.89421  -3.65723   4.41985 
 C                     0.52365  -1.98129   2.09143 
 C                    -0.4917   -0.88641   2.4541 
 C                    -1.9447   -1.23671   2.10939 
 C                    -2.95767  -0.14553   2.47807 
 H                     6.19911  -6.27972   1.64702 
 H                     4.64317  -2.90553  -1.63073 
 H                     2.2311   -0.69845   1.90315 
 H                     2.02972  -1.38667   3.52426 
 H                     3.24686  -4.56864   4.90702 
 H                     1.79807  -3.6299    4.4554 
 H                     3.25035  -2.80076   5.01447 
 H                     0.24676  -2.91528   2.59821 
 H                     0.48503  -2.18061   1.01542 
 H                    -0.21431   0.0427    1.9379 
 H                    -0.42287  -0.66805   3.52973 
 H                    -2.21921  -2.17019   2.61857 
 H                    -2.01507  -1.44865   1.03486 
 H                    -2.9445    0.06751   3.55355 
 H                    -3.98529  -0.42775   2.22037 
 H                    -2.74161   0.79453   1.9571 
 
 ITRead=  0  0  0  0  0  0  0  0  0  0  0  0  0  0  0  0  0  0  0  0
 ITRead=  0  0  0  0  0  0  0  0  0  0  0  0  0  0  0  0
 MicOpt= -1 -1 -1 -1 -1 -1 -1 -1 -1 -1 -1 -1 -1 -1 -1 -1 -1 -1 -1 -1
 MicOpt= -1 -1 -1 -1 -1 -1 -1 -1 -1 -1 -1 -1 -1 -1 -1 -1
 NAtoms=     36 NQM=       36 NQMF=       0 NMMI=      0 NMMIF=      0
                NMic=       0 NMicF=      0.
                    Isotopes and Nuclear Properties:
 (Nuclear quadrupole moments (NQMom) in fm**2, nuclear magnetic moments (NMagM)
  in nuclear magnetons)

  Atom         1           2           3           4           5           6           7           8           9          10
 IAtWgt=          12          12          12          12          12          12          12          12          12          12
 AtmWgt=  12.0000000  12.0000000  12.0000000  12.0000000  12.0000000  12.0000000  12.0000000  12.0000000  12.0000000  12.0000000
 NucSpn=           0           0           0           0           0           0           0           0           0           0
 AtZEff=  -0.0000000  -0.0000000  -0.0000000  -0.0000000  -0.0000000  -0.0000000  -0.0000000  -0.0000000  -0.0000000  -0.0000000
 NQMom=    0.0000000   0.0000000   0.0000000   0.0000000   0.0000000   0.0000000   0.0000000   0.0000000   0.0000000   0.0000000
 NMagM=    0.0000000   0.0000000   0.0000000   0.0000000   0.0000000   0.0000000   0.0000000   0.0000000   0.0000000   0.0000000
 AtZNuc=   6.0000000   6.0000000   6.0000000   6.0000000   6.0000000   6.0000000   6.0000000   6.0000000   6.0000000   6.0000000

  Atom        11          12          13          14          15          16          17          18          19          20
 IAtWgt=          16          16           1          12           1          12          12          12          12          12
 AtmWgt=  15.9949146  15.9949146   1.0078250  12.0000000   1.0078250  12.0000000  12.0000000  12.0000000  12.0000000  12.0000000
 NucSpn=           0           0           1           0           1           0           0           0           0           0
 AtZEff=  -0.0000000  -0.0000000  -0.0000000  -0.0000000  -0.0000000  -0.0000000  -0.0000000  -0.0000000  -0.0000000  -0.0000000
 NQMom=    0.0000000   0.0000000   0.0000000   0.0000000   0.0000000   0.0000000   0.0000000   0.0000000   0.0000000   0.0000000
 NMagM=    0.0000000   0.0000000   2.7928460   0.0000000   2.7928460   0.0000000   0.0000000   0.0000000   0.0000000   0.0000000
 AtZNuc=   8.0000000   8.0000000   1.0000000   6.0000000   1.0000000   6.0000000   6.0000000   6.0000000   6.0000000   6.0000000

  Atom        21          22          23          24          25          26          27          28          29          30
 IAtWgt=           1           1           1           1           1           1           1           1           1           1
 AtmWgt=   1.0078250   1.0078250   1.0078250   1.0078250   1.0078250   1.0078250   1.0078250   1.0078250   1.0078250   1.0078250
 NucSpn=           1           1           1           1           1           1           1           1           1           1
 AtZEff=  -0.0000000  -0.0000000  -0.0000000  -0.0000000  -0.0000000  -0.0000000  -0.0000000  -0.0000000  -0.0000000  -0.0000000
 NQMom=    0.0000000   0.0000000   0.0000000   0.0000000   0.0000000   0.0000000   0.0000000   0.0000000   0.0000000   0.0000000
 NMagM=    2.7928460   2.7928460   2.7928460   2.7928460   2.7928460   2.7928460   2.7928460   2.7928460   2.7928460   2.7928460
 AtZNuc=   1.0000000   1.0000000   1.0000000   1.0000000   1.0000000   1.0000000   1.0000000   1.0000000   1.0000000   1.0000000

  Atom        31          32          33          34          35          36
 IAtWgt=           1           1           1           1           1           1
 AtmWgt=   1.0078250   1.0078250   1.0078250   1.0078250   1.0078250   1.0078250
 NucSpn=           1           1           1           1           1           1
 AtZEff=  -0.0000000  -0.0000000  -0.0000000  -0.0000000  -0.0000000  -0.0000000
 NQMom=    0.0000000   0.0000000   0.0000000   0.0000000   0.0000000   0.0000000
 NMagM=    2.7928460   2.7928460   2.7928460   2.7928460   2.7928460   2.7928460
 AtZNuc=   1.0000000   1.0000000   1.0000000   1.0000000   1.0000000   1.0000000
 Leave Link  101 at Sun Feb 11 01:55:12 2024, MaxMem=  4026531840 cpu:               6.4 elap:               0.9
 (Enter /sysapps/ubuntu-applications/gaussian/Gaussian/AVX2/g16/l103.exe)

 GradGradGradGradGradGradGradGradGradGradGradGradGradGradGradGradGradGrad
 Berny optimization.
 Initialization pass.
                           ----------------------------
                           !    Initial Parameters    !
                           ! (Angstroms and Degrees)  !
 --------------------------                            --------------------------
 ! Name  Definition              Value          Derivative Info.                !
 --------------------------------------------------------------------------------
 ! R1    R(1,2)                  1.3838         estimate D2E/DX2                !
 ! R2    R(1,4)                  1.4132         estimate D2E/DX2                !
 ! R3    R(1,21)                 1.0855         estimate D2E/DX2                !
 ! R4    R(2,3)                  1.4166         estimate D2E/DX2                !
 ! R5    R(2,13)                 1.0885         estimate D2E/DX2                !
 ! R6    R(3,6)                  1.3838         estimate D2E/DX2                !
 ! R7    R(3,15)                 1.0884         estimate D2E/DX2                !
 ! R8    R(4,5)                  1.4357         estimate D2E/DX2                !
 ! R9    R(4,7)                  1.4596         estimate D2E/DX2                !
 ! R10   R(5,6)                  1.4126         estimate D2E/DX2                !
 ! R11   R(5,10)                 1.4595         estimate D2E/DX2                !
 ! R12   R(6,22)                 1.0855         estimate D2E/DX2                !
 ! R13   R(7,8)                  1.4368         estimate D2E/DX2                !
 ! R14   R(7,11)                 1.2854         estimate D2E/DX2                !
 ! R15   R(8,9)                  1.4107         estimate D2E/DX2                !
 ! R16   R(8,16)                 1.5129         estimate D2E/DX2                !
 ! R17   R(9,10)                 1.4364         estimate D2E/DX2                !
 ! R18   R(9,14)                 1.5143         estimate D2E/DX2                !
 ! R19   R(10,12)                1.2834         estimate D2E/DX2                !
 ! R20   R(14,17)                1.5432         estimate D2E/DX2                !
 ! R21   R(14,23)                1.0959         estimate D2E/DX2                !
 ! R22   R(14,24)                1.0969         estimate D2E/DX2                !
 ! R23   R(16,25)                1.092          estimate D2E/DX2                !
 ! R24   R(16,26)                1.0971         estimate D2E/DX2                !
 ! R25   R(16,27)                1.1018         estimate D2E/DX2                !
 ! R26   R(17,18)                1.5366         estimate D2E/DX2                !
 ! R27   R(17,28)                1.0981         estimate D2E/DX2                !
 ! R28   R(17,29)                1.095          estimate D2E/DX2                !
 ! R29   R(18,19)                1.5339         estimate D2E/DX2                !
 ! R30   R(18,30)                1.0985         estimate D2E/DX2                !
 ! R31   R(18,31)                1.0997         estimate D2E/DX2                !
 ! R32   R(19,20)                1.5339         estimate D2E/DX2                !
 ! R33   R(19,32)                1.0982         estimate D2E/DX2                !
 ! R34   R(19,33)                1.0975         estimate D2E/DX2                !
 ! R35   R(20,34)                1.0965         estimate D2E/DX2                !
 ! R36   R(20,35)                1.0964         estimate D2E/DX2                !
 ! R37   R(20,36)                1.0963         estimate D2E/DX2                !
 ! A1    A(2,1,4)              121.8595         estimate D2E/DX2                !
 ! A2    A(2,1,21)             121.4987         estimate D2E/DX2                !
 ! A3    A(4,1,21)             116.6419         estimate D2E/DX2                !
 ! A4    A(1,2,3)              119.6533         estimate D2E/DX2                !
 ! A5    A(1,2,13)             120.2492         estimate D2E/DX2                !
 ! A6    A(3,2,13)             120.0975         estimate D2E/DX2                !
 ! A7    A(2,3,6)              119.6077         estimate D2E/DX2                !
 ! A8    A(2,3,15)             120.1236         estimate D2E/DX2                !
 ! A9    A(6,3,15)             120.2687         estimate D2E/DX2                !
 ! A10   A(1,4,5)              118.4611         estimate D2E/DX2                !
 ! A11   A(1,4,7)              119.7747         estimate D2E/DX2                !
 ! A12   A(5,4,7)              121.7635         estimate D2E/DX2                !
 ! A13   A(4,5,6)              118.5794         estimate D2E/DX2                !
 ! A14   A(4,5,10)             121.5745         estimate D2E/DX2                !
 ! A15   A(6,5,10)             119.8462         estimate D2E/DX2                !
 ! A16   A(3,6,5)              121.8391         estimate D2E/DX2                !
 ! A17   A(3,6,22)             121.5042         estimate D2E/DX2                !
 ! A18   A(5,6,22)             116.6567         estimate D2E/DX2                !
 ! A19   A(4,7,8)              115.4432         estimate D2E/DX2                !
 ! A20   A(4,7,11)             121.3073         estimate D2E/DX2                !
 ! A21   A(8,7,11)             123.2491         estimate D2E/DX2                !
 ! A22   A(7,8,9)              122.8326         estimate D2E/DX2                !
 ! A23   A(7,8,16)             116.0574         estimate D2E/DX2                !
 ! A24   A(9,8,16)             121.1048         estimate D2E/DX2                !
 ! A25   A(8,9,10)             122.8182         estimate D2E/DX2                !
 ! A26   A(8,9,14)             121.4322         estimate D2E/DX2                !
 ! A27   A(10,9,14)            115.7494         estimate D2E/DX2                !
 ! A28   A(5,10,9)             115.5615         estimate D2E/DX2                !
 ! A29   A(5,10,12)            121.6583         estimate D2E/DX2                !
 ! A30   A(9,10,12)            122.7797         estimate D2E/DX2                !
 ! A31   A(9,14,17)            114.0034         estimate D2E/DX2                !
 ! A32   A(9,14,23)            107.6421         estimate D2E/DX2                !
 ! A33   A(9,14,24)            110.8574         estimate D2E/DX2                !
 ! A34   A(17,14,23)           107.4456         estimate D2E/DX2                !
 ! A35   A(17,14,24)           108.7851         estimate D2E/DX2                !
 ! A36   A(23,14,24)           107.8777         estimate D2E/DX2                !
 ! A37   A(8,16,25)            108.3095         estimate D2E/DX2                !
 ! A38   A(8,16,26)            112.5757         estimate D2E/DX2                !
 ! A39   A(8,16,27)            112.3048         estimate D2E/DX2                !
 ! A40   A(25,16,26)           109.2091         estimate D2E/DX2                !
 ! A41   A(25,16,27)           107.6764         estimate D2E/DX2                !
 ! A42   A(26,16,27)           106.6256         estimate D2E/DX2                !
 ! A43   A(14,17,18)           113.4129         estimate D2E/DX2                !
 ! A44   A(14,17,28)           109.4515         estimate D2E/DX2                !
 ! A45   A(14,17,29)           107.843          estimate D2E/DX2                !
 ! A46   A(18,17,28)           109.2993         estimate D2E/DX2                !
 ! A47   A(18,17,29)           109.7748         estimate D2E/DX2                !
 ! A48   A(28,17,29)           106.8442         estimate D2E/DX2                !
 ! A49   A(17,18,19)           114.215          estimate D2E/DX2                !
 ! A50   A(17,18,30)           108.9589         estimate D2E/DX2                !
 ! A51   A(17,18,31)           109.3275         estimate D2E/DX2                !
 ! A52   A(19,18,30)           109.0729         estimate D2E/DX2                !
 ! A53   A(19,18,31)           108.932          estimate D2E/DX2                !
 ! A54   A(30,18,31)           106.0144         estimate D2E/DX2                !
 ! A55   A(18,19,20)           114.1485         estimate D2E/DX2                !
 ! A56   A(18,19,32)           109.0699         estimate D2E/DX2                !
 ! A57   A(18,19,33)           108.9581         estimate D2E/DX2                !
 ! A58   A(20,19,32)           109.1581         estimate D2E/DX2                !
 ! A59   A(20,19,33)           109.2911         estimate D2E/DX2                !
 ! A60   A(32,19,33)           105.8892         estimate D2E/DX2                !
 ! A61   A(19,20,34)           111.4722         estimate D2E/DX2                !
 ! A62   A(19,20,35)           112.2946         estimate D2E/DX2                !
 ! A63   A(19,20,36)           111.4475         estimate D2E/DX2                !
 ! A64   A(34,20,35)           106.967          estimate D2E/DX2                !
 ! A65   A(34,20,36)           107.2869         estimate D2E/DX2                !
 ! A66   A(35,20,36)           107.0831         estimate D2E/DX2                !
 ! D1    D(4,1,2,3)              0.0336         estimate D2E/DX2                !
 ! D2    D(4,1,2,13)          -179.893          estimate D2E/DX2                !
 ! D3    D(21,1,2,3)          -179.9239         estimate D2E/DX2                !
 ! D4    D(21,1,2,13)            0.1495         estimate D2E/DX2                !
 ! D5    D(2,1,4,5)             -0.0533         estimate D2E/DX2                !
 ! D6    D(2,1,4,7)           -179.7601         estimate D2E/DX2                !
 ! D7    D(21,1,4,5)           179.9062         estimate D2E/DX2                !
 ! D8    D(21,1,4,7)             0.1993         estimate D2E/DX2                !
 ! D9    D(1,2,3,6)             -0.0192         estimate D2E/DX2                !
 ! D10   D(1,2,3,15)          -179.9743         estimate D2E/DX2                !
 ! D11   D(13,2,3,6)           179.9075         estimate D2E/DX2                !
 ! D12   D(13,2,3,15)           -0.0476         estimate D2E/DX2                !
 ! D13   D(2,3,6,5)              0.0266         estimate D2E/DX2                !
 ! D14   D(2,3,6,22)          -179.9512         estimate D2E/DX2                !
 ! D15   D(15,3,6,5)           179.9817         estimate D2E/DX2                !
 ! D16   D(15,3,6,22)            0.0038         estimate D2E/DX2                !
 ! D17   D(1,4,5,6)              0.0582         estimate D2E/DX2                !
 ! D18   D(1,4,5,10)          -179.8881         estimate D2E/DX2                !
 ! D19   D(7,4,5,6)            179.7589         estimate D2E/DX2                !
 ! D20   D(7,4,5,10)            -0.1874         estimate D2E/DX2                !
 ! D21   D(1,4,7,8)           -179.7726         estimate D2E/DX2                !
 ! D22   D(1,4,7,11)             0.4505         estimate D2E/DX2                !
 ! D23   D(5,4,7,8)              0.5306         estimate D2E/DX2                !
 ! D24   D(5,4,7,11)          -179.2463         estimate D2E/DX2                !
 ! D25   D(4,5,6,3)             -0.0465         estimate D2E/DX2                !
 ! D26   D(4,5,6,22)           179.9324         estimate D2E/DX2                !
 ! D27   D(10,5,6,3)           179.9008         estimate D2E/DX2                !
 ! D28   D(10,5,6,22)           -0.1204         estimate D2E/DX2                !
 ! D29   D(4,5,10,9)             0.1585         estimate D2E/DX2                !
 ! D30   D(4,5,10,12)          179.9026         estimate D2E/DX2                !
 ! D31   D(6,5,10,9)          -179.7871         estimate D2E/DX2                !
 ! D32   D(6,5,10,12)           -0.0431         estimate D2E/DX2                !
 ! D33   D(4,7,8,9)             -0.9039         estimate D2E/DX2                !
 ! D34   D(4,7,8,16)           179.918          estimate D2E/DX2                !
 ! D35   D(11,7,8,9)           178.8682         estimate D2E/DX2                !
 ! D36   D(11,7,8,16)           -0.3099         estimate D2E/DX2                !
 ! D37   D(7,8,9,10)             0.9507         estimate D2E/DX2                !
 ! D38   D(7,8,9,14)          -178.8499         estimate D2E/DX2                !
 ! D39   D(16,8,9,10)         -179.9117         estimate D2E/DX2                !
 ! D40   D(16,8,9,14)            0.2877         estimate D2E/DX2                !
 ! D41   D(7,8,16,25)           -9.4818         estimate D2E/DX2                !
 ! D42   D(7,8,16,26)         -130.3389         estimate D2E/DX2                !
 ! D43   D(7,8,16,27)          109.298          estimate D2E/DX2                !
 ! D44   D(9,8,16,25)          171.3249         estimate D2E/DX2                !
 ! D45   D(9,8,16,26)           50.4677         estimate D2E/DX2                !
 ! D46   D(9,8,16,27)          -69.8953         estimate D2E/DX2                !
 ! D47   D(8,9,10,5)            -0.5275         estimate D2E/DX2                !
 ! D48   D(8,9,10,12)          179.7316         estimate D2E/DX2                !
 ! D49   D(14,9,10,5)          179.2837         estimate D2E/DX2                !
 ! D50   D(14,9,10,12)          -0.4572         estimate D2E/DX2                !
 ! D51   D(8,9,14,17)          -95.1624         estimate D2E/DX2                !
 ! D52   D(8,9,14,23)          145.7599         estimate D2E/DX2                !
 ! D53   D(8,9,14,24)           27.9914         estimate D2E/DX2                !
 ! D54   D(10,9,14,17)          85.0236         estimate D2E/DX2                !
 ! D55   D(10,9,14,23)         -34.0541         estimate D2E/DX2                !
 ! D56   D(10,9,14,24)        -151.8226         estimate D2E/DX2                !
 ! D57   D(9,14,17,18)        -178.8139         estimate D2E/DX2                !
 ! D58   D(9,14,17,28)          58.8503         estimate D2E/DX2                !
 ! D59   D(9,14,17,29)         -57.0318         estimate D2E/DX2                !
 ! D60   D(23,14,17,18)        -59.6247         estimate D2E/DX2                !
 ! D61   D(23,14,17,28)        178.0395         estimate D2E/DX2                !
 ! D62   D(23,14,17,29)         62.1574         estimate D2E/DX2                !
 ! D63   D(24,14,17,18)         56.9128         estimate D2E/DX2                !
 ! D64   D(24,14,17,28)        -65.423          estimate D2E/DX2                !
 ! D65   D(24,14,17,29)        178.6949         estimate D2E/DX2                !
 ! D66   D(14,17,18,19)       -179.7256         estimate D2E/DX2                !
 ! D67   D(14,17,18,30)         58.0429         estimate D2E/DX2                !
 ! D68   D(14,17,18,31)        -57.4            estimate D2E/DX2                !
 ! D69   D(28,17,18,19)        -57.3053         estimate D2E/DX2                !
 ! D70   D(28,17,18,30)       -179.5369         estimate D2E/DX2                !
 ! D71   D(28,17,18,31)         65.0203         estimate D2E/DX2                !
 ! D72   D(29,17,18,19)         59.5771         estimate D2E/DX2                !
 ! D73   D(29,17,18,30)        -62.6544         estimate D2E/DX2                !
 ! D74   D(29,17,18,31)       -178.0973         estimate D2E/DX2                !
 ! D75   D(17,18,19,20)        179.7269         estimate D2E/DX2                !
 ! D76   D(17,18,19,32)         57.3477         estimate D2E/DX2                !
 ! D77   D(17,18,19,33)        -57.8054         estimate D2E/DX2                !
 ! D78   D(30,18,19,20)        -58.104          estimate D2E/DX2                !
 ! D79   D(30,18,19,32)        179.5168         estimate D2E/DX2                !
 ! D80   D(30,18,19,33)         64.3637         estimate D2E/DX2                !
 ! D81   D(31,18,19,20)         57.1854         estimate D2E/DX2                !
 ! D82   D(31,18,19,32)        -65.1938         estimate D2E/DX2                !
 ! D83   D(31,18,19,33)        179.6531         estimate D2E/DX2                !
 ! D84   D(18,19,20,34)        -59.8939         estimate D2E/DX2                !
 ! D85   D(18,19,20,35)       -179.9073         estimate D2E/DX2                !
 ! D86   D(18,19,20,36)         59.9476         estimate D2E/DX2                !
 ! D87   D(32,19,20,34)         62.437          estimate D2E/DX2                !
 ! D88   D(32,19,20,35)        -57.5764         estimate D2E/DX2                !
 ! D89   D(32,19,20,36)       -177.7215         estimate D2E/DX2                !
 ! D90   D(33,19,20,34)        177.8205         estimate D2E/DX2                !
 ! D91   D(33,19,20,35)         57.8071         estimate D2E/DX2                !
 ! D92   D(33,19,20,36)        -62.338          estimate D2E/DX2                !
 --------------------------------------------------------------------------------
 Trust Radius=3.00D-01 FncErr=1.00D-07 GrdErr=1.00D-06 EigMax=2.50D+02 EigMin=1.00D-04
 Number of steps in this run=    205 maximum allowed number of steps=    216.
 GradGradGradGradGradGradGradGradGradGradGradGradGradGradGradGradGradGrad

 Leave Link  103 at Sun Feb 11 01:55:13 2024, MaxMem=  4026531840 cpu:               0.2 elap:               0.6
 (Enter /sysapps/ubuntu-applications/gaussian/Gaussian/AVX2/g16/l202.exe)
                          Input orientation:                          
 ---------------------------------------------------------------------
 Center     Atomic      Atomic             Coordinates (Angstroms)
 Number     Number       Type             X           Y           Z
 ---------------------------------------------------------------------
      1          6           0        5.879261   -5.555219    0.904679
      2          6           0        6.392245   -5.562326   -0.380458
      3          6           0        5.948168   -4.597358   -1.317712
      4          6           0        4.915942   -4.607508    1.318075
      5          6           0        4.466603   -3.629524    0.367868
      6          6           0        5.005590   -3.658203   -0.937559
      7          6           0        4.409454   -4.638491    2.686653
      8          6           0        3.430120   -3.636590    3.005236
      9          6           0        2.993524   -2.670555    2.074544
     10          6           0        3.476047   -2.618113    0.722634
     11          8           0        4.828460   -5.509167    3.534379
     12          8           0        3.074606   -1.742000   -0.124926
     13          1           0        7.132266   -6.305655   -0.671371
     14          6           0        1.978095   -1.612565    2.452122
     15          1           0        6.346229   -4.596180   -2.330714
     16          6           0        2.894207   -3.657225    4.419846
     17          6           0        0.523649   -1.981285    2.091434
     18          6           0       -0.491701   -0.886406    2.454104
     19          6           0       -1.944699   -1.236711    2.109389
     20          6           0       -2.957672   -0.145526    2.478069
     21          1           0        6.199105   -6.279715    1.647016
     22          1           0        4.643169   -2.905526   -1.630731
     23          1           0        2.231095   -0.698449    1.903145
     24          1           0        2.029724   -1.386672    3.524255
     25          1           0        3.246864   -4.568638    4.907017
     26          1           0        1.798072   -3.629903    4.455397
     27          1           0        3.250345   -2.800762    5.014469
     28          1           0        0.246761   -2.915281    2.598206
     29          1           0        0.485029   -2.180615    1.015419
     30          1           0       -0.214307    0.042700    1.937903
     31          1           0       -0.422873   -0.668047    3.529726
     32          1           0       -2.219213   -2.170186    2.618566
     33          1           0       -2.015069   -1.448651    1.034855
     34          1           0       -2.944502    0.067507    3.553553
     35          1           0       -3.985290   -0.427747    2.220368
     36          1           0       -2.741613    0.794531    1.957101
 ---------------------------------------------------------------------
                    Distance matrix (angstroms):
                    1          2          3          4          5
     1  C    0.000000
     2  C    1.383756   0.000000
     3  C    2.421005   1.416620   0.000000
     4  C    1.413165   2.444619   2.830718   0.000000
     5  C    2.447870   2.829101   2.443955   1.435706   0.000000
     6  C    2.784926   2.420508   1.383829   2.448898   1.412611
     7  C    2.485187   3.767241   4.290020   1.459622   2.529436
     8  C    3.753900   4.893421   5.094263   2.448849   2.833736
     9  C    4.244685   5.093199   4.893863   2.831912   2.449965
    10  C    3.799364   4.288288   3.767201   2.526963   1.459456
    11  O    2.832247   4.215946   5.062403   2.394294   3.700107
    12  O    4.844256   5.066253   4.222933   3.699176   2.396508
    13  H    2.148746   1.088485   2.176723   3.428366   3.917583
    14  C    5.758315   6.565732   6.235553   4.345882   3.821637
    15  H    3.406697   2.176937   1.088406   3.919121   3.427793
    16  C    4.986916   6.237676   6.567351   3.822490   4.346461
    17  C    6.547058   7.305787   6.920370   5.175652   4.608064
    18  C    8.049080   8.791341   8.334847   6.661814   6.038365
    19  C    9.017493   9.716734   9.237766   7.684845   7.061391
    20  C   10.480063  11.177381  10.655550   9.124071   8.468238
    21  H    1.085476   2.159306   3.418027   2.133304   3.414864
    22  H    3.870026   3.417753   2.159467   3.415641   2.133014
    23  H    6.155832   6.796125   6.276308   4.778227   3.993216
    24  H    6.249632   7.191277   7.007664   4.855025   4.575100
    25  H    4.890968   6.232033   6.785655   3.958262   4.793075
    26  H    5.741998   6.944507   7.175518   4.529858   4.881491
    27  H    5.602554   6.826640   7.113545   4.438679   4.874118
    28  H    6.446888   7.324361   7.118275   5.128705   4.826139
    29  H    6.363800   6.948355   6.413270   5.061067   4.286209
    30  H    8.338814   8.968704   8.372889   6.951840   6.153142
    31  H    8.395964   9.256854   8.917808   6.993833   6.532585
    32  H    8.943217   9.729233   9.385710   7.651291   7.203849
    33  H    8.899511   9.466169   8.880432   7.622172   6.871183
    34  H   10.793071  11.590785  11.161083   9.414866   8.873618
    35  H   11.195150  11.866821  11.339191   9.875043   9.225921
    36  H   10.758549  11.371067  10.738210   9.393004   8.605597
                    6          7          8          9         10
     6  C    0.000000
     7  C    3.801481   0.000000
     8  C    4.245963   1.436801   0.000000
     9  C    3.754547   2.500461   1.410683   0.000000
    10  C    2.485464   2.968256   2.499935   1.436398   0.000000
    11  O    4.843106   1.285411   2.396224   3.681824   4.253601
    12  O    2.839173   4.251642   3.676109   2.388819   1.283389
    13  H    3.406260   4.633516   5.860651   6.154932   5.376723
    14  C    4.984004   3.888797   2.551664   1.514267   2.499223
    15  H    2.148952   5.378370   6.156043   5.861310   4.633965
    16  C    5.758448   2.502562   1.512862   2.546335   3.884285
    17  C    5.663448   4.744946   3.467368   2.564305   3.315994
    18  C    7.028972   6.176855   4.821612   3.933706   4.662598
    19  C    7.965804   7.230533   5.954044   5.142292   5.763319
    20  C    9.349810   8.631616   7.298583   6.477294   7.112523
    21  H    3.869991   2.641460   4.061791   4.846088   4.655841
    22  H    1.085522   4.658068   4.847487   4.062709   2.642557
    23  H    4.952531   4.569799   3.359306   2.121292   2.574611
    24  H    5.824381   4.115704   2.700485   2.163083   3.384875
    25  H    6.170987   2.507292   2.125810   3.419035   4.622352
    26  H    6.274787   3.311347   2.183253   2.831592   4.215784
    27  H    6.264402   3.184260   2.183562   2.953992   4.301645
    28  H    5.974949   4.506139   3.289337   2.806924   3.746247
    29  H    5.141290   4.922935   3.840937   2.766647   3.036991
    30  H    7.015147   6.622186   5.287554   4.203642   4.709089
    31  H    7.639756   6.310831   4.892126   4.218929   5.184988
    32  H    8.188895   7.073641   5.849343   5.264879   6.019234
    33  H    7.619855   7.360571   6.190280   5.259278   5.622942
    34  H    9.861793   8.773745   7.393023   6.704074   7.513329
    35  H   10.062021   9.403165   8.117943   7.331800   7.919120
    36  H    9.392819   9.010424   7.669662   6.701672   7.199260
                   11         12         13         14         15
    11  O    0.000000
    12  O    5.536972   0.000000
    13  H    4.861095   6.131081   0.000000
    14  C    4.947663   2.803617   7.638506   0.000000
    15  H    6.126703   4.869842   2.508700   7.131485   0.000000
    16  C    2.820474   4.935138   7.134130   2.981918   7.639905
    17  C    5.749734   3.387756   8.367024   1.543199   7.765018
    18  C    7.130289   4.483523   9.862136   2.574335   9.133137
    19  C    8.133890   5.517328  10.761882   3.955635   9.986993
    20  C    9.513584   6.761116  12.234092   5.149240  11.379600
    21  H    2.456532   5.787325   2.499276   6.344085   4.321837
    22  H    5.787196   2.466096   4.321672   5.044210   2.499740
    23  H    5.705281   2.431786   7.879744   1.095898   7.074758
    24  H    4.982769   3.812422   8.236237   1.096888   7.950712
    25  H    2.295686   5.774080   7.016551   4.046560   7.873473
    26  H    3.682819   5.115963   7.867466   2.848714   8.226222
    27  H    3.466493   5.250261   7.725436   3.097750   8.170663
    28  H    5.347582   4.097407   8.342359   2.171619   8.020174
    29  H    6.024102   2.863334   8.002935   2.148498   7.168349
    30  H    7.668211   4.272864  10.053957   2.794808   9.098403
    31  H    7.142336   5.171288  10.320463   2.796067   9.777307
    32  H    7.852210   5.977843  10.741320   4.237457  10.185657
    33  H    8.340821   5.228378  10.496449   4.240386   9.547005
    34  H    9.566535   7.282526  12.649444   5.316743  11.945386
    35  H   10.258150   7.554455  12.903953   6.084362  12.034470
    36  H    9.976493   6.678116  12.442467   5.321165  11.403245
                   16         17         18         19         20
    16  C    0.000000
    17  C    3.721535   0.000000
    18  C    4.796452   1.536628   0.000000
    19  C    5.883206   2.578266   1.533866   0.000000
    20  C    7.095563   3.954629   2.574974   1.533859   0.000000
    21  H    5.048603   7.133359   8.631689   9.589954  11.052850
    22  H    6.342980   5.628426   6.865101   7.757154   9.070426
    23  H    3.940540   2.143943   2.784331   4.215391   5.249720
    24  H    2.589368   2.162129   2.784434   4.221418   5.244909
    25  H    1.091960   4.694444   5.792451   6.773536   7.997498
    26  H    1.097052   3.151256   4.095731   5.023889   6.218345
    27  H    1.101789   4.080508   4.921701   6.154204   7.212703
    28  H    3.298155   1.098104   2.163891   2.803397   4.237259
    29  H    4.424324   1.095003   2.167670   2.826889   4.258300
    30  H    5.432527   2.159784   1.098476   2.158832   2.802367
    31  H    4.553078   2.165452   1.099718   2.157937   2.793603
    32  H    5.621651   2.799436   2.158573   1.098178   2.159701
    33  H    6.359006   2.800919   2.156626   1.097494   2.160903
    34  H    6.979586   4.285255   2.852187   2.187739   1.096459
    35  H    7.911682   4.770811   3.531312   2.197897   1.096384
    36  H    7.592477   4.287789   2.852133   2.187283   1.096265
                   21         22         23         24         25
    21  H    0.000000
    22  H    4.954767   0.000000
    23  H    6.852827   4.814309   0.000000
    24  H    6.696987   5.975859   1.772625   0.000000
    25  H    4.719229   6.888959   5.003339   3.676733   0.000000
    26  H    5.854707   6.757237   3.910872   2.439831   1.784428
    27  H    5.669042   6.790406   3.890877   2.389624   1.771142
    28  H    6.903230   6.100197   3.055329   2.524514   4.130958
    29  H    7.060609   4.981740   2.456343   3.051342   5.336190
    30  H    9.010516   6.709863   2.555484   3.097627   6.485351
    31  H    8.881780   7.569769   3.112914   2.555716   5.529784
    32  H    9.418079   8.104908   4.741632   4.414480   6.392775
    33  H    9.549166   7.318468   4.398481   4.749874   7.239882
    34  H   11.292815   9.658596   5.486104   5.182511   7.852307
    35  H   11.759939   9.768350   6.230357   6.228969   8.756090
    36  H   11.405154   9.005441   5.192276   5.475333   8.563144
                   26         27         28         29         30
    26  H    0.000000
    27  H    1.763273   0.000000
    28  H    2.523174   3.856547   0.000000
    29  H    3.957015   4.901424   1.761170   0.000000
    30  H    4.886252   5.436391   3.065654   2.506627   0.000000
    31  H    3.816026   4.499496   2.523133   3.071463   1.755723
    32  H    4.652236   6.004502   2.576162   3.143742   3.062648
    33  H    5.567586   6.737219   3.116239   2.605118   2.506465
    34  H    6.080804   6.981216   4.471451   4.822640   3.172523
    35  H    6.978283   8.111265   4.923499   4.950576   3.810698
    36  H    6.813651   7.627397   4.806672   4.488817   2.636834
                   31         32         33         34         35
    31  H    0.000000
    32  H    2.512662   0.000000
    33  H    3.060852   1.752264   0.000000
    34  H    2.626827   2.531307   3.083248   0.000000
    35  H    3.803022   2.512704   2.515841   1.762356   0.000000
    36  H    3.160512   3.082205   2.531851   1.765895   1.763521
                   36
    36  H    0.000000
 Symmetry turned off by external request.
 Stoichiometry    C16H18O2(2-)
 Framework group  C1[X(C16H18O2)]
 Deg. of freedom   102
 Full point group                 C1      NOp   1
 Rotational constants (GHZ):           0.8144300           0.2010591           0.1691173
 Leave Link  202 at Sun Feb 11 01:55:13 2024, MaxMem=  4026531840 cpu:               0.5 elap:               0.1
 (Enter /sysapps/ubuntu-applications/gaussian/Gaussian/AVX2/g16/l301.exe)
 Standard basis: 6-311++G(d,p) (5D, 7F)
 Ernie: Thresh=  0.10000D-02 Tol=  0.10000D-05 Strict=F.
   522 basis functions,   810 primitive gaussians,   540 cartesian basis functions
    66 alpha electrons       66 beta electrons
       nuclear repulsion energy      1234.7174837872 Hartrees.
 IExCor=  402 DFT=T Ex+Corr=B3LYP ExCW=0 ScaHFX=  0.200000
 ScaDFX=  0.800000  0.720000  1.000000  0.810000 ScalE2=  1.000000  1.000000
 IRadAn=      5 IRanWt=     -1 IRanGd=            0 ICorTp=0 IEmpDi=  4
 NAtoms=   36 NActive=   36 NUniq=   36 SFac= 1.00D+00 NAtFMM=   60 NAOKFM=F Big=F
 Integral buffers will be    131072 words long.
 Raffenetti 2 integral format.
 Two-electron integral symmetry is turned off.
 ------------------------------------------------------------------------------
 Polarizable Continuum Model (PCM)
 =================================
 Model                : PCM.
 Atomic radii         : UFF (Universal Force Field).
 Polarization charges : Total charges.
 Charge compensation  : None.
 Solution method      : On-the-fly selection.
 Cavity type          : Scaled VdW (van der Waals Surface) (Alpha=1.100).
 Cavity algorithm     : GePol (No added spheres)
                        Default sphere list used, NSphG=   36.
                        Lebedev-Laikov grids with approx.  5.0 points / Ang**2.
                        Smoothing algorithm: York/Karplus (Gamma=1.0000).
                        Polarization charges: spherical gaussians, with
                                              point-specific exponents (IZeta= 3).
                        Self-potential: point-specific (ISelfS= 7).
                        Self-field    : sphere-specific E.n sum rule (ISelfD= 2).
 1st derivatives      : Analytical E(r).r(x)/FMM algorithm (CHGder, D1EAlg=3).
                        Cavity 1st derivative terms included.
 Solvent              : n,n-DiMethylFormamide, Eps=  37.219000 Eps(inf)=   2.046330
 ------------------------------------------------------------------------------
 GePol: Number of generator spheres                  =      36
 GePol: Total number of spheres                      =      36
 GePol: Number of exposed spheres                    =      36 (100.00%)
 GePol: Number of points                             =    2598
 GePol: Average weight of points                     =       0.13
 GePol: Minimum weight of points                     =   0.49D-10
 GePol: Maximum weight of points                     =    0.20577
 GePol: Number of points with low weight             =     204
 GePol: Fraction of low-weight points (<1% of avg)   =       7.85%
 GePol: Cavity surface area                          =    338.482 Ang**2
 GePol: Cavity volume                                =    364.901 Ang**3
 Leave Link  301 at Sun Feb 11 01:55:13 2024, MaxMem=  4026531840 cpu:               0.8 elap:               0.1
 (Enter /sysapps/ubuntu-applications/gaussian/Gaussian/AVX2/g16/l302.exe)
 NPDir=0 NMtPBC=     1 NCelOv=     1 NCel=       1 NClECP=     1 NCelD=      1
         NCelK=      1 NCelE2=     1 NClLst=     1 CellRange=     0.0.
 One-electron integrals computed using PRISM.
 NBasis=   522 RedAO= T EigKep=  1.22D-06  NBF=   522
 NBsUse=   517 1.00D-06 EigRej=  7.89D-07 NBFU=   517
 Precomputing XC quadrature grid using
 IXCGrd= 4 IRadAn=           5 IRanWt=          -1 IRanGd=           0 AccXCQ= 0.00D+00.
 Generated NRdTot=       0 NPtTot=           0 NUsed=           0 NTot=          32
 NSgBfM=   534   533   533   534   534 MxSgAt=    36 MxSgA2=    36.
 Leave Link  302 at Sun Feb 11 01:55:13 2024, MaxMem=  4026531840 cpu:               4.9 elap:               0.6
 (Enter /sysapps/ubuntu-applications/gaussian/Gaussian/AVX2/g16/l303.exe)
 DipDrv:  MaxL=1.
 Leave Link  303 at Sun Feb 11 01:55:14 2024, MaxMem=  4026531840 cpu:               0.8 elap:               0.1
 (Enter /sysapps/ubuntu-applications/gaussian/Gaussian/AVX2/g16/l401.exe)
 ExpMin= 3.60D-02 ExpMax= 8.59D+03 ExpMxC= 1.30D+03 IAcc=3 IRadAn=         5 AccDes= 0.00D+00
 Harris functional with IExCor=  402 and IRadAn=       5 diagonalized for initial guess.
 HarFok:  IExCor=  402 AccDes= 0.00D+00 IRadAn=         5 IDoV= 1 UseB2=F ITyADJ=14
 ICtDFT=  3500011 ScaDFX=  1.000000  1.000000  1.000000  1.000000
 FoFCou: FMM=F IPFlag=           0 FMFlag=      100000 FMFlg1=           0
         NFxFlg=           0 DoJE=T BraDBF=F KetDBF=T FulRan=T
         wScrn=  0.000000 ICntrl=       500 IOpCl=  0 I1Cent=   200000004 NGrid=           0
         NMat0=    1 NMatS0=      1 NMatT0=    0 NMatD0=    1 NMtDS0=    0 NMtDT0=    0
 Symmetry not used in FoFCou.
 Harris En= -771.763918713922    
 JPrj=0 DoOrth=F DoCkMO=F.
 Initial guess <Sx>= 0.0000 <Sy>= 0.0000 <Sz>= 0.0000 <S**2>=-0.0000 S=-0.0000
 Leave Link  401 at Sun Feb 11 01:55:18 2024, MaxMem=  4026531840 cpu:              33.2 elap:               4.4
 (Enter /sysapps/ubuntu-applications/gaussian/Gaussian/AVX2/g16/l502.exe)
 Two-electron integral symmetry not used.
 UHF open shell SCF:
 Using DIIS extrapolation, IDIIS=  1040.
 NGot=  4026531840 LenX=  4025940332 LenY=  4025648192
 Requested convergence on RMS density matrix=1.00D-08 within 128 cycles.
 Requested convergence on MAX density matrix=1.00D-06.
 Requested convergence on             energy=1.00D-06.
 No special actions if energy rises.
 Fock matrices will be formed incrementally for  20 cycles.

 Cycle   1  Pass 1  IDiag  1:
 FoFJK:  IHMeth= 1 ICntrl=       0 DoSepK=F KAlg= 0 I1Cent=           0 FoldK=F
 IRaf= 820000000 NMat=       1 IRICut=       1 DoRegI=T DoRafI=F ISym2E= 0 IDoP0=0 IntGTp=1.
 FoFCou: FMM=F IPFlag=           0 FMFlag=      100000 FMFlg1=           0
         NFxFlg=           0 DoJE=F BraDBF=F KetDBF=F FulRan=T
         wScrn=  0.000000 ICntrl=         0 IOpCl=  1 I1Cent=           0 NGrid=           0
         NMat0=    1 NMatS0=      1 NMatT0=    0 NMatD0=    1 NMtDS0=    0 NMtDT0=    0
 Symmetry not used in FoFCou.
 Inv3:  Mode=1 IEnd=    20248812.
 Iteration    1 A*A^-1 deviation from unit magnitude is 3.55D-15 for   1652.
 Iteration    1 A*A^-1 deviation from orthogonality  is 2.44D-15 for   2464    792.
 Iteration    1 A^-1*A deviation from unit magnitude is 3.77D-15 for   1652.
 Iteration    1 A^-1*A deviation from orthogonality  is 1.52D-15 for   1871   1087.
 E= -770.738337996434    
 DIIS: error= 4.11D-02 at cycle   1 NSaved=   1.
 NSaved= 1 IEnMin= 1 EnMin= -770.738337996434     IErMin= 1 ErrMin= 4.11D-02
 ErrMax= 4.11D-02  0.00D+00 EMaxC= 1.00D-01 BMatC= 3.00D+00 BMatP= 3.00D+00
 IDIUse=3 WtCom= 5.89D-01 WtEn= 4.11D-01
 Coeff-Com:  0.100D+01
 Coeff-En:   0.100D+01
 Coeff:      0.100D+01
 Gap=     0.074 Goal=   None    Shift=    0.000
 Gap=     0.074 Goal=   None    Shift=    0.000
 GapD=    0.074 DampG=0.500 DampE=0.500 DampFc=0.2500 IDamp=-1.
 Damping current iteration by 2.50D-01
 RMSDP=1.54D+00 MaxDP=1.14D+02              OVMax= 9.77D-01

 Cycle   2  Pass 1  IDiag  1:
 RMSU=  3.44D-01    CP:  3.00D+00
 E= -770.938927641522     Delta-E=       -0.200589645088 Rises=F Damp=T
 DIIS: error= 1.92D-02 at cycle   2 NSaved=   2.
 NSaved= 2 IEnMin= 2 EnMin= -770.938927641522     IErMin= 2 ErrMin= 1.92D-02
 ErrMax= 1.92D-02  0.00D+00 EMaxC= 1.00D-01 BMatC= 5.71D-01 BMatP= 3.00D+00
 IDIUse=3 WtCom= 8.08D-01 WtEn= 1.92D-01
 Coeff-Com: -0.473D+00 0.147D+01
 Coeff-En:   0.117D-01 0.988D+00
 Coeff:     -0.380D+00 0.138D+01
 Gap=    -0.006 Goal=   None    Shift=    0.000
 Gap=    -0.006 Goal=   None    Shift=    0.000
 RMSDP=3.92D-01 MaxDP=2.93D+01 DE=-2.01D-01 OVMax= 8.83D-01

 Cycle   3  Pass 1  IDiag  1:
 RMSU=  7.08D-03    CP:  8.34D-01 -7.16D-03
 E= -771.270501775988     Delta-E=       -0.331574134465 Rises=F Damp=F
 DIIS: error= 2.54D-02 at cycle   3 NSaved=   3.
 NSaved= 3 IEnMin= 3 EnMin= -771.270501775988     IErMin= 2 ErrMin= 1.92D-02
 ErrMax= 2.54D-02  0.00D+00 EMaxC= 1.00D-01 BMatC= 8.31D-01 BMatP= 5.71D-01
 IDIUse=2 WtCom= 0.00D+00 WtEn= 1.00D+00
 Coeff-En:   0.000D+00 0.000D+00 0.100D+01
 Coeff:      0.000D+00 0.000D+00 0.100D+01
 Gap=     0.050 Goal=   None    Shift=    0.000
 Gap=     0.050 Goal=   None    Shift=    0.000
 RMSDP=1.06D-01 MaxDP=1.43D+01 DE=-3.32D-01 OVMax= 8.43D-01

 Cycle   4  Pass 1  IDiag  1:
 RMSU=  7.02D-02    CP:  2.30D+00  8.58D-02  2.22D+00
 E= -769.802847017756     Delta-E=        1.467654758231 Rises=F Damp=F
 DIIS: error= 5.71D-02 at cycle   4 NSaved=   4.
 NSaved= 4 IEnMin= 3 EnMin= -771.270501775988     IErMin= 2 ErrMin= 1.92D-02
 ErrMax= 5.71D-02  0.00D+00 EMaxC= 1.00D-01 BMatC= 6.59D+00 BMatP= 5.71D-01
 IDIUse=2 WtCom= 0.00D+00 WtEn= 1.00D+00
 Coeff-En:   0.000D+00 0.000D+00 0.861D+00 0.139D+00
 Coeff:      0.000D+00 0.000D+00 0.861D+00 0.139D+00
 Gap=    -0.000 Goal=   None    Shift=    0.000
 Gap=    -0.000 Goal=   None    Shift=    0.000
 RMSDP=9.24D-02 MaxDP=1.32D+01 DE= 1.47D+00 OVMax= 7.97D-01

 Cycle   5  Pass 1  IDiag  1:
 RMSU=  1.22D-02    CP:  9.49D-01  1.00D-02  1.07D+00  1.84D-01
 E= -771.312263002519     Delta-E=       -1.509415984762 Rises=F Damp=F
 DIIS: error= 2.23D-02 at cycle   5 NSaved=   5.
 NSaved= 5 IEnMin= 5 EnMin= -771.312263002519     IErMin= 2 ErrMin= 1.92D-02
 ErrMax= 2.23D-02  0.00D+00 EMaxC= 1.00D-01 BMatC= 6.82D-01 BMatP= 5.71D-01
 IDIUse=2 WtCom= 0.00D+00 WtEn= 1.00D+00
 Coeff-En:   0.000D+00 0.000D+00 0.449D+00 0.000D+00 0.551D+00
 Coeff:      0.000D+00 0.000D+00 0.449D+00 0.000D+00 0.551D+00
 Gap=     0.097 Goal=   None    Shift=    0.000
 Gap=     0.097 Goal=   None    Shift=    0.000
 RMSDP=1.39D-02 MaxDP=1.67D+00 DE=-1.51D+00 OVMax= 1.13D-01

 Cycle   6  Pass 1  IDiag  1:
 RMSU=  3.72D-03    CP:  7.57D-01  3.80D-03  9.02D-01  8.66D-02  4.87D-01
 E= -771.440104389010     Delta-E=       -0.127841386491 Rises=F Damp=F
 DIIS: error= 4.84D-03 at cycle   6 NSaved=   6.
 NSaved= 6 IEnMin= 6 EnMin= -771.440104389010     IErMin= 6 ErrMin= 4.84D-03
 ErrMax= 4.84D-03  0.00D+00 EMaxC= 1.00D-01 BMatC= 4.21D-02 BMatP= 5.71D-01
 IDIUse=3 WtCom= 9.52D-01 WtEn= 4.84D-02
 Coeff-Com: -0.306D-01 0.699D-01 0.252D+00-0.199D-01 0.352D+00 0.376D+00
 Coeff-En:   0.000D+00 0.000D+00 0.000D+00 0.000D+00 0.000D+00 0.100D+01
 Coeff:     -0.291D-01 0.665D-01 0.240D+00-0.190D-01 0.335D+00 0.406D+00
 Gap=     0.098 Goal=   None    Shift=    0.000
 Gap=     0.098 Goal=   None    Shift=    0.000
 RMSDP=1.93D-03 MaxDP=2.38D-01 DE=-1.28D-01 OVMax= 5.56D-02

 Cycle   7  Pass 1  IDiag  1:
 RMSU=  8.42D-04    CP:  7.66D-01  2.79D-03  8.97D-01  8.04D-02  5.62D-01
                    CP:  6.49D-01
 E= -771.449417865458     Delta-E=       -0.009313476448 Rises=F Damp=F
 DIIS: error= 1.14D-03 at cycle   7 NSaved=   7.
 NSaved= 7 IEnMin= 7 EnMin= -771.449417865458     IErMin= 7 ErrMin= 1.14D-03
 ErrMax= 1.14D-03  0.00D+00 EMaxC= 1.00D-01 BMatC= 2.18D-03 BMatP= 4.21D-02
 IDIUse=3 WtCom= 9.89D-01 WtEn= 1.14D-02
 Coeff-Com: -0.694D-02 0.105D-01 0.607D-01-0.823D-02 0.940D-01 0.212D+00
 Coeff-Com:  0.638D+00
 Coeff-En:   0.000D+00 0.000D+00 0.000D+00 0.000D+00 0.000D+00 0.855D-02
 Coeff-En:   0.991D+00
 Coeff:     -0.686D-02 0.103D-01 0.600D-01-0.813D-02 0.929D-01 0.210D+00
 Coeff:      0.642D+00
 Gap=     0.097 Goal=   None    Shift=    0.000
 Gap=     0.097 Goal=   None    Shift=    0.000
 RMSDP=7.04D-04 MaxDP=8.77D-02 DE=-9.31D-03 OVMax= 1.12D-02

 Cycle   8  Pass 1  IDiag  1:
 RMSU=  2.28D-04    CP:  7.54D-01  2.67D-03  8.95D-01  8.06D-02  5.64D-01
                    CP:  7.25D-01  7.88D-01
 E= -771.449870990858     Delta-E=       -0.000453125400 Rises=F Damp=F
 DIIS: error= 2.78D-04 at cycle   8 NSaved=   8.
 NSaved= 8 IEnMin= 8 EnMin= -771.449870990858     IErMin= 8 ErrMin= 2.78D-04
 ErrMax= 2.78D-04  0.00D+00 EMaxC= 1.00D-01 BMatC= 2.70D-04 BMatP= 2.18D-03
 IDIUse=3 WtCom= 9.97D-01 WtEn= 2.78D-03
 Coeff-Com: -0.265D-03-0.108D-02 0.199D-02-0.302D-03-0.274D-02 0.516D-01
 Coeff-Com:  0.343D+00 0.608D+00
 Coeff-En:   0.000D+00 0.000D+00 0.000D+00 0.000D+00 0.000D+00 0.000D+00
 Coeff-En:   0.600D-01 0.940D+00
 Coeff:     -0.264D-03-0.107D-02 0.199D-02-0.301D-03-0.273D-02 0.515D-01
 Coeff:      0.342D+00 0.609D+00
 Gap=     0.097 Goal=   None    Shift=    0.000
 Gap=     0.097 Goal=   None    Shift=    0.000
 RMSDP=2.13D-04 MaxDP=2.43D-02 DE=-4.53D-04 OVMax= 3.04D-03

 Cycle   9  Pass 1  IDiag  1:
 RMSU=  8.74D-05    CP:  7.51D-01  2.56D-03  8.91D-01  7.89D-02  5.58D-01
                    CP:  7.24D-01  8.33D-01  1.01D+00
 E= -771.449936403849     Delta-E=       -0.000065412991 Rises=F Damp=F
 DIIS: error= 9.71D-05 at cycle   9 NSaved=   9.
 NSaved= 9 IEnMin= 9 EnMin= -771.449936403849     IErMin= 9 ErrMin= 9.71D-05
 ErrMax= 9.71D-05  0.00D+00 EMaxC= 1.00D-01 BMatC= 1.47D-05 BMatP= 2.70D-04
 IDIUse=1 WtCom= 1.00D+00 WtEn= 0.00D+00
 Coeff-Com: -0.288D-04-0.390D-03-0.445D-03 0.823D-04-0.390D-02 0.242D-01
 Coeff-Com:  0.164D+00 0.327D+00 0.489D+00
 Coeff:     -0.288D-04-0.390D-03-0.445D-03 0.823D-04-0.390D-02 0.242D-01
 Coeff:      0.164D+00 0.327D+00 0.489D+00
 Gap=     0.097 Goal=   None    Shift=    0.000
 Gap=     0.097 Goal=   None    Shift=    0.000
 RMSDP=2.91D-05 MaxDP=2.78D-03 DE=-6.54D-05 OVMax= 7.09D-04

 Cycle  10  Pass 1  IDiag  1:
 RMSU=  1.57D-05    CP:  7.51D-01  2.56D-03  8.91D-01  7.87D-02  5.57D-01
                    CP:  7.26D-01  8.35D-01  1.01D+00  9.95D-01
 E= -771.449940133128     Delta-E=       -0.000003729279 Rises=F Damp=F
 DIIS: error= 2.25D-05 at cycle  10 NSaved=  10.
 NSaved=10 IEnMin=10 EnMin= -771.449940133128     IErMin=10 ErrMin= 2.25D-05
 ErrMax= 2.25D-05  0.00D+00 EMaxC= 1.00D-01 BMatC= 1.00D-06 BMatP= 1.47D-05
 IDIUse=1 WtCom= 1.00D+00 WtEn= 0.00D+00
 Coeff-Com:  0.215D-04 0.418D-04-0.874D-03 0.335D-04-0.161D-02 0.592D-02
 Coeff-Com:  0.332D-01 0.738D-01 0.217D+00 0.672D+00
 Coeff:      0.215D-04 0.418D-04-0.874D-03 0.335D-04-0.161D-02 0.592D-02
 Coeff:      0.332D-01 0.738D-01 0.217D+00 0.672D+00
 Gap=     0.097 Goal=   None    Shift=    0.000
 Gap=     0.097 Goal=   None    Shift=    0.000
 RMSDP=1.72D-05 MaxDP=1.74D-03 DE=-3.73D-06 OVMax= 1.96D-04

 Cycle  11  Pass 1  IDiag  1:
 RMSU=  8.17D-06    CP:  7.51D-01  2.55D-03  8.91D-01  7.86D-02  5.56D-01
                    CP:  7.27D-01  8.32D-01  1.03D+00  1.06D+00  1.19D+00
 E= -771.449940361961     Delta-E=       -0.000000228833 Rises=F Damp=F
 DIIS: error= 7.71D-06 at cycle  11 NSaved=  11.
 NSaved=11 IEnMin=11 EnMin= -771.449940361961     IErMin=11 ErrMin= 7.71D-06
 ErrMax= 7.71D-06  0.00D+00 EMaxC= 1.00D-01 BMatC= 1.42D-07 BMatP= 1.00D-06
 IDIUse=1 WtCom= 1.00D+00 WtEn= 0.00D+00
 Coeff-Com:  0.656D-04-0.895D-04-0.477D-03 0.121D-04-0.539D-03 0.201D-02
 Coeff-Com:  0.878D-02 0.211D-01 0.853D-01 0.360D+00 0.524D+00
 Coeff:      0.656D-04-0.895D-04-0.477D-03 0.121D-04-0.539D-03 0.201D-02
 Coeff:      0.878D-02 0.211D-01 0.853D-01 0.360D+00 0.524D+00
 Gap=     0.097 Goal=   None    Shift=    0.000
 Gap=     0.097 Goal=   None    Shift=    0.000
 RMSDP=7.27D-06 MaxDP=9.41D-04 DE=-2.29D-07 OVMax= 6.86D-05

 Cycle  12  Pass 1  IDiag  1:
 RMSU=  2.50D-06    CP:  7.51D-01  2.54D-03  8.91D-01  7.86D-02  5.56D-01
                    CP:  7.28D-01  8.31D-01  1.04D+00  1.07D+00  1.23D+00
                    CP:  9.40D-01
 E= -771.449940396122     Delta-E=       -0.000000034161 Rises=F Damp=F
 DIIS: error= 2.37D-06 at cycle  12 NSaved=  12.
 NSaved=12 IEnMin=12 EnMin= -771.449940396122     IErMin=12 ErrMin= 2.37D-06
 ErrMax= 2.37D-06  0.00D+00 EMaxC= 1.00D-01 BMatC= 1.64D-08 BMatP= 1.42D-07
 IDIUse=1 WtCom= 1.00D+00 WtEn= 0.00D+00
 Coeff-Com:  0.128D-04-0.188D-04-0.134D-03 0.284D-05-0.467D-04 0.979D-04
 Coeff-Com: -0.668D-03-0.872D-03 0.110D-01 0.852D-01 0.282D+00 0.624D+00
 Coeff:      0.128D-04-0.188D-04-0.134D-03 0.284D-05-0.467D-04 0.979D-04
 Coeff:     -0.668D-03-0.872D-03 0.110D-01 0.852D-01 0.282D+00 0.624D+00
 Gap=     0.097 Goal=   None    Shift=    0.000
 Gap=     0.097 Goal=   None    Shift=    0.000
 RMSDP=2.82D-06 MaxDP=2.65D-04 DE=-3.42D-08 OVMax= 4.25D-05

 Cycle  13  Pass 1  IDiag  1:
 RMSU=  9.22D-07    CP:  7.51D-01  2.54D-03  8.91D-01  7.86D-02  5.56D-01
                    CP:  7.28D-01  8.31D-01  1.04D+00  1.08D+00  1.29D+00
                    CP:  9.57D-01  1.11D+00
 E= -771.449940399980     Delta-E=       -0.000000003858 Rises=F Damp=F
 DIIS: error= 8.95D-07 at cycle  13 NSaved=  13.
 NSaved=13 IEnMin=13 EnMin= -771.449940399980     IErMin=13 ErrMin= 8.95D-07
 ErrMax= 8.95D-07  0.00D+00 EMaxC= 1.00D-01 BMatC= 1.90D-09 BMatP= 1.64D-08
 IDIUse=1 WtCom= 1.00D+00 WtEn= 0.00D+00
 Coeff-Com: -0.170D-05 0.885D-06-0.342D-04-0.598D-06 0.231D-04-0.146D-03
 Coeff-Com: -0.113D-02-0.240D-02-0.129D-02 0.149D-01 0.104D+00 0.335D+00
 Coeff-Com:  0.551D+00
 Coeff:     -0.170D-05 0.885D-06-0.342D-04-0.598D-06 0.231D-04-0.146D-03
 Coeff:     -0.113D-02-0.240D-02-0.129D-02 0.149D-01 0.104D+00 0.335D+00
 Coeff:      0.551D+00
 Gap=     0.097 Goal=   None    Shift=    0.000
 Gap=     0.097 Goal=   None    Shift=    0.000
 RMSDP=8.79D-07 MaxDP=8.19D-05 DE=-3.86D-09 OVMax= 1.24D-05

 Cycle  14  Pass 1  IDiag  1:
 RMSU=  3.17D-07    CP:  7.51D-01  2.54D-03  8.91D-01  7.86D-02  5.56D-01
                    CP:  7.28D-01  8.31D-01  1.04D+00  1.09D+00  1.30D+00
                    CP:  9.82D-01  1.14D+00  9.77D-01
 E= -771.449940400400     Delta-E=       -0.000000000420 Rises=F Damp=F
 DIIS: error= 4.94D-07 at cycle  14 NSaved=  14.
 NSaved=14 IEnMin=14 EnMin= -771.449940400400     IErMin=14 ErrMin= 4.94D-07
 ErrMax= 4.94D-07  0.00D+00 EMaxC= 1.00D-01 BMatC= 3.50D-10 BMatP= 1.90D-09
 IDIUse=1 WtCom= 1.00D+00 WtEn= 0.00D+00
 Coeff-Com: -0.461D-05 0.560D-05-0.329D-05-0.351D-06 0.848D-05-0.101D-03
 Coeff-Com: -0.391D-03-0.887D-03-0.165D-02-0.395D-02 0.120D-01 0.953D-01
 Coeff-Com:  0.324D+00 0.575D+00
 Coeff:     -0.461D-05 0.560D-05-0.329D-05-0.351D-06 0.848D-05-0.101D-03
 Coeff:     -0.391D-03-0.887D-03-0.165D-02-0.395D-02 0.120D-01 0.953D-01
 Coeff:      0.324D+00 0.575D+00
 Gap=     0.097 Goal=   None    Shift=    0.000
 Gap=     0.097 Goal=   None    Shift=    0.000
 RMSDP=4.45D-07 MaxDP=4.47D-05 DE=-4.20D-10 OVMax= 8.17D-06

 Cycle  15  Pass 1  IDiag  1:
 RMSU=  1.42D-07    CP:  7.51D-01  2.54D-03  8.91D-01  7.86D-02  5.56D-01
                    CP:  7.28D-01  8.31D-01  1.04D+00  1.09D+00  1.30D+00
                    CP:  9.92D-01  1.17D+00  1.00D+00  7.89D-01
 E= -771.449940400456     Delta-E=       -0.000000000056 Rises=F Damp=F
 DIIS: error= 1.66D-07 at cycle  15 NSaved=  15.
 NSaved=15 IEnMin=15 EnMin= -771.449940400456     IErMin=15 ErrMin= 1.66D-07
 ErrMax= 1.66D-07  0.00D+00 EMaxC= 1.00D-01 BMatC= 6.09D-11 BMatP= 3.50D-10
 IDIUse=1 WtCom= 1.00D+00 WtEn= 0.00D+00
 Coeff-Com: -0.345D-05 0.446D-05 0.180D-05-0.380D-06 0.597D-05-0.489D-04
 Coeff-Com: -0.163D-03-0.384D-03-0.920D-03-0.368D-02-0.285D-02 0.311D-01
 Coeff-Com:  0.141D+00 0.365D+00 0.471D+00
 Coeff:     -0.345D-05 0.446D-05 0.180D-05-0.380D-06 0.597D-05-0.489D-04
 Coeff:     -0.163D-03-0.384D-03-0.920D-03-0.368D-02-0.285D-02 0.311D-01
 Coeff:      0.141D+00 0.365D+00 0.471D+00
 Gap=     0.097 Goal=   None    Shift=    0.000
 Gap=     0.097 Goal=   None    Shift=    0.000
 RMSDP=1.31D-07 MaxDP=1.21D-05 DE=-5.64D-11 OVMax= 1.17D-06

 Cycle  16  Pass 1  IDiag  1:
 RMSU=  4.19D-08    CP:  7.51D-01  2.54D-03  8.91D-01  7.86D-02  5.56D-01
                    CP:  7.28D-01  8.31D-01  1.04D+00  1.09D+00  1.30D+00
                    CP:  9.95D-01  1.17D+00  1.00D+00  9.73D-01  9.59D-01
 E= -771.449940400479     Delta-E=       -0.000000000023 Rises=F Damp=F
 DIIS: error= 3.75D-08 at cycle  16 NSaved=  16.
 NSaved=16 IEnMin=16 EnMin= -771.449940400479     IErMin=16 ErrMin= 3.75D-08
 ErrMax= 3.75D-08  0.00D+00 EMaxC= 1.00D-01 BMatC= 4.25D-12 BMatP= 6.09D-11
 IDIUse=1 WtCom= 1.00D+00 WtEn= 0.00D+00
 Coeff-Com: -0.879D-06 0.120D-05 0.102D-05-0.326D-07 0.780D-06-0.392D-05
 Coeff-Com: -0.101D-04-0.112D-04-0.664D-04-0.830D-03-0.471D-02-0.230D-02
 Coeff-Com: -0.915D-02 0.613D-01 0.183D+00 0.773D+00
 Coeff:     -0.879D-06 0.120D-05 0.102D-05-0.326D-07 0.780D-06-0.392D-05
 Coeff:     -0.101D-04-0.112D-04-0.664D-04-0.830D-03-0.471D-02-0.230D-02
 Coeff:     -0.915D-02 0.613D-01 0.183D+00 0.773D+00
 Gap=     0.097 Goal=   None    Shift=    0.000
 Gap=     0.097 Goal=   None    Shift=    0.000
 RMSDP=5.69D-08 MaxDP=5.63D-06 DE=-2.25D-11 OVMax= 1.06D-06

 Cycle  17  Pass 1  IDiag  1:
 RMSU=  1.70D-08    CP:  7.51D-01  2.54D-03  8.91D-01  7.86D-02  5.56D-01
                    CP:  7.28D-01  8.31D-01  1.04D+00  1.09D+00  1.30D+00
                    CP:  9.95D-01  1.18D+00  1.01D+00  1.04D+00  1.01D+00
                    CP:  1.10D+00
 E= -771.449940400480     Delta-E=       -0.000000000001 Rises=F Damp=F
 DIIS: error= 1.31D-08 at cycle  17 NSaved=  17.
 NSaved=17 IEnMin=17 EnMin= -771.449940400480     IErMin=17 ErrMin= 1.31D-08
 ErrMax= 1.31D-08  0.00D+00 EMaxC= 1.00D-01 BMatC= 5.69D-13 BMatP= 4.25D-12
 IDIUse=1 WtCom= 1.00D+00 WtEn= 0.00D+00
 Coeff-Com: -0.172D-06 0.281D-06 0.458D-06 0.104D-07 0.160D-07 0.218D-05
 Coeff-Com:  0.699D-05 0.241D-04 0.425D-04-0.147D-03-0.251D-02-0.342D-02
 Coeff-Com: -0.188D-01 0.241D-02 0.498D-01 0.386D+00 0.587D+00
 Coeff:     -0.172D-06 0.281D-06 0.458D-06 0.104D-07 0.160D-07 0.218D-05
 Coeff:      0.699D-05 0.241D-04 0.425D-04-0.147D-03-0.251D-02-0.342D-02
 Coeff:     -0.188D-01 0.241D-02 0.498D-01 0.386D+00 0.587D+00
 Gap=     0.097 Goal=   None    Shift=    0.000
 Gap=     0.097 Goal=   None    Shift=    0.000
 RMSDP=1.34D-08 MaxDP=9.29D-07 DE=-1.36D-12 OVMax= 2.38D-07

 Cycle  18  Pass 1  IDiag  1:
 RMSU=  4.21D-09    CP:  7.51D-01  2.54D-03  8.91D-01  7.86D-02  5.56D-01
                    CP:  7.28D-01  8.31D-01  1.04D+00  1.09D+00  1.30D+00
                    CP:  9.95D-01  1.18D+00  1.01D+00  1.06D+00  1.03D+00
                    CP:  1.22D+00  1.12D+00
 E= -771.449940400492     Delta-E=       -0.000000000012 Rises=F Damp=F
 DIIS: error= 5.93D-09 at cycle  18 NSaved=  18.
 NSaved=18 IEnMin=18 EnMin= -771.449940400492     IErMin=18 ErrMin= 5.93D-09
 ErrMax= 5.93D-09  0.00D+00 EMaxC= 1.00D-01 BMatC= 8.18D-14 BMatP= 5.69D-13
 IDIUse=1 WtCom= 1.00D+00 WtEn= 0.00D+00
 Coeff-Com:  0.107D-06-0.124D-06 0.431D-07 0.861D-08-0.673D-07 0.141D-05
 Coeff-Com:  0.334D-05 0.934D-05 0.298D-04 0.830D-04-0.300D-03-0.293D-03
 Coeff-Com: -0.625D-02-0.601D-02-0.994D-02 0.273D-01 0.278D+00 0.718D+00
 Coeff:      0.107D-06-0.124D-06 0.431D-07 0.861D-08-0.673D-07 0.141D-05
 Coeff:      0.334D-05 0.934D-05 0.298D-04 0.830D-04-0.300D-03-0.293D-03
 Coeff:     -0.625D-02-0.601D-02-0.994D-02 0.273D-01 0.278D+00 0.718D+00
 Gap=     0.097 Goal=   None    Shift=    0.000
 Gap=     0.097 Goal=   None    Shift=    0.000
 RMSDP=7.55D-09 MaxDP=8.00D-07 DE=-1.21D-11 OVMax= 1.48D-07

 Error on total polarization charges =  0.03125
 SCF Done:  E(UB3LYP) =  -771.449940400     A.U. after   18 cycles
            NFock= 18  Conv=0.76D-08     -V/T= 2.0045
 <Sx>= 0.0000 <Sy>= 0.0000 <Sz>= 0.0000 <S**2>=-0.0000 S=-0.0000
 <L.S>=  0.00000000000    
 KE= 7.679591066197D+02 PE=-4.302566471104D+03 EE= 1.528439940297D+03
 Annihilation of the first spin contaminant:
 S**2 before annihilation    -0.0000,   after     0.0000
 Leave Link  502 at Sun Feb 11 02:02:45 2024, MaxMem=  4026531840 cpu:            3454.3 elap:             446.4
 (Enter /sysapps/ubuntu-applications/gaussian/Gaussian/AVX2/g16/l601.exe)
 Copying SCF densities to generalized density rwf, IOpCl= 1 IROHF=0.

 **********************************************************************

            Population analysis using the SCF density.

 **********************************************************************

 Alpha  occ. eigenvalues --  -19.00659 -19.00650 -10.15793 -10.15749 -10.15642
 Alpha  occ. eigenvalues --  -10.15203 -10.15039 -10.14404 -10.14358 -10.14331
 Alpha  occ. eigenvalues --  -10.13988 -10.13975 -10.13374 -10.12997 -10.12702
 Alpha  occ. eigenvalues --  -10.12657 -10.11827 -10.11505  -0.92805  -0.92462
 Alpha  occ. eigenvalues --   -0.81866  -0.79165  -0.76981  -0.73463  -0.71570
 Alpha  occ. eigenvalues --   -0.71374  -0.67901  -0.64257  -0.61528  -0.59349
 Alpha  occ. eigenvalues --   -0.56632  -0.55958  -0.54367  -0.51161  -0.47679
 Alpha  occ. eigenvalues --   -0.45996  -0.45402  -0.42596  -0.42381  -0.41710
 Alpha  occ. eigenvalues --   -0.40294  -0.39899  -0.39433  -0.38374  -0.37485
 Alpha  occ. eigenvalues --   -0.36545  -0.35981  -0.35795  -0.35301  -0.34384
 Alpha  occ. eigenvalues --   -0.34190  -0.33167  -0.32417  -0.31731  -0.31532
 Alpha  occ. eigenvalues --   -0.30836  -0.30550  -0.30050  -0.29225  -0.28811
 Alpha  occ. eigenvalues --   -0.22351  -0.21573  -0.19580  -0.19103  -0.18148
 Alpha  occ. eigenvalues --   -0.09898
 Alpha virt. eigenvalues --   -0.00161  -0.00001   0.00422   0.01015   0.01581
 Alpha virt. eigenvalues --    0.01649   0.01873   0.02333   0.03168   0.03689
 Alpha virt. eigenvalues --    0.03713   0.04585   0.04821   0.05354   0.05614
 Alpha virt. eigenvalues --    0.06062   0.06609   0.06960   0.07001   0.07206
 Alpha virt. eigenvalues --    0.08164   0.08481   0.08762   0.09165   0.09881
 Alpha virt. eigenvalues --    0.10208   0.10414   0.10546   0.11313   0.11560
 Alpha virt. eigenvalues --    0.11940   0.12166   0.12331   0.12604   0.12971
 Alpha virt. eigenvalues --    0.13043   0.13338   0.13561   0.13887   0.14016
 Alpha virt. eigenvalues --    0.14631   0.14651   0.15049   0.15129   0.15338
 Alpha virt. eigenvalues --    0.15576   0.15928   0.16311   0.16560   0.16704
 Alpha virt. eigenvalues --    0.17038   0.17249   0.17621   0.17890   0.18029
 Alpha virt. eigenvalues --    0.18547   0.18913   0.19092   0.19174   0.19563
 Alpha virt. eigenvalues --    0.20120   0.20273   0.20541   0.20784   0.21183
 Alpha virt. eigenvalues --    0.21531   0.21782   0.22342   0.22743   0.23439
 Alpha virt. eigenvalues --    0.23875   0.24010   0.24274   0.24626   0.25047
 Alpha virt. eigenvalues --    0.25352   0.25962   0.26067   0.26377   0.26909
 Alpha virt. eigenvalues --    0.27114   0.27432   0.27962   0.28020   0.28489
 Alpha virt. eigenvalues --    0.29373   0.29679   0.29971   0.30035   0.30168
 Alpha virt. eigenvalues --    0.31262   0.31695   0.31969   0.32301   0.32441
 Alpha virt. eigenvalues --    0.32751   0.33217   0.33326   0.33642   0.34230
 Alpha virt. eigenvalues --    0.34669   0.35070   0.35697   0.36030   0.36324
 Alpha virt. eigenvalues --    0.36690   0.37077   0.37332   0.37672   0.38237
 Alpha virt. eigenvalues --    0.38846   0.39365   0.39394   0.40463   0.42154
 Alpha virt. eigenvalues --    0.43169   0.44092   0.44580   0.45570   0.45873
 Alpha virt. eigenvalues --    0.46660   0.47169   0.47362   0.47825   0.49029
 Alpha virt. eigenvalues --    0.50934   0.52299   0.53476   0.54002   0.54303
 Alpha virt. eigenvalues --    0.55300   0.56429   0.56829   0.57104   0.57515
 Alpha virt. eigenvalues --    0.57781   0.58698   0.60563   0.61798   0.61996
 Alpha virt. eigenvalues --    0.62465   0.63232   0.63580   0.64398   0.64693
 Alpha virt. eigenvalues --    0.65114   0.65591   0.66721   0.67405   0.67917
 Alpha virt. eigenvalues --    0.68444   0.68869   0.69571   0.69778   0.70241
 Alpha virt. eigenvalues --    0.70356   0.70646   0.71188   0.71739   0.71854
 Alpha virt. eigenvalues --    0.72995   0.73551   0.74477   0.75118   0.75406
 Alpha virt. eigenvalues --    0.75675   0.76093   0.76890   0.77098   0.78083
 Alpha virt. eigenvalues --    0.78549   0.79008   0.79624   0.80349   0.80704
 Alpha virt. eigenvalues --    0.81122   0.81894   0.82939   0.83493   0.84967
 Alpha virt. eigenvalues --    0.85448   0.86158   0.86526   0.88053   0.89082
 Alpha virt. eigenvalues --    0.89788   0.92619   0.94351   0.94860   0.95986
 Alpha virt. eigenvalues --    0.96965   0.97446   0.98555   0.99707   1.00328
 Alpha virt. eigenvalues --    1.01347   1.02365   1.02912   1.03870   1.04500
 Alpha virt. eigenvalues --    1.05573   1.07326   1.08457   1.08763   1.09727
 Alpha virt. eigenvalues --    1.10120   1.10954   1.12044   1.12855   1.14141
 Alpha virt. eigenvalues --    1.15078   1.16795   1.17813   1.19269   1.21091
 Alpha virt. eigenvalues --    1.22306   1.25006   1.26948   1.27179   1.27821
 Alpha virt. eigenvalues --    1.28902   1.30033   1.30683   1.31877   1.32655
 Alpha virt. eigenvalues --    1.33177   1.34231   1.36476   1.40566   1.41452
 Alpha virt. eigenvalues --    1.41836   1.43245   1.46457   1.47163   1.49071
 Alpha virt. eigenvalues --    1.50479   1.50930   1.52229   1.54256   1.54568
 Alpha virt. eigenvalues --    1.54966   1.55902   1.56323   1.57266   1.58010
 Alpha virt. eigenvalues --    1.58294   1.59202   1.59930   1.60628   1.61464
 Alpha virt. eigenvalues --    1.62155   1.62619   1.63849   1.64360   1.65002
 Alpha virt. eigenvalues --    1.65593   1.66400   1.67668   1.68977   1.69523
 Alpha virt. eigenvalues --    1.70681   1.71339   1.72476   1.73020   1.74041
 Alpha virt. eigenvalues --    1.74514   1.75466   1.75755   1.76445   1.77353
 Alpha virt. eigenvalues --    1.78019   1.78589   1.80307   1.82909   1.83931
 Alpha virt. eigenvalues --    1.84769   1.85395   1.86265   1.87086   1.88377
 Alpha virt. eigenvalues --    1.88644   1.90435   1.91599   1.92774   1.94624
 Alpha virt. eigenvalues --    1.95114   1.96178   1.97191   1.98317   1.99129
 Alpha virt. eigenvalues --    1.99912   2.00640   2.01506   2.02619   2.03814
 Alpha virt. eigenvalues --    2.05882   2.06739   2.06999   2.08677   2.10854
 Alpha virt. eigenvalues --    2.11875   2.13551   2.15650   2.16813   2.17758
 Alpha virt. eigenvalues --    2.19438   2.20833   2.22208   2.23018   2.25333
 Alpha virt. eigenvalues --    2.27264   2.27729   2.30074   2.30848   2.32781
 Alpha virt. eigenvalues --    2.33372   2.33879   2.35929   2.37115   2.39865
 Alpha virt. eigenvalues --    2.41110   2.42027   2.43453   2.45637   2.46887
 Alpha virt. eigenvalues --    2.47253   2.49293   2.50420   2.50764   2.52856
 Alpha virt. eigenvalues --    2.53979   2.54331   2.55790   2.56356   2.58870
 Alpha virt. eigenvalues --    2.59062   2.60668   2.62471   2.63478   2.64378
 Alpha virt. eigenvalues --    2.66299   2.67061   2.67496   2.68099   2.69521
 Alpha virt. eigenvalues --    2.70904   2.73051   2.73413   2.74691   2.75457
 Alpha virt. eigenvalues --    2.76356   2.76743   2.78145   2.78747   2.79471
 Alpha virt. eigenvalues --    2.80532   2.80779   2.81532   2.82689   2.83466
 Alpha virt. eigenvalues --    2.86537   2.87786   2.88057   2.90079   2.90649
 Alpha virt. eigenvalues --    2.92068   2.93081   2.93623   2.95162   2.95596
 Alpha virt. eigenvalues --    2.96228   2.97058   2.97801   2.98920   3.00922
 Alpha virt. eigenvalues --    3.03036   3.03997   3.05210   3.07111   3.09598
 Alpha virt. eigenvalues --    3.12454   3.16459   3.17683   3.20630   3.22017
 Alpha virt. eigenvalues --    3.24535   3.25591   3.31471   3.33221   3.34346
 Alpha virt. eigenvalues --    3.37314   3.37446   3.38637   3.39858   3.46523
 Alpha virt. eigenvalues --    3.49100   3.53455   3.53848   3.55631   3.59421
 Alpha virt. eigenvalues --    3.60582   3.62419   3.66970   3.78820   3.80410
 Alpha virt. eigenvalues --    3.80622   3.80960   3.83056   3.85456   3.87106
 Alpha virt. eigenvalues --    3.90087   3.91303   3.94290   3.99311   4.07032
 Alpha virt. eigenvalues --    4.07933   4.11216   4.15408   4.23264   4.26272
 Alpha virt. eigenvalues --    4.32175   4.36337   4.38372   4.43069   4.48125
 Alpha virt. eigenvalues --    4.87148   4.89452   5.15882   5.18614   5.34030
 Alpha virt. eigenvalues --    5.37155   5.80876   5.88570  23.59842  23.83868
 Alpha virt. eigenvalues --   23.88267  23.91311  23.93212  23.96690  23.97421
 Alpha virt. eigenvalues --   23.98514  23.98762  24.00286  24.01382  24.03990
 Alpha virt. eigenvalues --   24.06127  24.13616  24.14374  24.21186  50.11358
 Alpha virt. eigenvalues --   50.16777
  Beta  occ. eigenvalues --  -19.00659 -19.00650 -10.15793 -10.15749 -10.15642
  Beta  occ. eigenvalues --  -10.15203 -10.15039 -10.14404 -10.14358 -10.14331
  Beta  occ. eigenvalues --  -10.13988 -10.13975 -10.13374 -10.12997 -10.12702
  Beta  occ. eigenvalues --  -10.12657 -10.11827 -10.11505  -0.92805  -0.92462
  Beta  occ. eigenvalues --   -0.81866  -0.79165  -0.76981  -0.73463  -0.71570
  Beta  occ. eigenvalues --   -0.71374  -0.67901  -0.64257  -0.61528  -0.59349
  Beta  occ. eigenvalues --   -0.56632  -0.55958  -0.54367  -0.51161  -0.47679
  Beta  occ. eigenvalues --   -0.45996  -0.45402  -0.42596  -0.42381  -0.41710
  Beta  occ. eigenvalues --   -0.40294  -0.39899  -0.39433  -0.38374  -0.37485
  Beta  occ. eigenvalues --   -0.36545  -0.35981  -0.35795  -0.35301  -0.34384
  Beta  occ. eigenvalues --   -0.34190  -0.33167  -0.32417  -0.31731  -0.31532
  Beta  occ. eigenvalues --   -0.30836  -0.30550  -0.30050  -0.29225  -0.28811
  Beta  occ. eigenvalues --   -0.22351  -0.21573  -0.19580  -0.19103  -0.18148
  Beta  occ. eigenvalues --   -0.09898
  Beta virt. eigenvalues --   -0.00161  -0.00001   0.00422   0.01015   0.01581
  Beta virt. eigenvalues --    0.01649   0.01873   0.02333   0.03168   0.03689
  Beta virt. eigenvalues --    0.03713   0.04585   0.04821   0.05354   0.05614
  Beta virt. eigenvalues --    0.06062   0.06609   0.06960   0.07001   0.07206
  Beta virt. eigenvalues --    0.08164   0.08481   0.08762   0.09165   0.09881
  Beta virt. eigenvalues --    0.10208   0.10414   0.10546   0.11313   0.11560
  Beta virt. eigenvalues --    0.11940   0.12166   0.12331   0.12604   0.12971
  Beta virt. eigenvalues --    0.13043   0.13338   0.13561   0.13887   0.14016
  Beta virt. eigenvalues --    0.14631   0.14651   0.15049   0.15129   0.15338
  Beta virt. eigenvalues --    0.15576   0.15928   0.16311   0.16560   0.16704
  Beta virt. eigenvalues --    0.17038   0.17249   0.17621   0.17890   0.18029
  Beta virt. eigenvalues --    0.18547   0.18913   0.19092   0.19174   0.19563
  Beta virt. eigenvalues --    0.20120   0.20273   0.20541   0.20784   0.21183
  Beta virt. eigenvalues --    0.21531   0.21782   0.22342   0.22743   0.23439
  Beta virt. eigenvalues --    0.23875   0.24010   0.24274   0.24626   0.25047
  Beta virt. eigenvalues --    0.25352   0.25962   0.26067   0.26377   0.26909
  Beta virt. eigenvalues --    0.27114   0.27432   0.27962   0.28020   0.28489
  Beta virt. eigenvalues --    0.29373   0.29679   0.29971   0.30035   0.30168
  Beta virt. eigenvalues --    0.31262   0.31695   0.31969   0.32301   0.32441
  Beta virt. eigenvalues --    0.32751   0.33217   0.33326   0.33642   0.34230
  Beta virt. eigenvalues --    0.34669   0.35070   0.35697   0.36030   0.36324
  Beta virt. eigenvalues --    0.36690   0.37077   0.37332   0.37672   0.38237
  Beta virt. eigenvalues --    0.38846   0.39365   0.39394   0.40463   0.42154
  Beta virt. eigenvalues --    0.43169   0.44092   0.44580   0.45570   0.45873
  Beta virt. eigenvalues --    0.46660   0.47169   0.47362   0.47825   0.49029
  Beta virt. eigenvalues --    0.50934   0.52299   0.53476   0.54002   0.54303
  Beta virt. eigenvalues --    0.55300   0.56429   0.56829   0.57104   0.57515
  Beta virt. eigenvalues --    0.57781   0.58698   0.60563   0.61798   0.61996
  Beta virt. eigenvalues --    0.62465   0.63232   0.63580   0.64398   0.64693
  Beta virt. eigenvalues --    0.65114   0.65591   0.66721   0.67405   0.67917
  Beta virt. eigenvalues --    0.68444   0.68869   0.69571   0.69778   0.70241
  Beta virt. eigenvalues --    0.70356   0.70646   0.71188   0.71739   0.71854
  Beta virt. eigenvalues --    0.72995   0.73551   0.74477   0.75118   0.75406
  Beta virt. eigenvalues --    0.75675   0.76093   0.76890   0.77098   0.78083
  Beta virt. eigenvalues --    0.78549   0.79008   0.79624   0.80349   0.80704
  Beta virt. eigenvalues --    0.81122   0.81894   0.82939   0.83493   0.84967
  Beta virt. eigenvalues --    0.85448   0.86158   0.86526   0.88053   0.89082
  Beta virt. eigenvalues --    0.89788   0.92619   0.94351   0.94860   0.95986
  Beta virt. eigenvalues --    0.96965   0.97446   0.98555   0.99707   1.00328
  Beta virt. eigenvalues --    1.01347   1.02365   1.02912   1.03870   1.04500
  Beta virt. eigenvalues --    1.05573   1.07326   1.08457   1.08763   1.09727
  Beta virt. eigenvalues --    1.10120   1.10954   1.12044   1.12855   1.14141
  Beta virt. eigenvalues --    1.15078   1.16795   1.17813   1.19269   1.21091
  Beta virt. eigenvalues --    1.22306   1.25006   1.26948   1.27179   1.27821
  Beta virt. eigenvalues --    1.28902   1.30033   1.30683   1.31877   1.32655
  Beta virt. eigenvalues --    1.33177   1.34231   1.36476   1.40566   1.41452
  Beta virt. eigenvalues --    1.41836   1.43245   1.46457   1.47163   1.49071
  Beta virt. eigenvalues --    1.50479   1.50930   1.52229   1.54256   1.54568
  Beta virt. eigenvalues --    1.54966   1.55902   1.56323   1.57266   1.58010
  Beta virt. eigenvalues --    1.58294   1.59202   1.59930   1.60628   1.61464
  Beta virt. eigenvalues --    1.62155   1.62619   1.63849   1.64360   1.65002
  Beta virt. eigenvalues --    1.65593   1.66400   1.67668   1.68977   1.69523
  Beta virt. eigenvalues --    1.70681   1.71339   1.72476   1.73020   1.74041
  Beta virt. eigenvalues --    1.74514   1.75466   1.75755   1.76445   1.77353
  Beta virt. eigenvalues --    1.78019   1.78589   1.80307   1.82909   1.83931
  Beta virt. eigenvalues --    1.84769   1.85395   1.86265   1.87086   1.88377
  Beta virt. eigenvalues --    1.88644   1.90435   1.91599   1.92774   1.94624
  Beta virt. eigenvalues --    1.95114   1.96178   1.97191   1.98317   1.99129
  Beta virt. eigenvalues --    1.99912   2.00640   2.01506   2.02619   2.03814
  Beta virt. eigenvalues --    2.05882   2.06739   2.06999   2.08677   2.10854
  Beta virt. eigenvalues --    2.11875   2.13551   2.15650   2.16813   2.17758
  Beta virt. eigenvalues --    2.19438   2.20833   2.22208   2.23018   2.25333
  Beta virt. eigenvalues --    2.27264   2.27729   2.30074   2.30848   2.32781
  Beta virt. eigenvalues --    2.33372   2.33879   2.35929   2.37115   2.39865
  Beta virt. eigenvalues --    2.41110   2.42027   2.43453   2.45637   2.46887
  Beta virt. eigenvalues --    2.47253   2.49293   2.50420   2.50764   2.52856
  Beta virt. eigenvalues --    2.53979   2.54331   2.55790   2.56356   2.58870
  Beta virt. eigenvalues --    2.59062   2.60668   2.62471   2.63478   2.64378
  Beta virt. eigenvalues --    2.66299   2.67061   2.67496   2.68099   2.69521
  Beta virt. eigenvalues --    2.70904   2.73051   2.73413   2.74691   2.75457
  Beta virt. eigenvalues --    2.76356   2.76743   2.78145   2.78747   2.79471
  Beta virt. eigenvalues --    2.80532   2.80779   2.81532   2.82689   2.83466
  Beta virt. eigenvalues --    2.86537   2.87786   2.88057   2.90079   2.90649
  Beta virt. eigenvalues --    2.92068   2.93081   2.93623   2.95162   2.95596
  Beta virt. eigenvalues --    2.96228   2.97058   2.97801   2.98920   3.00922
  Beta virt. eigenvalues --    3.03036   3.03997   3.05210   3.07111   3.09598
  Beta virt. eigenvalues --    3.12454   3.16459   3.17683   3.20630   3.22017
  Beta virt. eigenvalues --    3.24535   3.25591   3.31471   3.33221   3.34346
[...]
 475,0.00000144,-0.00000381,0.00000113,-0.00000033,0.00001995,-0.000020
 73,0.00000339,0.00066581,0.00019678,0.00036627,0.00001227,0.00000050,0
 .00000839,0.00003103,-0.00000575,-0.00003355,0.00001631,0.00000825,0.0
 0001421,0.00005388,-0.00039095,0.00089064,0.00088023,-0.00165224,0.001
 11580,-0.00123821,-0.00304343,-0.01732107,0.02224515,0.06117331,0.3019
 5180,0.00000043,-0.00000063,0.00000002,-0.00000294,0.00000314,-0.00000
 080,0.00000169,-0.00000029,0.00000393,0.00000213,0.00000827,-0.0000093
 0,-0.00000131,-0.00001173,0.00000217,-0.00000300,0.00000263,-0.0000009
 1,-0.00000039,-0.00000191,0.00000310,-0.00000965,0.00001614,0.00003690
 ,-0.00000760,0.00006412,-0.00008133,0.00000227,-0.00000264,-0.00001011
 ,-0.00000885,0.00001449,-0.00001177,-0.00001227,0.00000826,0.00002001,
 -0.00000069,0.00000053,0.00000018,-0.00010943,0.00004634,-0.00014365,-
 0.00000080,-0.00000006,0.00000072,-0.00001066,0.00000336,-0.00000003,0
 .00169906,-0.00134366,0.00045372,-0.01036125,-0.02611323,0.01756159,-0
 .05941404,-0.04734400,0.03047769,0.00378897,0.01950100,-0.01219374,-0.
 00000078,0.00000057,-0.00000042,0.00000064,-0.00000045,-0.00000018,0.0
 0011526,0.00022945,-0.00008703,-0.00000716,-0.00001374,-0.00000027,0.0
 0000073,0.00000190,-0.00000103,0.00000295,0.00000028,-0.00000291,0.000
 00287,0.00000043,0.00000125,-0.00009549,0.00075354,-0.00028657,-0.0000
 6506,0.00009025,0.00002970,-0.00591303,-0.00162301,-0.00138233,0.00147
 702,0.00056320,-0.00028163,0.06960179,0.00000387,-0.00000520,-0.000002
 37,-0.00000620,0.00000895,0.00000150,-0.00000005,-0.00000486,0.0000053
 1,-0.00000915,0.00001708,-0.00001861,0.00002071,-0.00001916,0.00001040
 ,-0.00000343,0.00000791,0.00000302,0.00000554,-0.00000392,0.00001925,-
 0.00001481,-0.00000640,0.00003164,-0.00004576,-0.00004810,-0.00005559,
 -0.00003067,0.00002942,-0.00001523,-0.00000943,0.00002222,-0.00001784,
 -0.00001454,-0.00001036,0.00002856,-0.00000135,0.00000104,0.00000044,-
 0.00004328,0.00040148,-0.00019063,-0.00000111,0.00000032,0.00000168,-0
 .00000748,0.00000310,-0.00000463,0.00083435,0.00041009,-0.00029056,-0.
 00324958,-0.00825438,0.00493037,-0.04707245,-0.20994414,0.10583369,-0.
 00418833,-0.02092319,0.01276092,-0.00000120,0.00000143,-0.00000059,0.0
 0000053,-0.00000125,-0.00000038,0.00020148,-0.00001775,0.00002426,-0.0
 0001472,-0.00002804,-0.00000701,-0.00000290,0.00000324,-0.00000287,0.0
 0000413,-0.00000479,0.00000744,0.00000177,-0.00000025,0.00000053,-0.00
 030639,0.00063184,0.00004757,-0.00001679,0.00004427,-0.00001690,-0.001
 78323,0.00017617,-0.00071787,0.00021685,0.00017643,-0.00035066,0.05060
 635,0.23190849,-0.00000337,0.00000101,0.00000028,0.00000360,-0.0000048
 4,-0.00000051,-0.00000055,0.00000251,-0.00000333,0.00000486,-0.0000085
 1,0.00001146,-0.00001107,0.00000840,-0.00000727,0.00000384,-0.00000304
 ,-0.00000118,0.00000045,0.00000394,-0.00001214,0.00000157,0.00000592,-
 0.00001731,0.00006194,0.00006192,0.00001023,0.00001588,-0.00002128,0.0
 0000138,0.00000332,-0.00001342,0.00000951,0.00001195,0.00000424,-0.000
 00854,0.00000079,-0.00000049,-0.00000018,0.00006404,-0.00030313,0.0000
 3098,0.00000070,-0.00000006,-0.00000077,0.00000694,0.00000168,0.000002
 69,0.00015061,0.00002184,0.00019189,-0.00204648,-0.00570791,0.00326147
 ,0.03062745,0.10697244,-0.11954960,-0.00163871,-0.00725592,0.00397890,
 0.00000112,-0.00000053,0.00000051,-0.00000030,0.00000072,0.00000033,-0
 .00007506,0.00002931,-0.00004836,-0.00001172,-0.00001027,-0.00001149,0
 .00000042,-0.00000177,0.00000162,-0.00000424,0.00000390,-0.00000009,-0
 .00000335,-0.00000137,-0.00000065,0.00024178,-0.00012021,0.00002344,0.
 00001016,0.00004622,0.00000214,-0.00133149,-0.00070105,0.00125716,0.00
 065481,-0.00022354,0.00087175,-0.03376734,-0.11726792,0.12535869,0.000
 00023,-0.00000025,0.00000142,-0.00000199,0.00000253,-0.00000147,0.0000
 0180,-0.00000131,0.00000363,-0.00000003,0.00000326,-0.00000853,0.00000
 269,-0.00001491,0.00001092,-0.00000357,0.00000454,0.00000096,-0.000004
 02,-0.00000093,0.00000800,0.00000906,-0.00001567,0.00000643,-0.0000008
 7,0.00001310,0.00010654,-0.00003063,0.00004882,-0.00003092,-0.00000320
 ,0.00000420,-0.00000282,0.00002270,-0.00001140,0.00002238,-0.00000038,
 0.00000018,0.00000017,-0.00008102,-0.00010488,0.00007398,-0.00000082,0
 .00000026,0.00000058,0.00000639,0.00000372,-0.00000535,0.00177913,-0.0
 0076027,-0.00103734,-0.00555383,-0.00694153,-0.03184157,-0.04776474,-0
 .00566074,-0.01983226,0.00029082,0.00599965,0.02232190,-0.00000037,0.0
 0000023,-0.00000022,0.00000007,-0.00000025,0.00000091,-0.00000369,-0.0
 0001049,-0.00001805,0.00006749,0.00009528,0.00021295,-0.00000252,0.000
 00133,-0.00000046,-0.00000235,-0.00000670,0.00000398,0.00000226,0.0000
 0021,0.00000168,-0.00006316,0.00009555,0.00002820,-0.00012729,0.000342
 65,0.00070019,0.00144497,0.00019324,0.00066808,-0.00590366,-0.00164050
 ,-0.00138840,0.00012823,0.00193592,0.00729146,0.05671307,0.00000131,-0
 .00000226,0.00000027,-0.00000348,0.00000431,-0.00000118,0.00000190,-0.
 00000302,0.00000346,-0.00000026,0.00000992,-0.00000933,0.00000967,-0.0
 0001893,0.00000205,-0.00000421,0.00000433,0.00000240,-0.00000265,0.000
 00066,0.00001048,-0.00000114,-0.00001075,0.00000779,0.00000168,-0.0000
 1681,0.00000840,-0.00001992,0.00003059,-0.00001009,-0.00000279,0.00000
 517,-0.00000522,-0.00000084,-0.00001388,0.00001637,-0.00000041,0.00000
 044,0.00000023,0.00000744,-0.00000829,0.00015186,-0.00000049,0.0000002
 7,0.00000088,0.00000244,0.00000152,-0.00000403,0.00057967,0.00019138,0
 .00047674,-0.00168485,-0.00271274,-0.00939013,-0.00557309,-0.06174748,
 -0.05360330,-0.00070836,-0.00717694,-0.02459731,-0.00000030,0.00000034
 ,-0.00000023,-0.00000044,-0.00000055,0.00000036,-0.00001812,-0.0000257
 3,-0.00001251,0.00008704,-0.00001991,0.00000849,-0.00000106,0.00000090
 ,-0.00000045,-0.00000271,-0.00000129,0.00000286,0.00000034,0.00000001,
 -0.00000010,-0.00001112,0.00003225,0.00003762,-0.00004541,0.00028083,0
 .00016102,0.00054420,0.00014355,-0.00020032,-0.00169322,0.00021537,-0.
 00075173,0.00238807,0.00646530,0.02547124,0.00397952,0.06571239,0.0000
 0425,-0.00000629,-0.00000026,-0.00000891,0.00001349,-0.00000139,0.0000
 0335,-0.00000891,0.00000871,-0.00000872,0.00002200,-0.00002946,0.00003
 895,-0.00003625,0.00001372,-0.00001020,0.00001032,0.00000717,-0.000008
 08,0.00000347,0.00002491,-0.00000476,-0.00001823,0.00003338,-0.0000886
 7,-0.00006183,-0.00004955,-0.00005796,0.00008079,-0.00004331,-0.000008
 26,0.00001938,-0.00001311,0.00001204,-0.00003551,0.00005561,-0.0000014
 7,0.00000110,0.00000047,-0.00013895,0.00023860,0.00045335,-0.00000203,
 0.00000016,0.00000210,0.00000958,0.00000477,-0.00000749,0.00072127,-0.
 00019881,0.00036669,-0.00143189,-0.00152615,-0.00722067,-0.01987111,-0
 .05480076,-0.27949881,0.00003258,-0.00156094,-0.00627510,-0.00000113,0
 .00000126,-0.00000093,-0.00000019,-0.00000157,0.00000119,0.00000656,0.
 00000020,-0.00002564,0.00020343,0.00001635,-0.00000212,-0.00000456,0.0
 0000161,-0.00000328,-0.00000610,-0.00000718,0.00000629,0.00000139,0.00
 000011,-0.00000039,-0.00003462,0.00001164,0.00000589,-0.00040959,0.000
 49604,0.00038068,-0.00025317,-0.00032753,0.00087088,-0.00151218,-0.000
 76771,0.00119277,-0.00121512,-0.00301059,-0.01730761,0.02248331,0.0628
 9457,0.30468623,0.00000008,0.00000120,0.00000005,0.00000106,-0.0000024
 3,0.00000031,-0.00000035,0.00000180,-0.00000124,0.00000092,-0.00000405
 ,0.00000493,-0.00000592,0.00000615,-0.00000112,0.00000095,-0.00000204,
 -0.00000142,0.00000063,-0.00000132,-0.00000603,0.00000074,0.00000502,-
 0.00000530,0.00002491,0.00000874,0.00000648,0.00000995,-0.00001230,0.0
 0000614,0.00000110,-0.00000307,0.00000254,-0.00000432,0.00000437,-0.00
 000555,0.00000029,-0.00000019,-0.00000009,0.00001115,-0.00004484,-0.00
 008293,0.00000023,-0.00000003,-0.00000034,-0.00000176,0.00000018,0.000
 00082,-0.00003073,0.00016651,0.00000264,0.00152362,-0.00024410,0.00115
 383,0.00026856,0.00492487,0.02172614,-0.04739358,-0.00404574,-0.013963
 30,0.00000015,-0.00000027,0.00000011,0.00000008,0.00000037,-0.00000002
 ,0.00000133,0.00000109,0.00000138,-0.00002807,-0.00000861,-0.00000931,
 0.00000047,-0.00000027,0.00000038,0.00000067,0.00000162,0.00000035,-0.
 00000101,-0.00000020,-0.00000009,0.00000473,-0.00001013,0.00000650,-0.
 00003059,-0.00008266,-0.00016680,-0.00007763,-0.00002689,-0.00001721,-
 0.00007628,-0.00006445,-0.00046160,0.00074009,-0.00070040,-0.00061711,
 -0.00238511,0.00342675,0.00104037,0.04870854,-0.00000154,0.00000110,0.
 00000029,0.00000199,-0.00000258,-0.00000006,0.00000016,0.00000172,-0.0
 0000162,0.00000206,-0.00000515,0.00000668,-0.00000417,0.00000736,-0.00
 000260,0.00000164,-0.00000202,-0.00000024,-0.00000002,0.00000370,-0.00
 000752,0.00000039,0.00000034,-0.00000827,-0.00001338,0.00001098,0.0000
 0597,0.00000383,-0.00000958,-0.00000135,0.00000368,-0.00000772,0.00000
 686,0.00000915,0.00000194,-0.00000832,0.00000038,-0.00000047,-0.000000
 20,0.00001111,-0.00000094,0.00007064,0.00000024,-0.00000018,-0.0000006
 3,0.00000023,-0.00000133,0.00000233,-0.00001865,-0.00004789,0.00016868
 ,-0.00135814,0.00064373,0.00001729,-0.00107357,-0.00675902,-0.02503980
 ,-0.00381159,-0.06040321,-0.05708152,0.00000035,-0.00000051,0.00000016
 ,-0.00000043,0.00000021,0.00000007,-0.00000207,0.00000093,0.00000199,0
 .00002778,0.00000548,0.00000143,0.00000126,-0.00000105,0.00000074,0.00
 000069,0.00000166,-0.00000395,0.00000039,0.00000045,-0.00000040,0.0000
 0068,-0.00003747,-0.00000908,-0.00007303,0.00007103,0.00011059,0.00008
 422,0.00004463,0.00004922,0.00035958,0.00027160,0.00048050,-0.00093997
 ,0.00079430,0.00024360,0.00387969,-0.00313254,-0.00109734,0.00087696,0
 .06454461,-0.00000193,0.00000313,0.00000072,0.00000436,-0.00000581,0.0
 0000047,-0.00000038,0.00000435,-0.00000311,0.00000400,-0.00001080,0.00
 001404,-0.00001526,0.00001387,-0.00000462,0.00000465,-0.00000347,-0.00
 000167,-0.00000065,0.00000259,-0.00001647,0.00000435,0.00000653,-0.000
 01555,0.00001727,0.00002622,0.00001951,0.00001690,-0.00002562,0.000003
 22,0.00000634,-0.00001240,0.00001222,0.00000946,0.00000955,-0.00001338
 ,0.00000062,-0.00000100,-0.00000042,0.00005051,-0.00009345,-0.00002811
 ,0.00000033,-0.00000035,-0.00000130,-0.00000164,-0.00000243,0.00000257
 ,0.00018633,0.00016325,0.00042103,-0.00058838,0.00028942,0.00049278,-0
 .00016355,-0.00184530,-0.00678545,-0.01312861,-0.05775782,-0.28687675,
 0.00000040,-0.00000121,0.00000026,-0.00000101,0.00000010,-0.00000018,-
 0.00000158,0.00000310,0.00000155,0.00000726,-0.00000302,0.00000418,0.0
 0000187,-0.00000141,0.00000137,0.00000179,0.00000186,-0.00000506,0.000
 00087,0.00000167,0.00000118,-0.00000172,-0.00001361,-0.00001085,-0.000
 15162,0.00009386,-0.00000674,0.00003962,0.00000744,-0.00003017,0.00068
 055,0.00014067,0.00025469,0.00010218,-0.00040826,0.00082829,0.00100960
 ,-0.00146490,0.00126151,0.01402176,0.06562868,0.31237948,0.00001221,-0
 .00001649,-0.00000171,-0.00002566,0.00003420,-0.00000363,0.00000740,-0
 .00002386,0.00001976,-0.00002269,0.00006376,-0.00007759,0.00010065,-0.
 00008783,0.00002253,-0.00002665,0.00002202,0.00001412,-0.00001632,0.00
 000100,0.00008357,-0.00000509,-0.00005130,0.00008997,-0.00017364,-0.00
 015900,-0.00012658,-0.00011379,0.00017592,-0.00007313,-0.00002429,0.00
 005576,-0.00004925,-0.00001639,-0.00008648,0.00010857,-0.00000369,0.00
 000422,0.00000178,-0.00018447,0.00064023,0.00023537,-0.00000353,0.0000
 0118,0.00000654,0.00000854,0.00000736,-0.00001658,-0.00095561,-0.00136
 210,-0.00068824,-0.00115406,0.00538118,0.00192785,-0.01846995,-0.00751
 921,-0.00457106,-0.27131364,-0.06990199,-0.04925366,-0.00000294,0.0000
 0478,-0.00000198,0.00000209,-0.00000280,0.00000173,0.00001878,-0.00001
 803,0.00000045,0.00000475,-0.00000671,-0.00003784,-0.00000863,0.000005
 90,-0.00000757,-0.00001118,-0.00001498,0.00001934,0.00000182,-0.000002
 49,-0.00000114,-0.00000154,0.00012240,-0.00006034,0.00001053,0.0000393
 4,0.00010172,0.00032197,-0.00007439,0.00009932,0.00026418,-0.00003738,
 -0.00013040,0.00084210,0.00019269,-0.00048706,0.00069940,-0.00028141,0
 .00057658,-0.00084042,-0.00029000,-0.00085214,0.29666990,-0.00000864,0
 .00001014,0.00000241,0.00001435,-0.00001919,0.00000033,-0.00000371,0.0
 0001366,-0.00000985,0.00001688,-0.00003391,0.00004051,-0.00006009,0.00
 004842,-0.00001437,0.00001681,-0.00001153,-0.00000892,0.00000477,-0.00
 000235,-0.00004046,0.00001084,0.00001840,-0.00005288,0.00011299,0.0001
 0580,0.00008979,0.00006516,-0.00010985,0.00003564,0.00001312,-0.000029
 61,0.00002589,0.00000767,0.00005343,-0.00006107,0.00000185,-0.00000222
 ,-0.00000090,0.00023382,-0.00048563,-0.00017732,0.00000177,-0.00000086
 ,-0.00000357,-0.00000289,-0.00000279,0.00000813,0.00125826,0.00092179,
 0.00028929,0.00190065,-0.00392133,-0.00154467,0.02459987,0.00773213,0.
 00604393,-0.07131099,-0.06823480,-0.01535796,0.00000151,-0.00000268,0.
 00000100,-0.00000110,0.00000134,-0.00000123,-0.00002681,0.00000337,-0.
 00000626,-0.00001668,-0.00000036,0.00002260,0.00000425,-0.00000329,0.0
 0000441,0.00000469,0.00000772,-0.00000970,-0.00000124,0.00000169,0.000
 00194,-0.00007308,-0.00001092,0.00007289,-0.00002862,0.00000611,-0.000
 05938,0.00016768,0.00021334,-0.00021742,-0.00013563,-0.00009209,0.0001
 2585,-0.00078374,0.00106571,0.00044212,-0.00087438,0.00096029,0.000082
 12,-0.00622985,-0.00305088,-0.00098920,0.07520499,0.07238620,-0.000002
 83,0.00000172,0.00000041,0.00000343,-0.00000355,-0.00000009,-0.0000009
 7,0.00000243,-0.00000237,0.00000478,-0.00000700,0.00000766,-0.00001249
 ,0.00000986,-0.00000373,0.00000403,-0.00000215,-0.00000123,0.00000116,
 0.00000007,-0.00000652,-0.00000229,0.00000136,-0.00001050,0.00003039,0
 .00003258,0.00000791,0.00001376,-0.00002878,0.00000764,0.00000278,-0.0
 0000480,0.00000407,0.00000070,0.00001371,-0.00001436,0.00000034,-0.000
 00043,-0.00000019,0.00006797,-0.00012846,-0.00003485,0.00000046,-0.000
 00017,-0.00000075,-0.00000002,-0.00000023,0.00000108,0.00034362,0.0000
 1832,0.00054267,0.00057102,-0.00118988,0.00016644,0.00781173,0.0028655
 9,0.00030776,-0.04979945,-0.01521588,-0.05757243,0.00000027,-0.0000005
 4,0.00000022,-0.00000024,0.00000030,-0.00000043,-0.00000613,0.00000408
 ,-0.00000167,-0.00000867,-0.00000396,0.00000305,0.00000096,-0.00000052
 ,0.00000096,0.00000112,0.00000134,-0.00000244,-0.00000003,0.00000055,0
 .00000057,0.00003440,-0.00003839,-0.00000894,-0.00006749,0.00006342,-0
 .00001548,-0.00031447,-0.00021014,-0.00001489,0.00035067,0.00009757,0.
 00033548,-0.00041422,0.00007439,0.00010610,-0.00008845,0.00060439,0.00
 033994,-0.02963855,-0.00923426,-0.00555145,0.05393194,0.01784161,0.057
 72143,-0.00000137,0.00000121,0.00000028,0.00000253,-0.00000233,0.00000
 026,-0.00000136,0.00000092,-0.00000205,0.00000064,-0.00000669,0.000005
 26,-0.00000506,0.00000839,-0.00000079,0.00000253,-0.00000112,-0.000000
 34,0.00000110,0.00000075,-0.00000597,0.00000061,0.00000256,-0.00000885
 ,0.00002905,0.00001290,0.00001466,0.00000463,-0.00001456,0.00000344,0.
 00000232,-0.00000481,0.00000414,0.00000273,0.00000532,-0.00000787,0.00
 000036,-0.00000036,-0.00000013,0.00001124,-0.00010736,0.00002703,0.000
 00038,-0.00000004,-0.00000054,0.00000126,-0.00000032,0.00000034,0.0000
 0177,0.00018368,0.00009421,0.00167990,0.00057840,-0.00080014,0.0036622
 5,0.01822642,-0.01247104,-0.05720105,-0.04348888,0.02803507,0.00000031
 ,-0.00000033,0.00000020,-0.00000016,0.00000031,-0.00000005,-0.00003006
 ,-0.00001209,-0.00000254,0.00000264,0.00000185,0.00000226,0.00000026,-
 0.00000053,0.00000065,0.00000023,0.00000092,-0.00000058,-0.00000084,0.
 ,-0.00000027,-0.00006971,-0.00016547,0.00006718,0.00000363,-0.00000356
 ,-0.00000833,-0.00006479,-0.00035441,0.00026900,-0.00007921,-0.0000323
 8,-0.00000297,-0.00238183,0.00349907,0.00084019,0.00076493,-0.00097377
 ,-0.00005601,-0.00042448,0.00232011,-0.00126257,-0.00559013,-0.0240844
 8,0.01718078,0.05967473,-0.00000326,0.00000355,0.00000002,0.00000571,-
 0.00000635,0.00000098,-0.00000174,0.00000465,-0.00000425,0.00000475,-0
 .00001230,0.00001535,-0.00001924,0.00002147,-0.00000493,0.00000572,-0.
 00000477,-0.00000299,0.00000381,-0.00000130,-0.00001366,0.00000291,0.0
 0000763,-0.00001485,0.00000071,0.00001843,0.00002389,0.00002385,-0.000
 04003,0.00001475,0.00000558,-0.00000813,0.00000661,0.00000297,0.000021
 06,-0.00002747,0.00000055,-0.00000095,-0.00000043,0.00005051,-0.000019
 27,-0.00006291,0.00000075,-0.00000035,-0.00000142,-0.00000593,-0.00000
 267,0.00000322,0.00016904,0.00031549,-0.00023471,-0.00148427,0.0007751
 0,0.00000973,-0.00464660,-0.02123433,0.01329813,-0.04262801,-0.2159708
 5,0.11213889,0.00000024,-0.00000084,0.00000039,-0.00000022,0.00000049,
 -0.00000088,0.00002291,-0.00000161,0.00000992,0.00000090,0.00000155,0.
 00000670,0.00000141,-0.00000099,0.00000122,0.00000469,0.00000289,-0.00
 000401,0.00000045,0.00000103,0.00000028,-0.00014489,0.00015564,-0.0000
 0386,-0.00000449,-0.00003796,-0.00000849,0.00077751,0.00055510,-0.0000
 7316,0.00008815,0.00003654,0.00002659,0.00387677,-0.00289700,-0.001675
 74,-0.00055967,0.00083131,-0.00043240,0.00205819,0.00705678,-0.0037562
 6,-0.00202047,-0.00753525,0.00443585,0.04441069,0.23796627,0.00000050,
 -0.00000144,-0.00000037,-0.00000164,0.00000211,-0.00000019,-0.00000016
 ,-0.00000203,0.00000074,-0.00000164,0.00000455,-0.00000420,0.00000791,
 -0.00000524,0.00000154,-0.00000158,0.00000140,0.00000116,-0.00000081,0
 .00000092,0.00000488,-0.00000107,-0.00000328,0.00000424,-0.00001709,-0
 .00000990,-0.00000723,-0.00001035,0.00001175,-0.00000566,-0.00000158,0
 .00000184,-0.00000189,-0.00000169,-0.00000846,0.00000653,-0.00000010,0
 .00000036,0.00000017,-0.00002363,0.00008122,-0.00000319,-0.00000007,0.
 00000019,0.00000054,0.00000118,0.00000096,-0.00000008,-0.00017625,-0.0
 0020964,0.00003592,-0.00024831,0.00004752,0.00018292,-0.00173603,-0.00
 703886,0.00419077,0.02759970,0.11273988,-0.12153623,0.00000005,0.00000
 038,-0.00000007,0.00000031,0.00000013,0.00000029,0.00000889,0.00000126
 ,0.00000595,-0.00000152,-0.00000120,-0.00000343,-0.00000006,0.00000015
 ,-0.00000030,-0.00000098,-0.00000059,-0.00000028,0.00000008,-0.0000005
 1,-0.00000034,0.00006560,0.00000326,-0.00005039,0.00000501,-0.00001020
 ,-0.00001585,-0.00026690,0.00010662,-0.00003677,0.00001794,0.00004393,
 -0.00001446,0.00119754,-0.00140247,0.00102021,-0.00070143,0.00018933,0
 .00076761,0.00700328,0.02570146,-0.01634776,-0.00080121,-0.00657532,0.
 00368892,-0.03191389,-0.12367011,0.12811631\\0.00000256,-0.00001087,0.
 00001357,-0.00000357,0.00001154,0.00000082,0.00000651,-0.00001420,0.00
 002201,0.00000668,-0.00000306,0.00000167,0.00001415,0.00000016,0.00000
 414,0.00000096,0.00000375,0.00000099,0.00001714,-0.00000939,-0.0000207
 5,-0.00004674,0.00003658,-0.00000735,-0.00000374,-0.00001465,0.0000427
 2,0.00000781,-0.00002043,-0.00002779,-0.00001613,0.00000213,0.00000886
 ,0.00001173,-0.00000931,0.00002045,0.00000434,-0.00000499,0.00000757,0
 .00000819,0.00000834,-0.00000535,0.00001088,-0.00000510,0.00000777,-0.
 00000085,-0.00000428,0.00000548,-0.00000523,-0.00000800,0.00000611,0.0
 0000030,0.00000122,-0.00000695,0.00000480,0.00000753,-0.00000985,0.000
 00747,-0.00000138,-0.00001562,-0.00000794,0.00000504,0.00001443,0.0000
 0501,0.00000281,0.00001089,0.00000359,-0.00001627,0.00000126,-0.000005
 55,-0.00000264,0.00000998,-0.00000338,0.00000139,-0.00000415,-0.000006
 23,0.00000402,-0.00000640,-0.00000622,0.00000342,0.00000337,-0.0000007
 1,0.00000278,-0.00000624,0.00000485,0.00000588,-0.00000616,0.00000008,
 0.00000262,-0.00000620,-0.00000063,0.00000097,-0.00000613,-0.00000055,
 0.00000239,-0.00000955,0.00000052,0.00000338,-0.00000942,-0.00000435,0
 .00000439,-0.00000990,-0.00000493,0.00000784,-0.00001289,-0.00000082,0
 .00000639,-0.00001140\\\@


 THE SOLUTION TO A PROBLEM CHANGES THE PROBLEM.

                                 -- JOHN PEERS
           PAUL DICKSON'S "THE OFFICIAL RULES"
 Job cpu time:       0 days  7 hours 51 minutes 24.8 seconds.
 Elapsed time:       0 days  0 hours 59 minutes 44.4 seconds.
 File lengths (MBytes):  RWF=   1870 Int=      0 D2E=      0 Chk=     43 Scr=      1
 Normal termination of Gaussian 16 at Sun Feb 11 03:48:19 2024.
