 Entering Gaussian System, Link 0=g16
 Input=135-an.com
 Output=135-an.log
 Initial command:
 /sysapps/ubuntu-applications/gaussian/Gaussian/AVX2/g16/l1.exe "/scratch/selhajj1/4234895/Gau-3199020.inp" -scrdir="/scratch/selhajj1/4234895/"
 Entering Link 1 = /sysapps/ubuntu-applications/gaussian/Gaussian/AVX2/g16/l1.exe PID=   3199022.
  
 Copyright (c) 1988,1990,1992,1993,1995,1998,2003,2009,2016,
            Gaussian, Inc.  All Rights Reserved.
  
 This is part of the Gaussian(R) 16 program.  It is based on
 the Gaussian(R) 09 system (copyright 2009, Gaussian, Inc.),
 the Gaussian(R) 03 system (copyright 2003, Gaussian, Inc.),
 the Gaussian(R) 98 system (copyright 1998, Gaussian, Inc.),
 the Gaussian(R) 94 system (copyright 1995, Gaussian, Inc.),
 the Gaussian 92(TM) system (copyright 1992, Gaussian, Inc.),
 the Gaussian 90(TM) system (copyright 1990, Gaussian, Inc.),
 the Gaussian 88(TM) system (copyright 1988, Gaussian, Inc.),
 the Gaussian 86(TM) system (copyright 1986, Carnegie Mellon
 University), and the Gaussian 82(TM) system (copyright 1983,
 Carnegie Mellon University). Gaussian is a federally registered
 trademark of Gaussian, Inc.
  
 This software contains proprietary and confidential information,
 including trade secrets, belonging to Gaussian, Inc.
  
 This software is provided under written license and may be
 used, copied, transmitted, or stored only in accord with that
 written license.
  
 The following legend is applicable only to US Government
 contracts under FAR:
  
                    RESTRICTED RIGHTS LEGEND
  
 Use, reproduction and disclosure by the US Government is
 subject to restrictions as set forth in subparagraphs (a)
 and (c) of the Commercial Computer Software - Restricted
 Rights clause in FAR 52.227-19.
  
 Gaussian, Inc.
 340 Quinnipiac St., Bldg. 40, Wallingford CT 06492
  
  
 ---------------------------------------------------------------
 Warning -- This program may not be used in any manner that
 competes with the business of Gaussian, Inc. or will provide
 assistance to any competitor of Gaussian, Inc.  The licensee
 of this program is prohibited from giving any competitor of
 Gaussian, Inc. access to this program.  By using this program,
 the user acknowledges that Gaussian, Inc. is engaged in the
 business of creating and licensing software in the field of
 computational chemistry and represents and warrants to the
 licensee that it is not a competitor of Gaussian, Inc. and that
 it will not use this program in any manner prohibited above.
 ---------------------------------------------------------------
  

 Cite this work as:
 Gaussian 16, Revision A.03,
 M. J. Frisch, G. W. Trucks, H. B. Schlegel, G. E. Scuseria, 
 M. A. Robb, J. R. Cheeseman, G. Scalmani, V. Barone, 
 G. A. Petersson, H. Nakatsuji, X. Li, M. Caricato, A. V. Marenich, 
 J. Bloino, B. G. Janesko, R. Gomperts, B. Mennucci, H. P. Hratchian, 
 J. V. Ortiz, A. F. Izmaylov, J. L. Sonnenberg, D. Williams-Young, 
 F. Ding, F. Lipparini, F. Egidi, J. Goings, B. Peng, A. Petrone, 
 T. Henderson, D. Ranasinghe, V. G. Zakrzewski, J. Gao, N. Rega, 
 G. Zheng, W. Liang, M. Hada, M. Ehara, K. Toyota, R. Fukuda, 
 J. Hasegawa, M. Ishida, T. Nakajima, Y. Honda, O. Kitao, H. Nakai, 
 T. Vreven, K. Throssell, J. A. Montgomery, Jr., J. E. Peralta, 
 F. Ogliaro, M. J. Bearpark, J. J. Heyd, E. N. Brothers, K. N. Kudin, 
 V. N. Staroverov, T. A. Keith, R. Kobayashi, J. Normand, 
 K. Raghavachari, A. P. Rendell, J. C. Burant, S. S. Iyengar, 
 J. Tomasi, M. Cossi, J. M. Millam, M. Klene, C. Adamo, R. Cammi, 
 J. W. Ochterski, R. L. Martin, K. Morokuma, O. Farkas, 
 J. B. Foresman, and D. J. Fox, Gaussian, Inc., Wallingford CT, 2016.
 
 ******************************************
 Gaussian 16:  ES64L-G16RevA.03 25-Dec-2016
                27-Dec-2023 
 ******************************************
 %chk=135-an.chk
 %nproc=8
 Will use up to    8 processors via shared memory.
 %mem=30GB
 ----------------------------------------------
 #P UB3LYP/6-311++G(d,p) nosym opt freq SCF=YQC
 ----------------------------------------------
 1/18=20,19=15,26=3,38=1/1,3;
 2/9=110,12=2,15=1,17=6,18=5,40=1/2;
 3/5=4,6=6,7=1111,11=2,25=1,30=1,71=1,74=-5,116=2/1,2,3;
 4//1;
 5/5=2,8=4,13=1,38=1/8,2,8;
 6/7=2,8=2,9=2,10=2,28=1/1;
 7/30=1/1,2,3,16;
 1/18=20,19=15,26=3/3(2);
 2/9=110,15=1/2;
 99//99;
 2/9=110,15=1/2;
 3/5=4,6=6,7=1111,11=2,25=1,30=1,71=1,74=-5,116=2/1,2,3;
 4/5=5,16=3,69=1/1;
 5/5=2,8=4,13=1,38=1/8,2,8;
 7/30=1/1,2,3,16;
 1/18=20,19=15,26=3/3(-5);
 2/9=110,15=1/2;
 6/7=2,8=2,9=2,10=2,19=2,28=1/1;
 99/9=1/99;
 Leave Link    1 at Wed Dec 27 23:18:17 2023, MaxMem=  4026531840 cpu:               0.6 elap:               0.1
 (Enter /sysapps/ubuntu-applications/gaussian/Gaussian/AVX2/g16/l101.exe)
 -------
 Reduced
 -------
 Symbolic Z-matrix:
 Charge = -2 Multiplicity = 1
 C                     5.56611  -4.60837  -1.01446 
 C                     6.46621  -4.10443  -1.96984 
 C                     6.16401  -2.81467  -2.57345 
 C                     4.38432  -3.95207  -0.58461 
 C                     4.12073  -2.64116  -1.22829 
 C                     5.01036  -2.14143  -2.17473 
 C                     3.45396  -4.4768    0.41113 
 C                     2.30184  -3.62953   0.68867 
 C                     2.0574   -2.35776   0.05429 
 C                     2.9565   -1.81408  -0.92884 
 C                     1.35679  -4.0835    1.64549 
 C                     0.23432  -3.35505   1.9778 
 C                    -0.00318  -2.09904   1.34971 
 C                     0.89363  -1.62853   0.41613 
 C                     7.67379  -4.7522   -2.39405 
 C                     8.5006   -4.20197  -3.33938 
 C                     8.18748  -2.9446   -3.94554 
 C                     7.04777  -2.28533  -3.55745 
 O                     3.59582  -5.58837   1.01807 
 O                     2.75769  -0.68716  -1.50352 
 Cl                    6.01759  -6.19885  -0.32186 
 H                     4.75768  -1.17885  -2.60869 
 H                     1.56668  -5.0434    2.10586 
 H                    -0.4678   -3.73662   2.71682 
 H                    -0.88662  -1.51749   1.60676 
 H                     0.74612  -0.67622  -0.08341 
 H                     7.93106  -5.70399  -1.94862 
 H                     9.40517  -4.7287   -3.63456 
 H                     8.8487   -2.5213   -4.69727 
 H                     6.78999  -1.32549  -3.99908 
 
 ITRead=  0  0  0  0  0  0  0  0  0  0  0  0  0  0  0  0  0  0  0  0
 ITRead=  0  0  0  0  0  0  0  0  0  0
 MicOpt= -1 -1 -1 -1 -1 -1 -1 -1 -1 -1 -1 -1 -1 -1 -1 -1 -1 -1 -1 -1
 MicOpt= -1 -1 -1 -1 -1 -1 -1 -1 -1 -1
 NAtoms=     30 NQM=       30 NQMF=       0 NMMI=      0 NMMIF=      0
                NMic=       0 NMicF=      0.
                    Isotopes and Nuclear Properties:
 (Nuclear quadrupole moments (NQMom) in fm**2, nuclear magnetic moments (NMagM)
  in nuclear magnetons)

  Atom         1           2           3           4           5           6           7           8           9          10
 IAtWgt=          12          12          12          12          12          12          12          12          12          12
 AtmWgt=  12.0000000  12.0000000  12.0000000  12.0000000  12.0000000  12.0000000  12.0000000  12.0000000  12.0000000  12.0000000
 NucSpn=           0           0           0           0           0           0           0           0           0           0
 AtZEff=  -0.0000000  -0.0000000  -0.0000000  -0.0000000  -0.0000000  -0.0000000  -0.0000000  -0.0000000  -0.0000000  -0.0000000
 NQMom=    0.0000000   0.0000000   0.0000000   0.0000000   0.0000000   0.0000000   0.0000000   0.0000000   0.0000000   0.0000000
 NMagM=    0.0000000   0.0000000   0.0000000   0.0000000   0.0000000   0.0000000   0.0000000   0.0000000   0.0000000   0.0000000
 AtZNuc=   6.0000000   6.0000000   6.0000000   6.0000000   6.0000000   6.0000000   6.0000000   6.0000000   6.0000000   6.0000000

  Atom        11          12          13          14          15          16          17          18          19          20
 IAtWgt=          12          12          12          12          12          12          12          12          16          16
 AtmWgt=  12.0000000  12.0000000  12.0000000  12.0000000  12.0000000  12.0000000  12.0000000  12.0000000  15.9949146  15.9949146
 NucSpn=           0           0           0           0           0           0           0           0           0           0
 AtZEff=  -0.0000000  -0.0000000  -0.0000000  -0.0000000  -0.0000000  -0.0000000  -0.0000000  -0.0000000  -0.0000000  -0.0000000
 NQMom=    0.0000000   0.0000000   0.0000000   0.0000000   0.0000000   0.0000000   0.0000000   0.0000000   0.0000000   0.0000000
 NMagM=    0.0000000   0.0000000   0.0000000   0.0000000   0.0000000   0.0000000   0.0000000   0.0000000   0.0000000   0.0000000
 AtZNuc=   6.0000000   6.0000000   6.0000000   6.0000000   6.0000000   6.0000000   6.0000000   6.0000000   8.0000000   8.0000000

  Atom        21          22          23          24          25          26          27          28          29          30
 IAtWgt=          35           1           1           1           1           1           1           1           1           1
 AtmWgt=  34.9688527   1.0078250   1.0078250   1.0078250   1.0078250   1.0078250   1.0078250   1.0078250   1.0078250   1.0078250
 NucSpn=           3           1           1           1           1           1           1           1           1           1
 AtZEff=  -0.0000000  -0.0000000  -0.0000000  -0.0000000  -0.0000000  -0.0000000  -0.0000000  -0.0000000  -0.0000000  -0.0000000
 NQMom=   -8.1650000   0.0000000   0.0000000   0.0000000   0.0000000   0.0000000   0.0000000   0.0000000   0.0000000   0.0000000
 NMagM=    0.8218740   2.7928460   2.7928460   2.7928460   2.7928460   2.7928460   2.7928460   2.7928460   2.7928460   2.7928460
 AtZNuc=  17.0000000   1.0000000   1.0000000   1.0000000   1.0000000   1.0000000   1.0000000   1.0000000   1.0000000   1.0000000
 Leave Link  101 at Wed Dec 27 23:18:18 2023, MaxMem=  4026531840 cpu:               3.9 elap:               0.6
 (Enter /sysapps/ubuntu-applications/gaussian/Gaussian/AVX2/g16/l103.exe)

 GradGradGradGradGradGradGradGradGradGradGradGradGradGradGradGradGradGrad
 Berny optimization.
 Initialization pass.
                           ----------------------------
                           !    Initial Parameters    !
                           ! (Angstroms and Degrees)  !
 --------------------------                            --------------------------
 ! Name  Definition              Value          Derivative Info.                !
 --------------------------------------------------------------------------------
 ! R1    R(1,2)                  1.406          estimate D2E/DX2                !
 ! R2    R(1,4)                  1.4185         estimate D2E/DX2                !
 ! R3    R(1,21)                 1.7925         estimate D2E/DX2                !
 ! R4    R(2,3)                  1.4557         estimate D2E/DX2                !
 ! R5    R(2,15)                 1.4345         estimate D2E/DX2                !
 ! R6    R(3,6)                  1.394          estimate D2E/DX2                !
 ! R7    R(3,18)                 1.4246         estimate D2E/DX2                !
 ! R8    R(4,5)                  1.484          estimate D2E/DX2                !
 ! R9    R(4,7)                  1.4603         estimate D2E/DX2                !
 ! R10   R(5,6)                  1.3917         estimate D2E/DX2                !
 ! R11   R(5,10)                 1.4592         estimate D2E/DX2                !
 ! R12   R(6,22)                 1.0857         estimate D2E/DX2                !
 ! R13   R(7,8)                  1.4568         estimate D2E/DX2                !
 ! R14   R(7,19)                 1.2744         estimate D2E/DX2                !
 ! R15   R(8,9)                  1.4421         estimate D2E/DX2                !
 ! R16   R(8,11)                 1.4194         estimate D2E/DX2                !
 ! R17   R(9,10)                 1.4389         estimate D2E/DX2                !
 ! R18   R(9,14)                 1.4202         estimate D2E/DX2                !
 ! R19   R(10,20)                1.2805         estimate D2E/DX2                !
 ! R20   R(11,12)                1.3788         estimate D2E/DX2                !
 ! R21   R(11,23)                1.0851         estimate D2E/DX2                !
 ! R22   R(12,13)                1.4242         estimate D2E/DX2                !
 ! R23   R(12,24)                1.0884         estimate D2E/DX2                !
 ! R24   R(13,14)                1.3774         estimate D2E/DX2                !
 ! R25   R(13,25)                1.0885         estimate D2E/DX2                !
 ! R26   R(14,26)                1.0854         estimate D2E/DX2                !
 ! R27   R(15,16)                1.3711         estimate D2E/DX2                !
 ! R28   R(15,27)                1.0819         estimate D2E/DX2                !
 ! R29   R(16,17)                1.4305         estimate D2E/DX2                !
 ! R30   R(16,28)                1.0876         estimate D2E/DX2                !
 ! R31   R(17,18)                1.3727         estimate D2E/DX2                !
 ! R32   R(17,29)                1.087          estimate D2E/DX2                !
 ! R33   R(18,30)                1.0876         estimate D2E/DX2                !
 ! A1    A(2,1,4)              124.9898         estimate D2E/DX2                !
 ! A2    A(2,1,21)             114.7917         estimate D2E/DX2                !
 ! A3    A(4,1,21)             120.2168         estimate D2E/DX2                !
 ! A4    A(1,2,3)              117.8011         estimate D2E/DX2                !
 ! A5    A(1,2,15)             125.3099         estimate D2E/DX2                !
 ! A6    A(3,2,15)             116.8859         estimate D2E/DX2                !
 ! A7    A(2,3,6)              118.7576         estimate D2E/DX2                !
 ! A8    A(2,3,18)             119.1325         estimate D2E/DX2                !
 ! A9    A(6,3,18)             122.1082         estimate D2E/DX2                !
 ! A10   A(1,4,5)              115.1661         estimate D2E/DX2                !
 ! A11   A(1,4,7)              124.8323         estimate D2E/DX2                !
 ! A12   A(5,4,7)              120.0014         estimate D2E/DX2                !
 ! A13   A(4,5,6)              119.9082         estimate D2E/DX2                !
 ! A14   A(4,5,10)             123.601          estimate D2E/DX2                !
 ! A15   A(6,5,10)             116.4908         estimate D2E/DX2                !
 ! A16   A(3,6,5)              123.3756         estimate D2E/DX2                !
 ! A17   A(3,6,22)             120.4298         estimate D2E/DX2                !
 ! A18   A(5,6,22)             116.1932         estimate D2E/DX2                !
 ! A19   A(4,7,8)              115.1368         estimate D2E/DX2                !
 ! A20   A(4,7,19)             124.5588         estimate D2E/DX2                !
 ! A21   A(8,7,19)             120.3044         estimate D2E/DX2                !
 ! A22   A(7,8,9)              124.2744         estimate D2E/DX2                !
 ! A23   A(7,8,11)             117.9671         estimate D2E/DX2                !
 ! A24   A(9,8,11)             117.7585         estimate D2E/DX2                !
 ! A25   A(8,9,10)             121.8614         estimate D2E/DX2                !
 ! A26   A(8,9,14)             118.662          estimate D2E/DX2                !
 ! A27   A(10,9,14)            119.4766         estimate D2E/DX2                !
 ! A28   A(5,10,9)             115.1246         estimate D2E/DX2                !
 ! A29   A(5,10,20)            122.0463         estimate D2E/DX2                !
 ! A30   A(9,10,20)            122.829          estimate D2E/DX2                !
 ! A31   A(8,11,12)            122.38           estimate D2E/DX2                !
 ! A32   A(8,11,23)            116.1133         estimate D2E/DX2                !
 ! A33   A(12,11,23)           121.5066         estimate D2E/DX2                !
 ! A34   A(11,12,13)           119.6954         estimate D2E/DX2                !
 ! A35   A(11,12,24)           120.2375         estimate D2E/DX2                !
 ! A36   A(13,12,24)           120.0671         estimate D2E/DX2                !
 ! A37   A(12,13,14)           119.4446         estimate D2E/DX2                !
 ! A38   A(12,13,25)           120.157          estimate D2E/DX2                !
 ! A39   A(14,13,25)           120.3984         estimate D2E/DX2                !
 ! A40   A(9,14,13)            122.0595         estimate D2E/DX2                !
 ! A41   A(9,14,26)            116.3972         estimate D2E/DX2                !
 ! A42   A(13,14,26)           121.5434         estimate D2E/DX2                !
 ! A43   A(2,15,16)            122.0255         estimate D2E/DX2                !
 ! A44   A(2,15,27)            118.4042         estimate D2E/DX2                !
 ! A45   A(16,15,27)           119.5703         estimate D2E/DX2                !
 ! A46   A(15,16,17)           120.8549         estimate D2E/DX2                !
 ! A47   A(15,16,28)           119.6246         estimate D2E/DX2                !
 ! A48   A(17,16,28)           119.5203         estimate D2E/DX2                !
 ! A49   A(16,17,18)           118.9523         estimate D2E/DX2                !
 ! A50   A(16,17,29)           120.1447         estimate D2E/DX2                !
 ! A51   A(18,17,29)           120.9022         estimate D2E/DX2                !
 ! A52   A(3,18,17)            122.1339         estimate D2E/DX2                !
 ! A53   A(3,18,30)            117.4762         estimate D2E/DX2                !
 ! A54   A(17,18,30)           120.3898         estimate D2E/DX2                !
 ! D1    D(4,1,2,3)             -0.3756         estimate D2E/DX2                !
 ! D2    D(4,1,2,15)           178.9581         estimate D2E/DX2                !
 ! D3    D(21,1,2,3)          -179.8988         estimate D2E/DX2                !
 ! D4    D(21,1,2,15)           -0.5651         estimate D2E/DX2                !
 ! D5    D(2,1,4,5)              0.3414         estimate D2E/DX2                !
 ! D6    D(2,1,4,7)           -179.7977         estimate D2E/DX2                !
 ! D7    D(21,1,4,5)           179.8404         estimate D2E/DX2                !
 ! D8    D(21,1,4,7)            -0.2986         estimate D2E/DX2                !
 ! D9    D(1,2,3,6)              0.3395         estimate D2E/DX2                !
 ! D10   D(1,2,3,18)          -179.1959         estimate D2E/DX2                !
 ! D11   D(15,2,3,6)          -179.0509         estimate D2E/DX2                !
 ! D12   D(15,2,3,18)            1.4137         estimate D2E/DX2                !
 ! D13   D(1,2,15,16)          179.6014         estimate D2E/DX2                !
 ! D14   D(1,2,15,27)           -0.3786         estimate D2E/DX2                !
 ! D15   D(3,2,15,16)           -1.0594         estimate D2E/DX2                !
 ! D16   D(3,2,15,27)          178.9606         estimate D2E/DX2                !
 ! D17   D(2,3,6,5)             -0.3193         estimate D2E/DX2                !
 ! D18   D(2,3,6,22)          -179.8708         estimate D2E/DX2                !
 ! D19   D(18,3,6,5)           179.2017         estimate D2E/DX2                !
 ! D20   D(18,3,6,22)           -0.3499         estimate D2E/DX2                !
 ! D21   D(2,3,18,17)           -0.8199         estimate D2E/DX2                !
 ! D22   D(2,3,18,30)          179.2994         estimate D2E/DX2                !
 ! D23   D(6,3,18,17)          179.6609         estimate D2E/DX2                !
 ! D24   D(6,3,18,30)           -0.2198         estimate D2E/DX2                !
 ! D25   D(1,4,5,6)             -0.2837         estimate D2E/DX2                !
 ! D26   D(1,4,5,10)           179.6815         estimate D2E/DX2                !
 ! D27   D(7,4,5,6)            179.8481         estimate D2E/DX2                !
 ! D28   D(7,4,5,10)            -0.1867         estimate D2E/DX2                !
 ! D29   D(1,4,7,8)           -179.6672         estimate D2E/DX2                !
 ! D30   D(1,4,7,19)             0.262          estimate D2E/DX2                !
 ! D31   D(5,4,7,8)              0.1875         estimate D2E/DX2                !
 ! D32   D(5,4,7,19)          -179.8834         estimate D2E/DX2                !
 ! D33   D(4,5,6,3)              0.2956         estimate D2E/DX2                !
 ! D34   D(4,5,6,22)           179.8646         estimate D2E/DX2                !
 ! D35   D(10,5,6,3)          -179.672          estimate D2E/DX2                !
 ! D36   D(10,5,6,22)           -0.1029         estimate D2E/DX2                !
 ! D37   D(4,5,10,9)             0.1012         estimate D2E/DX2                !
 ! D38   D(4,5,10,20)         -179.9352         estimate D2E/DX2                !
 ! D39   D(6,5,10,9)          -179.9325         estimate D2E/DX2                !
 ! D40   D(6,5,10,20)            0.0311         estimate D2E/DX2                !
 ! D41   D(4,7,8,9)             -0.1303         estimate D2E/DX2                !
 ! D42   D(4,7,8,11)           179.8616         estimate D2E/DX2                !
 ! D43   D(19,7,8,9)           179.9373         estimate D2E/DX2                !
 ! D44   D(19,7,8,11)           -0.0709         estimate D2E/DX2                !
 ! D45   D(7,8,9,10)             0.0553         estimate D2E/DX2                !
 ! D46   D(7,8,9,14)          -179.9624         estimate D2E/DX2                !
 ! D47   D(11,8,9,10)         -179.9365         estimate D2E/DX2                !
 ! D48   D(11,8,9,14)            0.0457         estimate D2E/DX2                !
 ! D49   D(7,8,11,12)          179.9873         estimate D2E/DX2                !
 ! D50   D(7,8,11,23)           -0.0126         estimate D2E/DX2                !
 ! D51   D(9,8,11,12)           -0.0203         estimate D2E/DX2                !
 ! D52   D(9,8,11,23)          179.9798         estimate D2E/DX2                !
 ! D53   D(8,9,10,5)            -0.0344         estimate D2E/DX2                !
 ! D54   D(8,9,10,20)         -179.9977         estimate D2E/DX2                !
 ! D55   D(14,9,10,5)          179.9835         estimate D2E/DX2                !
 ! D56   D(14,9,10,20)           0.0202         estimate D2E/DX2                !
 ! D57   D(8,9,14,13)           -0.0334         estimate D2E/DX2                !
 ! D58   D(8,9,14,26)          179.9715         estimate D2E/DX2                !
 ! D59   D(10,9,14,13)         179.9493         estimate D2E/DX2                !
 ! D60   D(10,9,14,26)          -0.0458         estimate D2E/DX2                !
 ! D61   D(8,11,12,13)          -0.0193         estimate D2E/DX2                !
 ! D62   D(8,11,12,24)        -179.9978         estimate D2E/DX2                !
 ! D63   D(23,11,12,13)        179.9806         estimate D2E/DX2                !
 ! D64   D(23,11,12,24)          0.0021         estimate D2E/DX2                !
 ! D65   D(11,12,13,14)          0.0329         estimate D2E/DX2                !
 ! D66   D(11,12,13,25)       -179.9686         estimate D2E/DX2                !
 ! D67   D(24,12,13,14)       -179.9885         estimate D2E/DX2                !
 ! D68   D(24,12,13,25)          0.01           estimate D2E/DX2                !
 ! D69   D(12,13,14,9)          -0.0063         estimate D2E/DX2                !
 ! D70   D(12,13,14,26)        179.9886         estimate D2E/DX2                !
 ! D71   D(25,13,14,9)         179.9953         estimate D2E/DX2                !
 ! D72   D(25,13,14,26)         -0.0098         estimate D2E/DX2                !
 ! D73   D(2,15,16,17)           0.0592         estimate D2E/DX2                !
 ! D74   D(2,15,16,28)        -179.7926         estimate D2E/DX2                !
 ! D75   D(27,15,16,17)       -179.961          estimate D2E/DX2                !
 ! D76   D(27,15,16,28)          0.1871         estimate D2E/DX2                !
 ! D77   D(15,16,17,18)          0.6036         estimate D2E/DX2                !
 ! D78   D(15,16,17,29)       -179.7046         estimate D2E/DX2                !
 ! D79   D(28,16,17,18)       -179.5444         estimate D2E/DX2                !
 ! D80   D(28,16,17,29)          0.1474         estimate D2E/DX2                !
 ! D81   D(16,17,18,3)          -0.2056         estimate D2E/DX2                !
 ! D82   D(16,17,18,30)        179.6717         estimate D2E/DX2                !
 ! D83   D(29,17,18,3)        -179.895          estimate D2E/DX2                !
 ! D84   D(29,17,18,30)         -0.0177         estimate D2E/DX2                !
 --------------------------------------------------------------------------------
 Trust Radius=3.00D-01 FncErr=1.00D-07 GrdErr=1.00D-06 EigMax=2.50D+02 EigMin=1.00D-04
 Number of steps in this run=    180 maximum allowed number of steps=    180.
 GradGradGradGradGradGradGradGradGradGradGradGradGradGradGradGradGradGrad

 Leave Link  103 at Wed Dec 27 23:18:18 2023, MaxMem=  4026531840 cpu:               0.3 elap:               0.1
 (Enter /sysapps/ubuntu-applications/gaussian/Gaussian/AVX2/g16/l202.exe)
                          Input orientation:                          
 ---------------------------------------------------------------------
 Center     Atomic      Atomic             Coordinates (Angstroms)
 Number     Number       Type             X           Y           Z
 ---------------------------------------------------------------------
      1          6           0        5.566110   -4.608366   -1.014463
      2          6           0        6.466206   -4.104430   -1.969842
      3          6           0        6.164009   -2.814669   -2.573448
      4          6           0        4.384318   -3.952066   -0.584609
      5          6           0        4.120728   -2.641160   -1.228293
      6          6           0        5.010357   -2.141435   -2.174730
      7          6           0        3.453956   -4.476796    0.411132
      8          6           0        2.301837   -3.629527    0.688667
      9          6           0        2.057402   -2.357764    0.054293
     10          6           0        2.956503   -1.814076   -0.928839
     11          6           0        1.356788   -4.083500    1.645489
     12          6           0        0.234320   -3.355050    1.977804
     13          6           0       -0.003176   -2.099043    1.349711
     14          6           0        0.893634   -1.628526    0.416132
     15          6           0        7.673785   -4.752199   -2.394053
     16          6           0        8.500598   -4.201973   -3.339380
     17          6           0        8.187482   -2.944600   -3.945541
     18          6           0        7.047765   -2.285327   -3.557453
     19          8           0        3.595820   -5.588372    1.018068
     20          8           0        2.757692   -0.687161   -1.503516
     21         17           0        6.017591   -6.198850   -0.321862
     22          1           0        4.757679   -1.178853   -2.608688
     23          1           0        1.566677   -5.043395    2.105857
     24          1           0       -0.467802   -3.736621    2.716819
     25          1           0       -0.886623   -1.517492    1.606764
     26          1           0        0.746123   -0.676221   -0.083405
     27          1           0        7.931064   -5.703987   -1.948616
     28          1           0        9.405169   -4.728700   -3.634555
     29          1           0        8.848700   -2.521303   -4.697265
     30          1           0        6.789987   -1.325485   -3.999077
 ---------------------------------------------------------------------
                    Distance matrix (angstroms):
                    1          2          3          4          5
     1  C    0.000000
     2  C    1.406013   0.000000
     3  C    2.450565   1.455729   0.000000
     4  C    1.418498   2.505263   2.901112   0.000000
     5  C    2.450460   2.862223   2.452457   1.484009   0.000000
     6  C    2.782235   2.452514   1.393963   2.489738   1.391728
     7  C    2.551632   3.857634   4.360593   1.460279   2.549874
     8  C    3.809758   4.963383   5.120719   2.462111   2.821342
     9  C    4.303310   5.156115   4.896734   2.892150   2.445947
    10  C    3.824322   4.318266   3.740858   2.593868   1.459164
    11  C    5.006917   6.259170   6.520639   3.762519   4.240086
    12  C    6.241190   7.414977   7.494472   4.913743   5.088503
    13  C    6.550036   7.542805   7.344213   5.140563   4.893524
    14  C    5.723468   6.548017   6.174251   4.311055   3.760811
    15  C    2.523143   1.434506   2.462850   3.838606   4.294147
    16  C    3.765848   2.454363   2.823280   4.959332   5.106475
    17  C    4.269769   2.865551   2.448257   5.174448   4.900408
    18  C    3.749481   2.483517   1.424603   4.325479   3.757546
    19  O    2.995603   4.401001   5.214212   2.422354   3.742690
    20  O    4.847910   5.064411   4.156205   3.761636   2.398276
    21  Cl   1.792532   2.702534   4.067402   2.790099   4.132416
    22  H    3.867386   3.447635   2.157522   3.453550   2.109393
    23  H    5.091278   6.441922   6.928100   4.045826   4.838436
    24  H    7.147762   8.377383   8.533337   5.872726   6.149679
    25  H    7.619849   8.576039   8.298690   6.205811   5.862912
    26  H    6.289746   6.930412   6.334569   4.921263   4.069363
    27  H    2.768760   2.169065   3.443989   4.184394   4.941501
    28  H    4.649488   3.434892   3.910829   5.925730   6.170351
    29  H    5.356702   3.952392   3.435728   6.236323   5.865309
    30  H    4.602511   3.456178   2.154515   4.934041   4.066102
                    6          7          8          9         10
     6  C    0.000000
     7  C    3.816147   0.000000
     8  C    4.213020   1.456801   0.000000
     9  C    3.706115   2.562810   1.442068   0.000000
    10  C    2.424402   3.022095   2.518090   1.438933   0.000000
    11  C    5.631541   2.465042   1.419407   2.449679   3.786362
    12  C    6.444139   3.752177   2.451905   2.831625   4.270065
    13  C    6.128539   4.299582   2.844722   2.447657   3.746024
    14  C    4.891119   3.829872   2.461974   1.420236   2.469576
    15  C    3.736046   5.074630   6.294552   6.578106   5.747362
    16  C    4.217109   6.293684   7.414681   7.512183   6.499981
    17  C    3.724912   6.613206   7.522355   7.343087   6.143429
    18  C    2.466507   5.785125   6.508475   6.160656   4.885705
    19  O    4.906755   1.274401   2.370648   3.705728   4.294704
    20  O    2.764044   4.302557   3.697430   2.389161   1.280514
    21  Cl   4.572773   3.174110   4.629192   5.529786   5.381907
    22  H    1.085693   4.657836   4.786388   3.971498   2.543548
    23  H    6.213190   2.599029   2.132583   3.415017   4.644297
    24  H    7.515457   4.609147   3.434497   3.920070   5.358439
    25  H    7.033020   5.387731   3.933176   3.432711   4.613769
    26  H    4.970330   4.692685   3.426129   2.136820   2.625881
    27  H    4.612313   5.207581   6.553384   7.050444   6.396687
    28  H    5.304658   7.200554   8.387834   8.556788   7.576360
    29  H    4.608726   7.682639   8.549727   8.290101   7.029878
    30  H    2.676023   6.364732   6.886730   6.316072   4.935654
                   11         12         13         14         15
    11  C    0.000000
    12  C    1.378770   0.000000
    13  C    2.423852   1.424240   0.000000
    14  C    2.784372   2.419587   1.377398   0.000000
    15  C    7.527915   8.741327   8.943754   7.976523   0.000000
    16  C    8.711887   9.865145   9.935998   8.865236   1.371135
    17  C    8.900286   9.925083   9.789869   8.599794   2.436886
    18  C    7.917781   8.843439   8.592481   7.354869   2.798367
    19  O    2.769758   4.148313   5.023761   4.831616   5.382523
    20  O    4.838789   5.060101   4.213871   2.836535   6.440929
    21  Cl   5.483453   6.842652   7.473434   6.905609   3.021548
    22  H    6.172605   6.799450   6.259506   4.927736   4.617201
    23  H    1.085076   2.154549   3.421316   3.869042   7.591492
    24  H    2.144109   1.088446   2.183237   3.404517   9.666326
    25  H    3.408635   2.184217   1.088465   2.144586   9.987515
    26  H    3.869307   3.418574   2.153995   1.085441   8.363324
    27  H    7.665812   8.954002   9.318087   8.469170   1.081900
    28  H    9.647362  10.839279  10.966994   9.922972   2.130044
    29  H    9.939805  10.929740  10.728464   9.498787   3.414983
    30  H    8.305867   9.100495   8.680725   7.372441   3.885816
                   16         17         18         19         20
    16  C    0.000000
    17  C    1.430545   0.000000
    18  C    2.414914   1.372665   0.000000
    19  O    6.705692   7.260186   6.615242   0.000000
    20  O    6.978916   6.367271   5.017720   5.575187   0.000000
    21  Cl   4.388423   5.331943   5.181310   2.834267   6.511679
    22  H    4.866478   4.082718   2.714578   5.826417   2.337331
    23  H    8.856515   9.211917   8.349991   2.365947   5.781251
    24  H   10.831726  10.951177   9.897297   4.777841   6.124887
    25  H   10.944894  10.733318   9.498064   6.083660   4.862543
    26  H    9.119440   8.685359   7.373529   5.784742   2.462366
    27  H    2.124768   3.415798   3.880182   5.254419   7.220141
    28  H    1.087575   2.182312   3.396082   7.492294   8.066245
    29  H    2.188533   1.086958   2.144347   8.346538   7.117899
    30  H    3.411096   2.139484   1.087556   7.317558   4.784839
                   21         22         23         24         25
    21  Cl   0.000000
    22  H    5.658385   0.000000
    23  H    5.199955   6.880706   0.000000
    24  H    7.573406   7.887259   2.494000   0.000000
    25  H    8.561710   7.052862   4.324323   2.516380   0.000000
    26  H    7.638368   4.766789   4.953623   4.322143   2.496050
    27  H    2.559804   5.566229   7.574995   9.807026  10.388410
    28  H    4.960944   5.937422   9.720767  11.781330  11.987671
    29  H    6.378376   4.785476  10.279653  11.968410  11.641518
    30  H    6.153714   2.466771   8.853024  10.178032   9.507506
                   26         27         28         29         30
    26  H    0.000000
    27  H    8.965535   0.000000
    28  H   10.198644   2.442654   0.000000
    29  H    9.504935   4.304254   2.512292   0.000000
    30  H    7.230652   4.967668   4.307427   2.481078   0.000000
 Symmetry turned off by external request.
 Stoichiometry    C18H9ClO2(2-)
 Framework group  C1[X(C18H9ClO2)]
 Deg. of freedom    84
 Full point group                 C1      NOp   1
 Rotational constants (GHZ):           0.5914900           0.2006510           0.1498267
 Leave Link  202 at Wed Dec 27 23:18:18 2023, MaxMem=  4026531840 cpu:               0.4 elap:               0.1
 (Enter /sysapps/ubuntu-applications/gaussian/Gaussian/AVX2/g16/l301.exe)
 Standard basis: 6-311++G(d,p) (5D, 7F)
 Ernie: Thresh=  0.10000D-02 Tol=  0.10000D-05 Strict=F.
   533 basis functions,   854 primitive gaussians,   554 cartesian basis functions
    76 alpha electrons       76 beta electrons
       nuclear repulsion energy      1619.3303448449 Hartrees.
 IExCor=  402 DFT=T Ex+Corr=B3LYP ExCW=0 ScaHFX=  0.200000
 ScaDFX=  0.800000  0.720000  1.000000  0.810000 ScalE2=  1.000000  1.000000
 IRadAn=      5 IRanWt=     -1 IRanGd=            0 ICorTp=0 IEmpDi=  4
 NAtoms=   30 NActive=   30 NUniq=   30 SFac= 1.00D+00 NAtFMM=   60 NAOKFM=F Big=F
 Integral buffers will be    131072 words long.
 Raffenetti 2 integral format.
 Two-electron integral symmetry is turned off.
 Leave Link  301 at Wed Dec 27 23:18:18 2023, MaxMem=  4026531840 cpu:               0.4 elap:               0.1
 (Enter /sysapps/ubuntu-applications/gaussian/Gaussian/AVX2/g16/l302.exe)
 NPDir=0 NMtPBC=     1 NCelOv=     1 NCel=       1 NClECP=     1 NCelD=      1
         NCelK=      1 NCelE2=     1 NClLst=     1 CellRange=     0.0.
 One-electron integrals computed using PRISM.
 NBasis=   533 RedAO= T EigKep=  1.09D-06  NBF=   533
 NBsUse=   523 1.00D-06 EigRej=  8.54D-07 NBFU=   523
 Precomputing XC quadrature grid using
 IXCGrd= 4 IRadAn=           5 IRanWt=          -1 IRanGd=           0 AccXCQ= 0.00D+00.
 Generated NRdTot=       0 NPtTot=           0 NUsed=           0 NTot=          32
 NSgBfM=   551   551   551   551   551 MxSgAt=    30 MxSgA2=    30.
 Leave Link  302 at Wed Dec 27 23:18:19 2023, MaxMem=  4026531840 cpu:               6.3 elap:               0.9
 (Enter /sysapps/ubuntu-applications/gaussian/Gaussian/AVX2/g16/l303.exe)
 DipDrv:  MaxL=1.
 Leave Link  303 at Wed Dec 27 23:18:19 2023, MaxMem=  4026531840 cpu:               1.3 elap:               0.2
 (Enter /sysapps/ubuntu-applications/gaussian/Gaussian/AVX2/g16/l401.exe)
 ExpMin= 3.60D-02 ExpMax= 1.06D+05 ExpMxC= 3.62D+03 IAcc=3 IRadAn=         5 AccDes= 0.00D+00
 Harris functional with IExCor=  402 and IRadAn=       5 diagonalized for initial guess.
 HarFok:  IExCor=  402 AccDes= 0.00D+00 IRadAn=         5 IDoV= 1 UseB2=F ITyADJ=14
 ICtDFT=  3500011 ScaDFX=  1.000000  1.000000  1.000000  1.000000
 FoFCou: FMM=F IPFlag=           0 FMFlag=      100000 FMFlg1=           0
         NFxFlg=           0 DoJE=T BraDBF=F KetDBF=T FulRan=T
         wScrn=  0.000000 ICntrl=       500 IOpCl=  0 I1Cent=   200000004 NGrid=           0
         NMat0=    1 NMatS0=      1 NMatT0=    0 NMatD0=    1 NMtDS0=    0 NMtDT0=    0
 Symmetry not used in FoFCou.
 Harris En= -1302.62809588688    
 JPrj=0 DoOrth=F DoCkMO=F.
 Initial guess <Sx>= 0.0000 <Sy>= 0.0000 <Sz>= 0.0000 <S**2>=-0.0000 S=-0.0000
 Leave Link  401 at Wed Dec 27 23:18:24 2023, MaxMem=  4026531840 cpu:              35.6 elap:               4.5
 (Enter /sysapps/ubuntu-applications/gaussian/Gaussian/AVX2/g16/l508.exe)
 Two-electron integral symmetry not used.
 Tight linear equation convergence will be used.
 UB3LYP wavefunction.
 Linear searches until partial convergence.
 Full line searches.
 Fock matrices will be formed incrementally for  20 cycles.
 FoFJK:  IHMeth= 1 ICntrl=       0 DoSepK=F KAlg= 0 I1Cent=           0 FoldK=F
 IRaf= 820000000 NMat=       1 IRICut=       1 DoRegI=T DoRafI=F ISym2E= 0 IDoP0=0 IntGTp=1.
 FoFCou: FMM=F IPFlag=           0 FMFlag=      100000 FMFlg1=           0
         NFxFlg=           0 DoJE=F BraDBF=F KetDBF=F FulRan=T
         wScrn=  0.000000 ICntrl=         0 IOpCl=  1 I1Cent=           0 NGrid=           0
         NMat0=    1 NMatS0=      1 NMatT0=    0 NMatD0=    1 NMtDS0=    0 NMtDT0=    0
 Symmetry not used in FoFCou.
 Iteration   1 EE= -1301.51940172378                                    Grad=1.213D+00 Max rot=    5.1716 deg.
 Gradient too large for Newton-Raphson -- use scaled steepest descent instead.
 Alpha Gap=    -0.022 HL deriv= 3.69D-02
  Beta Gap=    -0.022 HL deriv= 3.69D-02
     ILin= 1 X=0.000D+00 Y=-1.301519401724D+03 DE= 0.00D+00 F= -3.88D+00
 RMSU=  6.38D-02    CP:  1.36D+00
     ILin= 2 X=3.000D-01 Y=-1.302144206068D+03 DE=-6.25D-01 F= -1.63D-01
 RMSU=  7.75D-03    CP:  1.57D+00  1.55D+00
     ILin= 3 X=4.000D-01 Y=-1.302092440837D+03 DE=-5.73D-01 F=  1.21D+00
     An  expanding polynomial of degree  3 produced  0.3102
     Minimum is close to point  2 DX=  1.02D-02 DF= -6.74D-04 DXR=  3.28D-02 DFR=  1.08D-03 which will be used.
 Iteration   2 EE= -1302.14420606802     Delta-E=       -0.624804344239 Grad=4.108D-01 Max rot=    3.0512 deg.
 Gradient too large for Newton-Raphson -- use scaled steepest descent instead.
 Alpha Gap=     0.054 HL deriv= 9.93D-02
  Beta Gap=     0.054 HL deriv= 9.93D-02
     ILin= 1 X=0.000D+00 Y=-1.302144206068D+03 DE= 0.00D+00 F= -2.71D-01
 RMSU=  9.10D-03    CP:  1.30D+00  7.78D-01 -6.90D-01
     ILin= 2 X=3.000D-01 Y=-1.302197552863D+03 DE=-5.33D-02 F= -8.52D-02
 RMSU=  9.36D-04    CP:  1.27D+00  6.41D-01 -1.00D+00  1.62D+00
     ILin= 3 X=5.000D-01 Y=-1.302202489824D+03 DE=-5.83D-02 F=  3.53D-02
     Accept linear search using points  2 and  3.
     An  expanding polynomial of degree  3 produced  0.3912
 RMSU=  7.81D-07    CP:  1.29D+00  7.14D-01 -8.47D-01  1.29D+00  3.57D-01
 Iteration   3 EE= -1302.20279281595     Delta-E=       -0.058586747931 Grad=2.132D-01 Max rot=    1.7322 deg.
 Gradient too large for Newton-Raphson -- use scaled steepest descent instead.
 Alpha Gap=     0.049 HL deriv= 5.43D-02
  Beta Gap=     0.049 HL deriv= 5.43D-02
     ILin= 1 X=0.000D+00 Y=-1.302202792816D+03 DE= 0.00D+00 F= -6.32D-02
 RMSU=  2.30D-03    CP:  1.28D+00  6.40D-01 -1.05D+00  1.63D+00  1.32D+00
                    CP: -3.00D+00
     ILin= 2 X=3.000D-01 Y=-1.302215695710D+03 DE=-1.29D-02 F= -2.27D-02
 RMSU=  3.15D-04    CP:  1.28D+00  5.69D-01 -1.21D+00  1.98D+00  2.62D+00
                    CP: -3.00D+00  1.99D+00
     ILin= 3 X=6.000D-01 Y=-1.302216350909D+03 DE=-1.36D-02 F=  1.85D-02
     Accept linear search using points  2 and  3.
     An  expanding polynomial of degree  3 produced  0.4494
 RMSU=  3.10D-07    CP:  1.28D+00  6.04D-01 -1.14D+00  1.80D+00  1.93D+00
                    CP: -3.00D+00  1.49D+00  3.73D-01
 Iteration   4 EE= -1302.21756648807     Delta-E=       -0.014773672124 Grad=1.170D-01 Max rot=    0.9528 deg.
 Gradient too large for Newton-Raphson -- use scaled steepest descent instead.
 Alpha Gap=     0.056 HL deriv= 3.73D-02
  Beta Gap=     0.056 HL deriv= 3.73D-02
     ILin= 1 X=0.000D+00 Y=-1.302217566488D+03 DE= 0.00D+00 F= -2.27D-02
 RMSU=  1.48D-03    CP:  1.24D+00  4.56D-01 -1.22D+00  1.95D+00  3.00D+00
                    CP: -3.00D+00  1.82D+00  6.81D-01 -3.00D+00
     ILin= 2 X=4.000D-01 Y=-1.302222049786D+03 DE=-4.48D-03 F=  1.83D-04
 RMSU=  1.22D-03    CP:  1.20D+00  3.24D-01 -1.20D+00  2.08D+00  3.00D+00
                    CP: -3.00D+00  2.13D+00  1.21D+00 -3.00D+00  2.20D+00
     ILin= 3 X=8.000D-01 Y=-1.302217489092D+03 DE= 7.74D-05 F=  2.25D-02
     An  expanding polynomial of degree  3 produced  0.3983
     Minimum is close to point  2 DX= -1.71D-03 DF= -8.28D-08 DXR=  4.30D-03 DFR=  1.85D-05 which will be used.
 Iteration   5 EE= -1302.22204978554     Delta-E=       -0.004483297463 Grad=6.676D-02 Max rot=    0.5446 deg.
 Gradient too large for Newton-Raphson -- use scaled steepest descent instead.
 Alpha Gap=     0.054 HL deriv= 3.45D-02
  Beta Gap=     0.054 HL deriv= 3.45D-02
     ILin= 1 X=0.000D+00 Y=-1.302222049786D+03 DE= 0.00D+00 F= -7.62D-03
 RMSU=  5.10D-04    CP:  1.21D+00  3.85D-01 -1.21D+00  1.90D+00  3.00D+00
                    CP: -3.00D+00  2.48D+00  1.43D+00 -3.00D+00  1.85D+00
                    CP:  3.78D-01
     ILin= 2 X=4.000D-01 Y=-1.302223734804D+03 DE=-1.69D-03 F= -7.89D-04
 RMSU=  2.95D-04    CP:  1.20D+00  3.19D-01 -1.17D+00  1.87D+00  3.00D+00
                    CP: -3.00D+00  3.00D+00  2.53D+00 -3.00D+00  2.68D+00
                    CP:  7.96D-01  1.96D+00
     ILin= 3 X=8.000D-01 Y=-1.302222669525D+03 DE=-6.20D-04 F=  6.13D-03
     An  expanding polynomial of degree  3 produced  0.4451
 RMSU=  6.95D-06    CP:  1.21D+00  3.78D-01 -1.20D+00  1.90D+00  3.00D+00
                    CP: -3.00D+00  2.56D+00  1.54D+00 -3.00D+00  1.95D+00
                    CP:  4.23D-01  1.11D+00  1.07D-02
 Iteration   6 EE= -1302.22375288580     Delta-E=       -0.001703100263 Grad=4.051D-02 Max rot=    0.2963 deg.
 Gradient too large for Newton-Raphson -- use scaled steepest descent instead.
 Alpha Gap=     0.056 HL deriv= 2.30D-02
  Beta Gap=     0.056 HL deriv= 2.30D-02
     ILin= 1 X=0.000D+00 Y=-1.302223752886D+03 DE= 0.00D+00 F= -3.49D-03
 RMSU=  2.16D-04    CP:  1.19D+00  3.06D-01 -1.15D+00  1.82D+00  3.00D+00
                    CP: -3.00D+00  2.78D+00  1.89D+00 -3.00D+00  2.80D+00
                    CP:  6.67D-01  1.86D+00  2.16D-01  3.00D+00
     ILin= 2 X=4.000D-01 Y=-1.302224490996D+03 DE=-7.38D-04 F= -2.03D-04
 RMSU=  9.31D-04    CP:  1.16D+00  2.40D-01 -1.08D+00  1.75D+00  3.00D+00
                    CP: -3.00D+00  2.99D+00  2.34D+00 -3.00D+00  3.00D+00
                    CP:  9.39D-01  2.57D+00  5.68D-01  3.00D+00  2.29D+00
     ILin= 3 X=8.000D-01 Y=-1.302223919311D+03 DE=-1.66D-04 F=  3.06D-03
     An  expanding polynomial of degree  3 produced  0.4254
     Minimum is close to point  2 DX=  2.54D-02 DF= -2.64D-06 DXR=  5.97D-02 DFR=  3.58D-03 which will be used.
 Iteration   7 EE= -1302.22449099643     Delta-E=       -0.000738110630 Grad=2.395D-02 Max rot=    0.1670 deg.
 Gradient too large for Newton-Raphson -- use scaled steepest descent instead.
 Alpha Gap=     0.056 HL deriv= 2.35D-02
  Beta Gap=     0.056 HL deriv= 2.35D-02
     ILin= 1 X=0.000D+00 Y=-1.302224490996D+03 DE= 0.00D+00 F= -1.42D-03
 RMSU=  1.26D-04    CP:  1.17D+00  2.65D-01 -1.11D+00  1.71D+00  3.00D+00
                    CP: -3.00D+00  3.00D+00  2.43D+00 -3.00D+00  3.00D+00
                    CP:  7.34D-01  2.85D+00  1.19D+00  3.00D+00  1.65D+00
                    CP:  6.18D-01
     ILin= 2 X=4.000D-01 Y=-1.302224847254D+03 DE=-3.56D-04 F= -3.59D-04
 RMSU=  6.68D-04    CP:  1.15D+00  2.16D-01 -1.04D+00  1.58D+00  3.00D+00
                    CP: -3.00D+00  3.00D+00  3.00D+00  3.00D+00  3.00D+00
                    CP:  8.31D-01  3.00D+00  3.00D+00  3.00D+00  2.00D+00
                    CP:  1.74D+00  3.00D+00
     ILin= 3 X=9.000D-01 Y=-1.302224692257D+03 DE=-2.01D-04 F=  9.80D-04
     An  expanding polynomial of degree  3 produced  0.5338
 RMSU=  5.76D-05    CP:  1.16D+00  2.51D-01 -1.09D+00  1.67D+00  3.00D+00
                    CP: -3.00D+00  3.00D+00  2.63D+00 -3.00D+00  3.00D+00
                    CP:  7.59D-01  3.00D+00  2.03D+00  3.00D+00  1.72D+00
                    CP:  9.20D-01  1.62D+00  1.10D-01
 Iteration   8 EE= -1302.22487133617     Delta-E=       -0.000380339736 Grad=1.802D-02 Max rot=    0.0888 deg.
 Gradient too large for Newton-Raphson -- use scaled steepest descent instead.
 Alpha Gap=     0.056 HL deriv= 1.55D-02
  Beta Gap=     0.056 HL deriv= 1.55D-02
     ILin= 1 X=0.000D+00 Y=-1.302224871336D+03 DE= 0.00D+00 F= -1.04D-03
 RMSU=  1.23D-04    CP:  1.15D+00  2.08D-01 -1.03D+00  1.56D+00  3.00D+00
                    CP: -3.00D+00  3.00D+00  2.90D+00  3.00D+00  3.00D+00
                    CP:  7.93D-01  3.00D+00  3.00D+00  3.00D+00  3.00D+00
                    CP:  1.87D+00  2.77D+00  7.08D-01  3.00D+00
     ILin= 2 X=5.000D-01 Y=-1.302225061674D+03 DE=-1.90D-04 F=  2.76D-04
     Accept linear search using points  1 and  2.
     An  expanding polynomial of degree  2 produced  0.2919
 Restarting incremental Fock formation.
 Iteration   9 EE= -1302.22506227109     Delta-E=       -0.000190934923 Grad=8.524D-03 Max rot=    0.0955 deg.
 SCF Done:  E(UB3LYP) =  -1302.22506227     a.u. after    9 cycles
            Convg  =    0.8524D-02                    21 Fock formations.
              S**2 = -0.0000                  -V/T =  2.0035
 <Sx>= 0.0000 <Sy>= 0.0000 <Sz>= 0.0000 <S**2>=-0.0000 S=-0.0000
 <L.S>=  0.00000000000    
 Annihilation of the first spin contaminant:
 S**2 before annihilation    -0.0000,   after     0.0000
 Leave Link  508 at Wed Dec 27 23:28:11 2023, MaxMem=  4026531840 cpu:            4688.5 elap:             587.4
 (Enter /sysapps/ubuntu-applications/gaussian/Gaussian/AVX2/g16/l502.exe)
 Two-electron integral symmetry not used.
 UHF open shell SCF:
 Using DIIS extrapolation, IDIIS=  1040.
 NGot=  4026531840 LenX=  4025909764 LenY=  4025602294
 Requested convergence on RMS density matrix=1.00D-08 within  32 cycles.
 Requested convergence on MAX density matrix=1.00D-06.
 Requested convergence on             energy=1.00D-06.
 No special actions if energy rises.
 Fock matrices will be formed incrementally for  20 cycles.

 Cycle   1  Pass 1  IDiag  1:
 FoFJK:  IHMeth= 1 ICntrl=       0 DoSepK=F KAlg= 0 I1Cent=           0 FoldK=F
 IRaf= 820000000 NMat=       1 IRICut=       1 DoRegI=T DoRafI=F ISym2E= 0 IDoP0=0 IntGTp=1.
 FoFCou: FMM=F IPFlag=           0 FMFlag=      100000 FMFlg1=           0
         NFxFlg=           0 DoJE=F BraDBF=F KetDBF=F FulRan=T
         wScrn=  0.000000 ICntrl=         0 IOpCl=  1 I1Cent=           0 NGrid=           0
         NMat0=    1 NMatS0=      1 NMatT0=    0 NMatD0=    1 NMtDS0=    0 NMtDT0=    0
 Symmetry not used in FoFCou.
 E= -1302.22506227109    
 DIIS: error= 6.53D-04 at cycle   1 NSaved=   1.
 NSaved= 1 IEnMin= 1 EnMin= -1302.22506227109     IErMin= 1 ErrMin= 6.53D-04
 ErrMax= 6.53D-04  0.00D+00 EMaxC= 1.00D-01 BMatC= 1.45D-04 BMatP= 1.45D-04
 IDIUse=3 WtCom= 9.93D-01 WtEn= 6.53D-03
 Coeff-Com:  0.100D+01
 Coeff-En:   0.100D+01
 Coeff:      0.100D+01
 Gap=     0.056 Goal=   None    Shift=    0.000
 Gap=     0.056 Goal=   None    Shift=    0.000
 RMSDP=9.06D-03 MaxDP=5.93D-01              OVMax= 5.83D-02

 Cycle   2  Pass 1  IDiag  1:
 RMSU=  7.55D-03    CP:  9.52D-01
 E= -1302.22535488599     Delta-E=       -0.000292614905 Rises=F Damp=F
 DIIS: error= 1.08D-03 at cycle   2 NSaved=   2.
 NSaved= 2 IEnMin= 2 EnMin= -1302.22535488599     IErMin= 1 ErrMin= 6.53D-04
 ErrMax= 1.08D-03  0.00D+00 EMaxC= 1.00D-01 BMatC= 5.56D-04 BMatP= 1.45D-04
 IDIUse=3 WtCom= 2.33D-01 WtEn= 7.67D-01
 Coeff-Com:  0.822D+00 0.178D+00
 Coeff-En:   0.000D+00 0.100D+01
 Coeff:      0.192D+00 0.808D+00
 Gap=     0.016 Goal=   None    Shift=    0.000
 Gap=     0.016 Goal=   None    Shift=    0.000
 RMSDP=1.36D-03 MaxDP=1.10D-01 DE=-2.93D-04 OVMax= 2.92D-02

 Cycle   3  Pass 1  IDiag  1:
 RMSU=  1.03D-03    CP:  9.47D-01  1.10D+00
 E= -1302.22475851161     Delta-E=        0.000596374382 Rises=F Damp=F
 DIIS: error= 2.27D-03 at cycle   3 NSaved=   3.
 NSaved= 3 IEnMin= 2 EnMin= -1302.22535488599     IErMin= 1 ErrMin= 6.53D-04
 ErrMax= 2.27D-03  0.00D+00 EMaxC= 1.00D-01 BMatC= 2.56D-03 BMatP= 1.45D-04
 IDIUse=3 WtCom= 1.73D-01 WtEn= 8.27D-01
 Coeff-Com:  0.233D-01 0.669D+00 0.308D+00
 Coeff-En:   0.000D+00 0.757D+00 0.243D+00
 Coeff:      0.404D-02 0.741D+00 0.255D+00
 Gap=     0.016 Goal=   None    Shift=    0.000
 Gap=     0.016 Goal=   None    Shift=    0.000
 RMSDP=4.99D-04 MaxDP=5.23D-02 DE= 5.96D-04 OVMax= 3.25D-02

 Cycle   4  Pass 1  IDiag  1:
 RMSU=  2.81D-04    CP:  9.46D-01  1.12D+00  6.40D-01
 E= -1302.22554870710     Delta-E=       -0.000790195491 Rises=F Damp=F
 DIIS: error= 3.16D-04 at cycle   4 NSaved=   4.
 NSaved= 4 IEnMin= 4 EnMin= -1302.22554870710     IErMin= 4 ErrMin= 3.16D-04
 ErrMax= 3.16D-04  0.00D+00 EMaxC= 1.00D-01 BMatC= 4.44D-05 BMatP= 1.45D-04
 IDIUse=3 WtCom= 9.97D-01 WtEn= 3.16D-03
 Coeff-Com: -0.597D-01 0.424D+00 0.150D+00 0.485D+00
 Coeff-En:   0.000D+00 0.000D+00 0.000D+00 0.100D+01
 Coeff:     -0.595D-01 0.423D+00 0.149D+00 0.487D+00
 Gap=     0.016 Goal=   None    Shift=    0.000
 Gap=     0.016 Goal=   None    Shift=    0.000
 RMSDP=2.21D-04 MaxDP=9.41D-03 DE=-7.90D-04 OVMax= 1.27D-02

 Cycle   5  Pass 1  IDiag  1:
 RMSU=  1.18D-04    CP:  9.46D-01  1.13D+00  6.32D-01  1.56D+00
 E= -1302.22556673166     Delta-E=       -0.000018024560 Rises=F Damp=F
 DIIS: error= 2.96D-04 at cycle   5 NSaved=   5.
 NSaved= 5 IEnMin= 5 EnMin= -1302.22556673166     IErMin= 5 ErrMin= 2.96D-04
 ErrMax= 2.96D-04  0.00D+00 EMaxC= 1.00D-01 BMatC= 4.89D-05 BMatP= 4.44D-05
 IDIUse=3 WtCom= 3.67D-01 WtEn= 6.33D-01
 Coeff-Com: -0.493D-02-0.198D+00 0.182D-01 0.220D+00 0.964D+00
 Coeff-En:   0.000D+00 0.000D+00 0.000D+00 0.217D+00 0.783D+00
 Coeff:     -0.181D-02-0.726D-01 0.669D-02 0.219D+00 0.849D+00
 Gap=     0.016 Goal=   None    Shift=    0.000
 Gap=     0.016 Goal=   None    Shift=    0.000
 RMSDP=3.43D-04 MaxDP=1.97D-02 DE=-1.80D-05 OVMax= 5.55D-03

 Cycle   6  Pass 1  IDiag  1:
 RMSU=  1.43D-04    CP:  9.46D-01  1.14D+00  8.70D-01  2.06D+00  1.89D+00
 E= -1302.22557751278     Delta-E=       -0.000010781118 Rises=F Damp=F
 DIIS: error= 2.40D-04 at cycle   6 NSaved=   6.
 NSaved= 6 IEnMin= 6 EnMin= -1302.22557751278     IErMin= 6 ErrMin= 2.40D-04
 ErrMax= 2.40D-04  0.00D+00 EMaxC= 1.00D-01 BMatC= 2.85D-05 BMatP= 4.44D-05
 IDIUse=3 WtCom= 9.98D-01 WtEn= 2.40D-03
 Coeff-Com:  0.713D-02-0.236D+00-0.707D-01 0.682D-01 0.714D+00 0.517D+00
 Coeff-En:   0.000D+00 0.000D+00 0.000D+00 0.000D+00 0.278D+00 0.722D+00
 Coeff:      0.711D-02-0.235D+00-0.705D-01 0.681D-01 0.713D+00 0.518D+00
 Gap=     0.016 Goal=   None    Shift=    0.000
 Gap=     0.016 Goal=   None    Shift=    0.000
 RMSDP=2.65D-04 MaxDP=1.09D-02 DE=-1.08D-05 OVMax= 9.72D-03

 Cycle   7  Pass 1  IDiag  1:
 RMSU=  4.45D-05    CP:  9.46D-01  1.15D+00  8.98D-01  2.78D+00  2.88D+00
                    CP:  1.72D+00
 E= -1302.22558946419     Delta-E=       -0.000011951415 Rises=F Damp=F
 DIIS: error= 8.95D-05 at cycle   7 NSaved=   7.
 NSaved= 7 IEnMin= 7 EnMin= -1302.22558946419     IErMin= 7 ErrMin= 8.95D-05
 ErrMax= 8.95D-05  0.00D+00 EMaxC= 1.00D-01 BMatC= 3.32D-06 BMatP= 2.85D-05
 IDIUse=1 WtCom= 1.00D+00 WtEn= 0.00D+00
 Coeff-Com:  0.808D-02-0.149D+00-0.365D-01-0.264D-01 0.323D+00 0.323D+00
 Coeff-Com:  0.558D+00
 Coeff:      0.808D-02-0.149D+00-0.365D-01-0.264D-01 0.323D+00 0.323D+00
 Coeff:      0.558D+00
 Gap=     0.016 Goal=   None    Shift=    0.000
 Gap=     0.016 Goal=   None    Shift=    0.000
 RMSDP=1.94D-04 MaxDP=8.80D-03 DE=-1.20D-05 OVMax= 2.78D-03

 Cycle   8  Pass 1  IDiag  1:
 RMSU=  9.47D-05    CP:  9.46D-01  1.15D+00  9.57D-01  3.00D+00  3.00D+00
                    CP:  2.37D+00  1.87D+00
 E= -1302.22559104499     Delta-E=       -0.000001580795 Rises=F Damp=F
 DIIS: error= 2.67D-05 at cycle   8 NSaved=   8.
 NSaved= 8 IEnMin= 8 EnMin= -1302.22559104499     IErMin= 8 ErrMin= 2.67D-05
 ErrMax= 2.67D-05  0.00D+00 EMaxC= 1.00D-01 BMatC= 4.27D-07 BMatP= 3.32D-06
 IDIUse=1 WtCom= 1.00D+00 WtEn= 0.00D+00
 Coeff-Com:  0.532D-02-0.609D-01-0.148D-02-0.365D-01 0.853D-01 0.762D-01
 Coeff-Com:  0.432D+00 0.500D+00
 Coeff:      0.532D-02-0.609D-01-0.148D-02-0.365D-01 0.853D-01 0.762D-01
 Coeff:      0.432D+00 0.500D+00
 Gap=     0.016 Goal=   None    Shift=    0.000
 Gap=     0.016 Goal=   None    Shift=    0.000
 RMSDP=1.76D-04 MaxDP=7.97D-03 DE=-1.58D-06 OVMax= 2.21D-03

 Cycle   9  Pass 1  IDiag  1:
 RMSU=  3.37D-05    CP:  9.46D-01  1.15D+00  9.95D-01  3.00D+00  3.00D+00
                    CP:  3.00D+00  2.73D+00  2.38D+00
 E= -1302.22559160050     Delta-E=       -0.000000555509 Rises=F Damp=F
 DIIS: error= 9.07D-06 at cycle   9 NSaved=   9.
 NSaved= 9 IEnMin= 9 EnMin= -1302.22559160050     IErMin= 9 ErrMin= 9.07D-06
 ErrMax= 9.07D-06  0.00D+00 EMaxC= 1.00D-01 BMatC= 3.91D-08 BMatP= 4.27D-07
 IDIUse=1 WtCom= 1.00D+00 WtEn= 0.00D+00
 Coeff-Com:  0.142D-02-0.964D-02 0.919D-02-0.189D-01-0.979D-02-0.385D-01
 Coeff-Com:  0.174D+00 0.287D+00 0.605D+00
 Coeff:      0.142D-02-0.964D-02 0.919D-02-0.189D-01-0.979D-02-0.385D-01
 Coeff:      0.174D+00 0.287D+00 0.605D+00
 Gap=     0.016 Goal=   None    Shift=    0.000
 Gap=     0.016 Goal=   None    Shift=    0.000
 RMSDP=1.93D-04 MaxDP=8.59D-03 DE=-5.56D-07 OVMax= 2.33D-03

 Cycle  10  Pass 1  IDiag  1:
 RMSU=  1.33D-04    CP:  9.47D-01  1.15D+00  1.03D+00  3.00D+00  3.00D+00
                    CP:  3.00D+00  3.00D+00  3.00D+00  2.83D+00
 E= -1302.22559205520     Delta-E=       -0.000000454706 Rises=F Damp=F
 DIIS: error= 9.11D-06 at cycle  10 NSaved=  10.
 NSaved=10 IEnMin=10 EnMin= -1302.22559205520     IErMin= 9 ErrMin= 9.07D-06
 ErrMax= 9.11D-06  0.00D+00 EMaxC= 1.00D-01 BMatC= 2.49D-08 BMatP= 3.91D-08
 IDIUse=1 WtCom= 1.00D+00 WtEn= 0.00D+00
 Coeff-Com:  0.209D-03 0.604D-02 0.627D-02 0.139D-02-0.132D-01-0.477D-01
 Coeff-Com:  0.100D-01 0.596D-01 0.420D+00 0.558D+00
 Coeff:      0.209D-03 0.604D-02 0.627D-02 0.139D-02-0.132D-01-0.477D-01
 Coeff:      0.100D-01 0.596D-01 0.420D+00 0.558D+00
 Gap=     0.015 Goal=   None    Shift=    0.000
 Gap=     0.015 Goal=   None    Shift=    0.000
 RMSDP=1.83D-04 MaxDP=8.10D-03 DE=-4.55D-07 OVMax= 2.16D-03

 Cycle  11  Pass 1  IDiag  1:
 RMSU=  6.77D-05    CP:  9.47D-01  1.16D+00  1.05D+00  3.00D+00  3.00D+00
                    CP:  3.00D+00  3.00D+00  3.00D+00  3.00D+00  2.24D+00
 E= -1302.22559247208     Delta-E=       -0.000000416870 Rises=F Damp=F
 DIIS: error= 8.93D-06 at cycle  11 NSaved=  11.
 NSaved=11 IEnMin=11 EnMin= -1302.22559247208     IErMin=11 ErrMin= 8.93D-06
 ErrMax= 8.93D-06  0.00D+00 EMaxC= 1.00D-01 BMatC= 1.47D-08 BMatP= 2.49D-08
 IDIUse=1 WtCom= 1.00D+00 WtEn= 0.00D+00
 Coeff-Com:  0.276D-04 0.548D-02 0.478D-02 0.391D-02-0.889D-02-0.402D-01
 Coeff-Com: -0.844D-02 0.367D-01 0.291D+00 0.463D+00 0.252D+00
 Coeff:      0.276D-04 0.548D-02 0.478D-02 0.391D-02-0.889D-02-0.402D-01
 Coeff:     -0.844D-02 0.367D-01 0.291D+00 0.463D+00 0.252D+00
 Gap=     0.015 Goal=   None    Shift=    0.000
 Gap=     0.015 Goal=   None    Shift=    0.000
 RMSDP=8.01D-05 MaxDP=3.55D-03 DE=-4.17D-07 OVMax= 9.35D-04

 Cycle  12  Pass 1  IDiag  1:
 RMSU=  2.57D-06    CP:  9.47D-01  1.16D+00  1.07D+00  3.00D+00  3.00D+00
                    CP:  3.00D+00  3.00D+00  3.00D+00  3.00D+00  2.78D+00
                    CP:  1.47D+00
 E= -1302.22559265172     Delta-E=       -0.000000179647 Rises=F Damp=F
 DIIS: error= 8.91D-06 at cycle  12 NSaved=  12.
 NSaved=12 IEnMin=12 EnMin= -1302.22559265172     IErMin=12 ErrMin= 8.91D-06
 ErrMax= 8.91D-06  0.00D+00 EMaxC= 1.00D-01 BMatC= 1.43D-08 BMatP= 1.47D-08
 IDIUse=1 WtCom= 1.00D+00 WtEn= 0.00D+00
 Coeff-Com:  0.754D-05 0.195D-02 0.221D-02 0.635D-02-0.576D-03-0.253D-01
 Coeff-Com: -0.273D-01 0.317D-01 0.103D+00 0.258D+00-0.865D+00 0.152D+01
 Coeff:      0.754D-05 0.195D-02 0.221D-02 0.635D-02-0.576D-03-0.253D-01
 Coeff:     -0.273D-01 0.317D-01 0.103D+00 0.258D+00-0.865D+00 0.152D+01
 Gap=     0.015 Goal=   None    Shift=    0.000
 Gap=     0.015 Goal=   None    Shift=    0.000
 RMSDP=2.34D-04 MaxDP=1.04D-02 DE=-1.80D-07 OVMax= 2.69D-03

 Cycle  13  Pass 1  IDiag  1:
 RMSU=  1.81D-04    CP:  9.47D-01  1.16D+00  1.10D+00  3.00D+00  3.00D+00
                    CP:  3.00D+00  3.00D+00  3.00D+00  3.00D+00  3.00D+00
                    CP:  2.84D+00  3.00D+00
 E= -1302.22559316937     Delta-E=       -0.000000517649 Rises=F Damp=F
 DIIS: error= 8.89D-06 at cycle  13 NSaved=  13.
 NSaved=13 IEnMin=13 EnMin= -1302.22559316937     IErMin=13 ErrMin= 8.89D-06
 ErrMax= 8.89D-06  0.00D+00 EMaxC= 1.00D-01 BMatC= 1.67D-08 BMatP= 1.43D-08
 IDIUse=1 WtCom= 1.00D+00 WtEn= 0.00D+00
 Coeff-Com: -0.461D-03 0.791D-02 0.368D-02 0.468D-02-0.644D-02-0.339D-01
 Coeff-Com: -0.152D-01-0.531D-01 0.201D+00 0.446D+00 0.304D+01-0.788D-01
 Coeff-Com: -0.252D+01
 Coeff:     -0.461D-03 0.791D-02 0.368D-02 0.468D-02-0.644D-02-0.339D-01
 Coeff:     -0.152D-01-0.531D-01 0.201D+00 0.446D+00 0.304D+01-0.788D-01
 Coeff:     -0.252D+01
 Gap=     0.016 Goal=   None    Shift=    0.000
 Gap=     0.016 Goal=   None    Shift=    0.000
 RMSDP=9.07D-04 MaxDP=4.01D-02 DE=-5.18D-07 OVMax= 1.08D-02

 Cycle  14  Pass 1  IDiag  1:
 RMSU=  1.41D-05    CP:  9.46D-01  1.15D+00  9.64D-01  3.00D+00  3.00D+00
                    CP:  2.17D+00  1.64D+00  6.66D-01 -2.07D-01  6.04D-03
                    CP: -1.37D-02 -5.17D-01  1.84D-04
 E= -1302.22559107763     Delta-E=        0.000002091740 Rises=F Damp=F
 DIIS: error= 9.10D-06 at cycle  14 NSaved=  14.
 NSaved=14 IEnMin=13 EnMin= -1302.22559316937     IErMin=13 ErrMin= 8.89D-06
 ErrMax= 9.10D-06  0.00D+00 EMaxC= 1.00D-01 BMatC= 3.31D-08 BMatP= 1.43D-08
 IDIUse=1 WtCom= 1.00D+00 WtEn= 0.00D+00
 Coeff-Com: -0.289D-03 0.279D-02 0.154D-02 0.409D-02-0.159D-02-0.194D-01
 Coeff-Com: -0.219D-01-0.217D-01 0.101D+00 0.225D+00 0.713D+00 0.322D+00
 Coeff-Com:  0.180D+00-0.484D+00
 Coeff:     -0.289D-03 0.279D-02 0.154D-02 0.409D-02-0.159D-02-0.194D-01
 Coeff:     -0.219D-01-0.217D-01 0.101D+00 0.225D+00 0.713D+00 0.322D+00
 Coeff:      0.180D+00-0.484D+00
 Gap=     0.015 Goal=   None    Shift=    0.000
 Gap=     0.015 Goal=   None    Shift=    0.000
 RMSDP=1.21D-03 MaxDP=5.38D-02 DE= 2.09D-06 OVMax= 1.42D-02

 Cycle  15  Pass 1  IDiag  1:
 RMSU=  1.12D-04    CP:  9.47D-01  1.16D+00  1.14D+00  3.00D+00  3.00D+00
                    CP:  3.00D+00  3.00D+00  3.00D+00  3.00D+00  3.00D+00
                    CP:  3.00D+00  3.00D+00  2.53D+00  9.63D-02
 E= -1302.22559383372     Delta-E=       -0.000002756087 Rises=F Damp=F
 DIIS: error= 8.78D-06 at cycle  15 NSaved=  15.
 NSaved=15 IEnMin=15 EnMin= -1302.22559383372     IErMin=15 ErrMin= 8.78D-06
 ErrMax= 8.78D-06  0.00D+00 EMaxC= 1.00D-01 BMatC= 3.42D-08 BMatP= 1.43D-08
 IDIUse=1 WtCom= 1.00D+00 WtEn= 0.00D+00
 Coeff-Com: -0.247D-04 0.881D-03 0.712D-03 0.193D-02-0.180D-02-0.886D-02
 Coeff-Com: -0.150D-01 0.900D-02 0.101D+00 0.597D-01-0.749D+00-0.506D+00
 Coeff-Com:  0.323D+01-0.236D+01 0.124D+01
 Coeff:     -0.247D-04 0.881D-03 0.712D-03 0.193D-02-0.180D-02-0.886D-02
 Coeff:     -0.150D-01 0.900D-02 0.101D+00 0.597D-01-0.749D+00-0.506D+00
 Coeff:      0.323D+01-0.236D+01 0.124D+01
 Gap=     0.014 Goal=   None    Shift=    0.000
 Gap=     0.014 Goal=   None    Shift=    0.000
 RMSDP=3.85D-03 MaxDP=2.28D-01 DE=-2.76D-06 OVMax= 3.55D-02

 Cycle  16  Pass 1  IDiag  1:
 RMSU=  3.63D-03    CP:  9.49D-01  1.20D+00  1.63D+00  3.00D+00  3.00D+00
                    CP:  3.00D+00  3.00D+00  3.00D+00  3.00D+00  3.00D+00
                    CP:  3.00D+00  3.00D+00  3.00D+00  3.00D+00  3.00D+00
 E= -1302.22560254913     Delta-E=       -0.000008715415 Rises=F Damp=F
 DIIS: error= 6.18D-05 at cycle  16 NSaved=  16.
 NSaved=16 IEnMin=16 EnMin= -1302.22560254913     IErMin=15 ErrMin= 8.78D-06
 ErrMax= 6.18D-05  0.00D+00 EMaxC= 1.00D-01 BMatC= 1.88D-06 BMatP= 1.43D-08
 IDIUse=1 WtCom= 1.00D+00 WtEn= 0.00D+00
 Coeff-Com: -0.202D-03 0.860D-03-0.844D-03 0.202D-02 0.194D-02 0.243D-02
 Coeff-Com: -0.196D-01-0.485D-01-0.646D-01-0.788D-01 0.387D+00 0.172D+00
 Coeff-Com:  0.614D+00-0.801D+00 0.904D+00-0.706D-01
 Coeff:     -0.202D-03 0.860D-03-0.844D-03 0.202D-02 0.194D-02 0.243D-02
 Coeff:     -0.196D-01-0.485D-01-0.646D-01-0.788D-01 0.387D+00 0.172D+00
 Coeff:      0.614D+00-0.801D+00 0.904D+00-0.706D-01
 Gap=     0.015 Goal=   None    Shift=    0.000
 Gap=     0.015 Goal=   None    Shift=    0.000
 RMSDP=3.02D-03 MaxDP=1.88D-01 DE=-8.72D-06 OVMax= 2.67D-02

 Cycle  17  Pass 1  IDiag  1:
 RMSU=  1.75D-04    CP:  9.47D-01  1.17D+00  1.26D+00  3.00D+00  3.00D+00
                    CP:  3.00D+00  3.00D+00  3.00D+00  3.00D+00  3.00D+00
                    CP:  3.00D+00  3.00D+00  3.00D+00  6.40D-01  3.00D+00
                    CP:  1.80D-01
 E= -1302.22559561293     Delta-E=        0.000006936199 Rises=F Damp=F
 DIIS: error= 1.63D-05 at cycle  17 NSaved=  17.
 NSaved=17 IEnMin=16 EnMin= -1302.22560254913     IErMin=15 ErrMin= 8.78D-06
 ErrMax= 1.63D-05  0.00D+00 EMaxC= 1.00D-01 BMatC= 1.46D-07 BMatP= 1.43D-08
 IDIUse=1 WtCom= 1.00D+00 WtEn= 0.00D+00
 Coeff-Com:  0.724D-05-0.452D-02-0.380D-02-0.359D-02 0.392D-02 0.326D-01
 Coeff-Com:  0.848D-02 0.796D-02-0.208D+00-0.362D+00-0.930D+00-0.159D+00
 Coeff-Com:  0.891D+00-0.464D+00 0.102D+01-0.507D+00 0.168D+01
 Coeff:      0.724D-05-0.452D-02-0.380D-02-0.359D-02 0.392D-02 0.326D-01
 Coeff:      0.848D-02 0.796D-02-0.208D+00-0.362D+00-0.930D+00-0.159D+00
 Coeff:      0.891D+00-0.464D+00 0.102D+01-0.507D+00 0.168D+01
 Gap=     0.015 Goal=   None    Shift=    0.000
 Gap=     0.015 Goal=   None    Shift=    0.000
 RMSDP=8.79D-04 MaxDP=4.89D-02 DE= 6.94D-06 OVMax= 8.48D-03

 Cycle  18  Pass 1  IDiag  1:
 RMSU=  6.61D-05    CP:  9.48D-01  1.18D+00  1.37D+00  3.00D+00  3.00D+00
                    CP:  3.00D+00  3.00D+00  3.00D+00  3.00D+00  3.00D+00
                    CP:  3.00D+00  3.00D+00  3.00D+00  1.78D+00  3.00D+00
                    CP:  4.18D-01  1.00D+00
 E= -1302.22559736066     Delta-E=       -0.000001747726 Rises=F Damp=F
 DIIS: error= 3.83D-05 at cycle  18 NSaved=  18.
 NSaved=18 IEnMin=16 EnMin= -1302.22560254913     IErMin=15 ErrMin= 8.78D-06
 ErrMax= 3.83D-05  0.00D+00 EMaxC= 1.00D-01 BMatC= 7.09D-07 BMatP= 1.43D-08
 IDIUse=1 WtCom= 1.00D+00 WtEn= 0.00D+00
 Coeff-Com:  0.590D-03-0.760D-02-0.582D-02 0.202D-03 0.314D-02 0.432D-01
 Coeff-Com: -0.125D-01 0.133D+00-0.234D+00-0.431D+00-0.443D+01 0.140D+00
 Coeff-Com:  0.383D+01-0.370D+00 0.558D+00-0.159D+01 0.141D+01 0.196D+01
 Coeff:      0.590D-03-0.760D-02-0.582D-02 0.202D-03 0.314D-02 0.432D-01
 Coeff:     -0.125D-01 0.133D+00-0.234D+00-0.431D+00-0.443D+01 0.140D+00
 Coeff:      0.383D+01-0.370D+00 0.558D+00-0.159D+01 0.141D+01 0.196D+01
 Gap=     0.015 Goal=   None    Shift=    0.000
 Gap=     0.015 Goal=   None    Shift=    0.000
 RMSDP=5.58D-04 MaxDP=3.40D-02 DE=-1.75D-06 OVMax= 4.97D-03

 Cycle  19  Pass 1  IDiag  1:
 RMSU=  2.06D-05    CP:  9.49D-01  1.18D+00  1.44D+00  3.00D+00  3.00D+00
                    CP:  3.00D+00  3.00D+00  3.00D+00  3.00D+00  3.00D+00
                    CP:  3.00D+00  3.00D+00  3.00D+00  3.00D+00  3.00D+00
                    CP:  5.69D-01  9.00D-01  1.28D+00
 E= -1302.22559786789     Delta-E=       -0.000000507229 Rises=F Damp=F
 DIIS: error= 6.98D-05 at cycle  19 NSaved=  19.
 NSaved=19 IEnMin=16 EnMin= -1302.22560254913     IErMin=15 ErrMin= 8.78D-06
 ErrMax= 6.98D-05  0.00D+00 EMaxC= 1.00D-01 BMatC= 2.43D-06 BMatP= 1.43D-08
 IDIUse=1 WtCom= 1.00D+00 WtEn= 0.00D+00
 Coeff-Com:  0.651D-03-0.589D-02-0.191D-02 0.168D-02 0.425D-03 0.104D-01
 Coeff-Com: -0.221D-01 0.147D+00 0.421D-01-0.154D+00-0.454D+01-0.233D+00
 Coeff-Com:  0.632D+01-0.183D+01 0.121D+01-0.196D+01-0.422D+00 0.144D+01
 Coeff-Com:  0.101D+01
 Coeff:      0.651D-03-0.589D-02-0.191D-02 0.168D-02 0.425D-03 0.104D-01
 Coeff:     -0.221D-01 0.147D+00 0.421D-01-0.154D+00-0.454D+01-0.233D+00
 Coeff:      0.632D+01-0.183D+01 0.121D+01-0.196D+01-0.422D+00 0.144D+01
 Coeff:      0.101D+01
 Gap=     0.015 Goal=   None    Shift=    0.000
 Gap=     0.015 Goal=   None    Shift=    0.000
 RMSDP=7.11D-04 MaxDP=4.27D-02 DE=-5.07D-07 OVMax= 6.51D-03

 Cycle  20  Pass 1  IDiag  1:
 RMSU=  6.24D-06    CP:  9.48D-01  1.18D+00  1.35D+00  3.00D+00  3.00D+00
                    CP:  3.00D+00  3.00D+00  3.00D+00  3.00D+00  3.00D+00
                    CP:  3.00D+00  3.00D+00  3.00D+00  2.79D+00  3.00D+00
                    CP:  3.76D-01  1.08D+00  1.14D+00  1.90D+00
 E= -1302.22559592522     Delta-E=        0.000001942667 Rises=F Damp=F
 DIIS: error= 7.64D-05 at cycle  20 NSaved=  20.
 NSaved=20 IEnMin=16 EnMin= -1302.22560254913     IErMin=15 ErrMin= 8.78D-06
 ErrMax= 7.64D-05  0.00D+00 EMaxC= 1.00D-01 BMatC= 2.82D-06 BMatP= 1.43D-08
 IDIUse=1 WtCom= 1.00D+00 WtEn= 0.00D+00
 Coeff-Com:  0.283D-03-0.354D-02-0.474D-03 0.240D-03 0.302D-02 0.257D-02
 Coeff-Com: -0.256D-01 0.447D-01 0.383D-01-0.201D+00-0.356D+01-0.491D+00
 Coeff-Com:  0.689D+01-0.337D+01 0.246D+01-0.130D+01-0.125D+00-0.788D+00
 Coeff-Com:  0.308D+00 0.111D+01
 Coeff:      0.283D-03-0.354D-02-0.474D-03 0.240D-03 0.302D-02 0.257D-02
 Coeff:     -0.256D-01 0.447D-01 0.383D-01-0.201D+00-0.356D+01-0.491D+00
 Coeff:      0.689D+01-0.337D+01 0.246D+01-0.130D+01-0.125D+00-0.788D+00
 Coeff:      0.308D+00 0.111D+01
 Gap=     0.015 Goal=   None    Shift=    0.000
 Gap=     0.015 Goal=   None    Shift=    0.000
 RMSDP=7.12D-04 MaxDP=4.24D-02 DE= 1.94D-06 OVMax= 6.44D-03

 Cycle  21  Pass 1  IDiag  1:
 Restarting incremental Fock formation.
 E= -1302.22559712092     Delta-E=       -0.000001195696 Rises=F Damp=F
 DIIS: error= 8.93D-05 at cycle  21 NSaved=  20.
 NSaved=20 IEnMin=15 EnMin= -1302.22560254913     IErMin=14 ErrMin= 8.78D-06
 ErrMax= 8.93D-05  0.00D+00 EMaxC= 1.00D-01 BMatC= 3.87D-06 BMatP= 1.43D-08
 IDIUse=1 WtCom= 1.00D+00 WtEn= 0.00D+00
 Coeff-Com:  0.156D-03-0.286D-02-0.673D-03 0.565D-02 0.146D-02-0.126D-01
 Coeff-Com: -0.115D-01-0.247D-01-0.173D+00-0.221D+01 0.111D+00 0.448D+01
 Coeff-Com: -0.233D+01 0.220D+01-0.102D+01 0.430D+00-0.183D+01-0.323D+00
 Coeff-Com:  0.104D+01 0.682D+00
 Coeff:      0.156D-03-0.286D-02-0.673D-03 0.565D-02 0.146D-02-0.126D-01
 Coeff:     -0.115D-01-0.247D-01-0.173D+00-0.221D+01 0.111D+00 0.448D+01
 Coeff:     -0.233D+01 0.220D+01-0.102D+01 0.430D+00-0.183D+01-0.323D+00
 Coeff:      0.104D+01 0.682D+00
 Gap=     0.015 Goal=   None    Shift=    0.000
 Gap=     0.015 Goal=   None    Shift=    0.000
 RMSDP=2.37D-03 MaxDP=1.27D-01 DE=-1.20D-06 OVMax= 2.34D-02

 Cycle  22  Pass 1  IDiag  1:
 RMSU=  2.36D-03    CP:  9.97D-01
 E= -1302.22559266347     Delta-E=        0.000004457453 Rises=F Damp=F
 DIIS: error= 6.30D-05 at cycle  22 NSaved=  20.
 NSaved=20 IEnMin=14 EnMin= -1302.22560254913     IErMin=13 ErrMin= 8.78D-06
 ErrMax= 6.30D-05  0.00D+00 EMaxC= 1.00D-01 BMatC= 1.91D-06 BMatP= 1.43D-08
 IDIUse=1 WtCom= 1.00D+00 WtEn= 0.00D+00
 Coeff-Com: -0.254D-02-0.568D-03 0.485D-02 0.180D-02-0.169D-01 0.171D-02
 Coeff-Com: -0.692D-02-0.178D+00-0.226D+01-0.132D+00 0.474D+01-0.234D+01
 Coeff-Com:  0.224D+01-0.128D+01 0.409D+00-0.156D+01-0.134D+00 0.124D+01
 Coeff-Com:  0.792D+00-0.521D+00
 Coeff:     -0.254D-02-0.568D-03 0.485D-02 0.180D-02-0.169D-01 0.171D-02
 Coeff:     -0.692D-02-0.178D+00-0.226D+01-0.132D+00 0.474D+01-0.234D+01
 Coeff:      0.224D+01-0.128D+01 0.409D+00-0.156D+01-0.134D+00 0.124D+01
 Coeff:      0.792D+00-0.521D+00
 Gap=     0.015 Goal=   None    Shift=    0.000
 Gap=     0.015 Goal=   None    Shift=    0.000
 RMSDP=6.31D-04 MaxDP=2.87D-02 DE= 4.46D-06 OVMax= 6.78D-03

 Cycle  23  Pass 1  IDiag  1:
 RMSU=  6.33D-05    CP:  9.98D-01  7.35D-01
 E= -1302.22559394578     Delta-E=       -0.000001282312 Rises=F Damp=F
 DIIS: error= 6.58D-05 at cycle  23 NSaved=  20.
 NSaved=20 IEnMin=13 EnMin= -1302.22560254913     IErMin=12 ErrMin= 8.78D-06
 ErrMax= 6.58D-05  0.00D+00 EMaxC= 1.00D-01 BMatC= 2.09D-06 BMatP= 1.43D-08
 IDIUse=1 WtCom= 1.00D+00 WtEn= 0.00D+00
 Coeff-Com: -0.149D-03-0.344D-04 0.126D-02-0.193D-01-0.708D-02-0.567D-01
 Coeff-Com: -0.169D+00-0.185D+01 0.224D-01 0.339D+01-0.135D+01 0.178D+01
 Coeff-Com: -0.133D+01 0.880D+00-0.158D+01-0.408D+00 0.105D+01 0.747D+00
 Coeff-Com: -0.295D+01 0.283D+01
 Coeff:     -0.149D-03-0.344D-04 0.126D-02-0.193D-01-0.708D-02-0.567D-01
 Coeff:     -0.169D+00-0.185D+01 0.224D-01 0.339D+01-0.135D+01 0.178D+01
 Coeff:     -0.133D+01 0.880D+00-0.158D+01-0.408D+00 0.105D+01 0.747D+00
 Coeff:     -0.295D+01 0.283D+01
 Gap=     0.015 Goal=   None    Shift=    0.000
 Gap=     0.015 Goal=   None    Shift=    0.000
 RMSDP=1.78D-04 MaxDP=8.53D-03 DE=-1.28D-06 OVMax= 1.86D-03

 Cycle  24  Pass 1  IDiag  1:
 RMSU=  3.15D-06    CP:  9.98D-01  8.10D-01  7.96D-01
 E= -1302.22559362573     Delta-E=        0.000000320047 Rises=F Damp=F
 DIIS: error= 6.37D-05 at cycle  24 NSaved=  20.
 NSaved=20 IEnMin=12 EnMin= -1302.22560254913     IErMin=11 ErrMin= 8.78D-06
 ErrMax= 6.37D-05  0.00D+00 EMaxC= 1.00D-01 BMatC= 1.95D-06 BMatP= 1.43D-08
 IDIUse=1 WtCom= 1.00D+00 WtEn= 0.00D+00
 Coeff-Com: -0.361D-03 0.163D-02-0.103D-01-0.557D-02-0.718D-01-0.155D+00
 Coeff-Com: -0.187D+01 0.176D+00 0.289D+01-0.100D+01 0.153D+01-0.112D+01
 Coeff-Com:  0.114D+01-0.174D+01-0.760D+00 0.778D+00 0.468D+00-0.494D+01
 Coeff-Com:  0.453D+01 0.115D+01
 Coeff:     -0.361D-03 0.163D-02-0.103D-01-0.557D-02-0.718D-01-0.155D+00
 Coeff:     -0.187D+01 0.176D+00 0.289D+01-0.100D+01 0.153D+01-0.112D+01
 Coeff:      0.114D+01-0.174D+01-0.760D+00 0.778D+00 0.468D+00-0.494D+01
 Coeff:      0.453D+01 0.115D+01
 Gap=     0.015 Goal=   None    Shift=    0.000
 Gap=     0.015 Goal=   None    Shift=    0.000
 RMSDP=7.47D-05 MaxDP=3.46D-03 DE= 3.20D-07 OVMax= 7.84D-04

 Cycle  25  Pass 1  IDiag  1:
 RMSU=  1.68D-06    CP:  9.98D-01  7.78D-01  8.88D-01  1.21D+00
 E= -1302.22559377330     Delta-E=       -0.000000147566 Rises=F Damp=F
 DIIS: error= 6.41D-05 at cycle  25 NSaved=  20.
 NSaved=20 IEnMin=11 EnMin= -1302.22560254913     IErMin=10 ErrMin= 8.78D-06
 ErrMax= 6.41D-05  0.00D+00 EMaxC= 1.00D-01 BMatC= 1.98D-06 BMatP= 1.43D-08
 IDIUse=1 WtCom= 1.00D+00 WtEn= 0.00D+00
 Coeff-Com:  0.180D-02-0.853D-02-0.101D-01-0.778D-01-0.152D+00-0.180D+01
 Coeff-Com:  0.193D+00 0.272D+01-0.939D+00 0.149D+01-0.105D+01 0.121D+01
 Coeff-Com: -0.180D+01-0.853D+00 0.715D+00 0.385D+00-0.537D+01 0.481D+01
 Coeff-Com:  0.118D+01 0.364D+00
 Coeff:      0.180D-02-0.853D-02-0.101D-01-0.778D-01-0.152D+00-0.180D+01
 Coeff:      0.193D+00 0.272D+01-0.939D+00 0.149D+01-0.105D+01 0.121D+01
 Coeff:     -0.180D+01-0.853D+00 0.715D+00 0.385D+00-0.537D+01 0.481D+01
 Coeff:      0.118D+01 0.364D+00
 Gap=     0.015 Goal=   None    Shift=    0.000
 Gap=     0.015 Goal=   None    Shift=    0.000
 RMSDP=1.91D-06 MaxDP=7.88D-05 DE=-1.48D-07 OVMax= 1.84D-05

 Cycle  26  Pass 1  IDiag  1:
 RMSU=  1.35D-07    CP:  9.98D-01  7.78D-01  8.91D-01  1.30D+00  1.43D+00
 E= -1302.22559377530     Delta-E=       -0.000000001999 Rises=F Damp=F
 DIIS: error= 6.41D-05 at cycle  26 NSaved=  20.
 NSaved=20 IEnMin=10 EnMin= -1302.22560254913     IErMin= 9 ErrMin= 8.78D-06
 ErrMax= 6.41D-05  0.00D+00 EMaxC= 1.00D-01 BMatC= 1.98D-06 BMatP= 1.43D-08
 IDIUse=1 WtCom= 1.00D+00 WtEn= 0.00D+00
 Coeff-Com: -0.613D-02-0.135D-01-0.347D-01-0.122D+00-0.142D+01-0.215D-01
 Coeff-Com:  0.268D+01-0.104D+01 0.155D+01-0.107D+01 0.111D+01-0.186D+01
 Coeff-Com: -0.773D+00 0.809D+00 0.491D+00-0.488D+01 0.468D+01 0.168D+01
 Coeff-Com:  0.222D+01-0.298D+01
 Coeff:     -0.613D-02-0.135D-01-0.347D-01-0.122D+00-0.142D+01-0.215D-01
 Coeff:      0.268D+01-0.104D+01 0.155D+01-0.107D+01 0.111D+01-0.186D+01
 Coeff:     -0.773D+00 0.809D+00 0.491D+00-0.488D+01 0.468D+01 0.168D+01
 Coeff:      0.222D+01-0.298D+01
 Gap=     0.015 Goal=   None    Shift=    0.000
 Gap=     0.015 Goal=   None    Shift=    0.000
 RMSDP=2.13D-04 MaxDP=9.84D-03 DE=-2.00D-09 OVMax= 2.26D-03

 Cycle  27  Pass 1  IDiag  1:
 RMSU=  4.45D-07    CP:  9.98D-01  8.67D-01  5.99D-01  1.11D+00 -3.15D-02
                    CP: -2.88D+00
 E= -1302.22559336760     Delta-E=        0.000000407693 Rises=F Damp=F
 DIIS: error= 6.24D-05 at cycle  27 NSaved=  20.
 NSaved=20 IEnMin= 9 EnMin= -1302.22560254913     IErMin= 8 ErrMin= 8.78D-06
 ErrMax= 6.24D-05  0.00D+00 EMaxC= 1.00D-01 BMatC= 1.87D-06 BMatP= 1.43D-08
 IDIUse=1 WtCom= 1.00D+00 WtEn= 0.00D+00
 Coeff-Com: -0.130D-01-0.290D-01-0.126D+00-0.129D+01-0.639D-01 0.250D+01
 Coeff-Com: -0.938D+00 0.147D+01-0.101D+01 0.119D+01-0.193D+01-0.851D+00
 Coeff-Com:  0.768D+00 0.448D+00-0.538D+01 0.517D+01 0.211D+01 0.367D+01
 Coeff-Com: -0.526D+01 0.580D+00
 Coeff:     -0.130D-01-0.290D-01-0.126D+00-0.129D+01-0.639D-01 0.250D+01
 Coeff:     -0.938D+00 0.147D+01-0.101D+01 0.119D+01-0.193D+01-0.851D+00
 Coeff:      0.768D+00 0.448D+00-0.538D+01 0.517D+01 0.211D+01 0.367D+01
 Coeff:     -0.526D+01 0.580D+00
 Gap=     0.015 Goal=   None    Shift=    0.000
 Gap=     0.015 Goal=   None    Shift=    0.000
 RMSDP=9.63D-05 MaxDP=4.29D-03 DE= 4.08D-07 OVMax= 1.04D-03

 Cycle  28  Pass 1  IDiag  1:
 RMSU=  4.10D-07    CP:  9.97D-01  9.08D-01  4.35D-01  1.03D+00 -6.76D-01
                    CP: -3.00D+00  1.28D+00
 E= -1302.22559317758     Delta-E=        0.000000190021 Rises=F Damp=F
 DIIS: error= 6.18D-05 at cycle  28 NSaved=  20.
 NSaved=20 IEnMin= 8 EnMin= -1302.22560254913     IErMin= 7 ErrMin= 8.78D-06
 ErrMax= 6.18D-05  0.00D+00 EMaxC= 1.00D-01 BMatC= 1.84D-06 BMatP= 1.43D-08
 IDIUse=1 WtCom= 1.00D+00 WtEn= 0.00D+00
 Coeff-Com: -0.406D-02-0.112D+00-0.132D+01-0.154D+00 0.254D+01-0.916D+00
 Coeff-Com:  0.142D+01-0.106D+01 0.118D+01-0.181D+01-0.811D+00 0.755D+00
 Coeff-Com:  0.392D+00-0.536D+01 0.529D+01 0.239D+01 0.457D+01-0.677D+01
 Coeff-Com:  0.322D+01-0.244D+01
 Coeff:     -0.406D-02-0.112D+00-0.132D+01-0.154D+00 0.254D+01-0.916D+00
 Coeff:      0.142D+01-0.106D+01 0.118D+01-0.181D+01-0.811D+00 0.755D+00
 Coeff:      0.392D+00-0.536D+01 0.529D+01 0.239D+01 0.457D+01-0.677D+01
 Coeff:      0.322D+01-0.244D+01
 Gap=     0.015 Goal=   None    Shift=    0.000
 Gap=     0.015 Goal=   None    Shift=    0.000
 RMSDP=1.34D-04 MaxDP=6.04D-03 DE= 1.90D-07 OVMax= 1.44D-03

 Cycle  29  Pass 1  IDiag  1:
 RMSU=  1.59D-07    CP:  9.98D-01  8.52D-01  6.55D-01  1.03D+00 -5.27D-01
                    CP: -3.00D+00  7.72D-01  8.04D-01
 E= -1302.22559343875     Delta-E=       -0.000000261170 Rises=F Damp=F
 DIIS: error= 6.27D-05 at cycle  29 NSaved=  20.
 NSaved=20 IEnMin= 7 EnMin= -1302.22560254913     IErMin= 6 ErrMin= 8.78D-06
 ErrMax= 6.27D-05  0.00D+00 EMaxC= 1.00D-01 BMatC= 1.89D-06 BMatP= 1.43D-08
 IDIUse=1 WtCom= 1.00D+00 WtEn= 0.00D+00
 Coeff-Com: -0.524D-01-0.113D+00-0.115D+01 0.441D+00 0.118D+01 0.950D+00
 Coeff-Com: -0.984D+00 0.138D+01-0.181D+01-0.102D+01 0.516D+00 0.222D+00
 Coeff-Com: -0.560D+01 0.553D+01 0.217D+01 0.386D+01-0.521D+01 0.723D+01
 Coeff-Com: -0.877D+01 0.222D+01
 Coeff:     -0.524D-01-0.113D+00-0.115D+01 0.441D+00 0.118D+01 0.950D+00
 Coeff:     -0.984D+00 0.138D+01-0.181D+01-0.102D+01 0.516D+00 0.222D+00
 Coeff:     -0.560D+01 0.553D+01 0.217D+01 0.386D+01-0.521D+01 0.723D+01
 Coeff:     -0.877D+01 0.222D+01
 Gap=     0.015 Goal=   None    Shift=    0.000
 Gap=     0.015 Goal=   None    Shift=    0.000
 RMSDP=7.60D-04 MaxDP=3.39D-02 DE=-2.61D-07 OVMax= 8.44D-03

 Cycle  30  Pass 1  IDiag  1:
 RMSU=  2.37D-06    CP:  9.97D-01  1.17D+00 -1.14D+00  2.92D+00  1.11D+00
                    CP:  3.00D+00  1.79D+00 -8.57D-01 -3.00D+00
 E= -1302.22559186196     Delta-E=        0.000001576797 Rises=F Damp=F
 DIIS: error= 6.01D-05 at cycle  30 NSaved=  20.
 NSaved=20 IEnMin= 6 EnMin= -1302.22560254913     IErMin= 5 ErrMin= 8.78D-06
 ErrMax= 6.01D-05  0.00D+00 EMaxC= 1.00D-01 BMatC= 1.74D-06 BMatP= 1.43D-08
 IDIUse=1 WtCom= 1.00D+00 WtEn= 0.00D+00
 Coeff-Com:  0.451D-01-0.840D+00 0.108D-01 0.974D+00 0.850D+00-0.110D+01
 Coeff-Com:  0.118D+01-0.124D+01-0.809D+00 0.363D+00 0.413D-01-0.540D+01
 Coeff-Com:  0.490D+01 0.146D+01 0.454D+00 0.749D+00-0.134D+01 0.310D+01
 Coeff-Com: -0.583D+00-0.182D+01
 Coeff:      0.451D-01-0.840D+00 0.108D-01 0.974D+00 0.850D+00-0.110D+01
 Coeff:      0.118D+01-0.124D+01-0.809D+00 0.363D+00 0.413D-01-0.540D+01
 Coeff:      0.490D+01 0.146D+01 0.454D+00 0.749D+00-0.134D+01 0.310D+01
 Coeff:     -0.583D+00-0.182D+01
 Gap=     0.015 Goal=   None    Shift=    0.000
 Gap=     0.015 Goal=   None    Shift=    0.000
 RMSDP=4.36D-04 MaxDP=1.95D-02 DE= 1.58D-06 OVMax= 4.92D-03

 Cycle  31  Pass 1  IDiag  1:
 RMSU=  4.17D-07    CP:  9.97D-01  9.87D-01  5.07D-02  1.56D+00 -6.16D-01
                    CP: -3.00D+00  4.25D-01  2.98D+00  9.57D-01  9.03D-02
 E= -1302.22559277725     Delta-E=       -0.000000915295 Rises=F Damp=F
 DIIS: error= 6.12D-05 at cycle  31 NSaved=  20.
 NSaved=20 IEnMin= 5 EnMin= -1302.22560254913     IErMin= 4 ErrMin= 8.78D-06
 ErrMax= 6.12D-05  0.00D+00 EMaxC= 1.00D-01 BMatC= 1.82D-06 BMatP= 1.43D-08
 IDIUse=1 WtCom= 1.00D+00 WtEn= 0.00D+00
 Coeff-Com: -0.649D+00 0.918D-01 0.604D+00 0.745D+00-0.866D+00 0.121D+01
 Coeff-Com: -0.120D+01-0.897D+00 0.123D+00-0.408D+00-0.446D+01 0.406D+01
 Coeff-Com:  0.183D+01 0.337D+01-0.325D+01 0.429D+01-0.273D+01 0.192D+01
 Coeff-Com: -0.405D+01 0.126D+01
 Coeff:     -0.649D+00 0.918D-01 0.604D+00 0.745D+00-0.866D+00 0.121D+01
 Coeff:     -0.120D+01-0.897D+00 0.123D+00-0.408D+00-0.446D+01 0.406D+01
 Coeff:      0.183D+01 0.337D+01-0.325D+01 0.429D+01-0.273D+01 0.192D+01
 Coeff:     -0.405D+01 0.126D+01
 Gap=     0.015 Goal=   None    Shift=    0.000
 Gap=     0.015 Goal=   None    Shift=    0.000
 RMSDP=7.57D-04 MaxDP=3.54D-02 DE=-9.15D-07 OVMax= 8.04D-03

 Cycle  32  Pass 1  IDiag  1:
 RMSU=  2.61D-06    CP:  9.98D-01  6.69D-01  1.11D+00  5.85D-02 -2.19D+00
                    CP: -3.00D+00  6.39D-01  3.00D+00 -4.88D-01 -4.56D-01
                    CP:  1.68D+00
 E= -1302.22559427629     Delta-E=       -0.000001499043 Rises=F Damp=F
 DIIS: error= 6.59D-05 at cycle  32 NSaved=  20.
 NSaved=20 IEnMin= 5 EnMin= -1302.22560254913     IErMin= 4 ErrMin= 8.78D-06
 ErrMax= 6.59D-05  0.00D+00 EMaxC= 1.00D-01 BMatC= 2.11D-06 BMatP= 1.43D-08
 IDIUse=1 WtCom= 1.00D+00 WtEn= 0.00D+00
 Coeff-Com: -0.932D+00 0.106D+00 0.115D+01 0.936D+00-0.110D+01 0.127D+01
 Coeff-Com: -0.155D+01-0.894D+00 0.496D+00 0.238D+00-0.522D+01 0.517D+01
 Coeff-Com:  0.189D+01 0.219D+01-0.244D+01 0.587D+01-0.780D+01 0.167D+01
 Coeff-Com: -0.104D+00 0.784D-01
 Coeff:     -0.932D+00 0.106D+00 0.115D+01 0.936D+00-0.110D+01 0.127D+01
 Coeff:     -0.155D+01-0.894D+00 0.496D+00 0.238D+00-0.522D+01 0.517D+01
 Coeff:      0.189D+01 0.219D+01-0.244D+01 0.587D+01-0.780D+01 0.167D+01
 Coeff:     -0.104D+00 0.784D-01
 Gap=     0.015 Goal=   None    Shift=    0.000
 Gap=     0.015 Goal=   None    Shift=    0.000
 RMSDP=1.21D-03 MaxDP=5.42D-02 DE=-1.50D-06 OVMax= 1.32D-02

 >>>>>>>>>> Convergence criterion not met.
[...]
 94,0.00002339,-0.00000857,-0.00006276,0.00001123,0.00002894,0.00016161
 ,-0.00020416,0.00030290,-0.00022757,0.00041368,-0.00013039,-0.00000479
 ,-0.00001952,-0.00001513,0.00000244,0.00000835,-0.00000441,-0.00191820
 ,-0.00034148,-0.00172549,0.05632263,0.08358631,-0.00017059,0.00011907,
 0.00020807,0.00020974,0.00023814,-0.00015840,0.00002597,-0.00019708,0.
 00019240,0.00004020,-0.00052386,-0.00110548,0.00027512,-0.00017453,0.0
 0012738,0.00000161,0.00000842,0.00004393,0.00030593,0.00045228,0.00006
 082,0.00297318,0.00112599,0.00526025,-0.00059045,-0.00069772,0.0004705
 0,-0.00027887,0.00015604,-0.00060503,0.00408200,0.00380301,-0.00415786
 ,0.12508225,0.07362260,-0.16020661,0.00934781,0.00040473,-0.00822560,-
 0.00038981,0.00435676,0.00203047,-0.00005259,0.00003032,0.00003795,-0.
 00007235,0.00010487,-0.00007859,-0.00006749,-0.00003849,0.00018793,0.0
 0010316,-0.00006737,-0.00015975,0.00016122,0.00043714,0.00005502,0.000
 19231,-0.00046164,0.00011671,-0.00001713,-0.00000300,-0.00001427,0.000
 01267,-0.00000858,-0.00000003,-0.00219368,-0.00229944,-0.00218938,-0.1
 3843282,-0.08016811,0.16882754,0.00016906,0.00008747,-0.00004199,0.000
 05134,-0.00029115,0.00025423,-0.00025269,0.00033842,0.00001885,-0.0001
 5635,-0.00029213,0.00041871,-0.00122111,-0.00022459,0.00006584,0.00023
 483,0.00016548,-0.00018830,-0.00016441,0.00018971,-0.00056523,0.000484
 28,-0.00107665,0.00016594,0.00200322,-0.00121418,0.00514024,-0.0002857
 9,0.00092840,-0.00002145,0.00255089,0.00213842,0.00007547,-0.00328142,
 -0.00079338,0.00190619,-0.21895799,0.12069622,0.06053767,-0.01525116,0
 .01362166,0.00305274,-0.00005874,-0.00000959,-0.00005588,0.00014179,-0
 .00021086,0.00008350,-0.00002039,0.00016249,-0.00014861,-0.00001230,0.
 00005805,0.00001518,-0.00009868,-0.00038177,0.00026373,0.00000672,0.00
 044827,-0.00003536,-0.00000079,-0.00002912,0.00000293,-0.00001837,-0.0
 0000739,-0.00000511,-0.00009621,0.00008407,0.00038425,0.00014518,-0.00
 000216,-0.00137579,0.23463829,-0.00003332,-0.00003732,0.00002242,-0.00
 002650,0.00010665,-0.00010806,0.00008416,-0.00007810,0.00014292,0.0001
 8372,0.00014572,-0.00003995,-0.00029489,-0.00041717,-0.00041010,0.0000
 0520,0.00009701,0.00013277,0.00011570,-0.00060270,-0.00016090,-0.00092
 852,0.00022803,0.00034457,-0.00009452,0.00136759,0.00439638,0.00019471
 ,0.00068489,-0.00029127,0.00022411,-0.00377304,0.00512956,0.02263258,-
 0.00963256,-0.01076051,0.12076679,-0.12594416,-0.02185762,-0.00950744,
 0.00802206,0.00245223,0.00002741,-0.00000020,-0.00000240,-0.00005775,0
 .00009195,0.00001972,-0.00006388,-0.00004475,0.00005681,0.00005138,-0.
 00004176,-0.00007556,0.00012479,0.00045534,-0.00042480,0.00013449,-0.0
 0030285,0.00032822,-0.00001414,0.00003645,-0.00000709,0.00001640,-0.00
 001745,-0.00002163,0.00114933,-0.00034117,-0.00026675,-0.00126992,0.00
 036235,-0.00046108,-0.13248125,0.12997215,-0.00004695,0.00000924,0.000
 07469,-0.00001181,0.00013147,-0.00009299,0.00023320,-0.00007098,0.0000
 4350,0.00015215,0.00025318,-0.00000662,0.00008190,-0.00042090,-0.00113
 486,-0.00000007,-0.00003132,0.00027098,-0.00049967,-0.00020883,-0.0002
 6470,0.00006035,0.00044799,-0.00060308,0.00442831,0.00518068,0.0017255
 5,0.00044857,-0.00079641,0.00067672,0.00127611,0.00376956,0.00127787,-
 0.01294587,0.00584591,0.00415502,0.06047711,-0.02179885,-0.05447997,0.
 01773119,-0.01394601,-0.00246855,-0.00000621,-0.00002620,-0.00000757,-
 0.00002880,0.00012803,-0.00000983,0.00004135,-0.00011412,0.00000777,-0
 .00006799,-0.00003434,0.00001029,-0.00005344,-0.00008323,0.00001983,0.
 00015885,0.00011292,0.00017724,0.00000859,-0.00001258,-0.00000249,-0.0
 0002168,-0.00000316,-0.00001419,-0.00029207,0.00048705,0.00041496,-0.0
 0056395,-0.00136273,-0.00052585,-0.06788166,0.02426831,0.05293298,0.00
 059653,-0.00011638,-0.00033830,-0.00060168,0.00024636,0.00021840,0.000
 81093,-0.00041489,-0.00040035,-0.00069604,0.00040486,0.00037185,0.0020
 3454,-0.00112633,-0.00078997,-0.00086937,-0.00007808,0.00072762,0.0006
 9500,0.00106016,-0.00161425,-0.00247531,0.00240827,0.00379078,0.000508
 90,0.02376758,-0.01222466,-0.00251738,0.00364310,-0.00228878,-0.001052
 29,-0.00016952,0.00018695,0.00006906,0.00094493,0.00524234,0.00579356,
 -0.01827740,0.00974781,-0.05602446,0.03869082,-0.01118146,0.00038987,-
 0.00014848,-0.00011976,-0.00029187,0.00025146,-0.00000420,0.00047451,-
 0.00033501,-0.00009931,-0.00056934,0.00003813,0.00040744,-0.00049489,0
 .00011664,0.00039196,0.00164117,-0.00355820,0.00045457,0.00004075,-0.0
 0005238,0.00000658,-0.00009570,0.00002094,0.00007829,-0.00015701,-0.00
 018328,-0.00043784,0.00022048,-0.00077035,0.00073055,-0.00042949,-0.00
 101492,-0.00271388,0.05298885,-0.00038026,0.00002899,0.00024624,0.0002
 5144,0.00006027,-0.00028320,-0.00021615,-0.00002193,0.00019963,0.00061
 964,0.00006581,-0.00036420,-0.00021946,-0.00002609,0.00008006,0.000266
 94,-0.00000153,-0.00007284,-0.00087275,-0.00092964,0.00080748,0.003423
 53,0.00119904,-0.00000248,0.00414330,-0.01345257,0.00852425,-0.0010974
 5,-0.00317594,0.00117882,0.00029826,0.00030230,-0.00099884,-0.00021172
 ,0.00315581,0.00341973,0.00350709,-0.00458873,0.00244272,0.03979049,-0
 .26259873,0.11480357,-0.00014833,0.00007305,0.00009480,0.00005192,0.00
 000697,-0.00006724,-0.00020014,0.00003246,0.00012389,0.00024640,-0.000
 04588,-0.00020604,0.00039587,0.00003734,-0.00019788,-0.00257684,0.0016
 5594,0.00020352,-0.00001100,0.00002563,-0.00000325,0.00001718,0.000028
 38,-0.00001868,-0.00025289,-0.00027927,-0.00023892,0.00032029,-0.00017
 286,0.00024197,-0.00188539,-0.00034672,-0.00172546,-0.04532967,0.27894
 623,-0.00013332,0.00009842,0.00012195,0.00023019,-0.00024774,0.0000021
 4,-0.00046441,0.00029156,0.00010402,0.00019970,-0.00023279,0.00014080,
 -0.00138111,0.00074824,0.00039513,0.00052159,0.00012489,-0.00035972,-0
 .00040428,-0.00054657,-0.00002526,0.00317216,0.00072086,0.00235453,0.0
 0024719,-0.00539615,0.00783090,0.00068962,-0.00215568,-0.00165259,-0.0
 0011646,-0.00066114,-0.00043863,0.00597540,0.00259661,0.00242332,-0.00
 409574,0.01786513,-0.00526810,-0.01185787,0.11559644,-0.10205323,-0.00
 016430,0.00007935,0.00004890,0.00015541,-0.00022432,0.00000089,-0.0002
 0254,0.00021602,-0.00001987,0.00022539,-0.00000188,-0.00016808,0.00022
 044,-0.00001686,0.00002286,-0.00016206,0.00089231,-0.00135559,-0.00002
 101,0.00001964,-0.00000458,0.00007105,-0.00001681,-0.00001891,-0.00039
 114,-0.00028914,-0.00047757,0.00003754,0.00101317,-0.00010261,-0.00216
 118,-0.00233854,-0.00215192,0.00984313,-0.12814615,0.10059741,0.000093
 89,0.00193800,-0.00200754,-0.00103646,0.02236241,-0.01148610,-0.003192
 33,0.00163014,0.00383694,-0.00017754,-0.00054952,0.00026966,0.00009210
 ,0.00006522,-0.00040864,-0.00009747,0.00112060,-0.00098267,-0.00052068
 ,0.00103779,-0.00025180,0.00052496,-0.00032254,-0.00006575,0.00007517,
 0.00025555,-0.00018913,-0.00017773,-0.00009204,0.00019349,-0.00016679,
 -0.00002376,0.00008718,0.00009837,-0.00017421,0.00003347,-0.00004692,0
 .00015298,-0.00004462,0.00000349,-0.00005211,0.00001490,-0.06740124,0.
 06599233,-0.02042778,0.00771169,-0.01774346,0.00891730,0.00045857,0.00
 110068,0.00532145,-0.00068066,-0.00034416,0.00010499,0.00054843,-0.000
 93760,0.00018289,-0.00005845,0.00010219,-0.00003695,-0.00090579,-0.002
 29079,0.00202197,-0.00019996,0.00025859,0.00027053,-0.00000988,-0.0000
 0442,0.00001912,-0.00001029,-0.00001098,0.00001093,-0.00001047,0.00000
 928,0.00000641,0.00000411,0.00000458,-0.00000740,0.06591159,-0.0009899
 5,-0.00189180,0.00083805,0.00392971,-0.01068255,0.00637224,0.00261196,
 0.00210935,-0.00023162,0.00041757,-0.00049017,-0.00010378,-0.00094270,
 0.00057634,0.00014102,0.00030646,-0.00096053,0.00024340,-0.00003921,-0
 .00034393,0.00016477,0.00002698,-0.00001413,0.00010146,0.00031564,-0.0
 0003096,-0.00022663,0.00048848,-0.00069565,0.00015838,0.00004272,0.000
 00504,-0.00006077,-0.00005834,-0.00004884,0.00005577,0.00008651,0.0000
 3396,-0.00006767,-0.00015566,0.00003933,0.00007124,0.06637248,-0.26823
 424,0.10637398,0.00497854,-0.00727282,0.00388358,-0.00043459,0.0036121
 9,0.00380510,0.00035541,0.00028920,-0.00101637,-0.00013338,0.00009701,
 0.00006147,-0.00006771,0.00062197,-0.00037031,-0.00405140,0.00005262,0
 .00270929,0.00019646,0.00000192,0.00001760,0.00001146,-0.00000423,0.00
 000493,-0.00001163,-0.00000703,0.00000921,-0.00001678,0.00001311,0.000
 00667,0.00001279,0.00000634,-0.00000994,-0.07118161,0.28423053,-0.0008
 1973,-0.00095045,-0.00007951,0.00147358,-0.00690227,0.00693126,0.00287
 117,0.00042343,0.00179208,0.00016405,0.00025953,-0.00059829,-0.0004046
 5,-0.00029534,0.00009821,0.00012469,-0.00052201,-0.00017974,-0.0000009
 2,-0.00039929,0.00029729,-0.00018606,0.00014274,0.00020183,0.00002448,
 -0.00007892,0.00003866,0.00014891,-0.00004790,-0.00004316,0.00006757,-
 0.00001214,-0.00010299,-0.00007300,0.00004294,0.00000610,0.00004717,-0
 .00004762,0.00001834,-0.00003792,0.00001611,0.00000175,-0.02139959,0.1
 0709233,-0.09014615,-0.00531288,0.01935575,-0.00549097,0.00586167,0.00
 325573,0.00242349,0.00022789,-0.00054826,-0.00054748,-0.00017793,0.000
 41309,-0.00017824,-0.00001438,-0.00001266,-0.00000553,0.00313777,0.001
 39779,-0.00315210,0.00023488,0.00005229,0.00014861,-0.00000019,0.00000
 832,0.00000851,0.00000410,0.00000415,-0.00000525,0.00000694,-0.0000005
 1,0.00000358,0.00000008,-0.00000566,-0.00000100,0.01705492,-0.12083524
 ,0.09146397,-0.00044668,0.00160912,0.00031843,0.00234869,-0.00107176,0
 .00514902,0.00020266,-0.00035569,0.00014567,-0.00034321,-0.00056920,-0
 .00035522,-0.00015934,-0.00003891,0.00024518,0.00029882,-0.00002953,-0
 .00021815,-0.00033137,0.00015103,-0.00020770,0.00016377,-0.00015627,0.
 00027220,0.00012286,0.00015496,-0.00011260,-0.00001771,-0.00029268,0.0
 0008974,0.00002057,0.00002090,-0.00007536,-0.00005048,-0.00007097,0.00
 007795,0.00000526,0.00008729,-0.00002330,-0.00004985,-0.00002804,-0.00
 001188,-0.01452492,0.01094010,0.00369844,-0.23010586,0.11404919,0.0707
 4132,-0.00413331,0.00037948,0.00134468,0.00173898,0.00177326,-0.000737
 19,0.00002744,-0.00021789,0.00013159,-0.00006282,0.00022253,-0.0000983
 4,0.00018816,-0.00022624,0.00033758,0.00003195,0.00001896,0.00001228,0
 .00000600,-0.00001039,0.00001719,-0.00001946,-0.00001120,0.00001738,-0
 .00003019,0.00000988,-0.00000146,0.00001268,0.00001744,0.00000139,-0.0
 0080876,-0.00202800,-0.00244660,0.24564775,0.00066954,0.00073469,-0.00
 079634,-0.00026395,0.00071181,0.00561408,-0.00008713,0.00047003,-0.000
 35482,-0.00142820,-0.00074581,0.00093255,0.00007037,0.00061429,-0.0002
 5045,-0.00039926,-0.00009429,-0.00013672,0.00062977,0.00054955,-0.0008
 4002,0.00025621,-0.00008614,-0.00015476,0.00004554,0.00012657,-0.00013
 218,0.00006998,-0.00030743,0.00018483,-0.00007610,0.00004109,0.0000654
 6,0.00004619,-0.00005249,-0.00002016,-0.00005504,0.00009097,0.00000162
 ,0.00001897,-0.00000742,-0.00000426,-0.01106869,0.00846181,0.00387067,
 0.11430714,-0.11501815,-0.02559785,0.02325275,-0.00875648,-0.01165863,
 -0.00006569,-0.00333058,0.00554343,-0.00006519,-0.00067881,0.00048056,
 -0.00008473,0.00054650,-0.00031442,0.00018277,-0.00006485,0.00014047,-
 0.00008154,0.00010470,0.00001497,0.00003636,-0.00002179,-0.00001796,-0
 .00002520,-0.00001097,0.00002726,-0.00003318,0.00001694,0.00000457,-0.
 00000615,0.00002261,-0.00000695,-0.00134876,-0.00039415,-0.00247723,-0
 .12448625,0.11725733,0.00085367,-0.00114271,0.00064526,0.00430907,0.00
 597606,0.00185453,0.00040912,-0.00021465,-0.00039555,-0.00004876,0.000
 40727,-0.00107884,0.00085460,-0.00038954,-0.00019330,-0.00070786,-0.00
 013417,0.00017254,0.00015496,-0.00068852,0.00025265,-0.00017923,0.0003
 2302,-0.00007251,-0.00027809,-0.00019694,0.00037482,-0.00055329,0.0008
 3232,-0.00024403,0.00003109,-0.00004629,0.00002269,0.00001494,0.000137
 21,-0.00012358,0.00001719,-0.00010973,0.00008760,0.00007550,0.00001819
 ,-0.00007086,0.01923715,-0.01212568,-0.00335233,0.06874251,-0.02522955
 ,-0.06189650,-0.01247307,0.00522694,0.00442511,0.00076482,0.00365083,0
 .00111948,-0.00014202,0.00064732,-0.00031281,0.00021421,-0.00086902,0.
 00039024,0.00000326,0.00036230,0.00010619,0.00008525,-0.00003970,0.000
 03307,-0.00001823,0.00002464,-0.00000576,0.00004239,0.00001695,-0.0000
 3710,0.00004410,-0.00003379,-0.00001850,-0.00001185,-0.00001734,0.0000
 2494,-0.00267135,-0.00197992,-0.00242226,-0.07797110,0.02646573,0.0602
 5543,0.00057992,0.00020391,-0.00103360,-0.00056844,-0.00013333,0.00062
 037,0.00006701,0.00660717,0.00236558,-0.00094601,-0.00022619,0.0008359
 8,-0.00071789,0.00057893,-0.00039357,-0.00031110,-0.00105006,0.0011346
 6,0.00029955,0.00081842,-0.00069583,0.00045038,-0.00041528,-0.00007869
 ,0.00011465,0.00042229,-0.00034259,-0.00003832,-0.00081745,0.00051785,
 -0.00008438,0.00006442,0.00002067,0.00004533,-0.00016924,0.00010975,-0
 .00011481,0.00021003,-0.00010012,-0.00001150,-0.00003399,0.00007089,0.
 00182896,0.00221055,0.00036018,0.00559636,0.00311277,-0.00634999,-0.14
 838886,-0.05711018,0.12049208,-0.01302905,-0.01330935,0.01962965,0.000
 01267,-0.00094788,0.00057489,-0.00015825,0.00087087,-0.00044685,0.0001
 3102,-0.00037184,0.00016306,0.00003496,0.00011431,0.00002488,0.0000376
 6,-0.00003581,-0.00000647,-0.00005267,-0.00002749,0.00004927,-0.000061
 85,0.00004194,0.00002591,-0.00000085,0.00003448,-0.00002457,0.00018018
 ,0.00022952,-0.00011553,0.00046371,-0.00124984,-0.00038109,0.15523961,
 0.00023731,-0.00033801,-0.00044397,-0.00002704,0.00032905,-0.00004208,
 0.00520044,0.00001014,0.00220442,-0.00040319,0.00054593,0.00003157,0.0
 0110991,-0.00098528,-0.00075039,-0.00053934,0.00067347,0.00020239,0.00
 023707,-0.00012297,-0.00002073,-0.00002412,0.00006655,-0.00009369,-0.0
 0023450,0.00004886,0.00018104,-0.00084740,0.00077446,0.00002194,-0.000
 06179,-0.00000081,0.00002592,0.00007813,0.00004975,-0.00003469,-0.0000
 8342,0.00000154,0.00001535,0.00011872,0.00000782,-0.00004079,0.0044386
 5,-0.00364860,0.00235778,-0.02028474,-0.00588663,0.01744220,-0.0572087
 7,-0.09313570,0.08193064,0.00951140,0.00893865,-0.01142455,-0.00017251
 ,0.00031325,-0.00007420,0.00021264,-0.00062159,0.00023030,-0.00017926,
 0.00014729,-0.00000319,0.00005127,0.00003339,0.00008027,0.00001132,0.0
 0001197,-0.00000918,0.00000766,0.00000220,-0.00002090,0.00002044,-0.00
 001058,-0.00000519,-0.00002380,0.00000022,0.00002058,-0.00073705,-0.00
 030197,0.00097407,0.00017006,0.00040761,-0.00127717,0.06131745,0.09295
 198,-0.00010835,-0.00015880,-0.00003298,-0.00017883,0.00013798,0.00046
 681,0.00356389,0.00082281,0.00538262,0.00009918,0.00023072,-0.00017427
 ,-0.00000088,-0.00081104,-0.00072017,0.00065656,0.00082558,0.00037751,
 0.00011829,-0.00031459,0.00007818,-0.00015022,0.00023131,-0.00003415,-
 0.00002076,-0.00015736,0.00049141,-0.00042174,0.00047544,-0.00045555,-
 0.00002829,-0.00005710,-0.00003471,0.00004549,0.00015498,-0.00002349,0
 .00001854,-0.00012378,0.00000003,0.00001873,0.00003350,-0.00004138,-0.
 00090053,0.00302428,0.00110006,0.00660956,0.00148017,-0.00819405,0.123
 40888,0.08244485,-0.16634574,0.00333182,0.00405901,-0.00508886,-0.0000
 0986,0.00034650,-0.00016729,0.00016718,-0.00065396,0.00025506,-0.00000
 247,0.00003093,-0.00008668,0.00011002,0.00007364,0.00016362,-0.0000055
 8,0.00002677,0.00001100,0.00001759,0.00000388,-0.00004573,0.00003392,-
 0.00002647,-0.00001091,0.00000776,-0.00001154,0.00003100,0.00069890,0.
 00019007,0.00005496,-0.00070101,-0.00025146,0.00012297,-0.13451395,-0.
 08977309,0.17511331,0.00057286,-0.00036212,-0.00015692,-0.00103941,-0.
 00017265,0.00446254,0.00714556,-0.01593105,0.00728965,-0.00031182,-0.0
 0051910,0.00052705,-0.00001827,0.00068613,-0.00031088,-0.00017085,-0.0
 0209515,-0.00077320,0.00018736,0.00031169,-0.00032063,0.00015522,-0.00
 014764,-0.00007116,0.00022198,0.00015014,-0.00021544,-0.00000367,-0.00
 042698,0.00031327,-0.00003649,0.00003415,0.00003003,0.00001622,-0.0000
 9033,0.00001871,0.00000217,0.00009479,-0.00004822,-0.00007792,0.000006
 20,0.00002080,-0.00047698,-0.00023032,-0.00002718,-0.00168018,0.002870
 26,0.00519504,-0.00169895,0.02395655,-0.01232529,-0.06567900,0.0605587
 8,-0.01655862,-0.00000414,-0.00036148,0.00022204,0.00001718,0.00049257
 ,-0.00038821,-0.00000123,-0.00034013,0.00026683,-0.00015318,0.00064464
 ,-0.00017739,0.00001899,-0.00001237,-0.00000895,-0.00001389,-0.0000047
 0,0.00002030,-0.00001721,0.00001518,0.00000550,-0.00000528,0.00001318,
 -0.00000281,-0.00020112,-0.00027173,-0.00046049,-0.00019535,0.00123930
 ,-0.00041787,-0.00059797,-0.00189554,-0.00186383,0.06404534,0.00002639
 ,-0.00045593,0.00051724,-0.00045217,0.00278930,0.00197362,0.00406551,-
 0.01063795,0.00568039,0.00094325,0.00060734,-0.00108418,-0.00061838,-0
 .00023987,0.00065896,0.00113068,-0.00010188,-0.00288285,-0.00053418,-0
 .00049074,0.00070157,-0.00028403,-0.00006223,0.00019801,0.00015231,0.0
 0001151,-0.00005111,-0.00002515,-0.00038277,0.00020949,0.00015233,0.00
 000917,-0.00010460,-0.00010798,0.00001786,0.00005412,0.00008434,-0.000
 02973,-0.00002335,-0.00010046,0.00002105,0.00003567,-0.00098103,0.0003
 7059,-0.00010427,0.00465103,0.00262128,0.00011008,0.00091963,-0.010248
 56,0.00860999,0.06099087,-0.25836897,0.10255481,0.00000336,0.00062722,
 -0.00040007,0.00005481,0.00006119,-0.00010907,-0.00011407,-0.00023014,
 0.00019289,-0.00057563,0.00058287,0.00026369,-0.00002670,0.00001312,0.
 00001780,0.00001588,0.00000694,-0.00001599,0.00001050,-0.00000972,-0.0
 0000529,-0.00000121,-0.00000749,0.00000746,-0.00021735,-0.00031590,-0.
 00030277,-0.00001117,-0.00058714,0.00040594,-0.00093911,-0.00026198,-0
 .00225324,-0.06821228,0.27469156,-0.00075602,0.00053940,0.00009576,0.0
 0496532,0.00144328,0.00008260,-0.00639970,0.02030491,-0.00557627,0.000
 02933,-0.00004930,-0.00000242,0.00006961,-0.00019326,0.00012667,-0.002
 24719,-0.00044091,-0.00074744,0.00003980,-0.00012932,0.00000012,-0.000
 08534,0.00014970,-0.00005569,-0.00016006,-0.00015734,0.00027725,0.0003
 2902,0.00041179,-0.00042509,0.00001067,-0.00002491,0.00002460,-0.00001
 171,0.00006321,-0.00006320,0.00000341,-0.00008424,0.00007134,0.0000514
 7,-0.00003507,-0.00006762,-0.00001940,-0.00048860,-0.00054308,0.004228
 56,0.00164613,0.00418304,0.00265934,-0.00816367,0.00695640,-0.01646034
 ,0.10305180,-0.08951544,0.00002121,0.00002362,-0.00001373,-0.00016923,
 -0.00038929,0.00027577,0.00011722,0.00045856,-0.00023091,0.00061880,-0
 .00073224,0.00017890,-0.00001092,0.00000193,0.00000042,0.00001045,0.00
 000520,-0.00000145,0.00001012,-0.00000687,0.00000103,0.00001851,-0.000
 00694,-0.00000111,-0.00046534,-0.00030599,-0.00053596,0.00035985,-0.00
 033199,0.00033644,-0.00251280,-0.00170466,-0.00219257,0.01575533,-0.11
 485493,0.08736168\\0.00001566,-0.00005578,0.00000901,0.00001181,0.0000
 5617,-0.00003779,-0.00004798,-0.00001312,0.00004551,0.00006220,0.00003
 888,-0.00006748,-0.00003018,0.00000287,-0.00000133,0.00007341,-0.00001
 799,-0.00004752,-0.00011787,0.00006105,0.00001306,0.00005893,-0.000079
 45,0.00002082,0.00004437,0.00004394,-0.00008535,0.00001779,-0.00011549
 ,0.00015015,-0.00006349,0.00003336,0.00002138,0.00002260,-0.00007517,0
 .00002949,0.00001091,0.00006541,-0.00005055,-0.00006855,-0.00001371,0.
 00005607,-0.00004034,0.00000949,0.00002313,0.00003814,-0.00001472,-0.0
 0001478,-0.00002036,0.00001803,0.00000403,0.00002419,0.00000528,-0.000
 01381,0.00002178,-0.00000121,-0.00000577,-0.00000557,0.00004928,-0.000
 06237,-0.00002087,-0.00001141,0.00002988,-0.00001124,0.00000931,0.0000
 0671,0.00000631,-0.00001125,-0.00000259,0.00000797,0.00000204,-0.00000
 823,0.00000774,-0.00000395,-0.00000370,0.00000817,0.00000721,-0.000008
 43,0.00000094,0.00000923,-0.00000820,-0.00000636,0.00001411,-0.0000049
 4,0.00000286,-0.00001020,0.00000725,-0.00000296,-0.00000222,0.00000636
 \\\@


 REVOLUTIONS HAVE NEVER LIGHTENED THE BURDEN OF TYRANNY:
 THEY HAVE MERELY SHIFTED IT TO OTHER SHOULDERS.
                                   -- G. B. SHAW (1903)
 Job cpu time:       0 days 11 hours 35 minutes 55.4 seconds.
 Elapsed time:       0 days  1 hours 27 minutes 11.2 seconds.
 File lengths (MBytes):  RWF=   1565 Int=      0 D2E=      0 Chk=     30 Scr=      1
 Normal termination of Gaussian 16 at Thu Dec 28 03:01:33 2023.
