
Running Job 1 of 1 304-rad-SM12.in
qchem 304-rad-SM12.in_186509.0 /expanse/lustre/scratch/selhajj/temp_project/qcscratch/28447530/qchem186509/ 0
/cm/shared/apps/spack/cpu/opt/spack/linux-centos8-zen2/gcc-10.2.0/qchem-5.4-akfmr7b3t57bfs6qan3padb2wnb2i7cl/exe/qcprog.exe_s 304-rad-SM12.in_186509.0 /expanse/lustre/scratch/selhajj/temp_project/qcscratch/28447530/qchem186509/
                  Welcome to Q-Chem
     A Quantum Leap Into The Future Of Chemistry


 Q-Chem 5.4, Q-Chem, Inc., Pleasanton, CA (2021)

 License issued to: University of California, San Diego (site)

 E. Epifanovsky,  A. T. B. Gilbert,  Xintian Feng,  Joonho Lee,  Yuezhi Mao,  
 N. Mardirossian,  P. Pokhilko,  A. White,  M. Wormit,  M. P. Coons,  
 A. L. Dempwolff,  Zhengting Gan,  D. Hait,  P. R. Horn,  L. D. Jacobson,  
 I. Kaliman,  J. Kussmann,  A. W. Lange,  Ka Un Lao,  D. S. Levine,  Jie Liu,  
 S. C. McKenzie,  A. F. Morrison,  K. Nanda,  F. Plasser,  D. R. Rehn,  
 M. L. Vidal,  Zhi-Qiang You,  Ying Zhu,  B. Alam,  B. Albrecht,  
 A. Aldossary,  E. Alguire,  J. H. Andersen,  D. Barton,  K. Begam,  A. Behn,  
 Y. A. Bernard,  E. J. Berquist,  H. Burton,  A. Carreras,  K. Carter-Fenk,  
 R. Chakraborty,  A. D. Chien,  K. D. Closser,  V. Cofer-Shabica,  
 S. Dasgupta,  Jia Deng,  M. de Wergifosse,  M. Diedenhofen,  Hainam Do,  
 S. Ehlert,  Po-Tung Fang,  S. Fatehi,  Qingguo Feng,  J. Gayvert,  
 Qinghui Ge,  G. Gidofalvi,  M. Goldey,  J. Gomes,  C. Gonzalez-Espinoza,  
 S. Gulania,  A. Gunina,  M. W. D. Hanson-Heine,  P. H. P. Harbach,  
 A. W. Hauser,  M. F. Herbst,  M. Hernandez Vera,  M. Hodecker,  
 Z. C. Holden,  S. Houck,  Xunkun Huang,  Kerwin Hui,  B. C. Huynh,  
 M. Ivanov,  Hyunjun Ji,  Hanjie Jiang,  B. Kaduk,  S. Kaehler,  
 K. Khistyaev,  Jaehoon Kim,  P. Klunzinger,  Z. Koczor-Benda,  
 Joong Hoon Koh,  D. Kosenkov,  L. Koulias,  T. Kowalczyk,  C. M. Krauter,  
 K. Kue,  A. Kunitsa,  T. Kus,  A. Landau,  K. V. Lawler,  D. Lefrancois,  
 S. Lehtola,  Rain Li,  Yi-Pei Li,  Jiashu Liang,  M. Liebenthal,  
 Hung-Hsuan Lin,  You-Sheng Lin,  Fenglai Liu,  Kuan-Yu Liu,  
 M. Loipersberger,  A. Luenser,  A. Manjanath,  P. Manohar,  E. Mansoor,  
 S. F. Manzer,  Shan-Ping Mao,  A. V. Marenich,  T. Markovich,  S. Mason,  
 S. A. Maurer,  P. F. McLaughlin,  M. F. S. J. Menger,  J.-M. Mewes,  
 S. A. Mewes,  P. Morgante,  J. W. Mullinax,  T. S. Nguyen-Beck,  
 K. J. Oosterbaan,  G. Paran,  Alexander C. Paul,  Suranjan K. Paul,  
 F. Pavosevic,  Zheng Pei,  S. Prager,  E. I. Proynov,  E. Ramos,  B. Rana,  
 A. E. Rask,  A. Rettig,  R. M. Richard,  F. Rob,  E. Rossomme,  T. Scheele,  
 M. Scheurer,  M. Schneider,  N. Sergueev,  S. M. Sharada,  W. Skomorowski,  
 D. W. Small,  C. J. Stein,  Yu-Chuan Su,  E. J. Sundstrom,  Zhen Tao,  
 J. Thirman,  T. Tsuchimochi,  N. M. Tubman,  S. P. Veccham,  O. Vydrov,  
 J. Wenzel,  J. Witte,  A. Yamada,  Kun Yao,  S. Yeganeh,  S. R. Yost,  
 A. Zech,  Igor Ying Zhang,  Xing Zhang,  Yu Zhang,  D. Zuev,  
 A. Aspuru-Guzik,  A. T. Bell,  N. A. Besley,  K. B. Bravaya,  B. R. Brooks,  
 D. Casanova,  Jeng-Da Chai,  S. Coriani,  C. J. Cramer,  
 A. E. DePrince, III,  R. A. DiStasio Jr.,  A. Dreuw,  B. D. Dunietz,  
 T. R. Furlani,  W. A. Goddard III,  S. Grimme,  S. Hammes-Schiffer,  
 T. Head-Gordon,  W. J. Hehre,  Chao-Ping Hsu,  T.-C. Jagau,  Yousung Jung,  
 A. Klamt,  Jing Kong,  D. S. Lambrecht,  WanZhen Liang,  N. J. Mayhall,  
 C. W. McCurdy,  J. B. Neaton,  C. Ochsenfeld,  J. A. Parkhill,  R. Peverati,  
 V. A. Rassolov,  Yihan Shao,  L. V. Slipchenko,  T. Stauch,  R. P. Steele,  
 J. E. Subotnik,  A. J. W. Thom,  A. Tkatchenko,  D. G. Truhlar,  
 T. Van Voorhis,  T. A. Wesolowski,  K. B. Whaley,  H. L. Woodcock III,  
 P. M. Zimmerman,  S. Faraji,  P. M. W. Gill,  M. Head-Gordon,  
 J. M. Herbert,  A. I. Krylov

 Contributors to earlier versions of Q-Chem not listed above: 
 R. D. Adamson,  B. Austin,  R. Baer,  J. Baker,  G. J. O. Beran,  
 K. Brandhorst,  S. T. Brown,  E. F. C. Byrd,  A. K. Chakraborty,  
 G. K. L. Chan,  Chun-Min Chang,  Yunqing Chen,  C.-L. Cheng,  
 Siu Hung Chien,  D. M. Chipman,  D. L. Crittenden,  H. Dachsel,  
 R. J. Doerksen,  A. D. Dutoi,  R. G. Edgar,  J. Fosso-Tande,  
 L. Fusti-Molnar,  D. Ghosh,  A. Ghysels,  A. Golubeva-Zadorozhnaya,  
 J. Gonthier,  M. S. Gordon,  S. R. Gwaltney,  G. Hawkins,  J. E. Herr,  
 A. Heyden,  S. Hirata,  E. G. Hohenstein,  G. Kedziora,  F. J. Keil,  
 C. Kelley,  Jihan Kim,  R. A. King,  R. Z. Khaliullin,  P. P. Korambath,  
 W. Kurlancheek,  A. Laurent,  A. M. Lee,  M. S. Lee,  S. V. Levchenko,  
 Ching Yeh Lin,  D. Liotard,  E. Livshits,  R. C. Lochan,  I. Lotan,  
 L. A. Martinez-Martinez,  P. E. Maslen,  N. Nair,  D. P. O'Neill,  
 D. Neuhauser,  E. Neuscamman,  C. M. Oana,  R. Olivares-Amaya,  R. Olson,  
 T. M. Perrine,  B. Peters,  P. A. Pieniazek,  A. Prociuk,  Y. M. Rhee,  
 J. Ritchie,  M. A. Rohrdanz,  E. Rosta,  N. J. Russ,  H. F. Schaefer III,  
 M. W. Schmidt,  N. E. Schultz,  S. Sharma,  N. Shenvi,  C. D. Sherrill,  
 A. C. Simmonett,  A. Sodt,  T. Stein,  D. Stuck,  K. S. Thanthiriwatte,  
 V. Vanovschi,  L. Vogt,  Tao Wang,  A. Warshel,  M. A. Watson,  
 C. F. Williams,  Q. Wu,  X. Xu,  Jun Yang,  W. Zhang,  Yan Zhao

 Please cite Q-Chem as follows:
 Y. Shao et al., Mol. Phys. 113, 184-215 (2015)
 DOI: 10.1080/00268976.2014.952696

 Q-Chem 5.4.0 for Intel X86 EM64T Linux

 Parts of Q-Chem use Armadillo 9.800.1 (Horizon Scraper).
 http://arma.sourceforge.net/

 Q-Chem begins on Sat Feb  3 14:20:06 2024  

 Host: 
0

     Scratch files written to /expanse/lustre/scratch/selhajj/temp_project/qcscratch/28447530/qchem186509//
 May1621 |scratch|qcdevops|jenkins|workspace|build_RNUM    
 Processing $rem in /cm/shared/apps/spack/cpu/opt/spack/linux-centos8-zen2/gcc-10.2.0/qchem-5.4-akfmr7b3t57bfs6qan3padb2wnb2i7cl/config/preferences:
 Processing $rem in /home/selhajj/.qchemrc:
 Symmetry turned off for PCM/SM12/SMD calculation
 Method-specific promolecule density matrix will be built for SM12 calculation

 Checking the input file for inconsistencies... 	...done.

--------------------------------------------------------------
User input:
--------------------------------------------------------------
$molecule
-1 2
C                 -4.0962640000      3.6185530000      1.5406020000
C                 -4.5738490000      3.8342000000      0.2593170000
C                 -3.9805760000      3.1857550000     -0.8413480000
C                 -2.9097360000      2.3271780000     -0.6224070000
C                 -2.4027800000      2.0871050000      0.6582430000
C                 -3.0119950000      2.7496350000      1.7654290000
C                 -2.5161670000      2.5277040000      3.1102000000
C                 -1.4006070000      1.6196940000      3.2437410000
C                 -0.8028910000      0.9739560000      2.1874480000
C                 -1.2574150000      1.1610900000      0.8377290000
O                 -2.9868920000      3.0678110000      4.1655630000
O                 -0.7291590000      0.5833600000     -0.1448130000
O                 -0.9785550000      1.4502910000      4.5274560000
O                 -5.6434650000      4.7066220000      0.1449990000
C                 -6.1655030000      4.9583750000     -1.1417930000
H                 -4.5544160000      4.1184590000      2.3852300000
H                 -4.3420620000      3.3434830000     -1.8494360000
H                 -2.4340670000      1.8148560000     -1.4513800000
H                  0.0327000000      0.3034750000      2.3553760000
H                 -1.5942860000      2.0320650000      5.0245200000
H                 -6.9880700000      5.6614630000     -1.0023170000
H                 -6.5513500000      4.0455590000     -1.6136910000
H                 -5.4178460000      5.4099030000     -1.8065690000
$end

$rem
BASIS  =  6-311++G(d,p)
GUI  =  2
JOB_TYPE  =  SP
METHOD  =  B3LYP
SCF_CONVERGENCE  = 8
SOLVENT_METHOD = sm12
$end

$smx
solvent dimethylformamide
charges CM5
$end





--------------------------------------------------------------
 ----------------------------------------------------------------
             Standard Nuclear Orientation (Angstroms)
    I     Atom           X                Y                Z
 ----------------------------------------------------------------
    1      C      -4.0962640000     3.6185530000     1.5406020000
    2      C      -4.5738490000     3.8342000000     0.2593170000
    3      C      -3.9805760000     3.1857550000    -0.8413480000
    4      C      -2.9097360000     2.3271780000    -0.6224070000
    5      C      -2.4027800000     2.0871050000     0.6582430000
    6      C      -3.0119950000     2.7496350000     1.7654290000
    7      C      -2.5161670000     2.5277040000     3.1102000000
    8      C      -1.4006070000     1.6196940000     3.2437410000
    9      C      -0.8028910000     0.9739560000     2.1874480000
   10      C      -1.2574150000     1.1610900000     0.8377290000
   11      O      -2.9868920000     3.0678110000     4.1655630000
   12      O      -0.7291590000     0.5833600000    -0.1448130000
   13      O      -0.9785550000     1.4502910000     4.5274560000
   14      O      -5.6434650000     4.7066220000     0.1449990000
   15      C      -6.1655030000     4.9583750000    -1.1417930000
   16      H      -4.5544160000     4.1184590000     2.3852300000
   17      H      -4.3420620000     3.3434830000    -1.8494360000
   18      H      -2.4340670000     1.8148560000    -1.4513800000
   19      H       0.0327000000     0.3034750000     2.3553760000
   20      H      -1.5942860000     2.0320650000     5.0245200000
   21      H      -6.9880700000     5.6614630000    -1.0023170000
   22      H      -6.5513500000     4.0455590000    -1.6136910000
   23      H      -5.4178460000     5.4099030000    -1.8065690000
 ----------------------------------------------------------------
 Nuclear Repulsion Energy =         928.88081729 hartrees
 There are       54 alpha and       53 beta electrons
 Requested basis set is 6-311++G(d,p)
 There are 130 shells and 386 basis functions

 Total QAlloc Memory Limit   8000 MB
 Mega-Array Size       188 MB
 MEM_STATIC part       192 MB
 A cutoff of  1.0D-11 yielded   6757 shell pairs
 There are     61517 function pairs (     66088 Cartesian)
 Smallest overlap matrix eigenvalue = 2.54E-07

 Q-Chem warning in module stvman/mkSTV.C, line 323:

 Overlap eigenvalue is smaller than square root of threshold
 Use THRESH >= 12 to get rid of this warning

 Linear dependence detected in AO basis
 Tighter screening thresholds may be required for diffuse basis sets
 Use S2THRESH > 14 and THRESH = 14 in case of SCF convergence issues
 Number of orthogonalized atomic orbitals = 383
 Maximum deviation from orthogonality = 1.689E-10

 Scale SEOQF with 1.000000e-02/1.000000e-02/1.000000e-01

 Standard Electronic Orientation quadrupole field applied
 Nucleus-field energy     =    -0.0000000485 hartrees
 ================ Generating on-the-fly Promolecule Density  ================
Attempting to make child job directory: /expanse/lustre/scratch/selhajj/temp_project/qcscratch/28447530/qchem186509//Frg1/
Attempting to make child job directory: /expanse/lustre/scratch/selhajj/temp_project/qcscratch/28447530/qchem186509//Frg2/
Attempting to make child job directory: /expanse/lustre/scratch/selhajj/temp_project/qcscratch/28447530/qchem186509//Frg3/
Creating input file /expanse/lustre/scratch/selhajj/temp_project/qcscratch/28447530/qchem186509/Frg1.input
using default PutDataFrgm: nothing
calling putenv with: QCSCRATCH=/expanse/lustre/scratch/selhajj/temp_project/qcscratch/28447530/qchem186509/ 
Spawning Job For Fragment 0
Done Job For Fragment 0
calling putenv with: QCSCRATCH=/expanse/lustre/scratch/selhajj/temp_project/qcscratch/28447530 
calling putenv with: QCTHREADS=8 
Creating input file /expanse/lustre/scratch/selhajj/temp_project/qcscratch/28447530/qchem186509/Frg2.input
using default PutDataFrgm: nothing
calling putenv with: QCSCRATCH=/expanse/lustre/scratch/selhajj/temp_project/qcscratch/28447530/qchem186509/ 
Spawning Job For Fragment 1
Done Job For Fragment 1
calling putenv with: QCSCRATCH=/expanse/lustre/scratch/selhajj/temp_project/qcscratch/28447530 
calling putenv with: QCTHREADS=8 
Creating input file /expanse/lustre/scratch/selhajj/temp_project/qcscratch/28447530/qchem186509/Frg3.input
using default PutDataFrgm: nothing
calling putenv with: QCSCRATCH=/expanse/lustre/scratch/selhajj/temp_project/qcscratch/28447530/qchem186509/ 
Spawning Job For Fragment 2
Done Job For Fragment 2
calling putenv with: QCSCRATCH=/expanse/lustre/scratch/selhajj/temp_project/qcscratch/28447530 
calling putenv with: QCTHREADS=8 
 Time for running child jobs:  CPU 0.01 s  wall 30.17 s
 ============= Method Specific Promolecule Density Constructed =============
 Guess from superposition of atomic densities
 Warning:  Energy on first SCF cycle will be non-variational
 SAD guess density has 106.000000 electrons

 -----------------------------------------------------------------------
  General SCF calculation program by
  Eric Jon Sundstrom, Paul Horn, Yuezhi Mao, Dmitri Zuev, Alec White,
  David Stuck, Shaama M.S., Shane Yost, Joonho Lee, David Small,
  Daniel Levine, Susi Lehtola, Hugh Burton, Evgeny Epifanovsky,
  Bang C. Huynh
 -----------------------------------------------------------------------
 Exchange:     0.2000 Hartree-Fock + 0.0800 Slater + 0.7200 B88
 Correlation:  0.1900 VWN1RPA + 0.8100 LYP
 Using SG-1 standard quadrature grid
 using 8 threads for integral computing
 -------------------------------------------------------
 OpenMP Integral computing Module                
 Release: version 1.0, May 2013, Q-Chem Inc. Pittsburgh 
 -------------------------------------------------------
 
 SM12 calculation using CM5 charges
 Citation of the SM12 model:
 Marenich, A.V.; Cramer, C.J.; Truhlar, D.G.
 J. Chem. Theory Comput. 2013, 9, 609-612.
 iSolventCode=          91
 Solvent: dimethylformamide                                               
 
Hirshfeld: reading atomic densities from disk.
warning:  vdwdata pointer should have been initialzed before dftman
 Inaccurate integrated density:
   Number of electrons =   107
   Numerical integral  =   105.998823209495
   Relative error      =    -0.9356792435 %

 Charges (in A.U.) from CM5PAC (Nov. 11, 2011)
 -----------------------------------------------
 Center     Atomic      CM5         Hirshfeld
 Number     Number      Charge      Charge
 -----------------------------------------------
    1          6       -0.043295    0.002857
    2          6        0.020732    0.005789
    3          6       -0.052088   -0.000141
    4          6       -0.051665   -0.000320
    5          6       -0.001958    0.000062
    6          6       -0.001924   -0.000217
    7          6        0.037705    0.008730
    8          6        0.024530    0.008203
    9          6       -0.041277    0.003367
   10          6        0.035306    0.006970
   11          8       -0.070991   -0.017206
   12          8       -0.060394   -0.016226
   13          8       -0.212742   -0.022650
   14          8       -0.116752   -0.028549
   15          6       -0.117959    0.002636
   16          1        0.069831    0.006796
   17          1        0.062033    0.002853
   18          1        0.066319    0.005425
   19          1        0.066505    0.005634
   20          1        0.198493    0.014238
   21          1        0.065016    0.004618
   22          1        0.062883    0.004160
   23          1        0.062870    0.004146
 -----------------------------------------------

 Dipole moment (in Debye)
 -----------------------------------------------
                 X        Y        Z     Total
 -----------------------------------------------
 CM5         -0.5254   0.3298  -0.7539   0.9763
 Hirshfeld   -0.0572   0.0222  -0.1784   0.1886
 -----------------------------------------------

 A unrestricted SCF calculation will be
 performed using DIIS
 SCF converges when DIIS error is below 1.0e-08
 ---------------------------------------
  Cycle       Energy         DIIS error
 ---------------------------------------
Hirshfeld: reading atomic densities from disk.

 Charges (in A.U.) from CM5PAC (Nov. 11, 2011)
 -----------------------------------------------
 Center     Atomic      CM5         Hirshfeld
 Number     Number      Charge      Charge
 -----------------------------------------------
    1          6       -0.229162   -0.183011
    2          6        0.190853    0.175911
    3          6       -0.208514   -0.156567
    4          6       -0.171383   -0.120038
    5          6       -0.109679   -0.107658
    6          6       -0.075280   -0.073573
    7          6        0.207718    0.178743
    8          6        0.178304    0.161977
    9          6       -0.300374   -0.255729
   10          6        0.226018    0.197682
   11          8       -0.614620   -0.560834
   12          8       -0.661744   -0.617575
   13          8       -0.483346   -0.293254
   14          8       -0.270365   -0.182163
   15          6       -0.211683   -0.091088
   16          1        0.166584    0.103550
   17          1        0.176561    0.117381
   18          1        0.168498    0.107605
   19          1        0.165811    0.104940
   20          1        0.406017    0.221762
   21          1        0.153164    0.092766
   22          1        0.148565    0.089843
   23          1        0.148554    0.089830
 -----------------------------------------------

 Dipole moment (in Debye)
 -----------------------------------------------
                 X        Y        Z     Total
 -----------------------------------------------
 CM5          6.0796  -6.6190 -11.1670  14.3344
 Hirshfeld    6.5478  -6.9266 -10.5914  14.2488
 -----------------------------------------------

    1    -728.4671189550      1.69e-02  
Hirshfeld: reading atomic densities from disk.

 Charges (in A.U.) from CM5PAC (Nov. 11, 2011)
 -----------------------------------------------
 Center     Atomic      CM5         Hirshfeld
 Number     Number      Charge      Charge
 -----------------------------------------------
    1          6        0.000142    0.046294
    2          6       -0.110437   -0.125380
    3          6       -0.047354    0.004594
    4          6       -0.022862    0.028483
    5          6       -0.000169    0.001851
    6          6       -0.026586   -0.024879
    7          6       -0.262461   -0.291436
    8          6       -0.240358   -0.256685
    9          6       -0.059200   -0.014555
   10          6       -0.196546   -0.224881
   11          8        0.023042    0.076827
   12          8        0.144526    0.188695
   13          8       -0.313794   -0.123702
   14          8       -0.177175   -0.088973
   15          6       -0.018840    0.101755
   16          1        0.004660   -0.058375
   17          1        0.020707   -0.038473
   18          1       -0.018635   -0.079529
   19          1       -0.026743   -0.087614
   20          1        0.167505   -0.016750
   21          1        0.068271    0.007874
   22          1        0.046563   -0.012160
   23          1        0.046616   -0.012108
 -----------------------------------------------

 Dipole moment (in Debye)
 -----------------------------------------------
                 X        Y        Z     Total
 -----------------------------------------------
 CM5          9.6653  -9.8586 -13.0197  18.9769
 Hirshfeld   10.1336 -10.1662 -12.4441  18.9973
 -----------------------------------------------

    2    -724.8382625057      2.15e-03  
Hirshfeld: reading atomic densities from disk.

 Charges (in A.U.) from CM5PAC (Nov. 11, 2011)
 -----------------------------------------------
 Center     Atomic      CM5         Hirshfeld
 Number     Number      Charge      Charge
 -----------------------------------------------
    1          6       -0.087175   -0.041023
    2          6        0.069695    0.054752
    3          6       -0.107110   -0.055163
    4          6       -0.089991   -0.038646
    5          6       -0.028172   -0.026152
    6          6       -0.003281   -0.001575
    7          6        0.125077    0.096102
    8          6        0.117150    0.100823
    9          6       -0.098779   -0.054135
   10          6        0.111945    0.083610
   11          8       -0.519362   -0.465576
   12          8       -0.602799   -0.558630
   13          8       -0.393179   -0.203087
   14          8       -0.228960   -0.140758
   15          6       -0.087573    0.033021
   16          1        0.072329    0.009294
   17          1        0.074003    0.014822
   18          1        0.070148    0.009254
   19          1        0.052317   -0.008554
   20          1        0.289256    0.105001
   21          1        0.097906    0.037509
   22          1        0.083667    0.024944
   23          1        0.083692    0.024969
 -----------------------------------------------

 Dipole moment (in Debye)
 -----------------------------------------------
                 X        Y        Z     Total
 -----------------------------------------------
 CM5          7.2279  -7.3596  -9.6596  14.1320
 Hirshfeld    7.6962  -7.6672  -9.0840  14.1611
 -----------------------------------------------

    3    -724.4623975057      3.40e-03  
Hirshfeld: reading atomic densities from disk.

 Charges (in A.U.) from CM5PAC (Nov. 11, 2011)
 -----------------------------------------------
 Center     Atomic      CM5         Hirshfeld
 Number     Number      Charge      Charge
 -----------------------------------------------
    1          6       -0.130187   -0.084035
    2          6        0.092686    0.077744
    3          6       -0.131923   -0.079976
    4          6       -0.104036   -0.052690
    5          6       -0.071496   -0.069476
    6          6       -0.057755   -0.056048
    7          6        0.063237    0.034262
    8          6        0.052512    0.036186
    9          6       -0.190919   -0.146275
   10          6        0.084439    0.056103
   11          8       -0.409234   -0.355449
   12          8       -0.405064   -0.360895
   13          8       -0.423723   -0.233631
   14          8       -0.236908   -0.148705
   15          6       -0.115065    0.005529
   16          1        0.095381    0.032347
   17          1        0.097228    0.038047
   18          1        0.091436    0.030543
   19          1        0.081387    0.020516
   20          1        0.312209    0.127954
   21          1        0.110313    0.049915
   22          1        0.098080    0.039358
   23          1        0.098097    0.039373
 -----------------------------------------------

 Dipole moment (in Debye)
 -----------------------------------------------
                 X        Y        Z     Total
 -----------------------------------------------
 CM5          7.4787  -7.8100 -11.3729  15.6930
 Hirshfeld    7.9469  -8.1175 -10.7973  15.6726
 -----------------------------------------------

    4    -725.1010025346      8.26e-04  
Hirshfeld: reading atomic densities from disk.

 Charges (in A.U.) from CM5PAC (Nov. 11, 2011)
 -----------------------------------------------
 Center     Atomic      CM5         Hirshfeld
 Number     Number      Charge      Charge
 -----------------------------------------------
    1          6       -0.120517   -0.074365
    2          6        0.062692    0.047750
    3          6       -0.136231   -0.084284
    4          6       -0.103665   -0.052320
    5          6       -0.048212   -0.046192
    6          6       -0.032336   -0.030629
    7          6        0.049273    0.020298
    8          6        0.043966    0.027640
    9          6       -0.165677   -0.121032
   10          6        0.081446    0.053111
   11          8       -0.406001   -0.352216
   12          8       -0.439328   -0.395159
   13          8       -0.401376   -0.211284
   14          8       -0.233833   -0.145630
   15          6       -0.115330    0.005265
   16          1        0.092545    0.029510
   17          1        0.096287    0.037107
   18          1        0.089062    0.028169
   19          1        0.078059    0.017188
   20          1        0.304140    0.119885
   21          1        0.110341    0.049943
   22          1        0.097692    0.038969
   23          1        0.097709    0.038985
 -----------------------------------------------

 Dipole moment (in Debye)
 -----------------------------------------------
                 X        Y        Z     Total
 -----------------------------------------------
 CM5          7.6202  -7.8434 -10.7775  15.3539
 Hirshfeld    8.0884  -8.1510 -10.2019  15.3604
 -----------------------------------------------

    5    -725.1411233106      1.76e-04  
Hirshfeld: reading atomic densities from disk.

 Charges (in A.U.) from CM5PAC (Nov. 11, 2011)
 -----------------------------------------------
 Center     Atomic      CM5         Hirshfeld
 Number     Number      Charge      Charge
 -----------------------------------------------
    1          6       -0.120874   -0.074722
    2          6        0.076344    0.061402
    3          6       -0.128419   -0.076472
    4          6       -0.102525   -0.051180
    5          6       -0.057980   -0.055960
    6          6       -0.041294   -0.039587
    7          6        0.059774    0.030799
    8          6        0.053001    0.036674
    9          6       -0.167442   -0.122797
   10          6        0.080053    0.051717
   11          8       -0.418455   -0.364669
   12          8       -0.427997   -0.383828
   13          8       -0.411891   -0.221800
   14          8       -0.233387   -0.145185
   15          6       -0.112441    0.008153
   16          1        0.090803    0.027768
   17          1        0.093603    0.034423
   18          1        0.087099    0.026205
   19          1        0.076501    0.015630
   20          1        0.305829    0.121574
   21          1        0.108419    0.048021
   22          1        0.095986    0.037264
   23          1        0.096004    0.037280
 -----------------------------------------------

 Dipole moment (in Debye)
 -----------------------------------------------
                 X        Y        Z     Total
 -----------------------------------------------
 CM5          7.5891  -7.8568 -11.0547  15.5412
 Hirshfeld    8.0573  -8.1643 -10.4792  15.5367
 -----------------------------------------------

    6    -725.1436827800      8.48e-05  
Hirshfeld: reading atomic densities from disk.

 Charges (in A.U.) from CM5PAC (Nov. 11, 2011)
 -----------------------------------------------
 Center     Atomic      CM5         Hirshfeld
 Number     Number      Charge      Charge
 -----------------------------------------------
    1          6       -0.121572   -0.075420
    2          6        0.075601    0.060658
    3          6       -0.131364   -0.079417
    4          6       -0.101938   -0.050593
    5          6       -0.056559   -0.054539
    6          6       -0.041439   -0.039733
    7          6        0.058794    0.029819
    8          6        0.052199    0.035872
    9          6       -0.170462   -0.125817
   10          6        0.083806    0.055471
   11          8       -0.411360   -0.357574
   12          8       -0.432368   -0.388199
   13          8       -0.411401   -0.221309
   14          8       -0.234597   -0.146395
   15          6       -0.112369    0.008226
   16          1        0.091044    0.028009
   17          1        0.093949    0.034769
   18          1        0.087548    0.026654
   19          1        0.076763    0.015893
   20          1        0.305494    0.121239
   21          1        0.108676    0.048279
   22          1        0.096123    0.037400
   23          1        0.096140    0.037417
 -----------------------------------------------

 Dipole moment (in Debye)
 -----------------------------------------------
                 X        Y        Z     Total
 -----------------------------------------------
 CM5          7.5694  -7.8254 -10.9488  15.4405
 Hirshfeld    8.0376  -8.1330 -10.3732  15.4387
 -----------------------------------------------

    7    -725.1439690372      2.66e-05  
Hirshfeld: reading atomic densities from disk.

 Charges (in A.U.) from CM5PAC (Nov. 11, 2011)
 -----------------------------------------------
 Center     Atomic      CM5         Hirshfeld
 Number     Number      Charge      Charge
 -----------------------------------------------
    1          6       -0.121472   -0.075320
    2          6        0.074683    0.059740
    3          6       -0.131220   -0.079273
    4          6       -0.102532   -0.051187
    5          6       -0.056296   -0.054276
    6          6       -0.040315   -0.038609
    7          6        0.058244    0.029269
    8          6        0.051548    0.035221
    9          6       -0.169297   -0.124652
   10          6        0.082531    0.054195
   11          8       -0.414470   -0.360684
   12          8       -0.430102   -0.385933
   13          8       -0.410343   -0.220251
   14          8       -0.234219   -0.146017
   15          6       -0.112822    0.007773
   16          1        0.091234    0.028199
   17          1        0.094096    0.034915
   18          1        0.087685    0.026792
   19          1        0.076901    0.016030
   20          1        0.305623    0.121368
   21          1        0.108794    0.048397
   22          1        0.096220    0.037497
   23          1        0.096238    0.037514
 -----------------------------------------------

 Dipole moment (in Debye)
 -----------------------------------------------
                 X        Y        Z     Total
 -----------------------------------------------
 CM5          7.6036  -7.8589 -10.9845  15.4996
 Hirshfeld    8.0718  -8.1665 -10.4090  15.4981
 -----------------------------------------------

    8    -725.1440788600      1.46e-05  
Hirshfeld: reading atomic densities from disk.

 Charges (in A.U.) from CM5PAC (Nov. 11, 2011)
 -----------------------------------------------
 Center     Atomic      CM5         Hirshfeld
 Number     Number      Charge      Charge
 -----------------------------------------------
    1          6       -0.121624   -0.075472
    2          6        0.075076    0.060134
    3          6       -0.130422   -0.078475
    4          6       -0.102682   -0.051337
    5          6       -0.056756   -0.054736
    6          6       -0.040556   -0.038849
    7          6        0.057931    0.028956
    8          6        0.052083    0.035757
    9          6       -0.168704   -0.124059
   10          6        0.081895    0.053559
   11          8       -0.413177   -0.359392
   12          8       -0.430844   -0.386676
   13          8       -0.411166   -0.221074
   14          8       -0.234094   -0.145892
   15          6       -0.112864    0.007730
   16          1        0.091141    0.028107
   17          1        0.093999    0.034818
   18          1        0.087649    0.026755
   19          1        0.076960    0.016089
   20          1        0.305752    0.121497
   21          1        0.108722    0.048324
   22          1        0.096187    0.037464
   23          1        0.096204    0.037480
 -----------------------------------------------

 Dipole moment (in Debye)
 -----------------------------------------------
                 X        Y        Z     Total
 -----------------------------------------------
 CM5          7.5890  -7.8448 -10.9706  15.4753
 Hirshfeld    8.0572  -8.1523 -10.3950  15.4737
 -----------------------------------------------

    9    -725.1441209540      6.20e-06  
Hirshfeld: reading atomic densities from disk.

 Charges (in A.U.) from CM5PAC (Nov. 11, 2011)
 -----------------------------------------------
 Center     Atomic      CM5         Hirshfeld
 Number     Number      Charge      Charge
 -----------------------------------------------
    1          6       -0.121649   -0.075497
    2          6        0.074915    0.059972
    3          6       -0.131046   -0.079098
    4          6       -0.102491   -0.051146
    5          6       -0.056308   -0.054288
    6          6       -0.040521   -0.038815
    7          6        0.058260    0.029285
    8          6        0.052030    0.035703
    9          6       -0.169190   -0.124545
   10          6        0.082573    0.054237
   11          8       -0.413659   -0.359873
   12          8       -0.430608   -0.386439
   13          8       -0.410889   -0.220797
   14          8       -0.234322   -0.146119
   15          6       -0.112745    0.007849
   16          1        0.091108    0.028073
   17          1        0.094002    0.034821
   18          1        0.087603    0.026710
   19          1        0.076890    0.016019
   20          1        0.305668    0.121413
   21          1        0.108718    0.048321
   22          1        0.096176    0.037454
   23          1        0.096194    0.037470
 -----------------------------------------------

 Dipole moment (in Debye)
 -----------------------------------------------
                 X        Y        Z     Total
 -----------------------------------------------
 CM5          7.6007  -7.8549 -10.9729  15.4879
 Hirshfeld    8.0689  -8.1624 -10.3973  15.4867
 -----------------------------------------------

   10    -725.1441061700      4.06e-06  
Hirshfeld: reading atomic densities from disk.

 Charges (in A.U.) from CM5PAC (Nov. 11, 2011)
 -----------------------------------------------
 Center     Atomic      CM5         Hirshfeld
 Number     Number      Charge      Charge
 -----------------------------------------------
    1          6       -0.121579   -0.075428
    2          6        0.075023    0.060081
    3          6       -0.130950   -0.079003
    4          6       -0.102581   -0.051236
    5          6       -0.056564   -0.054543
    6          6       -0.040561   -0.038854
    7          6        0.058183    0.029209
    8          6        0.051949    0.035622
    9          6       -0.169094   -0.124449
   10          6        0.082546    0.054210
   11          8       -0.413607   -0.359821
   12          8       -0.430542   -0.386373
   13          8       -0.410844   -0.220752
   14          8       -0.234211   -0.146009
   15          6       -0.112782    0.007813
   16          1        0.091106    0.028072
   17          1        0.093992    0.034811
   18          1        0.087621    0.026727
   19          1        0.076898    0.016027
   20          1        0.305652    0.121396
   21          1        0.108712    0.048315
   22          1        0.096162    0.037439
   23          1        0.096180    0.037456
 -----------------------------------------------

 Dipole moment (in Debye)
 -----------------------------------------------
                 X        Y        Z     Total
 -----------------------------------------------
 CM5          7.5993  -7.8537 -10.9728  15.4865
 Hirshfeld    8.0675  -8.1612 -10.3973  15.4853
 -----------------------------------------------

   11    -725.1441425256      8.43e-07  
Hirshfeld: reading atomic densities from disk.

 Charges (in A.U.) from CM5PAC (Nov. 11, 2011)
 -----------------------------------------------
 Center     Atomic      CM5         Hirshfeld
 Number     Number      Charge      Charge
 -----------------------------------------------
    1          6       -0.121641   -0.075489
    2          6        0.074939    0.059997
    3          6       -0.130962   -0.079014
    4          6       -0.102519   -0.051174
    5          6       -0.056407   -0.054386
    6          6       -0.040527   -0.038821
    7          6        0.058191    0.029216
    8          6        0.051994    0.035667
    9          6       -0.169098   -0.124453
   10          6        0.082504    0.054168
   11          8       -0.413627   -0.359841
   12          8       -0.430497   -0.386328
   13          8       -0.410918   -0.220826
   14          8       -0.234287   -0.146085
   15          6       -0.112760    0.007835
   16          1        0.091105    0.028070
   17          1        0.093988    0.034807
   18          1        0.087608    0.026714
   19          1        0.076893    0.016022
   20          1        0.305662    0.121407
   21          1        0.108718    0.048320
   22          1        0.096166    0.037443
   23          1        0.096184    0.037460
 -----------------------------------------------

 Dipole moment (in Debye)
 -----------------------------------------------
                 X        Y        Z     Total
 -----------------------------------------------
 CM5          7.6009  -7.8552 -10.9741  15.4890
 Hirshfeld    8.0691  -8.1628 -10.3986  15.4878
 -----------------------------------------------

   12    -725.1441351559      5.78e-07  
Hirshfeld: reading atomic densities from disk.

 Charges (in A.U.) from CM5PAC (Nov. 11, 2011)
 -----------------------------------------------
 Center     Atomic      CM5         Hirshfeld
 Number     Number      Charge      Charge
 -----------------------------------------------
    1          6       -0.121624   -0.075472
    2          6        0.074969    0.060027
    3          6       -0.130972   -0.079025
    4          6       -0.102541   -0.051196
    5          6       -0.056427   -0.054407
    6          6       -0.040561   -0.038854
    7          6        0.058192    0.029218
    8          6        0.051988    0.035662
    9          6       -0.169115   -0.124470
   10          6        0.082513    0.054177
   11          8       -0.413628   -0.359843
   12          8       -0.430491   -0.386322
   13          8       -0.410887   -0.220795
   14          8       -0.234260   -0.146058
   15          6       -0.112765    0.007829
   16          1        0.091101    0.028066
   17          1        0.093990    0.034809
   18          1        0.087611    0.026717
   19          1        0.076900    0.016029
   20          1        0.305656    0.121401
   21          1        0.108714    0.048317
   22          1        0.096165    0.037442
   23          1        0.096182    0.037458
 -----------------------------------------------

 Dipole moment (in Debye)
 -----------------------------------------------
                 X        Y        Z     Total
 -----------------------------------------------
 CM5          7.6007  -7.8550 -10.9739  15.4886
 Hirshfeld    8.0690  -8.1626 -10.3983  15.4874
 -----------------------------------------------

   13    -725.1441406531      2.83e-07  
Hirshfeld: reading atomic densities from disk.

 Charges (in A.U.) from CM5PAC (Nov. 11, 2011)
 -----------------------------------------------
 Center     Atomic      CM5         Hirshfeld
 Number     Number      Charge      Charge
 -----------------------------------------------
    1          6       -0.121624   -0.075473
    2          6        0.074955    0.060013
    3          6       -0.130966   -0.079019
    4          6       -0.102535   -0.051190
    5          6       -0.056444   -0.054424
    6          6       -0.040547   -0.038840
    7          6        0.058190    0.029215
    8          6        0.051970    0.035644
    9          6       -0.169084   -0.124439
   10          6        0.082536    0.054201
   11          8       -0.413637   -0.359851
   12          8       -0.430491   -0.386323
   13          8       -0.410901   -0.220810
   14          8       -0.234272   -0.146070
   15          6       -0.112765    0.007829
   16          1        0.091102    0.028067
   17          1        0.093991    0.034810
   18          1        0.087612    0.026718
   19          1        0.076898    0.016027
   20          1        0.305657    0.121402
   21          1        0.108716    0.048318
   22          1        0.096166    0.037443
   23          1        0.096184    0.037460
 -----------------------------------------------

 Dipole moment (in Debye)
 -----------------------------------------------
                 X        Y        Z     Total
 -----------------------------------------------
 CM5          7.6011  -7.8553 -10.9743  15.4893
 Hirshfeld    8.0693  -8.1629 -10.3987  15.4880
 -----------------------------------------------

   14    -725.1441393037      1.27e-07  
Hirshfeld: reading atomic densities from disk.

 Charges (in A.U.) from CM5PAC (Nov. 11, 2011)
 -----------------------------------------------
 Center     Atomic      CM5         Hirshfeld
 Number     Number      Charge      Charge
 -----------------------------------------------
    1          6       -0.121629   -0.075477
    2          6        0.074960    0.060017
    3          6       -0.130965   -0.079018
    4          6       -0.102535   -0.051189
    5          6       -0.056433   -0.054413
    6          6       -0.040554   -0.038848
    7          6        0.058189    0.029214
    8          6        0.051985    0.035658
    9          6       -0.169100   -0.124455
   10          6        0.082523    0.054187
   11          8       -0.413640   -0.359855
   12          8       -0.430489   -0.386320
   13          8       -0.410894   -0.220802
   14          8       -0.234265   -0.146063
   15          6       -0.112767    0.007827
   16          1        0.091102    0.028067
   17          1        0.093990    0.034810
   18          1        0.087612    0.026719
   19          1        0.076901    0.016030
   20          1        0.305656    0.121401
   21          1        0.108716    0.048318
   22          1        0.096165    0.037443
   23          1        0.096183    0.037459
 -----------------------------------------------

 Dipole moment (in Debye)
 -----------------------------------------------
                 X        Y        Z     Total
 -----------------------------------------------
 CM5          7.6010  -7.8553 -10.9742  15.4892
 Hirshfeld    8.0692  -8.1628 -10.3987  15.4880
 -----------------------------------------------

   15    -725.1441402084      9.06e-08  
Hirshfeld: reading atomic densities from disk.

 Charges (in A.U.) from CM5PAC (Nov. 11, 2011)
 -----------------------------------------------
 Center     Atomic      CM5         Hirshfeld
 Number     Number      Charge      Charge
 -----------------------------------------------
    1          6       -0.121624   -0.075472
    2          6        0.074962    0.060019
    3          6       -0.130968   -0.079020
    4          6       -0.102539   -0.051194
    5          6       -0.056429   -0.054409
    6          6       -0.040558   -0.038851
    7          6        0.058187    0.029212
    8          6        0.051979    0.035652
    9          6       -0.169095   -0.124450
   10          6        0.082526    0.054190
   11          8       -0.413642   -0.359856
   12          8       -0.430486   -0.386317
   13          8       -0.410897   -0.220805
   14          8       -0.234266   -0.146064
   15          6       -0.112766    0.007829
   16          1        0.091101    0.028066
   17          1        0.093991    0.034810
   18          1        0.087613    0.026719
   19          1        0.076901    0.016030
   20          1        0.305657    0.121401
   21          1        0.108715    0.048318
   22          1        0.096165    0.037442
   23          1        0.096183    0.037459
 -----------------------------------------------

 Dipole moment (in Debye)
 -----------------------------------------------
                 X        Y        Z     Total
 -----------------------------------------------
 CM5          7.6010  -7.8553 -10.9743  15.4893
 Hirshfeld    8.0693  -8.1629 -10.3988  15.4881
 -----------------------------------------------

   16    -725.1441399460      2.99e-08  
Hirshfeld: reading atomic densities from disk.

 Charges (in A.U.) from CM5PAC (Nov. 11, 2011)
 -----------------------------------------------
 Center     Atomic      CM5         Hirshfeld
 Number     Number      Charge      Charge
 -----------------------------------------------
    1          6       -0.121628   -0.075476
    2          6        0.074960    0.060017
    3          6       -0.130966   -0.079018
    4          6       -0.102535   -0.051190
    5          6       -0.056433   -0.054413
    6          6       -0.040556   -0.038849
    7          6        0.058188    0.029213
    8          6        0.051982    0.035655
    9          6       -0.169097   -0.124452
   10          6        0.082526    0.054190
   11          8       -0.413642   -0.359857
   12          8       -0.430485   -0.386316
   13          8       -0.410895   -0.220803
   14          8       -0.234266   -0.146064
   15          6       -0.112766    0.007829
   16          1        0.091101    0.028066
   17          1        0.093990    0.034810
   18          1        0.087612    0.026719
   19          1        0.076901    0.016030
   20          1        0.305656    0.121401
   21          1        0.108715    0.048318
   22          1        0.096165    0.037442
   23          1        0.096183    0.037459
 -----------------------------------------------

 Dipole moment (in Debye)
 -----------------------------------------------
                 X        Y        Z     Total
 -----------------------------------------------
 CM5          7.6011  -7.8553 -10.9743  15.4893
 Hirshfeld    8.0693  -8.1629 -10.3988  15.4881
 -----------------------------------------------

   17    -725.1441400771      1.96e-08  
   18    -725.1441400284      6.53e-09  Convergence criterion met
 ---------------------------------------
 SCF time:   CPU 3229.36s  wall 411.00s 
<S^2> =          0.759413609
(1)  E-EN(liq) elect-nuc energy of solute               -725.144140028 a.u.
(2)  G-P(liq) polarization free energy of solvation           -47.8300 kcal/mol
(3)  G-ENP(liq) elect-nuc-pol free energy of system     -725.220361915 a.u.
(4)  G-CDS(liq) cavity-dispersion-solvent structure 
     free energy                                               -8.4728 kcal/mol
(5)  G-P-CDS(liq) = G-P(liq) + G-CDS(liq) = (2) + (4)         -56.3028 kcal/mol
(6)  G-S(liq) free energy of system = (1) + (5)         -725.233864261 a.u.
 SCF   energy in the final basis set =     -725.2338642611
 Total energy in the final basis set =     -725.2338642611
 
 --------------------------------------------------------------
 
                    Orbital Energies (a.u.)
 --------------------------------------------------------------
 
 Alpha MOs
 -- Occupied --
-19.1558 -19.1478 -19.0874 -19.0739 -10.2407 -10.2294 -10.2283 -10.2217
-10.2189 -10.1843 -10.1819 -10.1811 -10.1749 -10.1731 -10.1594  -1.0679
 -1.0672  -0.9990  -0.9967  -0.8647  -0.8059  -0.7657  -0.7467  -0.7029
 -0.6739  -0.6312  -0.6059  -0.5796  -0.5467  -0.5270  -0.4919  -0.4858
 -0.4824  -0.4677  -0.4418  -0.4358  -0.4332  -0.4209  -0.4138  -0.4064
 -0.3913  -0.3904  -0.3754  -0.3652  -0.3555  -0.3551  -0.3329  -0.3170
 -0.2713  -0.2599  -0.2494  -0.2391  -0.2307  -0.1535
 -- Virtual --
 -0.0387  -0.0299  -0.0199  -0.0165  -0.0106  -0.0035   0.0019   0.0226
  0.0230   0.0287   0.0369   0.0411   0.0424   0.0436   0.0479   0.0576
  0.0604   0.0687   0.0707   0.0808   0.0821   0.0850   0.0893   0.0993
  0.1013   0.1020   0.1089   0.1097   0.1107   0.1118   0.1138   0.1221
  0.1238   0.1358   0.1438   0.1484   0.1511   0.1543   0.1567   0.1637
  0.1690   0.1726   0.1759   0.1824   0.1851   0.1919   0.1973   0.2019
  0.2108   0.2179   0.2244   0.2271   0.2369   0.2388   0.2438   0.2470
  0.2487   0.2517   0.2589   0.2644   0.2695   0.2784   0.2867   0.2905
  0.2946   0.2963   0.2996   0.3042   0.3062   0.3146   0.3184   0.3196
  0.3213   0.3306   0.3317   0.3353   0.3453   0.3477   0.3580   0.3667
  0.3789   0.3834   0.3901   0.4024   0.4097   0.4332   0.4354   0.4491
  0.4521   0.4680   0.4816   0.5139   0.5222   0.5282   0.5398   0.5477
  0.5609   0.5768   0.5894   0.5896   0.5985   0.5986   0.6111   0.6175
  0.6181   0.6316   0.6358   0.6501   0.6503   0.6567   0.6626   0.6657
  0.6736   0.6951   0.7073   0.7244   0.7385   0.7465   0.7505   0.7513
  0.7628   0.7862   0.7951   0.8028   0.8276   0.8526   0.8756   0.8840
  0.8905   0.9042   0.9110   0.9294   0.9377   0.9491   0.9571   0.9606
  0.9723   0.9803   0.9895   1.0045   1.0232   1.0419   1.0510   1.0577
  1.0580   1.0637   1.0874   1.0921   1.1041   1.1106   1.1174   1.1392
  1.1567   1.1613   1.1756   1.1987   1.2069   1.2242   1.2314   1.2416
  1.2607   1.2726   1.2756   1.2919   1.3025   1.3096   1.3327   1.3515
  1.4133   1.4160   1.4479   1.4591   1.4834   1.4947   1.4957   1.5290
  1.5307   1.5546   1.5673   1.5699   1.5861   1.6000   1.6196   1.6273
  1.6602   1.6796   1.6943   1.6985   1.7119   1.7120   1.7235   1.7503
  1.7580   1.7682   1.7806   1.7905   1.8046   1.8183   1.8337   1.8790
  1.8854   1.8910   1.9045   1.9192   1.9387   1.9400   1.9610   1.9922
  2.0168   2.0201   2.0415   2.0612   2.0644   2.0899   2.1112   2.1152
  2.1225   2.1429   2.1524   2.1636   2.2153   2.2397   2.2659   2.2722
  2.3113   2.3392   2.3551   2.3940   2.4604   2.4759   2.4815   2.5129
  2.5269   2.5519   2.5720   2.6057   2.6417   2.6541   2.6634   2.6830
  2.7002   2.7172   2.7259   2.7351   2.7474   2.7534   2.7634   2.7792
  2.7882   2.8321   2.8414   2.8583   2.8781   2.8795   2.9086   2.9372
  2.9572   2.9634   3.0075   3.0387   3.0402   3.0527   3.0646   3.0948
  3.1097   3.1376   3.1506   3.1656   3.1759   3.2197   3.2367   3.2544
  3.2707   3.3230   3.3256   3.3538   3.3894   3.4123   3.4336   3.4527
  3.5027   3.5338   3.5484   3.5974   3.6412   3.6706   3.6909   3.7742
  3.7971   3.8273   3.8415   3.8995   4.0754   4.1104   4.1260   4.1787
  4.2002   4.2111   4.2830   4.4028   4.7848   4.8514   4.9885   5.0338
  5.0800   5.0947   5.2558   5.2994   5.4064   5.4847   5.6824   5.7778
  5.7919   5.8273  23.5660  23.7625  23.9146  23.9274  23.9320  23.9438
 23.9722  24.0268  24.1027  24.1460  24.1699  49.9311  49.9620  50.0482
 50.0830
 
 Beta MOs
 -- Occupied --
-19.1556 -19.1473 -19.0802 -19.0688 -10.2408 -10.2282 -10.2275 -10.2189
-10.2188 -10.1842 -10.1822 -10.1805 -10.1740 -10.1722 -10.1584  -1.0677
 -1.0650  -0.9902  -0.9846  -0.8626  -0.8013  -0.7640  -0.7449  -0.7008
 -0.6653  -0.6297  -0.6033  -0.5773  -0.5455  -0.5253  -0.4894  -0.4840
 -0.4809  -0.4672  -0.4403  -0.4327  -0.4221  -0.4197  -0.4098  -0.4024
 -0.3886  -0.3853  -0.3637  -0.3604  -0.3530  -0.3387  -0.3325  -0.3089
 -0.2560  -0.2534  -0.2341  -0.2333  -0.2256
 -- Virtual --
 -0.0866  -0.0319  -0.0298  -0.0199  -0.0163  -0.0034  -0.0006   0.0019
  0.0230   0.0238   0.0290   0.0371   0.0429   0.0437   0.0445   0.0577
  0.0584   0.0607   0.0709   0.0757   0.0820   0.0825   0.0851   0.0895
  0.0995   0.1023   0.1033   0.1097   0.1109   0.1119   0.1140   0.1163
  0.1236   0.1240   0.1359   0.1442   0.1487   0.1513   0.1549   0.1569
  0.1637   0.1694   0.1738   0.1758   0.1830   0.1860   0.1922   0.1979
  0.2061   0.2113   0.2231   0.2248   0.2275   0.2377   0.2399   0.2445
  0.2493   0.2500   0.2527   0.2603   0.2647   0.2702   0.2792   0.2877
  0.2919   0.2954   0.2997   0.3005   0.3052   0.3075   0.3152   0.3190
  0.3208   0.3251   0.3316   0.3325   0.3368   0.3462   0.3485   0.3584
  0.3677   0.3801   0.3841   0.3907   0.4039   0.4124   0.4347   0.4378
  0.4498   0.4523   0.4697   0.4832   0.5146   0.5244   0.5338   0.5414
  0.5489   0.5616   0.5781   0.5903   0.5926   0.5992   0.6025   0.6158
  0.6182   0.6205   0.6324   0.6378   0.6518   0.6521   0.6590   0.6637
  0.6669   0.6741   0.6954   0.7116   0.7251   0.7396   0.7474   0.7510
  0.7541   0.7636   0.7866   0.7963   0.8035   0.8291   0.8538   0.8777
  0.8850   0.8922   0.9051   0.9115   0.9302   0.9391   0.9523   0.9589
  0.9661   0.9739   0.9809   0.9925   1.0061   1.0244   1.0427   1.0538
  1.0584   1.0623   1.0655   1.0907   1.0937   1.1069   1.1143   1.1261
  1.1428   1.1621   1.1672   1.1766   1.2055   1.2072   1.2261   1.2348
  1.2524   1.2629   1.2737   1.2814   1.2925   1.3038   1.3123   1.3337
  1.3535   1.4152   1.4187   1.4480   1.4604   1.4840   1.4958   1.5006
  1.5303   1.5323   1.5555   1.5681   1.5708   1.5868   1.6010   1.6228
  1.6290   1.6624   1.6807   1.6949   1.7009   1.7129   1.7182   1.7246
  1.7524   1.7601   1.7711   1.7827   1.7915   1.8101   1.8198   1.8360
  1.8831   1.8875   1.8941   1.9063   1.9223   1.9420   1.9425   1.9618
  1.9932   2.0208   2.0209   2.0450   2.0619   2.0656   2.0910   2.1118
  2.1171   2.1239   2.1468   2.1545   2.1652   2.2157   2.2416   2.2698
  2.2744   2.3142   2.3398   2.3584   2.3970   2.4605   2.4765   2.4816
  2.5140   2.5271   2.5528   2.5723   2.6146   2.6429   2.6566   2.6640
  2.6842   2.7031   2.7230   2.7266   2.7363   2.7541   2.7559   2.7635
  2.7797   2.7905   2.8323   2.8488   2.8672   2.8808   2.8855   2.9096
  2.9516   2.9675   2.9749   3.0199   3.0404   3.0467   3.0539   3.0677
  3.0983   3.1116   3.1393   3.1507   3.1698   3.1813   3.2205   3.2371
  3.2564   3.2729   3.3265   3.3405   3.3678   3.3908   3.4132   3.4350
  3.4545   3.5054   3.5358   3.5507   3.5982   3.6427   3.6724   3.6931
  3.7742   3.8010   3.8304   3.8421   3.9009   4.0765   4.1108   4.1276
  4.1801   4.2029   4.2123   4.2864   4.4056   4.7898   4.8524   4.9949
  5.0343   5.1015   5.1196   5.2602   5.3048   5.4066   5.4855   5.6853
  5.7797   5.7935   5.8324  23.5667  23.7636  23.9151  23.9292  23.9321
 23.9453  23.9734  24.0275  24.1033  24.1471  24.1703  49.9322  49.9622
 50.0540  50.0888
 --------------------------------------------------------------
 
          Ground-State Mulliken Net Atomic Charges

     Atom                 Charge (a.u.)    Spin (a.u.)
  --------------------------------------------------------
      1 C                     0.231896       0.100602
      2 C                     0.936966      -0.012440
      3 C                     2.255920       0.056478
      4 C                     0.067117      -0.016377
      5 C                    -1.759111       0.055818
      6 C                    -0.592383       0.008493
      7 C                    -1.307542       0.150697
      8 C                    -0.347837       0.092795
      9 C                    -0.050494       0.087465
     10 C                    -1.474298       0.025632
     11 O                    -0.361892       0.266667
     12 O                    -0.362793       0.185189
     13 O                    -0.172482       0.017812
     14 O                    -0.120967       0.002884
     15 C                     0.171154       0.001017
     16 H                     0.173736      -0.006962
     17 H                     0.420926      -0.003634
     18 H                     0.166589      -0.000314
     19 H                     0.140521      -0.008071
     20 H                     0.291417      -0.003692
     21 H                     0.306966       0.000040
     22 H                     0.193390      -0.000047
     23 H                     0.193202      -0.000054
  --------------------------------------------------------
  Sum of atomic charges =    -1.000000
  Sum of spin   charges =     1.000000

 -----------------------------------------------------------------
                    Cartesian Multipole Moments
 -----------------------------------------------------------------
    Charge (ESU x 10^10)
                -4.8032
    Dipole Moment (Debye)
         X       7.4261      Y      -7.7420      Z     -11.1981
       Tot      15.5075
    Quadrupole Moments (Debye-Ang)
        XX    -106.8178     XY      16.7315     YY    -110.8830
        XZ      33.4466     YZ     -32.8629     ZZ    -128.4134
    Octopole Moments (Debye-Ang^2)
       XXX     814.4597    XXY    -263.4046    XYY     306.0290
       YYY    -767.3175    XXZ    -250.2296    XYZ     121.2377
       YYZ    -229.1201    XZZ     342.7395    YZZ    -324.1697
       ZZZ    -514.2031
    Hexadecapole Moments (Debye-Ang^3)
      XXXX   -6192.0777   XXXY    2566.3776   XXYY   -1827.5068
      XYYY    2746.2096   YYYY   -4910.1634   XXXZ    1187.0130
      XXYZ    -756.4506   XYYZ     665.6320   YYYZ   -1099.7558
      XXZZ   -1753.0489   XYZZ    1127.2191   YYZZ   -1516.7567
      XZZZ     960.1012   YZZZ   -1072.9663   ZZZZ   -3434.7276
 -----------------------------------------------------------------
 Total job time:  444.74s(wall), 3235.73s(cpu) 
 Sat Feb  3 14:27:31 2024

        *************************************************************
        *                                                           *
        *  Thank you very much for using Q-Chem.  Have a nice day.  *
        *                                                           *
        *************************************************************


