
Running Job 1 of 1 161-SM12.in
qchem 161-SM12.in_1778026.0 /expanse/lustre/scratch/selhajj/temp_project/qcscratch/28445530/qchem1778026/ 0
/cm/shared/apps/spack/cpu/opt/spack/linux-centos8-zen2/gcc-10.2.0/qchem-5.4-akfmr7b3t57bfs6qan3padb2wnb2i7cl/exe/qcprog.exe_s 161-SM12.in_1778026.0 /expanse/lustre/scratch/selhajj/temp_project/qcscratch/28445530/qchem1778026/
                  Welcome to Q-Chem
     A Quantum Leap Into The Future Of Chemistry


 Q-Chem 5.4, Q-Chem, Inc., Pleasanton, CA (2021)

 License issued to: University of California, San Diego (site)

 E. Epifanovsky,  A. T. B. Gilbert,  Xintian Feng,  Joonho Lee,  Yuezhi Mao,  
 N. Mardirossian,  P. Pokhilko,  A. White,  M. Wormit,  M. P. Coons,  
 A. L. Dempwolff,  Zhengting Gan,  D. Hait,  P. R. Horn,  L. D. Jacobson,  
 I. Kaliman,  J. Kussmann,  A. W. Lange,  Ka Un Lao,  D. S. Levine,  Jie Liu,  
 S. C. McKenzie,  A. F. Morrison,  K. Nanda,  F. Plasser,  D. R. Rehn,  
 M. L. Vidal,  Zhi-Qiang You,  Ying Zhu,  B. Alam,  B. Albrecht,  
 A. Aldossary,  E. Alguire,  J. H. Andersen,  D. Barton,  K. Begam,  A. Behn,  
 Y. A. Bernard,  E. J. Berquist,  H. Burton,  A. Carreras,  K. Carter-Fenk,  
 R. Chakraborty,  A. D. Chien,  K. D. Closser,  V. Cofer-Shabica,  
 S. Dasgupta,  Jia Deng,  M. de Wergifosse,  M. Diedenhofen,  Hainam Do,  
 S. Ehlert,  Po-Tung Fang,  S. Fatehi,  Qingguo Feng,  J. Gayvert,  
 Qinghui Ge,  G. Gidofalvi,  M. Goldey,  J. Gomes,  C. Gonzalez-Espinoza,  
 S. Gulania,  A. Gunina,  M. W. D. Hanson-Heine,  P. H. P. Harbach,  
 A. W. Hauser,  M. F. Herbst,  M. Hernandez Vera,  M. Hodecker,  
 Z. C. Holden,  S. Houck,  Xunkun Huang,  Kerwin Hui,  B. C. Huynh,  
 M. Ivanov,  Hyunjun Ji,  Hanjie Jiang,  B. Kaduk,  S. Kaehler,  
 K. Khistyaev,  Jaehoon Kim,  P. Klunzinger,  Z. Koczor-Benda,  
 Joong Hoon Koh,  D. Kosenkov,  L. Koulias,  T. Kowalczyk,  C. M. Krauter,  
 K. Kue,  A. Kunitsa,  T. Kus,  A. Landau,  K. V. Lawler,  D. Lefrancois,  
 S. Lehtola,  Rain Li,  Yi-Pei Li,  Jiashu Liang,  M. Liebenthal,  
 Hung-Hsuan Lin,  You-Sheng Lin,  Fenglai Liu,  Kuan-Yu Liu,  
 M. Loipersberger,  A. Luenser,  A. Manjanath,  P. Manohar,  E. Mansoor,  
 S. F. Manzer,  Shan-Ping Mao,  A. V. Marenich,  T. Markovich,  S. Mason,  
 S. A. Maurer,  P. F. McLaughlin,  M. F. S. J. Menger,  J.-M. Mewes,  
 S. A. Mewes,  P. Morgante,  J. W. Mullinax,  T. S. Nguyen-Beck,  
 K. J. Oosterbaan,  G. Paran,  Alexander C. Paul,  Suranjan K. Paul,  
 F. Pavosevic,  Zheng Pei,  S. Prager,  E. I. Proynov,  E. Ramos,  B. Rana,  
 A. E. Rask,  A. Rettig,  R. M. Richard,  F. Rob,  E. Rossomme,  T. Scheele,  
 M. Scheurer,  M. Schneider,  N. Sergueev,  S. M. Sharada,  W. Skomorowski,  
 D. W. Small,  C. J. Stein,  Yu-Chuan Su,  E. J. Sundstrom,  Zhen Tao,  
 J. Thirman,  T. Tsuchimochi,  N. M. Tubman,  S. P. Veccham,  O. Vydrov,  
 J. Wenzel,  J. Witte,  A. Yamada,  Kun Yao,  S. Yeganeh,  S. R. Yost,  
 A. Zech,  Igor Ying Zhang,  Xing Zhang,  Yu Zhang,  D. Zuev,  
 A. Aspuru-Guzik,  A. T. Bell,  N. A. Besley,  K. B. Bravaya,  B. R. Brooks,  
 D. Casanova,  Jeng-Da Chai,  S. Coriani,  C. J. Cramer,  
 A. E. DePrince, III,  R. A. DiStasio Jr.,  A. Dreuw,  B. D. Dunietz,  
 T. R. Furlani,  W. A. Goddard III,  S. Grimme,  S. Hammes-Schiffer,  
 T. Head-Gordon,  W. J. Hehre,  Chao-Ping Hsu,  T.-C. Jagau,  Yousung Jung,  
 A. Klamt,  Jing Kong,  D. S. Lambrecht,  WanZhen Liang,  N. J. Mayhall,  
 C. W. McCurdy,  J. B. Neaton,  C. Ochsenfeld,  J. A. Parkhill,  R. Peverati,  
 V. A. Rassolov,  Yihan Shao,  L. V. Slipchenko,  T. Stauch,  R. P. Steele,  
 J. E. Subotnik,  A. J. W. Thom,  A. Tkatchenko,  D. G. Truhlar,  
 T. Van Voorhis,  T. A. Wesolowski,  K. B. Whaley,  H. L. Woodcock III,  
 P. M. Zimmerman,  S. Faraji,  P. M. W. Gill,  M. Head-Gordon,  
 J. M. Herbert,  A. I. Krylov

 Contributors to earlier versions of Q-Chem not listed above: 
 R. D. Adamson,  B. Austin,  R. Baer,  J. Baker,  G. J. O. Beran,  
 K. Brandhorst,  S. T. Brown,  E. F. C. Byrd,  A. K. Chakraborty,  
 G. K. L. Chan,  Chun-Min Chang,  Yunqing Chen,  C.-L. Cheng,  
 Siu Hung Chien,  D. M. Chipman,  D. L. Crittenden,  H. Dachsel,  
 R. J. Doerksen,  A. D. Dutoi,  R. G. Edgar,  J. Fosso-Tande,  
 L. Fusti-Molnar,  D. Ghosh,  A. Ghysels,  A. Golubeva-Zadorozhnaya,  
 J. Gonthier,  M. S. Gordon,  S. R. Gwaltney,  G. Hawkins,  J. E. Herr,  
 A. Heyden,  S. Hirata,  E. G. Hohenstein,  G. Kedziora,  F. J. Keil,  
 C. Kelley,  Jihan Kim,  R. A. King,  R. Z. Khaliullin,  P. P. Korambath,  
 W. Kurlancheek,  A. Laurent,  A. M. Lee,  M. S. Lee,  S. V. Levchenko,  
 Ching Yeh Lin,  D. Liotard,  E. Livshits,  R. C. Lochan,  I. Lotan,  
 L. A. Martinez-Martinez,  P. E. Maslen,  N. Nair,  D. P. O'Neill,  
 D. Neuhauser,  E. Neuscamman,  C. M. Oana,  R. Olivares-Amaya,  R. Olson,  
 T. M. Perrine,  B. Peters,  P. A. Pieniazek,  A. Prociuk,  Y. M. Rhee,  
 J. Ritchie,  M. A. Rohrdanz,  E. Rosta,  N. J. Russ,  H. F. Schaefer III,  
 M. W. Schmidt,  N. E. Schultz,  S. Sharma,  N. Shenvi,  C. D. Sherrill,  
 A. C. Simmonett,  A. Sodt,  T. Stein,  D. Stuck,  K. S. Thanthiriwatte,  
 V. Vanovschi,  L. Vogt,  Tao Wang,  A. Warshel,  M. A. Watson,  
 C. F. Williams,  Q. Wu,  X. Xu,  Jun Yang,  W. Zhang,  Yan Zhao

 Please cite Q-Chem as follows:
 Y. Shao et al., Mol. Phys. 113, 184-215 (2015)
 DOI: 10.1080/00268976.2014.952696

 Q-Chem 5.4.0 for Intel X86 EM64T Linux

 Parts of Q-Chem use Armadillo 9.800.1 (Horizon Scraper).
 http://arma.sourceforge.net/

 Q-Chem begins on Sat Feb  3 11:23:25 2024  

 Host: 
0

     Scratch files written to /expanse/lustre/scratch/selhajj/temp_project/qcscratch/28445530/qchem1778026//
 May1621 |scratch|qcdevops|jenkins|workspace|build_RNUM    
 Processing $rem in /cm/shared/apps/spack/cpu/opt/spack/linux-centos8-zen2/gcc-10.2.0/qchem-5.4-akfmr7b3t57bfs6qan3padb2wnb2i7cl/config/preferences:
 Processing $rem in /home/selhajj/.qchemrc:
 Symmetry turned off for PCM/SM12/SMD calculation
 Method-specific promolecule density matrix will be built for SM12 calculation

 Checking the input file for inconsistencies... 	...done.

--------------------------------------------------------------
User input:
--------------------------------------------------------------
$molecule
0 1
N                 -4.5250980000      1.0190300000     -0.5046900000
C                 -3.2994860000      0.4424730000     -0.4037560000
C                 -3.1613840000     -0.9638270000     -0.4177580000
Cl                -4.6034730000     -1.9510390000     -0.6085540000
C                 -1.9389620000     -1.5775300000     -0.2901160000
C                 -0.7792080000     -0.8167560000     -0.1389950000
C                  0.4962620000     -1.5699090000     -0.0112990000
O                  0.5136880000     -2.7922130000     -0.0322690000
C                  1.7473310000     -0.7851460000      0.1390390000
C                  2.9705410000     -1.4531160000      0.2518670000
C                  4.1476010000     -0.7288260000      0.3922900000
C                  4.1096830000      0.6683980000      0.4220570000
C                  2.8968050000      1.3372210000      0.3118270000
C                  1.7062440000      0.6157580000      0.1686560000
C                  0.4240410000      1.3785140000      0.0557610000
O                  0.4440690000      2.5941600000      0.1092790000
C                 -0.8497940000      0.5971460000     -0.1179390000
C                 -2.1085260000      1.2022730000     -0.2543780000
Br                -2.3685500000      3.1042600000     -0.2672750000
H                 -4.5910170000      2.0182480000     -0.6120190000
H                 -5.3207480000      0.4484990000     -0.7363020000
H                 -1.8530170000     -2.6558380000     -0.3044860000
H                  2.9716660000     -2.5356640000      0.2266450000
H                  5.0955040000     -1.2476290000      0.4790940000
H                  5.0285300000      1.2331170000      0.5318060000
H                  2.8472970000      2.4183960000      0.3341040000
$end

$rem
BASIS  =  6-311++G(d,p)
GUI  =  2
JOB_TYPE  =  SP
METHOD  =  B3LYP
SCF_CONVERGENCE  = 8
SOLVENT_METHOD = sm12
$end

$smx
solvent dimethylformamide
charges CM5
$end





--------------------------------------------------------------
 ----------------------------------------------------------------
             Standard Nuclear Orientation (Angstroms)
    I     Atom           X                Y                Z
 ----------------------------------------------------------------
    1      N      -4.5250980000     1.0190300000    -0.5046900000
    2      C      -3.2994860000     0.4424730000    -0.4037560000
    3      C      -3.1613840000    -0.9638270000    -0.4177580000
    4      Cl     -4.6034730000    -1.9510390000    -0.6085540000
    5      C      -1.9389620000    -1.5775300000    -0.2901160000
    6      C      -0.7792080000    -0.8167560000    -0.1389950000
    7      C       0.4962620000    -1.5699090000    -0.0112990000
    8      O       0.5136880000    -2.7922130000    -0.0322690000
    9      C       1.7473310000    -0.7851460000     0.1390390000
   10      C       2.9705410000    -1.4531160000     0.2518670000
   11      C       4.1476010000    -0.7288260000     0.3922900000
   12      C       4.1096830000     0.6683980000     0.4220570000
   13      C       2.8968050000     1.3372210000     0.3118270000
   14      C       1.7062440000     0.6157580000     0.1686560000
   15      C       0.4240410000     1.3785140000     0.0557610000
   16      O       0.4440690000     2.5941600000     0.1092790000
   17      C      -0.8497940000     0.5971460000    -0.1179390000
   18      C      -2.1085260000     1.2022730000    -0.2543780000
   19      Br     -2.3685500000     3.1042600000    -0.2672750000
   20      H      -4.5910170000     2.0182480000    -0.6120190000
   21      H      -5.3207480000     0.4484990000    -0.7363020000
   22      H      -1.8530170000    -2.6558380000    -0.3044860000
   23      H       2.9716660000    -2.5356640000     0.2266450000
   24      H       5.0955040000    -1.2476290000     0.4790940000
   25      H       5.0285300000     1.2331170000     0.5318060000
   26      H       2.8472970000     2.4183960000     0.3341040000
 ----------------------------------------------------------------
 Nuclear Repulsion Energy =        1853.83992400 hartrees
 There are       83 alpha and       83 beta electrons
 Requested basis set is 6-311++G(d,p)
 There are 169 shells and 501 basis functions

 Total QAlloc Memory Limit   8000 MB
 Mega-Array Size       188 MB
 MEM_STATIC part       192 MB
 A cutoff of  1.0D-11 yielded  10191 shell pairs
 There are     95829 function pairs (    103221 Cartesian)
 Smallest overlap matrix eigenvalue = 3.98E-08

 Q-Chem warning in module stvman/mkSTV.C, line 323:

 Overlap eigenvalue is smaller than square root of threshold
 Use THRESH >= 12 to get rid of this warning

 Linear dependence detected in AO basis
 Tighter screening thresholds may be required for diffuse basis sets
 Use S2THRESH > 14 and THRESH = 14 in case of SCF convergence issues
 Number of orthogonalized atomic orbitals = 493
 Maximum deviation from orthogonality = 2.389E-10

 Scale SEOQF with 1.000000e-02/1.000000e-01/1.000000e-01

 Standard Electronic Orientation quadrupole field applied
 Nucleus-field energy     =     0.0000000493 hartrees
 ================ Generating on-the-fly Promolecule Density  ================
Attempting to make child job directory: /expanse/lustre/scratch/selhajj/temp_project/qcscratch/28445530/qchem1778026//Frg1/
Attempting to make child job directory: /expanse/lustre/scratch/selhajj/temp_project/qcscratch/28445530/qchem1778026//Frg2/
Attempting to make child job directory: /expanse/lustre/scratch/selhajj/temp_project/qcscratch/28445530/qchem1778026//Frg3/
Attempting to make child job directory: /expanse/lustre/scratch/selhajj/temp_project/qcscratch/28445530/qchem1778026//Frg4/
Attempting to make child job directory: /expanse/lustre/scratch/selhajj/temp_project/qcscratch/28445530/qchem1778026//Frg5/
Attempting to make child job directory: /expanse/lustre/scratch/selhajj/temp_project/qcscratch/28445530/qchem1778026//Frg6/
Creating input file /expanse/lustre/scratch/selhajj/temp_project/qcscratch/28445530/qchem1778026/Frg1.input
using default PutDataFrgm: nothing
calling putenv with: QCSCRATCH=/expanse/lustre/scratch/selhajj/temp_project/qcscratch/28445530/qchem1778026/ 
Spawning Job For Fragment 0
Done Job For Fragment 0
calling putenv with: QCSCRATCH=/expanse/lustre/scratch/selhajj/temp_project/qcscratch/28445530 
calling putenv with: QCTHREADS=8 
Creating input file /expanse/lustre/scratch/selhajj/temp_project/qcscratch/28445530/qchem1778026/Frg2.input
using default PutDataFrgm: nothing
calling putenv with: QCSCRATCH=/expanse/lustre/scratch/selhajj/temp_project/qcscratch/28445530/qchem1778026/ 
Spawning Job For Fragment 1
Done Job For Fragment 1
calling putenv with: QCSCRATCH=/expanse/lustre/scratch/selhajj/temp_project/qcscratch/28445530 
calling putenv with: QCTHREADS=8 
Creating input file /expanse/lustre/scratch/selhajj/temp_project/qcscratch/28445530/qchem1778026/Frg3.input
using default PutDataFrgm: nothing
calling putenv with: QCSCRATCH=/expanse/lustre/scratch/selhajj/temp_project/qcscratch/28445530/qchem1778026/ 
Spawning Job For Fragment 2
Done Job For Fragment 2
calling putenv with: QCSCRATCH=/expanse/lustre/scratch/selhajj/temp_project/qcscratch/28445530 
calling putenv with: QCTHREADS=8 
Creating input file /expanse/lustre/scratch/selhajj/temp_project/qcscratch/28445530/qchem1778026/Frg4.input
using default PutDataFrgm: nothing
calling putenv with: QCSCRATCH=/expanse/lustre/scratch/selhajj/temp_project/qcscratch/28445530/qchem1778026/ 
Spawning Job For Fragment 3
Done Job For Fragment 3
calling putenv with: QCSCRATCH=/expanse/lustre/scratch/selhajj/temp_project/qcscratch/28445530 
calling putenv with: QCTHREADS=8 
Creating input file /expanse/lustre/scratch/selhajj/temp_project/qcscratch/28445530/qchem1778026/Frg5.input
using default PutDataFrgm: nothing
calling putenv with: QCSCRATCH=/expanse/lustre/scratch/selhajj/temp_project/qcscratch/28445530/qchem1778026/ 
Spawning Job For Fragment 4
Done Job For Fragment 4
calling putenv with: QCSCRATCH=/expanse/lustre/scratch/selhajj/temp_project/qcscratch/28445530 
calling putenv with: QCTHREADS=8 
Creating input file /expanse/lustre/scratch/selhajj/temp_project/qcscratch/28445530/qchem1778026/Frg6.input
using default PutDataFrgm: nothing
calling putenv with: QCSCRATCH=/expanse/lustre/scratch/selhajj/temp_project/qcscratch/28445530/qchem1778026/ 
Spawning Job For Fragment 5
Done Job For Fragment 5
calling putenv with: QCSCRATCH=/expanse/lustre/scratch/selhajj/temp_project/qcscratch/28445530 
calling putenv with: QCTHREADS=8 
 Time for running child jobs:  CPU 0.02 s  wall 8.12 s
 ============= Method Specific Promolecule Density Constructed =============
 Guess from superposition of atomic densities
 Warning:  Energy on first SCF cycle will be non-variational
 SAD guess density has 166.000000 electrons

 -----------------------------------------------------------------------
  General SCF calculation program by
  Eric Jon Sundstrom, Paul Horn, Yuezhi Mao, Dmitri Zuev, Alec White,
  David Stuck, Shaama M.S., Shane Yost, Joonho Lee, David Small,
  Daniel Levine, Susi Lehtola, Hugh Burton, Evgeny Epifanovsky,
  Bang C. Huynh
 -----------------------------------------------------------------------
 Exchange:     0.2000 Hartree-Fock + 0.0800 Slater + 0.7200 B88
 Correlation:  0.1900 VWN1RPA + 0.8100 LYP
 Using SG-1 standard quadrature grid
 using 8 threads for integral computing
 -------------------------------------------------------
 OpenMP Integral computing Module                
 Release: version 1.0, May 2013, Q-Chem Inc. Pittsburgh 
 -------------------------------------------------------
 
 SM12 calculation using CM5 charges
 Citation of the SM12 model:
 Marenich, A.V.; Cramer, C.J.; Truhlar, D.G.
 J. Chem. Theory Comput. 2013, 9, 609-612.
 iSolventCode=          91
 Solvent: dimethylformamide                                               
 
Hirshfeld: reading atomic densities from disk.
warning:  vdwdata pointer should have been initialzed before dftman

 Charges (in A.U.) from CM5PAC (Nov. 11, 2011)
 -----------------------------------------------
 Center     Atomic      CM5         Hirshfeld
 Number     Number      Charge      Charge
 -----------------------------------------------
    1          7       -0.484324   -0.024335
    2          6        0.058572   -0.002453
    3          6       -0.003468   -0.003698
    4         17        0.018155    0.018997
    5          6       -0.050559   -0.002771
    6          6       -0.001674   -0.000260
    7          6        0.040349    0.007027
    8          8       -0.067844   -0.017680
    9          6       -0.001824   -0.000057
   10          6       -0.052089   -0.000451
   11          6       -0.058253   -0.002848
   12          6       -0.058301   -0.002882
   13          6       -0.051923   -0.000328
   14          6       -0.001628    0.000025
   15          6        0.040292    0.005826
   16          8       -0.072560   -0.022966
   17          6       -0.000508   -0.001466
   18          6       -0.014518   -0.005422
   19         35        0.050690    0.029356
   20          1        0.196732    0.002981
   21          1        0.197750    0.003838
   22          1        0.066978    0.003514
   23          1        0.066172    0.005391
   24          1        0.058840    0.003053
   25          1        0.058859    0.003055
   26          1        0.067049    0.005515
 -----------------------------------------------

 Dipole moment (in Debye)
 -----------------------------------------------
                 X        Y        Z     Total
 -----------------------------------------------
 CM5          0.0847   0.1248  -0.2616   0.3020
 Hirshfeld   -0.1255   0.0681  -0.0289   0.1457
 -----------------------------------------------

 A restricted SCF calculation will be
 performed using DIIS
 SCF converges when DIIS error is below 1.0e-08
 ---------------------------------------
  Cycle       Energy         DIIS error
 ---------------------------------------
Hirshfeld: reading atomic densities from disk.

 Charges (in A.U.) from CM5PAC (Nov. 11, 2011)
 -----------------------------------------------
 Center     Atomic      CM5         Hirshfeld
 Number     Number      Charge      Charge
 -----------------------------------------------
    1          7       -0.726773   -0.266784
    2          6        0.155006    0.093982
    3          6        0.050610    0.050381
    4         17        0.061294    0.062135
    5          6       -0.223453   -0.175665
    6          6       -0.099058   -0.097644
    7          6        0.365575    0.332252
    8          8       -0.537500   -0.487337
    9          6       -0.027322   -0.025555
   10          6       -0.150644   -0.099005
   11          6       -0.148553   -0.093148
   12          6       -0.149480   -0.094061
   13          6       -0.153495   -0.101899
   14          6       -0.021932   -0.020279
   15          6        0.393079    0.358612
   16          8       -0.529060   -0.479466
   17          6       -0.068125   -0.069083
   18          6        0.037173    0.046270
   19         35        0.164076    0.142741
   20          1        0.362038    0.168287
   21          1        0.375697    0.181785
   22          1        0.164772    0.101308
   23          1        0.172975    0.112195
   24          1        0.181324    0.125538
   25          1        0.181036    0.125232
   26          1        0.171391    0.109857
 -----------------------------------------------

 Dipole moment (in Debye)
 -----------------------------------------------
                 X        Y        Z     Total
 -----------------------------------------------
 CM5         -5.1124   3.2042  -1.0904   6.1313
 Hirshfeld   -5.3226   3.1475  -0.8577   6.2428
 -----------------------------------------------

    1   -3782.1328103597      2.98e-02  
Hirshfeld: reading atomic densities from disk.

 Charges (in A.U.) from CM5PAC (Nov. 11, 2011)
 -----------------------------------------------
 Center     Atomic      CM5         Hirshfeld
 Number     Number      Charge      Charge
 -----------------------------------------------
    1          7       -0.374896    0.085093
    2          6        0.028227   -0.032797
    3          6       -0.063326   -0.063555
    4         17       -0.114350   -0.113508
    5          6        0.145966    0.193754
    6          6        0.039256    0.040670
    7          6       -0.239946   -0.273268
    8          8        0.237381    0.287545
    9          6       -0.080634   -0.078867
   10          6        0.006006    0.057645
   11          6        0.028748    0.084153
   12          6        0.028873    0.084293
   13          6        0.011394    0.062990
   14          6       -0.088973   -0.087320
   15          6       -0.273165   -0.307631
   16          8        0.288992    0.338586
   17          6       -0.009658   -0.010617
   18          6       -0.153946   -0.144850
   19         35       -0.134458   -0.155792
   20          1        0.246408    0.052656
   21          1        0.258932    0.065020
   22          1        0.061654   -0.001810
   23          1        0.034571   -0.026209
   24          1        0.040357   -0.015430
   25          1        0.040226   -0.015578
   26          1        0.037970   -0.023564
 -----------------------------------------------

 Dipole moment (in Debye)
 -----------------------------------------------
                 X        Y        Z     Total
 -----------------------------------------------
 CM5          3.2399  -1.9332   0.0817   3.7737
 Hirshfeld    3.0297  -1.9899   0.3145   3.6384
 -----------------------------------------------

    2   -3777.2067892680      3.21e-03  
Hirshfeld: reading atomic densities from disk.

 Charges (in A.U.) from CM5PAC (Nov. 11, 2011)
 -----------------------------------------------
 Center     Atomic      CM5         Hirshfeld
 Number     Number      Charge      Charge
 -----------------------------------------------
    1          7       -0.577768   -0.117779
    2          6        0.119656    0.058632
    3          6        0.014033    0.013803
    4         17       -0.045376   -0.044535
    5          6       -0.066278   -0.018490
    6          6        0.005132    0.006546
    7          6        0.223488    0.190166
    8          8       -0.444710   -0.394547
    9          6        0.034277    0.036044
   10          6       -0.054237   -0.002599
   11          6       -0.065568   -0.010163
   12          6       -0.066701   -0.011282
   13          6       -0.055701   -0.004105
   14          6        0.034848    0.036501
   15          6        0.244797    0.210331
   16          8       -0.427973   -0.378379
   17          6        0.043631    0.042673
   18          6        0.036984    0.046081
   19         35       -0.014944   -0.036278
   20          1        0.289811    0.096060
   21          1        0.298321    0.104409
   22          1        0.101020    0.037556
   23          1        0.091274    0.030494
   24          1        0.096231    0.040444
   25          1        0.096008    0.040204
   26          1        0.090997    0.029463
 -----------------------------------------------

 Dipole moment (in Debye)
 -----------------------------------------------
                 X        Y        Z     Total
 -----------------------------------------------
 CM5         -0.6028   1.0626  -0.4904   1.3164
 Hirshfeld   -0.8130   1.0059  -0.2577   1.3188
 -----------------------------------------------

    3   -3776.8117255443      5.30e-03  
Hirshfeld: reading atomic densities from disk.

 Charges (in A.U.) from CM5PAC (Nov. 11, 2011)
 -----------------------------------------------
 Center     Atomic      CM5         Hirshfeld
 Number     Number      Charge      Charge
 -----------------------------------------------
    1          7       -0.602686   -0.142697
    2          6        0.118560    0.057536
    3          6        0.023938    0.023708
    4         17       -0.008364   -0.007522
    5          6       -0.092550   -0.044762
    6          6       -0.057831   -0.056417
    7          6        0.169150    0.135827
    8          8       -0.289202   -0.239038
    9          6       -0.033037   -0.031271
   10          6       -0.078298   -0.026660
   11          6       -0.072393   -0.016988
   12          6       -0.072675   -0.017255
   13          6       -0.078816   -0.027220
   14          6       -0.032566   -0.030913
   15          6        0.174127    0.139660
   16          8       -0.264637   -0.215043
   17          6       -0.046194   -0.047153
   18          6       -0.022697   -0.013601
   19         35        0.056766    0.035432
   20          1        0.304663    0.110912
   21          1        0.315252    0.121341
   22          1        0.120684    0.057220
   23          1        0.115498    0.054718
   24          1        0.119581    0.063794
   25          1        0.119415    0.063612
   26          1        0.115376    0.053843
 -----------------------------------------------

 Dipole moment (in Debye)
 -----------------------------------------------
                 X        Y        Z     Total
 -----------------------------------------------
 CM5         -1.0739   1.3452  -0.5414   1.8044
 Hirshfeld   -1.2841   1.2884  -0.3087   1.8450
 -----------------------------------------------

    4   -3777.4415748499      1.23e-03  
Hirshfeld: reading atomic densities from disk.

 Charges (in A.U.) from CM5PAC (Nov. 11, 2011)
 -----------------------------------------------
 Center     Atomic      CM5         Hirshfeld
 Number     Number      Charge      Charge
 -----------------------------------------------
    1          7       -0.585677   -0.125688
    2          6        0.107634    0.046610
    3          6        0.002170    0.001941
    4         17       -0.023281   -0.022439
    5          6       -0.072580   -0.024792
    6          6       -0.024263   -0.022849
    7          6        0.161121    0.127799
    8          8       -0.309567   -0.259403
    9          6       -0.020776   -0.019010
   10          6       -0.075192   -0.023553
   11          6       -0.071654   -0.016249
   12          6       -0.072549   -0.017129
   13          6       -0.075181   -0.023585
   14          6       -0.020211   -0.018558
   15          6        0.170834    0.136368
   16          8       -0.288508   -0.238914
   17          6       -0.009994   -0.010953
   18          6       -0.011844   -0.002748
   19         35        0.026621    0.005287
   20          1        0.303272    0.109521
   21          1        0.313291    0.119380
   22          1        0.117777    0.054313
   23          1        0.112688    0.051907
   24          1        0.117262    0.061475
   25          1        0.117055    0.061252
   26          1        0.112646    0.051112
 -----------------------------------------------

 Dipole moment (in Debye)
 -----------------------------------------------
                 X        Y        Z     Total
 -----------------------------------------------
 CM5         -0.7317   1.1058  -0.5038   1.4184
 Hirshfeld   -0.9419   1.0491  -0.2711   1.4357
 -----------------------------------------------

    5   -3777.4799999376      3.18e-04  
Hirshfeld: reading atomic densities from disk.

 Charges (in A.U.) from CM5PAC (Nov. 11, 2011)
 -----------------------------------------------
 Center     Atomic      CM5         Hirshfeld
 Number     Number      Charge      Charge
 -----------------------------------------------
    1          7       -0.588855   -0.128866
    2          6        0.115672    0.054648
    3          6        0.018105    0.017876
    4         17       -0.023447   -0.022606
    5          6       -0.078891   -0.031103
    6          6       -0.037261   -0.035847
    7          6        0.166127    0.132805
    8          8       -0.311161   -0.260997
    9          6       -0.018858   -0.017091
   10          6       -0.072394   -0.020755
   11          6       -0.070034   -0.014629
   12          6       -0.070570   -0.015151
   13          6       -0.072912   -0.021316
   14          6       -0.018730   -0.017077
   15          6        0.173847    0.139381
   16          8       -0.287832   -0.238238
   17          6       -0.021399   -0.022357
   18          6       -0.013063   -0.003967
   19         35        0.029273    0.007939
   20          1        0.302203    0.108452
   21          1        0.312595    0.118684
   22          1        0.117067    0.053603
   23          1        0.110659    0.049879
   24          1        0.115259    0.059472
   25          1        0.115070    0.059266
   26          1        0.110628    0.049094
 -----------------------------------------------

 Dipole moment (in Debye)
 -----------------------------------------------
                 X        Y        Z     Total
 -----------------------------------------------
 CM5         -0.8113   1.1373  -0.5122   1.4880
 Hirshfeld   -1.0215   1.0806  -0.2794   1.5130
 -----------------------------------------------

    6   -3777.4830418598      9.91e-05  
Hirshfeld: reading atomic densities from disk.

 Charges (in A.U.) from CM5PAC (Nov. 11, 2011)
 -----------------------------------------------
 Center     Atomic      CM5         Hirshfeld
 Number     Number      Charge      Charge
 -----------------------------------------------
    1          7       -0.590168   -0.130179
    2          6        0.111936    0.050912
    3          6        0.010663    0.010434
    4         17       -0.021245   -0.020404
    5          6       -0.078110   -0.030322
    6          6       -0.033366   -0.031952
    7          6        0.167342    0.134019
    8          8       -0.310058   -0.259894
    9          6       -0.020070   -0.018303
   10          6       -0.073548   -0.021909
   11          6       -0.070473   -0.015068
   12          6       -0.071090   -0.015670
   13          6       -0.073834   -0.022238
   14          6       -0.019593   -0.017940
   15          6        0.175703    0.141237
   16          8       -0.288064   -0.238470
   17          6       -0.018012   -0.018970
   18          6       -0.013053   -0.003957
   19         35        0.030509    0.009175
   20          1        0.302473    0.108721
   21          1        0.312708    0.118797
   22          1        0.117075    0.053611
   23          1        0.111084    0.050304
   24          1        0.115719    0.059932
   25          1        0.115528    0.059725
   26          1        0.111041    0.049507
 -----------------------------------------------

 Dipole moment (in Debye)
 -----------------------------------------------
                 X        Y        Z     Total
 -----------------------------------------------
 CM5         -0.7406   1.1355  -0.5043   1.4465
 Hirshfeld   -0.9508   1.0788  -0.2716   1.4634
 -----------------------------------------------

    7   -3777.4832055340      3.76e-05  
Hirshfeld: reading atomic densities from disk.

 Charges (in A.U.) from CM5PAC (Nov. 11, 2011)
 -----------------------------------------------
 Center     Atomic      CM5         Hirshfeld
 Number     Number      Charge      Charge
 -----------------------------------------------
    1          7       -0.589443   -0.129453
    2          6        0.113091    0.052067
    3          6        0.012533    0.012304
    4         17       -0.021940   -0.021098
    5          6       -0.077973   -0.030185
    6          6       -0.034210   -0.032795
    7          6        0.166606    0.133283
    8          8       -0.310540   -0.260376
    9          6       -0.020263   -0.018496
   10          6       -0.073443   -0.021804
   11          6       -0.070431   -0.015026
   12          6       -0.071066   -0.015647
   13          6       -0.073770   -0.022174
   14          6       -0.019852   -0.018199
   15          6        0.174873    0.140407
   16          8       -0.288021   -0.238427
   17          6       -0.018881   -0.019839
   18          6       -0.012642   -0.003545
   19         35        0.030375    0.009040
   20          1        0.302342    0.108591
   21          1        0.312560    0.118649
   22          1        0.117068    0.053604
   23          1        0.111282    0.050501
   24          1        0.115897    0.060110
   25          1        0.115709    0.059905
   26          1        0.111235    0.049702
 -----------------------------------------------

 Dipole moment (in Debye)
 -----------------------------------------------
                 X        Y        Z     Total
 -----------------------------------------------
 CM5         -0.7686   1.1445  -0.5073   1.4690
 Hirshfeld   -0.9788   1.0878  -0.2745   1.4889
 -----------------------------------------------

    8   -3777.4833458477      1.38e-05  
Hirshfeld: reading atomic densities from disk.

 Charges (in A.U.) from CM5PAC (Nov. 11, 2011)
 -----------------------------------------------
 Center     Atomic      CM5         Hirshfeld
 Number     Number      Charge      Charge
 -----------------------------------------------
    1          7       -0.589699   -0.129710
    2          6        0.112871    0.051846
    3          6        0.012547    0.012318
    4         17       -0.021900   -0.021058
    5          6       -0.078158   -0.030370
    6          6       -0.034115   -0.032700
    7          6        0.166701    0.133378
    8          8       -0.310415   -0.260252
    9          6       -0.019915   -0.018149
   10          6       -0.073453   -0.021815
   11          6       -0.070548   -0.015143
   12          6       -0.071168   -0.015749
   13          6       -0.073797   -0.022201
   14          6       -0.019531   -0.017878
   15          6        0.174995    0.140528
   16          8       -0.288133   -0.238539
   17          6       -0.018749   -0.019707
   18          6       -0.013033   -0.003937
   19         35        0.030422    0.009087
   20          1        0.302407    0.108656
   21          1        0.312643    0.118732
   22          1        0.117126    0.053662
   23          1        0.111242    0.050462
   24          1        0.115875    0.060088
   25          1        0.115686    0.059883
   26          1        0.111198    0.049664
 -----------------------------------------------

 Dipole moment (in Debye)
 -----------------------------------------------
                 X        Y        Z     Total
 -----------------------------------------------
 CM5         -0.7614   1.1390  -0.5067   1.4607
 Hirshfeld   -0.9716   1.0823  -0.2739   1.4800
 -----------------------------------------------

    9   -3777.4832984073      2.68e-06  
Hirshfeld: reading atomic densities from disk.

 Charges (in A.U.) from CM5PAC (Nov. 11, 2011)
 -----------------------------------------------
 Center     Atomic      CM5         Hirshfeld
 Number     Number      Charge      Charge
 -----------------------------------------------
    1          7       -0.589634   -0.129645
    2          6        0.112962    0.051938
    3          6        0.012456    0.012227
    4         17       -0.021918   -0.021076
    5          6       -0.078142   -0.030354
    6          6       -0.034178   -0.032764
    7          6        0.166730    0.133407
    8          8       -0.310539   -0.260375
    9          6       -0.020063   -0.018296
   10          6       -0.073434   -0.021795
   11          6       -0.070455   -0.015050
   12          6       -0.071072   -0.015653
   13          6       -0.073768   -0.022172
   14          6       -0.019659   -0.018006
   15          6        0.174986    0.140520
   16          8       -0.288100   -0.238506
   17          6       -0.018767   -0.019726
   18          6       -0.012769   -0.003673
   19         35        0.030319    0.008985
   20          1        0.302388    0.108637
   21          1        0.312617    0.118706
   22          1        0.117121    0.053657
   23          1        0.111251    0.050471
   24          1        0.115873    0.060086
   25          1        0.115685    0.059881
   26          1        0.111204    0.049671
 -----------------------------------------------

 Dipole moment (in Debye)
 -----------------------------------------------
                 X        Y        Z     Total
 -----------------------------------------------
 CM5         -0.7606   1.1420  -0.5065   1.4626
 Hirshfeld   -0.9708   1.0852  -0.2738   1.4816
 -----------------------------------------------

   10   -3777.4833117518      1.61e-06  
Hirshfeld: reading atomic densities from disk.

 Charges (in A.U.) from CM5PAC (Nov. 11, 2011)
 -----------------------------------------------
 Center     Atomic      CM5         Hirshfeld
 Number     Number      Charge      Charge
 -----------------------------------------------
    1          7       -0.589620   -0.129631
    2          6        0.112957    0.051932
    3          6        0.012515    0.012285
    4         17       -0.021931   -0.021089
    5          6       -0.078097   -0.030309
    6          6       -0.034145   -0.032731
    7          6        0.166724    0.133401
    8          8       -0.310519   -0.260355
    9          6       -0.020047   -0.018281
   10          6       -0.073437   -0.021798
   11          6       -0.070480   -0.015075
   12          6       -0.071104   -0.015685
   13          6       -0.073773   -0.022177
   14          6       -0.019644   -0.017991
   15          6        0.175006    0.140540
   16          8       -0.288147   -0.238553
   17          6       -0.018780   -0.019738
   18          6       -0.012862   -0.003765
   19         35        0.030339    0.009005
   20          1        0.302380    0.108629
   21          1        0.312611    0.118699
   22          1        0.117110    0.053646
   23          1        0.111256    0.050476
   24          1        0.115881    0.060094
   25          1        0.115694    0.059890
   26          1        0.111211    0.049677
 -----------------------------------------------

 Dipole moment (in Debye)
 -----------------------------------------------
                 X        Y        Z     Total
 -----------------------------------------------
 CM5         -0.7612   1.1405  -0.5066   1.4617
 Hirshfeld   -0.9714   1.0837  -0.2738   1.4809
 -----------------------------------------------

   11   -3777.4833067832      5.11e-07  
Hirshfeld: reading atomic densities from disk.

 Charges (in A.U.) from CM5PAC (Nov. 11, 2011)
 -----------------------------------------------
 Center     Atomic      CM5         Hirshfeld
 Number     Number      Charge      Charge
 -----------------------------------------------
    1          7       -0.589628   -0.129639
    2          6        0.112961    0.051937
    3          6        0.012509    0.012280
    4         17       -0.021926   -0.021084
    5          6       -0.078121   -0.030333
    6          6       -0.034158   -0.032744
    7          6        0.166724    0.133402
    8          8       -0.310532   -0.260369
    9          6       -0.020037   -0.018270
   10          6       -0.073437   -0.021798
   11          6       -0.070483   -0.015078
   12          6       -0.071104   -0.015685
   13          6       -0.073775   -0.022179
   14          6       -0.019636   -0.017983
   15          6        0.174995    0.140529
   16          8       -0.288131   -0.238537
   17          6       -0.018771   -0.019729
   18          6       -0.012832   -0.003735
   19         35        0.030336    0.009002
   20          1        0.302381    0.108629
   21          1        0.312610    0.118699
   22          1        0.117111    0.053647
   23          1        0.111256    0.050476
   24          1        0.115882    0.060095
   25          1        0.115694    0.059891
   26          1        0.111210    0.049676
 -----------------------------------------------

 Dipole moment (in Debye)
 -----------------------------------------------
                 X        Y        Z     Total
 -----------------------------------------------
 CM5         -0.7611   1.1411  -0.5066   1.4622
 Hirshfeld   -0.9713   1.0844  -0.2738   1.4813
 -----------------------------------------------

   12   -3777.4833073062      1.96e-07  
Hirshfeld: reading atomic densities from disk.

 Charges (in A.U.) from CM5PAC (Nov. 11, 2011)
 -----------------------------------------------
 Center     Atomic      CM5         Hirshfeld
 Number     Number      Charge      Charge
 -----------------------------------------------
    1          7       -0.589627   -0.129638
    2          6        0.112961    0.051936
    3          6        0.012509    0.012280
    4         17       -0.021927   -0.021085
    5          6       -0.078117   -0.030329
    6          6       -0.034158   -0.032744
    7          6        0.166724    0.133402
    8          8       -0.310528   -0.260365
    9          6       -0.020044   -0.018277
   10          6       -0.073436   -0.021797
   11          6       -0.070476   -0.015071
   12          6       -0.071098   -0.015678
   13          6       -0.073772   -0.022176
   14          6       -0.019642   -0.017989
   15          6        0.174999    0.140532
   16          8       -0.288137   -0.238544
   17          6       -0.018776   -0.019734
   18          6       -0.012836   -0.003739
   19         35        0.030337    0.009003
   20          1        0.302381    0.108630
   21          1        0.312610    0.118699
   22          1        0.117111    0.053647
   23          1        0.111255    0.050475
   24          1        0.115881    0.060094
   25          1        0.115693    0.059890
   26          1        0.111210    0.049676
 -----------------------------------------------

 Dipole moment (in Debye)
 -----------------------------------------------
                 X        Y        Z     Total
 -----------------------------------------------
 CM5         -0.7609   1.1409  -0.5065   1.4620
 Hirshfeld   -0.9711   1.0842  -0.2738   1.4811
 -----------------------------------------------

   13   -3777.4833073339      6.18e-08  
Hirshfeld: reading atomic densities from disk.

 Charges (in A.U.) from CM5PAC (Nov. 11, 2011)
 -----------------------------------------------
 Center     Atomic      CM5         Hirshfeld
 Number     Number      Charge      Charge
 -----------------------------------------------
    1          7       -0.589627   -0.129638
    2          6        0.112961    0.051937
    3          6        0.012510    0.012280
    4         17       -0.021928   -0.021087
    5          6       -0.078116   -0.030328
    6          6       -0.034157   -0.032743
    7          6        0.166726    0.133403
    8          8       -0.310531   -0.260367
    9          6       -0.020043   -0.018276
   10          6       -0.073436   -0.021797
   11          6       -0.070478   -0.015073
   12          6       -0.071100   -0.015680
   13          6       -0.073773   -0.022177
   14          6       -0.019641   -0.017988
   15          6        0.174998    0.140532
   16          8       -0.288135   -0.238541
   17          6       -0.018775   -0.019734
   18          6       -0.012836   -0.003739
   19         35        0.030336    0.009001
   20          1        0.302381    0.108629
   21          1        0.312610    0.118699
   22          1        0.117111    0.053647
   23          1        0.111256    0.050475
   24          1        0.115881    0.060094
   25          1        0.115693    0.059890
   26          1        0.111210    0.049676
 -----------------------------------------------

 Dipole moment (in Debye)
 -----------------------------------------------
                 X        Y        Z     Total
 -----------------------------------------------
 CM5         -0.7610   1.1410  -0.5065   1.4620
 Hirshfeld   -0.9711   1.0842  -0.2738   1.4811
 -----------------------------------------------

   14   -3777.4833071553      2.31e-08  
   15   -3777.4833072159      8.86e-09  Convergence criterion met
 ---------------------------------------
 SCF time:   CPU 5347.55s  wall 678.00s 
(1)  E-EN(liq) elect-nuc energy of solute              -3777.483307216 a.u.
(2)  G-P(liq) polarization free energy of solvation            -4.4389 kcal/mol
(3)  G-ENP(liq) elect-nuc-pol free energy of system    -3777.490381007 a.u.
(4)  G-CDS(liq) cavity-dispersion-solvent structure 
     free energy                                               -9.4676 kcal/mol
(5)  G-P-CDS(liq) = G-P(liq) + G-CDS(liq) = (2) + (4)         -13.9064 kcal/mol
(6)  G-S(liq) free energy of system = (1) + (5)        -3777.505468541 a.u.
 SCF   energy in the final basis set =    -3777.5054685410
 Total energy in the final basis set =    -3777.5054685410
 
 --------------------------------------------------------------
 
                    Orbital Energies (a.u.)
 --------------------------------------------------------------
 
 Alpha MOs
 -- Occupied --
********-101.5768 -62.4982 -56.3188 -56.3149 -56.3145 -19.1323 -19.1256
-14.3519 -10.2888 -10.2801 -10.2698 -10.2617 -10.2613 -10.2296 -10.2117
-10.2099 -10.2099 -10.2081 -10.1982 -10.1977 -10.1972 -10.1971  -9.4912
 -8.7071  -7.2558  -7.2460  -7.2457  -6.5388  -6.5258  -6.5248  -2.6497
 -2.6462  -2.6453  -2.6350  -2.6349  -1.0705  -1.0611  -0.9734  -0.9027
 -0.8903  -0.8770  -0.8269  -0.8033  -0.7785  -0.7638  -0.7588  -0.6909
 -0.6693  -0.6480  -0.6261  -0.5944  -0.5771  -0.5646  -0.5463  -0.5263
 -0.5006  -0.4898  -0.4877  -0.4650  -0.4592  -0.4572  -0.4523  -0.4491
 -0.4412  -0.4352  -0.4310  -0.4214  -0.3922  -0.3827  -0.3823  -0.3699
 -0.3684  -0.3437  -0.3431  -0.3237  -0.3187  -0.2860  -0.2831  -0.2782
 -0.2718  -0.2664  -0.2387
 -- Virtual --
 -0.1182  -0.0767  -0.0396  -0.0352  -0.0299  -0.0052   0.0020   0.0069
  0.0140   0.0189   0.0264   0.0296   0.0357   0.0369   0.0410   0.0449
  0.0488   0.0570   0.0577   0.0648   0.0693   0.0726   0.0796   0.0797
  0.0823   0.0883   0.0978   0.1016   0.1053   0.1072   0.1096   0.1142
  0.1151   0.1176   0.1238   0.1270   0.1299   0.1322   0.1338   0.1394
  0.1408   0.1424   0.1475   0.1571   0.1594   0.1610   0.1639   0.1694
  0.1719   0.1771   0.1821   0.1843   0.1860   0.1864   0.1924   0.1956
  0.1974   0.1996   0.2056   0.2090   0.2139   0.2158   0.2204   0.2224
  0.2297   0.2335   0.2401   0.2422   0.2469   0.2510   0.2539   0.2553
  0.2568   0.2579   0.2664   0.2703   0.2765   0.2821   0.2867   0.2889
  0.2938   0.3017   0.3054   0.3086   0.3105   0.3143   0.3181   0.3203
  0.3239   0.3277   0.3328   0.3439   0.3461   0.3530   0.3549   0.3642
  0.3726   0.3786   0.3894   0.3953   0.3960   0.4069   0.4158   0.4282
  0.4410   0.4436   0.4514   0.4568   0.4596   0.4695   0.4815   0.5099
  0.5162   0.5194   0.5232   0.5287   0.5345   0.5444   0.5473   0.5485
  0.5520   0.5709   0.5723   0.5783   0.5850   0.5881   0.5912   0.5980
  0.6044   0.6074   0.6200   0.6210   0.6281   0.6398   0.6438   0.6517
  0.6548   0.6568   0.6625   0.6665   0.6738   0.6905   0.6956   0.7007
  0.7144   0.7269   0.7301   0.7345   0.7412   0.7438   0.7622   0.7743
  0.7864   0.7979   0.8125   0.8159   0.8188   0.8386   0.8471   0.8520
  0.8528   0.8563   0.8643   0.8732   0.8800   0.8809   0.8872   0.8896
  0.9034   0.9139   0.9199   0.9222   0.9306   0.9353   0.9475   0.9553
  0.9574   0.9628   0.9693   0.9720   0.9828   0.9860   1.0020   1.0090
  1.0194   1.0368   1.0410   1.0565   1.0753   1.0773   1.0912   1.1012
  1.1081   1.1162   1.1350   1.1374   1.1487   1.1585   1.1834   1.1881
  1.2102   1.2169   1.2274   1.2398   1.2473   1.2834   1.2842   1.2888
  1.3053   1.3251   1.3346   1.3502   1.3816   1.3904   1.4205   1.4548
  1.4611   1.4621   1.4763   1.4967   1.4975   1.5057   1.5079   1.5155
  1.5586   1.5598   1.5622   1.5730   1.5823   1.6030   1.6119   1.6213
  1.6433   1.6564   1.6610   1.6958   1.7133   1.7182   1.7381   1.7428
  1.7456   1.7479   1.7795   1.7885   1.8108   1.8179   1.8423   1.8507
  1.8558   1.8732   1.8893   1.8977   1.9041   1.9178   1.9320   1.9325
  1.9391   1.9434   1.9649   1.9738   1.9851   2.0096   2.0226   2.0317
  2.0509   2.0575   2.0747   2.1133   2.1272   2.1491   2.1531   2.1668
  2.2158   2.2218   2.2368   2.2582   2.2636   2.2851   2.2914   2.3039
  2.3289   2.3458   2.3576   2.3805   2.3919   2.4307   2.4624   2.4644
  2.4787   2.4949   2.5052   2.5411   2.5671   2.5941   2.6024   2.6295
  2.6354   2.6546   2.6788   2.6953   2.6992   2.7160   2.7242   2.7419
  2.7523   2.7560   2.7697   2.7728   2.7769   2.7835   2.8187   2.8280
  2.8369   2.8444   2.8545   2.8653   2.8708   2.8849   2.8900   2.9146
  2.9291   2.9323   2.9596   2.9911   3.0010   3.0513   3.0726   3.0828
  3.0874   3.1211   3.1558   3.1642   3.1937   3.2223   3.2290   3.2815
  3.3157   3.3303   3.3402   3.3547   3.3608   3.4002   3.4062   3.4665
  3.5152   3.5377   3.5495   3.5714   3.5882   3.6504   3.6874   3.7433
  3.7952   3.8193   3.8759   3.8959   4.0132   4.0266   4.0603   4.0651
  4.0858   4.1111   4.1801   4.2217   4.2467   4.2964   4.4201   4.4501
  4.7273   4.7656   4.8277   4.8475   5.0055   5.0421   5.0572   5.2470
  5.2698   5.7304   5.8124   6.8151   7.5708   7.7185   7.7909   9.7810
 23.4445  23.6110  23.8189  23.8623  23.8998  23.9228  23.9401  23.9502
 23.9656  24.0007  24.0575  24.0826  24.1250  24.1719  25.8242  26.2348
 26.6904  35.6538  48.0574  50.0354  50.0842 215.7760 289.7673 289.9161
290.01321020.8852
 --------------------------------------------------------------
 
          Ground-State Mulliken Net Atomic Charges

     Atom                 Charge (a.u.)
  ----------------------------------------
      1 N                    -0.036364
      2 C                    -0.175224
      3 C                     1.199573
      4 Cl                    0.597354
      5 C                    -0.135389
      6 C                    -0.713590
      7 C                    -1.493777
      8 O                    -0.274460
      9 C                    -0.566539
     10 C                     0.072879
     11 C                     0.405816
     12 C                     0.443846
     13 C                     0.266131
     14 C                    -0.188182
     15 C                    -1.921128
     16 O                    -0.132292
     17 C                     0.368644
     18 C                     0.478961
     19 Br                   -0.053448
     20 H                     0.291057
     21 H                     0.307298
     22 H                     0.223256
     23 H                     0.186853
     24 H                     0.326585
     25 H                     0.327734
     26 H                     0.194407
  ----------------------------------------
  Sum of atomic charges =     0.000000

 -----------------------------------------------------------------
                    Cartesian Multipole Moments
 -----------------------------------------------------------------
    Charge (ESU x 10^10)
                 0.0000
    Dipole Moment (Debye)
         X      -0.5037      Y       1.1022      Z      -0.4333
       Tot       1.2869
    Quadrupole Moments (Debye-Ang)
        XX     -90.5227     XY      -4.6524     YY    -139.0102
        XZ       6.2077     YZ      -1.3285     ZZ    -130.2289
    Octopole Moments (Debye-Ang^2)
       XXX     239.6534    XXY       1.4850    XYY      77.8117
       YYY     -62.0828    XXZ       1.1605    XYZ       5.9013
       YYZ      13.2074    XZZ      83.2917    YZZ     -27.6025
       ZZZ      43.9805
    Hexadecapole Moments (Debye-Ang^3)
      XXXX   -5172.6198   XXXY     -11.3890   XXYY   -1360.6819
      XYYY     104.2588   YYYY   -2698.1308   XXXZ    -156.4560
      XXYZ     -29.1669   XYYZ    -100.7190   YYYZ     -14.0361
      XXZZ   -1134.7551   XYZZ      48.1526   YYZZ    -487.7180
      XZZZ    -376.4495   YZZZ      -4.7132   ZZZZ    -238.5185
 -----------------------------------------------------------------
 Total job time:  689.33s(wall), 5355.25s(cpu) 
 Sat Feb  3 11:34:55 2024

        *************************************************************
        *                                                           *
        *  Thank you very much for using Q-Chem.  Have a nice day.  *
        *                                                           *
        *************************************************************


