
Running Job 1 of 1 326-an-COSMO.in
qchem 326-an-COSMO.in_2389825.0 /expanse/lustre/scratch/selhajj/temp_project/qcscratch/28881803/qchem2389825/ 0
/cm/shared/apps/spack/cpu/opt/spack/linux-centos8-zen2/gcc-10.2.0/qchem-5.4-akfmr7b3t57bfs6qan3padb2wnb2i7cl/exe/qcprog.exe_s 326-an-COSMO.in_2389825.0 /expanse/lustre/scratch/selhajj/temp_project/qcscratch/28881803/qchem2389825/
                  Welcome to Q-Chem
     A Quantum Leap Into The Future Of Chemistry


 Q-Chem 5.4, Q-Chem, Inc., Pleasanton, CA (2021)

 License issued to: University of California, San Diego (site)

 E. Epifanovsky,  A. T. B. Gilbert,  Xintian Feng,  Joonho Lee,  Yuezhi Mao,  
 N. Mardirossian,  P. Pokhilko,  A. White,  M. Wormit,  M. P. Coons,  
 A. L. Dempwolff,  Zhengting Gan,  D. Hait,  P. R. Horn,  L. D. Jacobson,  
 I. Kaliman,  J. Kussmann,  A. W. Lange,  Ka Un Lao,  D. S. Levine,  Jie Liu,  
 S. C. McKenzie,  A. F. Morrison,  K. Nanda,  F. Plasser,  D. R. Rehn,  
 M. L. Vidal,  Zhi-Qiang You,  Ying Zhu,  B. Alam,  B. Albrecht,  
 A. Aldossary,  E. Alguire,  J. H. Andersen,  D. Barton,  K. Begam,  A. Behn,  
 Y. A. Bernard,  E. J. Berquist,  H. Burton,  A. Carreras,  K. Carter-Fenk,  
 R. Chakraborty,  A. D. Chien,  K. D. Closser,  V. Cofer-Shabica,  
 S. Dasgupta,  Jia Deng,  M. de Wergifosse,  M. Diedenhofen,  Hainam Do,  
 S. Ehlert,  Po-Tung Fang,  S. Fatehi,  Qingguo Feng,  J. Gayvert,  
 Qinghui Ge,  G. Gidofalvi,  M. Goldey,  J. Gomes,  C. Gonzalez-Espinoza,  
 S. Gulania,  A. Gunina,  M. W. D. Hanson-Heine,  P. H. P. Harbach,  
 A. W. Hauser,  M. F. Herbst,  M. Hernandez Vera,  M. Hodecker,  
 Z. C. Holden,  S. Houck,  Xunkun Huang,  Kerwin Hui,  B. C. Huynh,  
 M. Ivanov,  Hyunjun Ji,  Hanjie Jiang,  B. Kaduk,  S. Kaehler,  
 K. Khistyaev,  Jaehoon Kim,  P. Klunzinger,  Z. Koczor-Benda,  
 Joong Hoon Koh,  D. Kosenkov,  L. Koulias,  T. Kowalczyk,  C. M. Krauter,  
 K. Kue,  A. Kunitsa,  T. Kus,  A. Landau,  K. V. Lawler,  D. Lefrancois,  
 S. Lehtola,  Rain Li,  Yi-Pei Li,  Jiashu Liang,  M. Liebenthal,  
 Hung-Hsuan Lin,  You-Sheng Lin,  Fenglai Liu,  Kuan-Yu Liu,  
 M. Loipersberger,  A. Luenser,  A. Manjanath,  P. Manohar,  E. Mansoor,  
 S. F. Manzer,  Shan-Ping Mao,  A. V. Marenich,  T. Markovich,  S. Mason,  
 S. A. Maurer,  P. F. McLaughlin,  M. F. S. J. Menger,  J.-M. Mewes,  
 S. A. Mewes,  P. Morgante,  J. W. Mullinax,  T. S. Nguyen-Beck,  
 K. J. Oosterbaan,  G. Paran,  Alexander C. Paul,  Suranjan K. Paul,  
 F. Pavosevic,  Zheng Pei,  S. Prager,  E. I. Proynov,  E. Ramos,  B. Rana,  
 A. E. Rask,  A. Rettig,  R. M. Richard,  F. Rob,  E. Rossomme,  T. Scheele,  
 M. Scheurer,  M. Schneider,  N. Sergueev,  S. M. Sharada,  W. Skomorowski,  
 D. W. Small,  C. J. Stein,  Yu-Chuan Su,  E. J. Sundstrom,  Zhen Tao,  
 J. Thirman,  T. Tsuchimochi,  N. M. Tubman,  S. P. Veccham,  O. Vydrov,  
 J. Wenzel,  J. Witte,  A. Yamada,  Kun Yao,  S. Yeganeh,  S. R. Yost,  
 A. Zech,  Igor Ying Zhang,  Xing Zhang,  Yu Zhang,  D. Zuev,  
 A. Aspuru-Guzik,  A. T. Bell,  N. A. Besley,  K. B. Bravaya,  B. R. Brooks,  
 D. Casanova,  Jeng-Da Chai,  S. Coriani,  C. J. Cramer,  
 A. E. DePrince, III,  R. A. DiStasio Jr.,  A. Dreuw,  B. D. Dunietz,  
 T. R. Furlani,  W. A. Goddard III,  S. Grimme,  S. Hammes-Schiffer,  
 T. Head-Gordon,  W. J. Hehre,  Chao-Ping Hsu,  T.-C. Jagau,  Yousung Jung,  
 A. Klamt,  Jing Kong,  D. S. Lambrecht,  WanZhen Liang,  N. J. Mayhall,  
 C. W. McCurdy,  J. B. Neaton,  C. Ochsenfeld,  J. A. Parkhill,  R. Peverati,  
 V. A. Rassolov,  Yihan Shao,  L. V. Slipchenko,  T. Stauch,  R. P. Steele,  
 J. E. Subotnik,  A. J. W. Thom,  A. Tkatchenko,  D. G. Truhlar,  
 T. Van Voorhis,  T. A. Wesolowski,  K. B. Whaley,  H. L. Woodcock III,  
 P. M. Zimmerman,  S. Faraji,  P. M. W. Gill,  M. Head-Gordon,  
 J. M. Herbert,  A. I. Krylov

 Contributors to earlier versions of Q-Chem not listed above: 
 R. D. Adamson,  B. Austin,  R. Baer,  J. Baker,  G. J. O. Beran,  
 K. Brandhorst,  S. T. Brown,  E. F. C. Byrd,  A. K. Chakraborty,  
 G. K. L. Chan,  Chun-Min Chang,  Yunqing Chen,  C.-L. Cheng,  
 Siu Hung Chien,  D. M. Chipman,  D. L. Crittenden,  H. Dachsel,  
 R. J. Doerksen,  A. D. Dutoi,  R. G. Edgar,  J. Fosso-Tande,  
 L. Fusti-Molnar,  D. Ghosh,  A. Ghysels,  A. Golubeva-Zadorozhnaya,  
 J. Gonthier,  M. S. Gordon,  S. R. Gwaltney,  G. Hawkins,  J. E. Herr,  
 A. Heyden,  S. Hirata,  E. G. Hohenstein,  G. Kedziora,  F. J. Keil,  
 C. Kelley,  Jihan Kim,  R. A. King,  R. Z. Khaliullin,  P. P. Korambath,  
 W. Kurlancheek,  A. Laurent,  A. M. Lee,  M. S. Lee,  S. V. Levchenko,  
 Ching Yeh Lin,  D. Liotard,  E. Livshits,  R. C. Lochan,  I. Lotan,  
 L. A. Martinez-Martinez,  P. E. Maslen,  N. Nair,  D. P. O'Neill,  
 D. Neuhauser,  E. Neuscamman,  C. M. Oana,  R. Olivares-Amaya,  R. Olson,  
 T. M. Perrine,  B. Peters,  P. A. Pieniazek,  A. Prociuk,  Y. M. Rhee,  
 J. Ritchie,  M. A. Rohrdanz,  E. Rosta,  N. J. Russ,  H. F. Schaefer III,  
 M. W. Schmidt,  N. E. Schultz,  S. Sharma,  N. Shenvi,  C. D. Sherrill,  
 A. C. Simmonett,  A. Sodt,  T. Stein,  D. Stuck,  K. S. Thanthiriwatte,  
 V. Vanovschi,  L. Vogt,  Tao Wang,  A. Warshel,  M. A. Watson,  
 C. F. Williams,  Q. Wu,  X. Xu,  Jun Yang,  W. Zhang,  Yan Zhao

 Please cite Q-Chem as follows:
 Y. Shao et al., Mol. Phys. 113, 184-215 (2015)
 DOI: 10.1080/00268976.2014.952696

 Q-Chem 5.4.0 for Intel X86 EM64T Linux

 Parts of Q-Chem use Armadillo 9.800.1 (Horizon Scraper).
 http://arma.sourceforge.net/

 Q-Chem begins on Thu Feb 22 12:40:26 2024  

 Host: 
0

     Scratch files written to /expanse/lustre/scratch/selhajj/temp_project/qcscratch/28881803/qchem2389825//
 May1621 |scratch|qcdevops|jenkins|workspace|build_RNUM    
 Processing $rem in /cm/shared/apps/spack/cpu/opt/spack/linux-centos8-zen2/gcc-10.2.0/qchem-5.4-akfmr7b3t57bfs6qan3padb2wnb2i7cl/config/preferences:
 Processing $rem in /home/selhajj/.qchemrc:

 Checking the input file for inconsistencies... 
 Q-Chem warning in module libgen/CheckREMs.C, line 172:

 Found a $solvent section, which is only used for PCM and Kirkwood-Onsager solvation models

	...done.

--------------------------------------------------------------
User input:
--------------------------------------------------------------
$molecule
-3 1
C                 -1.8380980000      2.7917900000     -0.8044880000
C                 -2.9326890000      1.9957400000     -0.5214910000
C                 -2.7174240000      0.6759040000     -0.0579150000
C                 -0.5030280000      2.3406220000     -0.6438340000
C                 -0.2879180000      0.9804410000     -0.1968100000
C                 -1.4284100000      0.1917130000      0.0974370000
C                  0.5897230000      3.2608680000     -0.9721090000
C                  1.9751460000      2.7413280000     -0.8153970000
C                  2.1112640000      1.3779230000     -0.3673600000
C                  1.0647810000      0.5238420000     -0.0720410000
O                  0.3635070000      4.4450740000     -1.3668100000
O                  2.9976470000      3.4623430000     -1.0602850000
H                 -1.9629100000      3.8085740000     -1.1625580000
H                 -3.9484180000      2.3716750000     -0.6540160000
H                 -3.5689900000      0.0363140000      0.1678770000
H                 -1.2726630000     -0.8210540000      0.4469310000
H                  3.1252220000      1.0085310000     -0.2595450000
S                  1.4734140000     -1.1767550000      0.4849170000
O                  2.9684260000     -1.2698670000      0.4863820000
O                  0.8470240000     -2.1209250000     -0.4981330000
O                  0.8937450000     -1.3354810000      1.8595200000
$end
$rem
MAX_SCF_CYCLES=200
BASIS  =  6-311++G(d,p)
GUI  =  2
JOB_TYPE  =  SP
METHOD  =  B3LYP
SOLVENT_METHOD = COSMO
$end
$solvent
dielectric 37.219
opticaldielectric 1.43
$end





--------------------------------------------------------------
 ----------------------------------------------------------------
             Standard Nuclear Orientation (Angstroms)
    I     Atom           X                Y                Z
 ----------------------------------------------------------------
    1      C       2.7088252806     1.3258167833    -0.0172894260
    2      C       2.3781216072     2.6683993244    -0.0128664906
    3      C       1.0117429249     3.0365220552     0.0136617296
    4      C       1.7317827782     0.2979716096     0.0091004259
    5      C       0.3350728448     0.6792758003     0.0072037261
    6      C       0.0260787579     2.0626173462     0.0240553931
    7      C       2.1840959869    -1.0963261808     0.0008325942
    8      C       1.1283744264    -2.1448138634     0.0025407321
    9      C      -0.2395327600    -1.6898853630    -0.0003655161
   10      C      -0.6436295439    -0.3675776878    -0.0019583472
   11      O       3.4173897244    -1.3934399124    -0.0032166040
   12      O       1.4121109333    -3.3877066683     0.0097606905
   13      H       3.7451664743     1.0045616187    -0.0381199882
   14      H       3.1528100172     3.4365601811    -0.0324155826
   15      H       0.7352264989     4.0894964186     0.0160500004
   16      H      -1.0168258420     2.3528668277     0.0383876781
   17      H      -1.0008042922    -2.4623150030    -0.0022242794
   18      S      -2.4457468830    -0.0188944429    -0.0044861043
   19      O      -3.1307813214    -1.3509465870    -0.0143742050
   20      O      -2.7351036905     0.7772067232    -1.2425104558
   21      O      -2.7397677140     0.7610292071     1.2429169385
 ----------------------------------------------------------------
 Molecular Point Group                 C1    NOp =  1
 Largest Abelian Subgroup              C1    NOp =  1
 Nuclear Repulsion Energy =        1185.74803836 hartrees
 There are       62 alpha and       62 beta electrons
 Requested basis set is 6-311++G(d,p)
 There are 128 shells and 395 basis functions

 Total QAlloc Memory Limit   8000 MB
 Mega-Array Size       188 MB
 MEM_STATIC part       192 MB
 A cutoff of  1.0D-08 yielded   6015 shell pairs
 There are     59613 function pairs (     64031 Cartesian)
 Smallest overlap matrix eigenvalue = 1.59E-07

 Q-Chem warning in module stvman/mkSTV.C, line 323:

 Overlap eigenvalue is smaller than square root of threshold
 Use THRESH >= 12 to get rid of this warning

 Linear dependence detected in AO basis
 Tighter screening thresholds may be required for diffuse basis sets
 Use S2THRESH > 14 and THRESH = 14 in case of SCF convergence issues
 Number of orthogonalized atomic orbitals = 391
 Maximum deviation from orthogonality = 6.950E-11

 Scale SEOQF with 1.000000e-01/1.000000e-01/1.000000e-01

 Standard Electronic Orientation quadrupole field applied
 Nucleus-field energy     =     0.0000000437 hartrees
 Guess from superposition of atomic densities
 Warning:  Energy on first SCF cycle will be non-variational
 SAD guess density has 121.000000 electrons

 -----------------------------------------------------------------------
  General SCF calculation program by
  Eric Jon Sundstrom, Paul Horn, Yuezhi Mao, Dmitri Zuev, Alec White,
  David Stuck, Shaama M.S., Shane Yost, Joonho Lee, David Small,
  Daniel Levine, Susi Lehtola, Hugh Burton, Evgeny Epifanovsky,
  Bang C. Huynh
 -----------------------------------------------------------------------
 Exchange:     0.2000 Hartree-Fock + 0.0800 Slater + 0.7200 B88
 Correlation:  0.1900 VWN1RPA + 0.8100 LYP
 Using SG-1 standard quadrature grid
 using 8 threads for integral computing
 -------------------------------------------------------
 OpenMP Integral computing Module                
 Release: version 1.0, May 2013, Q-Chem Inc. Pittsburgh 
 -------------------------------------------------------
 A restricted SCF calculation will be
 performed using DIIS
 SCF converges when DIIS error is below 1.0e-05
 ---------------------------------------
  Cycle       Energy         DIIS error
 ---------------------------------------
    1   -1162.2152346009      3.39e-02  
    2   -1157.7585208795      6.28e-03  
    3   -1146.4525300809      1.73e-02  
    4   -1157.2298577569      7.28e-03  
    5   -1158.2915628643      2.08e-03  
    6   -1158.1169830832      2.91e-03  
    7   -1158.3772020791      1.20e-03  
    8   -1158.4071927354      5.72e-04  
    9   -1158.1847546959      2.09e-03  
   10   -1158.4111578800      3.96e-04  
   11   -1158.1852659701      2.10e-03  
   12   -1158.1887906377      2.10e-03  
   13   -1158.1882859727      2.10e-03  
   14   -1158.1941491668      2.08e-03  
   15   -1158.1904599912      2.09e-03  
   16   -1158.1907246526      2.09e-03  
   17   -1158.1871396418      2.10e-03  
   18   -1158.2733857990      1.79e-03  
   19   -1158.1943116618      2.09e-03  
   20   -1158.2045063042      2.05e-03  
   21   -1158.3903462329      1.01e-03  
   22   -1158.2890186065      1.71e-03  
   23   -1158.2823459344      1.74e-03  
   24   -1158.2391018841      1.92e-03  
   25   -1158.2907611734      1.69e-03  
   26   -1158.4095758651      7.74e-04  
   27   -1158.4280105065      1.69e-04  
   28   -1158.4290728453      2.42e-05  
   29   -1158.4289804802      5.15e-05  
   30   -1158.4290610648      2.58e-05  
   31   -1158.4290902676      4.60e-06  Convergence criterion met
 ---------------------------------------
 SCF time:   CPU 583.56s  wall 73.00s 
 SCF   energy in the final basis set =    -1158.4290902676
 Total energy in the final basis set =    -1158.4290902676
 Exchange:     0.2000 Hartree-Fock + 0.0800 Slater + 0.7200 B88
 Correlation:  0.1900 VWN1RPA + 0.8100 LYP
 Using SG-1 standard quadrature grid
 in get_qchem_info
 IBasis=      401111
 IBasis=      401111
 USING 1082 GRID
 MICHARGE=          -3
 Set epsilon to    37.2190017700195     
==== cosmo data ====
outfile: 326-an-COSMO.out.cosmo.0
phsran:    0.00000D+00
ampran:    0.10000D-04
volume:   1604.4715132
area:    794.9747497
routf:      0.8500000
rsolv [a.u]:      2.4566438
disex:     10.0000000
disex2:   4626.6543090
fepsi:      0.9731320
eps :    37.2190018
lcavity:     1
nppa:  1082
nspa:    92
nsph:    32
maxnps:  1632
natoms:    21
Atom   Radius [a.u.] nuc. charge
    1      3.7794520    6
    2      3.7794520    6
    3      3.7794520    6
    4      3.7794520    6
    5      3.7794520    6
    6      3.7794520    6
    7      3.7794520    6
    8      3.7794520    6
    9      3.7794520    6
   10      3.7794520    6
   11      3.2503287    8
   12      3.2503287    8
   13      2.4566438    1
   14      2.4566438    1
   15      2.4566438    1
   16      2.4566438    1
   17      2.4566438    1
   18      4.0818081   16
   19      3.2503287    8
   20      3.2503287    8
   21      3.2503287    8
=== end cosmo data ===
 number of segments:          911
 f_epsilon=  0.973132003749614     
Ediel:   -0.4877076
 A restricted SCF calculation will be
 performed using Roothaan-Hall, DIIS
 SCF converges when DIIS error is below 1.0e-05
 ---------------------------------------
  Cycle       Energy         DIIS error
 ---------------------------------------
 number of segments:          911
 f_epsilon=  0.973132003749614     
Ediel:   -0.6162659
    1   -1158.9167978808      5.72e-04  Roothaan Step
 ---------------------------------------
  Cycle       Energy         DIIS error
 ---------------------------------------
 number of segments:          911
 f_epsilon=  0.973132003749614     
Ediel:   -0.5833101
    1   -1158.9824891611      7.75e-04  
 number of segments:          911
 f_epsilon=  0.973132003749614     
Ediel:   -0.6020917
    2   -1158.9613451449      1.42e-03  
 number of segments:          911
 f_epsilon=  0.973132003749614     
Ediel:   -0.6027260
    3   -1158.9954753332      1.98e-04  
 number of segments:          911
 f_epsilon=  0.973132003749614     
Ediel:   -0.6026186
    4   -1158.9961840490      5.08e-05  
 number of segments:          911
 f_epsilon=  0.973132003749614     
Ediel:   -0.6030069
    5   -1158.9962127603      2.87e-05  
    6   -1158.9962298342      6.29e-06  Convergence criterion met
 ---------------------------------------
 SCF time:   CPU 146.17s  wall 18.00s 
before final oc correction, ETot:     -1158.9962298342
 number of outlayer segments:          427
SCF energy after oc correction:     -1159.0174463817
 SCF   energy in the final basis set =    -1159.0174463817
 Total energy in the final basis set =    -1158.9962298342
 
 --------------------------------------------------------------
 
                    Orbital Energies (a.u.)
 --------------------------------------------------------------
 
 Alpha MOs
 -- Occupied --
-89.0305 -19.0792 -19.0767 -19.0766 -19.0305 -19.0242 -10.1768 -10.1724
-10.1561 -10.1551 -10.1488 -10.1479 -10.1474 -10.1447 -10.1408 -10.1316
 -8.0892  -6.0523  -6.0521  -6.0504  -1.0903  -0.9609  -0.9564  -0.9536
 -0.9323  -0.8332  -0.7774  -0.7268  -0.7005  -0.6612  -0.5961  -0.5875
 -0.5605  -0.5286  -0.4849  -0.4741  -0.4590  -0.4408  -0.4380  -0.4213
 -0.4115  -0.3999  -0.3852  -0.3783  -0.3696  -0.3546  -0.3365  -0.3269
 -0.3242  -0.3234  -0.3154  -0.3096  -0.2885  -0.2816  -0.2733  -0.2627
 -0.2455  -0.2305  -0.2190  -0.1987  -0.1905  -0.1205
 -- Virtual --
 -0.0126   0.0071   0.0183   0.0196   0.0224   0.0385   0.0410   0.0473
  0.0544   0.0552   0.0658   0.0680   0.0703   0.0843   0.0872   0.0949
  0.1007   0.1034   0.1057   0.1110   0.1165   0.1227   0.1287   0.1306
  0.1329   0.1351   0.1392   0.1428   0.1436   0.1509   0.1539   0.1594
  0.1597   0.1672   0.1699   0.1702   0.1751   0.1817   0.1867   0.1991
  0.2076   0.2084   0.2204   0.2228   0.2314   0.2335   0.2393   0.2462
  0.2526   0.2563   0.2592   0.2618   0.2648   0.2713   0.2783   0.2787
  0.2896   0.2939   0.2986   0.2996   0.3010   0.3087   0.3091   0.3133
  0.3154   0.3190   0.3221   0.3283   0.3316   0.3345   0.3406   0.3507
  0.3536   0.3589   0.3703   0.3730   0.3755   0.3815   0.3911   0.4016
  0.4106   0.4134   0.4160   0.4275   0.4363   0.4609   0.4619   0.4835
  0.4878   0.4993   0.5279   0.5350   0.5524   0.5605   0.5632   0.5791
  0.5852   0.6101   0.6131   0.6149   0.6322   0.6347   0.6373   0.6459
  0.6533   0.6589   0.6654   0.6874   0.6919   0.7049   0.7176   0.7413
  0.7463   0.7598   0.7667   0.7763   0.7978   0.8036   0.8189   0.8329
  0.8472   0.8589   0.8702   0.8776   0.8966   0.9002   0.9203   0.9251
  0.9278   0.9500   0.9603   0.9678   0.9841   0.9862   0.9938   0.9975
  1.0125   1.0288   1.0400   1.0472   1.0724   1.0771   1.1045   1.1096
  1.1124   1.1267   1.1346   1.1409   1.1554   1.1643   1.1713   1.1746
  1.1811   1.2021   1.2053   1.2090   1.2227   1.2295   1.2560   1.2584
  1.2651   1.2792   1.2868   1.2893   1.3157   1.3243   1.3433   1.3689
  1.3890   1.4069   1.4445   1.5171   1.5332   1.5356   1.5439   1.5584
  1.5611   1.5887   1.6146   1.6202   1.6462   1.6622   1.6688   1.6822
  1.6988   1.7245   1.7454   1.7538   1.7670   1.7721   1.7939   1.8049
  1.8129   1.8277   1.8612   1.8792   1.8851   1.8997   1.9221   1.9329
  1.9392   1.9661   1.9706   1.9777   1.9815   2.0010   2.0396   2.0440
  2.0668   2.0764   2.0820   2.1248   2.1685   2.1886   2.1997   2.2160
  2.2217   2.3106   2.3469   2.3605   2.3968   2.4281   2.4709   2.5007
  2.5373   2.5838   2.6495   2.6534   2.6861   2.6982   2.7286   2.7457
  2.7621   2.7695   2.7822   2.7882   2.7970   2.7989   2.8061   2.8084
  2.8372   2.8500   2.8510   2.8705   2.8739   2.8849   2.8927   2.9037
  2.9068   2.9170   2.9477   2.9691   2.9761   2.9787   2.9971   2.9987
  3.0055   3.0154   3.0840   3.0875   3.1188   3.1333   3.1564   3.1683
  3.1859   3.2261   3.2381   3.2940   3.3302   3.3357   3.3662   3.3936
  3.4076   3.4388   3.4993   3.5052   3.5379   3.5625   3.5904   3.5991
  3.6074   3.6275   3.6737   3.7476   3.8570   3.9281   4.0671   4.0912
  4.1941   4.2304   4.2876   4.4030   4.8226   4.8527   5.0251   5.0625
  5.0837   5.0861   5.0983   5.1248   5.1406   5.1658   5.1811   5.2260
  5.2715   5.3233   5.3559   5.7138   5.8838   8.2141  17.4033  17.4460
 17.5276  23.5758  23.8212  23.9233  23.9585  23.9599  23.9951  24.0279
 24.1338  24.1582  24.2031  49.9020  49.9249  50.0029  50.0429  50.1427
189.3020
 --------------------------------------------------------------
 
          Ground-State Mulliken Net Atomic Charges

     Atom                 Charge (a.u.)
  ----------------------------------------
      1 C                     0.071449
      2 C                    -0.530117
      3 C                    -0.874994
      4 C                     0.502959
      5 C                     0.901970
      6 C                    -0.570965
      7 C                    -0.597266
      8 C                     0.047285
      9 C                     0.133604
     10 C                    -0.817944
     11 O                    -0.688183
     12 O                    -0.748444
     13 H                     0.155173
     14 H                     0.179042
     15 H                     0.182268
     16 H                     0.143765
     17 H                     0.208717
     18 S                     0.638767
     19 O                    -0.417784
     20 O                    -0.459757
     21 O                    -0.459546
  ----------------------------------------
  Sum of atomic charges =    -3.000000

 -----------------------------------------------------------------
                    Cartesian Multipole Moments
 -----------------------------------------------------------------
    Charge (ESU x 10^10)
               -14.4096
    Dipole Moment (Debye)
         X      -0.4119      Y      14.5085      Z      -0.0287
       Tot      14.5144
    Quadrupole Moments (Debye-Ang)
        XX    -212.5642     XY      32.2702     YY    -170.4322
        XZ      -0.2325     YZ       0.0634     ZZ    -120.9318
    Octopole Moments (Debye-Ang^2)
       XXX     -24.6395    XXY      93.3568    XYY     -81.2460
       YYY     181.7627    XXZ      -0.1742    XYZ      -0.1433
       YYZ      -0.4465    XZZ      11.7800    YZZ     -14.1088
       ZZZ      -0.1642
    Hexadecapole Moments (Debye-Ang^3)
      XXXX   -4095.5590   XXXY     246.9785   XXYY   -1124.6036
      XYYY     269.4897   YYYY   -2632.8866   XXXZ      -1.9239
      XXYZ      -1.0803   XYYZ      -2.0072   YYYZ       0.9398
      XXZZ    -644.6640   XYZZ      10.9582   YYZZ    -420.5643
      XZZZ       0.2083   YZZZ      -0.0764   ZZZZ    -275.7562
 -----------------------------------------------------------------
 Total job time:  94.34s(wall), 737.33s(cpu) 
 Thu Feb 22 12:42:01 2024

        *************************************************************
        *                                                           *
        *  Thank you very much for using Q-Chem.  Have a nice day.  *
        *                                                           *
        *************************************************************


