 Entering Gaussian System, Link 0=g16
 Input=226-an.com
 Output=226-an.log
 Initial command:
 /sysapps/ubuntu-applications/gaussian/Gaussian/AVX2/g16/l1.exe "/scratch/selhajj1/4263078/Gau-103419.inp" -scrdir="/scratch/selhajj1/4263078/"
 Entering Link 1 = /sysapps/ubuntu-applications/gaussian/Gaussian/AVX2/g16/l1.exe PID=    103421.
  
 Copyright (c) 1988,1990,1992,1993,1995,1998,2003,2009,2016,
            Gaussian, Inc.  All Rights Reserved.
  
 This is part of the Gaussian(R) 16 program.  It is based on
 the Gaussian(R) 09 system (copyright 2009, Gaussian, Inc.),
 the Gaussian(R) 03 system (copyright 2003, Gaussian, Inc.),
 the Gaussian(R) 98 system (copyright 1998, Gaussian, Inc.),
 the Gaussian(R) 94 system (copyright 1995, Gaussian, Inc.),
 the Gaussian 92(TM) system (copyright 1992, Gaussian, Inc.),
 the Gaussian 90(TM) system (copyright 1990, Gaussian, Inc.),
 the Gaussian 88(TM) system (copyright 1988, Gaussian, Inc.),
 the Gaussian 86(TM) system (copyright 1986, Carnegie Mellon
 University), and the Gaussian 82(TM) system (copyright 1983,
 Carnegie Mellon University). Gaussian is a federally registered
 trademark of Gaussian, Inc.
  
 This software contains proprietary and confidential information,
 including trade secrets, belonging to Gaussian, Inc.
  
 This software is provided under written license and may be
 used, copied, transmitted, or stored only in accord with that
 written license.
  
 The following legend is applicable only to US Government
 contracts under FAR:
  
                    RESTRICTED RIGHTS LEGEND
  
 Use, reproduction and disclosure by the US Government is
 subject to restrictions as set forth in subparagraphs (a)
 and (c) of the Commercial Computer Software - Restricted
 Rights clause in FAR 52.227-19.
  
 Gaussian, Inc.
 340 Quinnipiac St., Bldg. 40, Wallingford CT 06492
  
  
 ---------------------------------------------------------------
 Warning -- This program may not be used in any manner that
 competes with the business of Gaussian, Inc. or will provide
 assistance to any competitor of Gaussian, Inc.  The licensee
 of this program is prohibited from giving any competitor of
 Gaussian, Inc. access to this program.  By using this program,
 the user acknowledges that Gaussian, Inc. is engaged in the
 business of creating and licensing software in the field of
 computational chemistry and represents and warrants to the
 licensee that it is not a competitor of Gaussian, Inc. and that
 it will not use this program in any manner prohibited above.
 ---------------------------------------------------------------
  

 Cite this work as:
 Gaussian 16, Revision A.03,
 M. J. Frisch, G. W. Trucks, H. B. Schlegel, G. E. Scuseria, 
 M. A. Robb, J. R. Cheeseman, G. Scalmani, V. Barone, 
 G. A. Petersson, H. Nakatsuji, X. Li, M. Caricato, A. V. Marenich, 
 J. Bloino, B. G. Janesko, R. Gomperts, B. Mennucci, H. P. Hratchian, 
 J. V. Ortiz, A. F. Izmaylov, J. L. Sonnenberg, D. Williams-Young, 
 F. Ding, F. Lipparini, F. Egidi, J. Goings, B. Peng, A. Petrone, 
 T. Henderson, D. Ranasinghe, V. G. Zakrzewski, J. Gao, N. Rega, 
 G. Zheng, W. Liang, M. Hada, M. Ehara, K. Toyota, R. Fukuda, 
 J. Hasegawa, M. Ishida, T. Nakajima, Y. Honda, O. Kitao, H. Nakai, 
 T. Vreven, K. Throssell, J. A. Montgomery, Jr., J. E. Peralta, 
 F. Ogliaro, M. J. Bearpark, J. J. Heyd, E. N. Brothers, K. N. Kudin, 
 V. N. Staroverov, T. A. Keith, R. Kobayashi, J. Normand, 
 K. Raghavachari, A. P. Rendell, J. C. Burant, S. S. Iyengar, 
 J. Tomasi, M. Cossi, J. M. Millam, M. Klene, C. Adamo, R. Cammi, 
 J. W. Ochterski, R. L. Martin, K. Morokuma, O. Farkas, 
 J. B. Foresman, and D. J. Fox, Gaussian, Inc., Wallingford CT, 2016.
 
 ******************************************
 Gaussian 16:  ES64L-G16RevA.03 25-Dec-2016
                 8-Jan-2024 
 ******************************************
 %chk=226-an.chk
 %nproc=8
 Will use up to    8 processors via shared memory.
 %mem=30GB
 --------------------------------------
 #P UB3LYP/6-311++G(d,p) nosym opt freq
 --------------------------------------
 1/18=20,19=15,26=3,38=1/1,3;
 2/9=110,12=2,15=1,17=6,18=5,40=1/2;
 3/5=4,6=6,7=1111,11=2,25=1,30=1,71=1,74=-5,116=2/1,2,3;
 4//1;
 5/5=2,38=5/2;
 6/7=2,8=2,9=2,10=2,28=1/1;
 7/30=1/1,2,3,16;
 1/18=20,19=15,26=3/3(2);
 2/9=110,15=1/2;
 99//99;
 2/9=110,15=1/2;
 3/5=4,6=6,7=1111,11=2,25=1,30=1,71=1,74=-5,116=2/1,2,3;
 4/5=5,16=3,69=1/1;
 5/5=2,38=5/2;
 7/30=1/1,2,3,16;
 1/18=20,19=15,26=3/3(-5);
 2/9=110,15=1/2;
 6/7=2,8=2,9=2,10=2,19=2,28=1/1;
 99/9=1/99;
 Leave Link    1 at Mon Jan  8 16:35:01 2024, MaxMem=  4026531840 cpu:               0.6 elap:               0.1
 (Enter /sysapps/ubuntu-applications/gaussian/Gaussian/AVX2/g16/l101.exe)
 -------
 Reduced
 -------
 Symbolic Z-matrix:
 Charge = -4 Multiplicity = 1
 O                    -6.05005   0.33442  -1.23972 
 S                    -5.4038    0.58932   0.09401 
 O                    -5.30158   2.04726   0.41153 
 O                    -6.08505  -0.18933   1.18489 
 C                    -3.70492  -0.06285  -0.02558 
 C                    -3.53789  -1.44076  -0.3481 
 C                    -2.27004  -1.95884  -0.48839 
 C                    -1.09518  -1.17312  -0.31555 
 C                     0.20458  -1.78015  -0.51359 
 O                     0.3463   -3.00924  -0.88272 
 C                     1.33371  -0.91695  -0.23597 
 C                     2.65516  -1.43952  -0.32669 
 C                     3.77545  -0.66951  -0.1085 
 C                     3.63039   0.71087   0.21405 
 C                     2.36427   1.24969   0.33858 
 C                     1.18651   0.47305   0.13864 
 C                    -0.12549   1.09702   0.29856 
 O                    -0.26541   2.32654   0.61063 
 C                    -1.26549   0.2144    0.05855 
 C                    -2.58963   0.72706   0.17709 
 S                     5.14467   1.70256   0.43658 
 O                     5.91075   1.60129  -0.85347 
 O                     4.72046   3.10383   0.74207 
 O                     5.90528   1.07302   1.5704 
 H                    -4.41227  -2.07237  -0.47818 
 H                    -2.12391  -3.00828  -0.73261 
 H                     2.74706  -2.49483  -0.5721 
 H                     4.76875  -1.10439  -0.17683 
 H                     2.23836   2.29549   0.5915 
 H                    -2.70099   1.77429   0.43091 
 
 ITRead=  0  0  0  0  0  0  0  0  0  0  0  0  0  0  0  0  0  0  0  0
 ITRead=  0  0  0  0  0  0  0  0  0  0
 MicOpt= -1 -1 -1 -1 -1 -1 -1 -1 -1 -1 -1 -1 -1 -1 -1 -1 -1 -1 -1 -1
 MicOpt= -1 -1 -1 -1 -1 -1 -1 -1 -1 -1
 NAtoms=     30 NQM=       30 NQMF=       0 NMMI=      0 NMMIF=      0
                NMic=       0 NMicF=      0.
                    Isotopes and Nuclear Properties:
 (Nuclear quadrupole moments (NQMom) in fm**2, nuclear magnetic moments (NMagM)
  in nuclear magnetons)

  Atom         1           2           3           4           5           6           7           8           9          10
 IAtWgt=          16          32          16          16          12          12          12          12          12          16
 AtmWgt=  15.9949146  31.9720718  15.9949146  15.9949146  12.0000000  12.0000000  12.0000000  12.0000000  12.0000000  15.9949146
 NucSpn=           0           0           0           0           0           0           0           0           0           0
 AtZEff=  -0.0000000  -0.0000000  -0.0000000  -0.0000000  -0.0000000  -0.0000000  -0.0000000  -0.0000000  -0.0000000  -0.0000000
 NQMom=    0.0000000   0.0000000   0.0000000   0.0000000   0.0000000   0.0000000   0.0000000   0.0000000   0.0000000   0.0000000
 NMagM=    0.0000000   0.0000000   0.0000000   0.0000000   0.0000000   0.0000000   0.0000000   0.0000000   0.0000000   0.0000000
 AtZNuc=   8.0000000  16.0000000   8.0000000   8.0000000   6.0000000   6.0000000   6.0000000   6.0000000   6.0000000   8.0000000

  Atom        11          12          13          14          15          16          17          18          19          20
 IAtWgt=          12          12          12          12          12          12          12          16          12          12
 AtmWgt=  12.0000000  12.0000000  12.0000000  12.0000000  12.0000000  12.0000000  12.0000000  15.9949146  12.0000000  12.0000000
 NucSpn=           0           0           0           0           0           0           0           0           0           0
 AtZEff=  -0.0000000  -0.0000000  -0.0000000  -0.0000000  -0.0000000  -0.0000000  -0.0000000  -0.0000000  -0.0000000  -0.0000000
 NQMom=    0.0000000   0.0000000   0.0000000   0.0000000   0.0000000   0.0000000   0.0000000   0.0000000   0.0000000   0.0000000
 NMagM=    0.0000000   0.0000000   0.0000000   0.0000000   0.0000000   0.0000000   0.0000000   0.0000000   0.0000000   0.0000000
 AtZNuc=   6.0000000   6.0000000   6.0000000   6.0000000   6.0000000   6.0000000   6.0000000   8.0000000   6.0000000   6.0000000

  Atom        21          22          23          24          25          26          27          28          29          30
 IAtWgt=          32          16          16          16           1           1           1           1           1           1
 AtmWgt=  31.9720718  15.9949146  15.9949146  15.9949146   1.0078250   1.0078250   1.0078250   1.0078250   1.0078250   1.0078250
 NucSpn=           0           0           0           0           1           1           1           1           1           1
 AtZEff=  -0.0000000  -0.0000000  -0.0000000  -0.0000000  -0.0000000  -0.0000000  -0.0000000  -0.0000000  -0.0000000  -0.0000000
 NQMom=    0.0000000   0.0000000   0.0000000   0.0000000   0.0000000   0.0000000   0.0000000   0.0000000   0.0000000   0.0000000
 NMagM=    0.0000000   0.0000000   0.0000000   0.0000000   2.7928460   2.7928460   2.7928460   2.7928460   2.7928460   2.7928460
 AtZNuc=  16.0000000   8.0000000   8.0000000   8.0000000   1.0000000   1.0000000   1.0000000   1.0000000   1.0000000   1.0000000
 Leave Link  101 at Mon Jan  8 16:35:02 2024, MaxMem=  4026531840 cpu:               6.4 elap:               0.9
 (Enter /sysapps/ubuntu-applications/gaussian/Gaussian/AVX2/g16/l103.exe)

 GradGradGradGradGradGradGradGradGradGradGradGradGradGradGradGradGradGrad
 Berny optimization.
 Initialization pass.
                           ----------------------------
                           !    Initial Parameters    !
                           ! (Angstroms and Degrees)  !
 --------------------------                            --------------------------
 ! Name  Definition              Value          Derivative Info.                !
 --------------------------------------------------------------------------------
 ! R1    R(1,2)                  1.5038         estimate D2E/DX2                !
 ! R2    R(2,3)                  1.4956         estimate D2E/DX2                !
 ! R3    R(2,4)                  1.5035         estimate D2E/DX2                !
 ! R4    R(2,5)                  1.8237         estimate D2E/DX2                !
 ! R5    R(5,6)                  1.425          estimate D2E/DX2                !
 ! R6    R(5,20)                 1.3816         estimate D2E/DX2                !
 ! R7    R(6,7)                  1.3768         estimate D2E/DX2                !
 ! R8    R(6,25)                 1.0865         estimate D2E/DX2                !
 ! R9    R(7,8)                  1.4239         estimate D2E/DX2                !
 ! R10   R(7,26)                 1.0874         estimate D2E/DX2                !
 ! R11   R(8,9)                  1.4481         estimate D2E/DX2                !
 ! R12   R(8,19)                 1.4471         estimate D2E/DX2                !
 ! R13   R(9,10)                 1.2911         estimate D2E/DX2                !
 ! R14   R(9,11)                 1.4481         estimate D2E/DX2                !
 ! R15   R(11,12)                1.4239         estimate D2E/DX2                !
 ! R16   R(11,16)                1.4471         estimate D2E/DX2                !
 ! R17   R(12,13)                1.3768         estimate D2E/DX2                !
 ! R18   R(12,27)                1.0874         estimate D2E/DX2                !
 ! R19   R(13,14)                1.425          estimate D2E/DX2                !
 ! R20   R(13,28)                1.0865         estimate D2E/DX2                !
 ! R21   R(14,15)                1.3816         estimate D2E/DX2                !
 ! R22   R(14,21)                1.8237         estimate D2E/DX2                !
 ! R23   R(15,16)                1.4249         estimate D2E/DX2                !
 ! R24   R(15,29)                1.0833         estimate D2E/DX2                !
 ! R25   R(16,17)                1.4616         estimate D2E/DX2                !
 ! R26   R(17,18)                1.2762         estimate D2E/DX2                !
 ! R27   R(17,19)                1.4616         estimate D2E/DX2                !
 ! R28   R(19,20)                1.4249         estimate D2E/DX2                !
 ! R29   R(20,30)                1.0833         estimate D2E/DX2                !
 ! R30   R(21,22)                1.5038         estimate D2E/DX2                !
 ! R31   R(21,23)                1.4956         estimate D2E/DX2                !
 ! R32   R(21,24)                1.5035         estimate D2E/DX2                !
 ! A1    A(1,2,3)              112.513          estimate D2E/DX2                !
 ! A2    A(1,2,4)              111.1622         estimate D2E/DX2                !
 ! A3    A(1,2,5)              106.353          estimate D2E/DX2                !
 ! A4    A(3,2,4)              112.4443         estimate D2E/DX2                !
 ! A5    A(3,2,5)              107.3884         estimate D2E/DX2                !
 ! A6    A(4,2,5)              106.5282         estimate D2E/DX2                !
 ! A7    A(2,5,6)              118.0232         estimate D2E/DX2                !
 ! A8    A(2,5,20)             122.5418         estimate D2E/DX2                !
 ! A9    A(6,5,20)             119.4341         estimate D2E/DX2                !
 ! A10   A(5,6,7)              119.6612         estimate D2E/DX2                !
 ! A11   A(5,6,25)             119.6643         estimate D2E/DX2                !
 ! A12   A(7,6,25)             120.6744         estimate D2E/DX2                !
 ! A13   A(6,7,8)              122.67           estimate D2E/DX2                !
 ! A14   A(6,7,26)             120.6518         estimate D2E/DX2                !
 ! A15   A(8,7,26)             116.6763         estimate D2E/DX2                !
 ! A16   A(7,8,9)              119.5148         estimate D2E/DX2                !
 ! A17   A(7,8,19)             117.6035         estimate D2E/DX2                !
 ! A18   A(9,8,19)             122.8815         estimate D2E/DX2                !
 ! A19   A(8,9,10)             122.4566         estimate D2E/DX2                !
 ! A20   A(8,9,11)             115.0707         estimate D2E/DX2                !
 ! A21   A(10,9,11)            122.4566         estimate D2E/DX2                !
 ! A22   A(9,11,12)            119.5137         estimate D2E/DX2                !
 ! A23   A(9,11,16)            122.8793         estimate D2E/DX2                !
 ! A24   A(12,11,16)           117.6068         estimate D2E/DX2                !
 ! A25   A(11,12,13)           122.6694         estimate D2E/DX2                !
 ! A26   A(11,12,27)           116.6788         estimate D2E/DX2                !
 ! A27   A(13,12,27)           120.6499         estimate D2E/DX2                !
 ! A28   A(12,13,14)           119.6581         estimate D2E/DX2                !
 ! A29   A(12,13,28)           120.6691         estimate D2E/DX2                !
 ! A30   A(14,13,28)           119.6725         estimate D2E/DX2                !
 ! A31   A(13,14,15)           119.4374         estimate D2E/DX2                !
 ! A32   A(13,14,21)           118.0248         estimate D2E/DX2                !
 ! A33   A(15,14,21)           122.5366         estimate D2E/DX2                !
 ! A34   A(14,15,16)           122.1578         estimate D2E/DX2                !
 ! A35   A(14,15,29)           120.268          estimate D2E/DX2                !
 ! A36   A(16,15,29)           117.5737         estimate D2E/DX2                !
 ! A37   A(11,16,15)           118.4115         estimate D2E/DX2                !
 ! A38   A(11,16,17)           121.985          estimate D2E/DX2                !
 ! A39   A(15,16,17)           119.599          estimate D2E/DX2                !
 ! A40   A(16,17,18)           122.4433         estimate D2E/DX2                !
 ! A41   A(16,17,19)           115.1112         estimate D2E/DX2                !
 ! A42   A(18,17,19)           122.4412         estimate D2E/DX2                !
 ! A43   A(8,19,17)            121.9827         estimate D2E/DX2                !
 ! A44   A(8,19,20)            118.415          estimate D2E/DX2                !
 ! A45   A(17,19,20)           119.5978         estimate D2E/DX2                !
 ! A46   A(5,20,19)            122.1584         estimate D2E/DX2                !
 ! A47   A(5,20,30)            120.2702         estimate D2E/DX2                !
 ! A48   A(19,20,30)           117.5708         estimate D2E/DX2                !
 ! A49   A(14,21,22)           106.3615         estimate D2E/DX2                !
 ! A50   A(14,21,23)           107.3908         estimate D2E/DX2                !
 ! A51   A(14,21,24)           106.5225         estimate D2E/DX2                !
 ! A52   A(22,21,23)           112.5081         estimate D2E/DX2                !
 ! A53   A(22,21,24)           111.1634         estimate D2E/DX2                !
 ! A54   A(23,21,24)           112.4434         estimate D2E/DX2                !
 ! D1    D(1,2,5,6)            -58.1845         estimate D2E/DX2                !
 ! D2    D(1,2,5,20)           121.4841         estimate D2E/DX2                !
 ! D3    D(3,2,5,6)           -178.8506         estimate D2E/DX2                !
 ! D4    D(3,2,5,20)             0.818          estimate D2E/DX2                !
 ! D5    D(4,2,5,6)             60.4694         estimate D2E/DX2                !
 ! D6    D(4,2,5,20)          -119.862          estimate D2E/DX2                !
 ! D7    D(2,5,6,7)            177.9671         estimate D2E/DX2                !
 ! D8    D(2,5,6,25)            -2.1948         estimate D2E/DX2                !
 ! D9    D(20,5,6,7)            -1.7121         estimate D2E/DX2                !
 ! D10   D(20,5,6,25)          178.126          estimate D2E/DX2                !
 ! D11   D(2,5,20,19)         -178.8744         estimate D2E/DX2                !
 ! D12   D(2,5,20,30)            0.8409         estimate D2E/DX2                !
 ! D13   D(6,5,20,19)            0.7897         estimate D2E/DX2                !
 ! D14   D(6,5,20,30)         -179.495          estimate D2E/DX2                !
 ! D15   D(5,6,7,8)              0.4186         estimate D2E/DX2                !
 ! D16   D(5,6,7,26)           179.8977         estimate D2E/DX2                !
 ! D17   D(25,6,7,8)          -179.4178         estimate D2E/DX2                !
 ! D18   D(25,6,7,26)            0.0612         estimate D2E/DX2                !
 ! D19   D(6,7,8,9)           -178.4057         estimate D2E/DX2                !
 ! D20   D(6,7,8,19)             1.7356         estimate D2E/DX2                !
 ! D21   D(26,7,8,9)             2.0959         estimate D2E/DX2                !
 ! D22   D(26,7,8,19)         -177.7628         estimate D2E/DX2                !
 ! D23   D(7,8,9,10)             2.0801         estimate D2E/DX2                !
 ! D24   D(7,8,9,11)          -176.493          estimate D2E/DX2                !
 ! D25   D(19,8,9,10)         -178.069          estimate D2E/DX2                !
 ! D26   D(19,8,9,11)            3.3579         estimate D2E/DX2                !
 ! D27   D(7,8,19,17)          178.1987         estimate D2E/DX2                !
 ! D28   D(7,8,19,20)           -2.579          estimate D2E/DX2                !
 ! D29   D(9,8,19,17)           -1.6549         estimate D2E/DX2                !
 ! D30   D(9,8,19,20)          177.5674         estimate D2E/DX2                !
 ! D31   D(8,9,11,12)          176.4769         estimate D2E/DX2                !
 ! D32   D(8,9,11,16)           -3.37           estimate D2E/DX2                !
 ! D33   D(10,9,11,12)          -2.0961         estimate D2E/DX2                !
 ! D34   D(10,9,11,16)         178.057          estimate D2E/DX2                !
 ! D35   D(9,11,12,13)         178.3874         estimate D2E/DX2                !
 ! D36   D(9,11,12,27)          -2.1165         estimate D2E/DX2                !
 ! D37   D(16,11,12,13)         -1.7577         estimate D2E/DX2                !
 ! D38   D(16,11,12,27)        177.7384         estimate D2E/DX2                !
 ! D39   D(9,11,16,15)        -177.5399         estimate D2E/DX2                !
 ! D40   D(9,11,16,17)           1.6796         estimate D2E/DX2                !
 ! D41   D(12,11,16,15)          2.6104         estimate D2E/DX2                !
 ! D42   D(12,11,16,17)       -178.17           estimate D2E/DX2                !
 ! D43   D(11,12,13,14)         -0.4171         estimate D2E/DX2                !
 ! D44   D(11,12,13,28)        179.3985         estimate D2E/DX2                !
 ! D45   D(27,12,13,14)       -179.8937         estimate D2E/DX2                !
 ! D46   D(27,12,13,28)         -0.0781         estimate D2E/DX2                !
 ! D47   D(12,13,14,15)          1.7215         estimate D2E/DX2                !
 ! D48   D(12,13,14,21)       -177.8966         estimate D2E/DX2                !
 ! D49   D(28,13,14,15)       -178.096          estimate D2E/DX2                !
 ! D50   D(28,13,14,21)          2.2859         estimate D2E/DX2                !
 ! D51   D(13,14,15,16)         -0.7885         estimate D2E/DX2                !
 ! D52   D(13,14,15,29)        179.4891         estimate D2E/DX2                !
 ! D53   D(21,14,15,16)        178.8116         estimate D2E/DX2                !
 ! D54   D(21,14,15,29)         -0.9107         estimate D2E/DX2                !
 ! D55   D(13,14,21,22)         58.4145         estimate D2E/DX2                !
 ! D56   D(13,14,21,23)        179.0807         estimate D2E/DX2                !
 ! D57   D(13,14,21,24)        -60.2423         estimate D2E/DX2                !
 ! D58   D(15,14,21,22)       -121.1909         estimate D2E/DX2                !
 ! D59   D(15,14,21,23)         -0.5248         estimate D2E/DX2                !
 ! D60   D(15,14,21,24)        120.1522         estimate D2E/DX2                !
 ! D61   D(14,15,16,11)         -1.4031         estimate D2E/DX2                !
 ! D62   D(14,15,16,17)        179.3583         estimate D2E/DX2                !
 ! D63   D(29,15,16,11)        178.3264         estimate D2E/DX2                !
 ! D64   D(29,15,16,17)         -0.9122         estimate D2E/DX2                !
 ! D65   D(11,16,17,18)       -179.0128         estimate D2E/DX2                !
 ! D66   D(11,16,17,19)          0.2508         estimate D2E/DX2                !
 ! D67   D(15,16,17,18)          0.1977         estimate D2E/DX2                !
 ! D68   D(15,16,17,19)        179.4614         estimate D2E/DX2                !
 ! D69   D(16,17,19,8)          -0.2627         estimate D2E/DX2                !
 ! D70   D(16,17,19,20)       -179.476          estimate D2E/DX2                !
 ! D71   D(18,17,19,8)         179.0009         estimate D2E/DX2                !
 ! D72   D(18,17,19,20)         -0.2124         estimate D2E/DX2                !
 ! D73   D(8,19,20,5)            1.3811         estimate D2E/DX2                !
 ! D74   D(8,19,20,30)        -178.3415         estimate D2E/DX2                !
 ! D75   D(17,19,20,5)        -179.3776         estimate D2E/DX2                !
 ! D76   D(17,19,20,30)          0.8998         estimate D2E/DX2                !
 --------------------------------------------------------------------------------
 Trust Radius=3.00D-01 FncErr=1.00D-07 GrdErr=1.00D-06 EigMax=2.50D+02 EigMin=1.00D-04
 Number of steps in this run=    172 maximum allowed number of steps=    180.
 GradGradGradGradGradGradGradGradGradGradGradGradGradGradGradGradGradGrad

 Leave Link  103 at Mon Jan  8 16:35:02 2024, MaxMem=  4026531840 cpu:               0.3 elap:               0.1
 (Enter /sysapps/ubuntu-applications/gaussian/Gaussian/AVX2/g16/l202.exe)
                          Input orientation:                          
 ---------------------------------------------------------------------
 Center     Atomic      Atomic             Coordinates (Angstroms)
 Number     Number       Type             X           Y           Z
 ---------------------------------------------------------------------
      1          8           0       -6.050046    0.334417   -1.239715
      2         16           0       -5.403804    0.589317    0.094010
      3          8           0       -5.301579    2.047259    0.411525
      4          8           0       -6.085052   -0.189326    1.184894
      5          6           0       -3.704918   -0.062845   -0.025582
      6          6           0       -3.537893   -1.440757   -0.348098
      7          6           0       -2.270036   -1.958839   -0.488390
      8          6           0       -1.095175   -1.173118   -0.315548
      9          6           0        0.204583   -1.780152   -0.513588
     10          8           0        0.346302   -3.009240   -0.882718
     11          6           0        1.333706   -0.916953   -0.235967
     12          6           0        2.655163   -1.439517   -0.326692
     13          6           0        3.775446   -0.669507   -0.108498
     14          6           0        3.630393    0.710871    0.214047
     15          6           0        2.364266    1.249692    0.338582
     16          6           0        1.186508    0.473051    0.138637
     17          6           0       -0.125493    1.097019    0.298564
     18          8           0       -0.265409    2.326540    0.610632
     19          6           0       -1.265487    0.214404    0.058553
     20          6           0       -2.589629    0.727062    0.177093
     21         16           0        5.144667    1.702560    0.436580
     22          8           0        5.910750    1.601292   -0.853470
     23          8           0        4.720459    3.103832    0.742066
     24          8           0        5.905275    1.073023    1.570398
     25          1           0       -4.412266   -2.072368   -0.478179
     26          1           0       -2.123910   -3.008284   -0.732608
     27          1           0        2.747064   -2.494825   -0.572101
     28          1           0        4.768745   -1.104386   -0.176832
     29          1           0        2.238360    2.295489    0.591496
     30          1           0       -2.700990    1.774287    0.430910
 ---------------------------------------------------------------------
                    Distance matrix (angstroms):
                    1          2          3          4          5
     1  O    0.000000
     2  S    1.503804   0.000000
     3  O    2.494118   1.495614   0.000000
     4  O    2.480778   1.503467   2.492838   0.000000
     5  C    2.670498   1.823686   2.681963   2.673254   0.000000
     6  C    3.202676   2.792541   3.981692   3.225548   1.424976
     7  C    4.484639   4.080783   5.103814   4.526080   2.422369
     8  C    5.260940   4.673136   5.347270   5.302645   2.850885
     9  C    6.642217   6.118624   6.769249   6.706346   4.297847
    10  O    7.226393   6.853271   7.690371   7.320468   5.082156
    11  C    7.556006   6.911713   7.296082   7.588561   5.114831
    12  C    8.930908   8.321064   8.718504   8.957635   6.514332
    13  C    9.941218   9.267377   9.489132   9.956548   7.505382
    14  C    9.796226   9.035812   9.033552   9.805242   7.379895
    15  C    8.609843   7.799924   7.707569   8.612665   6.220158
    16  C    7.367957   6.591489   6.681906   7.376244   4.923434
    17  C    6.168322   5.306616   5.263799   6.160893   3.776591
    18  O    6.391742   5.448665   5.047836   6.366129   4.236054
    19  C    4.959023   4.155416   4.446795   4.965868   2.456577
    20  C    3.759787   2.818769   3.025318   3.751455   1.381629
    21  S   11.401902  10.612582  10.451962  11.412528   9.035785
    22  O   12.033902  11.399164  11.292273  12.298801   9.793662
    23  O   11.296057  10.451960  10.082998  11.304869   9.033499
    24  O   12.303332  11.415295  11.308656  12.062756   9.807811
    25  H    3.009132   2.897432   4.307410   3.018256   2.177927
    26  H    5.181250   4.937989   6.079896   5.226278   3.416882
    27  H    9.264959   8.740268   9.294014   9.295624   6.916739
    28  H   10.965679  10.316140  10.568371  10.977092   8.538773
    29  H    8.711878   7.846094   7.546170   8.706642   6.423790
    30  H    4.010036   2.970330   2.614948   3.984488   2.142734
                    6          7          8          9         10
     6  C    0.000000
     7  C    1.376791   0.000000
     8  C    2.457552   1.423914   0.000000
     9  C    3.761476   2.481190   1.448130   0.000000
    10  O    4.222905   2.846763   2.402266   1.291123   0.000000
    11  C    4.900961   3.759814   2.443648   1.448138   2.402274
    12  C    6.193093   4.955141   3.759804   2.481190   2.846759
    13  C    7.357796   6.193105   4.900963   3.761475   4.222889
    14  C    7.505320   6.514279   5.114771   4.297769   5.082064
    15  C    6.522693   5.696956   4.273830   3.817117   4.868496
    16  C    5.120502   4.272581   2.849953   2.542931   3.724978
    17  C    4.301506   3.815315   2.543804   3.007766   4.298765
    18  O    5.081421   4.857041   3.714018   4.283653   5.574480
    19  C    2.840555   2.455860   1.447126   2.542972   3.725015
    20  C    2.423730   2.785511   2.467138   3.817169   4.868557
    21  S    9.267309   8.321012   6.911646   6.118540   6.853168
    22  O    9.939131   8.929338   7.554449   6.641538   7.226406
    23  O    9.489053   8.718468   7.296057   6.769276   7.690437
    24  O    9.958571   8.959158   7.590009   6.706824   7.320166
    25  H    1.086454   2.145260   3.440667   4.626223   4.866760
    26  H    2.145772   1.087350   2.144777   2.641620   2.474769
    27  H    6.376670   5.046343   4.071306   2.641664   2.474826
    28  H    8.315210   7.097295   5.865963   4.626191   4.866698
    29  H    6.943160   6.292146   4.895551   4.687036   5.821799
    30  H    3.412297   3.868729   3.438464   4.687053   5.821833
                   11         12         13         14         15
    11  C    0.000000
    12  C    1.423922   0.000000
    13  C    2.457554   1.376793   0.000000
    14  C    2.850806   2.422321   1.424963   0.000000
    15  C    2.467086   2.785508   2.423764   1.381635   0.000000
    16  C    1.447103   2.455890   2.840619   2.456587   1.424873
    17  C    2.543829   3.815365   4.301586   3.776630   2.494757
    18  O    3.714047   4.857108   5.081531   4.236147   2.854611
    19  C    2.850003   4.272630   5.120567   4.923444   3.784884
    20  C    4.273870   5.696991   6.522741   6.220153   4.984004
    21  S    4.673071   4.080792   2.792593   1.823731   2.818745
    22  O    5.260437   4.485851   3.204845   2.670668   3.757946
    23  O    5.347276   5.103892   3.981783   2.682035   3.025274
    24  O    5.303037   4.524935   3.223550   2.673187   3.753309
    25  H    5.865991   7.097324   8.315246   8.538733   7.591085
    26  H    4.071293   5.046319   6.376660   6.916666   6.278657
    27  H    2.144819   1.087358   2.145759   3.416839   3.872633
    28  H    3.440657   2.145227   1.086477   2.178024   3.404241
    29  H    3.438441   3.868729   3.412305   2.142717   1.083286
    30  H    4.895536   6.292128   6.943149   6.423729   5.093186
                   16         17         18         19         20
    16  C    0.000000
    17  C    1.461595   0.000000
    18  O    2.401305   1.276199   0.000000
    19  C    2.466899   1.461575   2.401263   0.000000
    20  C    3.784866   2.494712   2.854520   1.424859   0.000000
    21  S    4.155416   5.306629   5.448722   6.591478   7.799889
    22  O    4.957385   6.165850   6.388624   7.365706   8.607135
    23  O    4.446790   5.263767   5.047805   6.681881   7.707504
    24  O    4.967562   6.163465   6.369442   7.378532   8.615357
    25  H    6.181091   5.387464   6.142664   3.926783   3.404144
    26  H    4.882379   4.680865   5.806778   3.427615   3.872630
    27  H    3.427648   4.680917   5.806842   4.882439   6.278705
    28  H    3.926863   5.387555   6.142805   6.181146   7.591122
    29  H    2.152383   2.666447   2.504035   4.109974   5.093248
    30  H    4.109900   2.666344   2.503865   2.152337   1.083284
                   21         22         23         24         25
    21  S    0.000000
    22  O    1.503784   0.000000
    23  O    1.495606   2.494024   0.000000
    24  O    1.503458   2.480773   2.492811   0.000000
    25  H   10.316096  10.963634  10.568288  10.979153   0.000000
    26  H    8.740210   9.263831   9.293977   9.296705   2.485407
    27  H    4.938014   5.183267   6.079990   5.224379   7.172398
    28  H    2.897678   3.013753   4.307645   3.014237   9.236816
    29  H    2.970216   4.007029   2.614748   3.987347   8.028275
    30  H    7.845987   8.708710   7.546020   8.709650   4.307164
                   26         27         28         29         30
    26  H    0.000000
    27  H    4.900591   0.000000
    28  H    7.172336   2.485307   0.000000
    29  H    6.993759   4.955789   4.307241   0.000000
    30  H    4.955783   6.993757   8.028266   4.969368   0.000000
 Symmetry turned off by external request.
 Stoichiometry    C14H6O8S2(4-)
 Framework group  C1[X(C14H6O8S2)]
 Deg. of freedom    84
 Full point group                 C1      NOp   1
 Rotational constants (GHZ):           0.5585167           0.0825507           0.0740017
 Leave Link  202 at Mon Jan  8 16:35:02 2024, MaxMem=  4026531840 cpu:               0.4 elap:               0.1
 (Enter /sysapps/ubuntu-applications/gaussian/Gaussian/AVX2/g16/l301.exe)
 Standard basis: 6-311++G(d,p) (5D, 7F)
 Ernie: Thresh=  0.10000D-02 Tol=  0.10000D-05 Strict=F.
   586 basis functions,   946 primitive gaussians,   610 cartesian basis functions
    95 alpha electrons       95 beta electrons
       nuclear repulsion energy      2233.8571526512 Hartrees.
 IExCor=  402 DFT=T Ex+Corr=B3LYP ExCW=0 ScaHFX=  0.200000
 ScaDFX=  0.800000  0.720000  1.000000  0.810000 ScalE2=  1.000000  1.000000
 IRadAn=      5 IRanWt=     -1 IRanGd=            0 ICorTp=0 IEmpDi=  4
 NAtoms=   30 NActive=   30 NUniq=   30 SFac= 1.00D+00 NAtFMM=   60 NAOKFM=F Big=F
 Integral buffers will be    131072 words long.
 Raffenetti 2 integral format.
 Two-electron integral symmetry is turned off.
 Leave Link  301 at Mon Jan  8 16:35:02 2024, MaxMem=  4026531840 cpu:               0.6 elap:               0.1
 (Enter /sysapps/ubuntu-applications/gaussian/Gaussian/AVX2/g16/l302.exe)
 NPDir=0 NMtPBC=     1 NCelOv=     1 NCel=       1 NClECP=     1 NCelD=      1
         NCelK=      1 NCelE2=     1 NClLst=     1 CellRange=     0.0.
 One-electron integrals computed using PRISM.
 NBasis=   586 RedAO= T EigKep=  1.37D-06  NBF=   586
 NBsUse=   578 1.00D-06 EigRej=  7.31D-07 NBFU=   578
 Precomputing XC quadrature grid using
 IXCGrd= 4 IRadAn=           5 IRanWt=          -1 IRanGd=           0 AccXCQ= 0.00D+00.
 Generated NRdTot=       0 NPtTot=           0 NUsed=           0 NTot=          32
 NSgBfM=   590   590   590   590   590 MxSgAt=    30 MxSgA2=    30.
 Leave Link  302 at Mon Jan  8 16:35:03 2024, MaxMem=  4026531840 cpu:               4.6 elap:               0.6
 (Enter /sysapps/ubuntu-applications/gaussian/Gaussian/AVX2/g16/l303.exe)
 DipDrv:  MaxL=1.
 Leave Link  303 at Mon Jan  8 16:35:03 2024, MaxMem=  4026531840 cpu:               0.8 elap:               0.1
 (Enter /sysapps/ubuntu-applications/gaussian/Gaussian/AVX2/g16/l401.exe)
 ExpMin= 3.60D-02 ExpMax= 9.34D+04 ExpMxC= 3.17D+03 IAcc=3 IRadAn=         5 AccDes= 0.00D+00
 Harris functional with IExCor=  402 and IRadAn=       5 diagonalized for initial guess.
 HarFok:  IExCor=  402 AccDes= 0.00D+00 IRadAn=         5 IDoV= 1 UseB2=F ITyADJ=14
 ICtDFT=  3500011 ScaDFX=  1.000000  1.000000  1.000000  1.000000
 FoFCou: FMM=F IPFlag=           0 FMFlag=      100000 FMFlg1=           0
         NFxFlg=           0 DoJE=T BraDBF=F KetDBF=T FulRan=T
         wScrn=  0.000000 ICntrl=       500 IOpCl=  0 I1Cent=   200000004 NGrid=           0
         NMat0=    1 NMatS0=      1 NMatT0=    0 NMatD0=    1 NMtDS0=    0 NMtDT0=    0
 Symmetry not used in FoFCou.
 Harris En= -1936.55119904457    
 JPrj=0 DoOrth=F DoCkMO=F.
 Initial guess <Sx>= 0.0000 <Sy>= 0.0000 <Sz>= 0.0000 <S**2>=-0.0000 S=-0.0000
 Leave Link  401 at Mon Jan  8 16:35:06 2024, MaxMem=  4026531840 cpu:              20.7 elap:               2.6
 (Enter /sysapps/ubuntu-applications/gaussian/Gaussian/AVX2/g16/l502.exe)
 Two-electron integral symmetry not used.
 UHF open shell SCF:
 Using DIIS extrapolation, IDIIS=  1040.
 NGot=  4026531840 LenX=  4025778608 LenY=  4025405898
 Requested convergence on RMS density matrix=1.00D-08 within 128 cycles.
 Requested convergence on MAX density matrix=1.00D-06.
 Requested convergence on             energy=1.00D-06.
 No special actions if energy rises.
 Fock matrices will be formed incrementally for  20 cycles.

 Cycle   1  Pass 1  IDiag  1:
 FoFJK:  IHMeth= 1 ICntrl=       0 DoSepK=F KAlg= 0 I1Cent=           0 FoldK=F
 IRaf= 760000000 NMat=       1 IRICut=       1 DoRegI=T DoRafI=F ISym2E= 0 IDoP0=0 IntGTp=1.
 FoFCou: FMM=F IPFlag=           0 FMFlag=      100000 FMFlg1=           0
         NFxFlg=           0 DoJE=F BraDBF=F KetDBF=F FulRan=T
         wScrn=  0.000000 ICntrl=         0 IOpCl=  1 I1Cent=           0 NGrid=           0
         NMat0=    1 NMatS0=      1 NMatT0=    0 NMatD0=    1 NMtDS0=    0 NMtDT0=    0
 Symmetry not used in FoFCou.
 E= -1934.14703279923    
 DIIS: error= 8.29D-02 at cycle   1 NSaved=   1.
 NSaved= 1 IEnMin= 1 EnMin= -1934.14703279923     IErMin= 1 ErrMin= 8.29D-02
 ErrMax= 8.29D-02  0.00D+00 EMaxC= 1.00D-01 BMatC= 6.51D+00 BMatP= 6.51D+00
 IDIUse=3 WtCom= 1.71D-01 WtEn= 8.29D-01
 Coeff-Com:  0.100D+01
 Coeff-En:   0.100D+01
 Coeff:      0.100D+01
 Gap=     0.043 Goal=   None    Shift=    0.000
 Gap=     0.043 Goal=   None    Shift=    0.000
 GapD=    0.043 DampG=0.250 DampE=0.500 DampFc=0.2500 IDamp=-1.
 Damping current iteration by 2.50D-01
 RMSDP=1.49D+01 MaxDP=1.36D+03              OVMax= 9.95D-01

 Cycle   2  Pass 1  IDiag  1:
 RMSU=  3.62D+00    CP:  3.00D+00
 E= -1934.22061335823     Delta-E=       -0.073580559001 Rises=F Damp=T
 DIIS: error= 2.71D-02 at cycle   2 NSaved=   2.
 NSaved= 2 IEnMin= 2 EnMin= -1934.22061335823     IErMin= 2 ErrMin= 2.71D-02
 ErrMax= 2.71D-02  0.00D+00 EMaxC= 1.00D-01 BMatC= 9.80D-01 BMatP= 6.51D+00
 IDIUse=3 WtCom= 7.29D-01 WtEn= 2.71D-01
 Coeff-Com: -0.201D+00 0.120D+01
 Coeff-En:   0.458D+00 0.542D+00
 Coeff:     -0.227D-01 0.102D+01
 Gap=    -0.360 Goal=   None    Shift=    0.000
 Gap=    -0.360 Goal=   None    Shift=    0.000
 RMSDP=3.66D+00 MaxDP=3.30D+02 DE=-7.36D-02 OVMax= 7.34D-01

 Cycle   3  Pass 1  IDiag  1:
 RMSU=  5.88D-02    CP:  1.81D+00  5.47D-03
 E= -1934.17471464438     Delta-E=        0.045898713854 Rises=F Damp=F
 DIIS: error= 5.53D-02 at cycle   3 NSaved=   3.
 NSaved= 3 IEnMin= 2 EnMin= -1934.22061335823     IErMin= 2 ErrMin= 2.71D-02
 ErrMax= 5.53D-02  0.00D+00 EMaxC= 1.00D-01 BMatC= 4.54D+00 BMatP= 9.80D-01
 IDIUse=2 WtCom= 0.00D+00 WtEn= 1.00D+00
 EnCoef did     2 forward-backward iterations
 Coeff-En:   0.159D+00 0.407D+00 0.434D+00
 Coeff:      0.159D+00 0.407D+00 0.434D+00
 Gap=     0.312 Goal=   None    Shift=    0.000
 Gap=     0.312 Goal=   None    Shift=    0.000
 RMSDP=3.46D+00 MaxDP=1.97D+02 DE= 4.59D-02 OVMax= 1.00D+00

 Cycle   4  Pass 1  IDiag  1:
 RMSU=  2.87D+00    CP:  3.00D+00  5.10D-01  3.00D+00
 E= -1931.91704151793     Delta-E=        2.257673126443 Rises=F Damp=F
 DIIS: error= 1.27D-01 at cycle   4 NSaved=   4.
 NSaved= 4 IEnMin= 2 EnMin= -1934.22061335823     IErMin= 2 ErrMin= 2.71D-02
 ErrMax= 1.27D-01  0.00D+00 EMaxC= 1.00D-01 BMatC= 7.87D+00 BMatP= 9.80D-01
 IDIUse=2 WtCom= 0.00D+00 WtEn= 1.00D+00
 EnCoef did     2 forward-backward iterations
 Coeff-En:   0.236D+00 0.000D+00 0.497D+00 0.267D+00
 Coeff:      0.236D+00 0.000D+00 0.497D+00 0.267D+00
 Gap=     0.027 Goal=   None    Shift=    0.000
 Gap=     0.027 Goal=   None    Shift=    0.000
 RMSDP=3.46D+00 MaxDP=2.00D+02 DE= 2.26D+00 OVMax= 9.39D-01

 Cycle   5  Pass 1  IDiag  1:
 RMSU=  4.98D-02    CP:  1.38D+00  4.48D-03  4.50D-01  6.41D-03
 E= -1934.85443476398     Delta-E=       -2.937393246048 Rises=F Damp=F
 DIIS: error= 5.91D-02 at cycle   5 NSaved=   5.
 NSaved= 5 IEnMin= 5 EnMin= -1934.85443476398     IErMin= 2 ErrMin= 2.71D-02
 ErrMax= 5.91D-02  0.00D+00 EMaxC= 1.00D-01 BMatC= 1.79D+00 BMatP= 9.80D-01
 IDIUse=2 WtCom= 0.00D+00 WtEn= 1.00D+00
 EnCoef did     3 forward-backward iterations
 Coeff-En:   0.356D-01 0.000D+00 0.312D+00 0.149D+00 0.504D+00
 Coeff:      0.356D-01 0.000D+00 0.312D+00 0.149D+00 0.504D+00
 Gap=     0.285 Goal=   None    Shift=    0.000
 Gap=     0.285 Goal=   None    Shift=    0.000
 RMSDP=5.87D-02 MaxDP=3.10D+00 DE=-2.94D+00 OVMax= 6.17D-01

 Cycle   6  Pass 1  IDiag  1:
 RMSU=  1.98D-02    CP:  1.43D+00  1.23D-03  3.77D-01 -6.82D-04  4.90D-03
 E= -1934.90495364416     Delta-E=       -0.050518880180 Rises=F Damp=F
 DIIS: error= 4.03D-02 at cycle   6 NSaved=   6.
 NSaved= 6 IEnMin= 6 EnMin= -1934.90495364416     IErMin= 2 ErrMin= 2.71D-02
 ErrMax= 4.03D-02  0.00D+00 EMaxC= 1.00D-01 BMatC= 1.77D+00 BMatP= 9.80D-01
 IDIUse=2 WtCom= 0.00D+00 WtEn= 1.00D+00
 Coeff-En:   0.000D+00 0.000D+00 0.000D+00 0.000D+00 0.480D+00 0.520D+00
 Coeff:      0.000D+00 0.000D+00 0.000D+00 0.000D+00 0.480D+00 0.520D+00
 Gap=     0.016 Goal=   None    Shift=    0.000
 Gap=     0.016 Goal=   None    Shift=    0.000
 RMSDP=3.36D-02 MaxDP=3.19D+00 DE=-5.05D-02 OVMax= 4.61D-01

 Cycle   7  Pass 1  IDiag  1:
 RMSU=  2.10D-02    CP:  1.61D+00  3.13D-03  6.48D-01 -8.72D-04  1.56D-01
                    CP:  6.40D-01
 E= -1935.24846959999     Delta-E=       -0.343515955828 Rises=F Damp=F
 DIIS: error= 2.07D-02 at cycle   7 NSaved=   7.
 NSaved= 7 IEnMin= 7 EnMin= -1935.24846959999     IErMin= 7 ErrMin= 2.07D-02
 ErrMax= 2.07D-02  0.00D+00 EMaxC= 1.00D-01 BMatC= 3.78D-01 BMatP= 9.80D-01
 IDIUse=3 WtCom= 7.93D-01 WtEn= 2.07D-01
 EnCoef did     5 forward-backward iterations
 Coeff-Com: -0.233D-02 0.123D+00-0.355D-01-0.627D-02 0.190D+00 0.214D+00
 Coeff-Com:  0.517D+00
 Coeff-En:   0.000D+00 0.000D+00 0.000D+00 0.000D+00 0.103D+00 0.145D+00
 Coeff-En:   0.751D+00
 Coeff:     -0.184D-02 0.973D-01-0.282D-01-0.497D-02 0.172D+00 0.200D+00
 Coeff:      0.566D+00
 Gap=     0.023 Goal=   None    Shift=    0.000
 Gap=     0.023 Goal=   None    Shift=    0.000
 RMSDP=2.40D-02 MaxDP=2.28D+00 DE=-3.44D-01 OVMax= 1.68D-01

 Cycle   8  Pass 1  IDiag  1:
 RMSU=  7.21D-03    CP:  1.46D+00  2.03D-03  3.84D-01 -7.74D-04  1.24D-01
                    CP:  4.51D-01  6.89D-01
 E= -1935.30442432793     Delta-E=       -0.055954727941 Rises=F Damp=F
 DIIS: error= 8.05D-03 at cycle   8 NSaved=   8.
 NSaved= 8 IEnMin= 8 EnMin= -1935.30442432793     IErMin= 8 ErrMin= 8.05D-03
 ErrMax= 8.05D-03  0.00D+00 EMaxC= 1.00D-01 BMatC= 8.14D-02 BMatP= 3.78D-01
 IDIUse=3 WtCom= 9.19D-01 WtEn= 8.05D-02
 Coeff-Com:  0.168D-01 0.160D-01-0.623D-01-0.105D-02 0.399D-01 0.184D-01
 Coeff-Com:  0.434D+00 0.538D+00
 Coeff-En:   0.000D+00 0.000D+00 0.000D+00 0.000D+00 0.000D+00 0.000D+00
 Coeff-En:   0.218D+00 0.782D+00
 Coeff:      0.154D-01 0.147D-01-0.573D-01-0.965D-03 0.367D-01 0.169D-01
 Coeff:      0.416D+00 0.558D+00
 Gap=     0.017 Goal=   None    Shift=    0.000
 Gap=     0.017 Goal=   None    Shift=    0.000
 RMSDP=1.60D-02 MaxDP=8.78D-01 DE=-5.60D-02 OVMax= 9.95D-02

 Cycle   9  Pass 1  IDiag  1:
 RMSU=  1.10D-02    CP:  1.50D+00  2.24D-03  4.50D-01  6.60D-04  1.16D-01
                    CP:  4.19D-01  1.12D+00  8.59D-01
 E= -1935.32346951250     Delta-E=       -0.019045184572 Rises=F Damp=F
 DIIS: error= 2.20D-03 at cycle   9 NSaved=   9.
 NSaved= 9 IEnMin= 9 EnMin= -1935.32346951250     IErMin= 9 ErrMin= 2.20D-03
 ErrMax= 2.20D-03  0.00D+00 EMaxC= 1.00D-01 BMatC= 6.62D-03 BMatP= 8.14D-02
 IDIUse=3 WtCom= 9.78D-01 WtEn= 2.20D-02
 Coeff-Com:  0.287D-02 0.659D-02-0.170D-01 0.149D-02 0.411D-02-0.452D-02
 Coeff-Com:  0.158D+00 0.323D+00 0.526D+00
 Coeff-En:   0.000D+00 0.000D+00 0.000D+00 0.000D+00 0.000D+00 0.000D+00
 Coeff-En:   0.000D+00 0.522D-01 0.948D+00
 Coeff:      0.281D-02 0.644D-02-0.166D-01 0.146D-02 0.402D-02-0.442D-02
 Coeff:      0.154D+00 0.317D+00 0.535D+00
 Gap=     0.017 Goal=   None    Shift=    0.000
 Gap=     0.017 Goal=   None    Shift=    0.000
 RMSDP=1.21D-02 MaxDP=6.61D-01 DE=-1.90D-02 OVMax= 3.51D-02

 Cycle  10  Pass 1  IDiag  1:
 RMSU=  6.31D-03    CP:  1.52D+00  2.21D-03  4.54D-01  2.16D-03  7.47D-02
                    CP:  4.02D-01  1.40D+00  9.34D-01  1.63D+00
 E= -1935.32508053396     Delta-E=       -0.001611021463 Rises=F Damp=F
 DIIS: error= 1.04D-03 at cycle  10 NSaved=  10.
 NSaved=10 IEnMin=10 EnMin= -1935.32508053396     IErMin=10 ErrMin= 1.04D-03
 ErrMax= 1.04D-03  0.00D+00 EMaxC= 1.00D-01 BMatC= 1.07D-03 BMatP= 6.62D-03
 IDIUse=3 WtCom= 9.90D-01 WtEn= 1.04D-02
 Coeff-Com: -0.498D-02 0.109D-01 0.749D-03-0.873D-03-0.328D-02-0.999D-03
 Coeff-Com:  0.300D-01 0.118D+00 0.352D+00 0.498D+00
 Coeff-En:   0.000D+00 0.000D+00 0.000D+00 0.000D+00 0.000D+00 0.000D+00
 Coeff-En:   0.000D+00 0.000D+00 0.000D+00 0.100D+01
 Coeff:     -0.493D-02 0.107D-01 0.741D-03-0.864D-03-0.324D-02-0.989D-03
 Coeff:      0.296D-01 0.117D+00 0.348D+00 0.504D+00
 Gap=     0.017 Goal=   None    Shift=    0.000
 Gap=     0.017 Goal=   None    Shift=    0.000
 RMSDP=1.28D-02 MaxDP=6.87D-01 DE=-1.61D-03 OVMax= 2.74D-02

 Cycle  11  Pass 1  IDiag  1:
 RMSU=  1.68D-03    CP:  1.54D+00  2.28D-03  4.75D-01  3.88D-03  2.42D-02
                    CP:  3.52D-01  1.63D+00  9.17D-01  2.44D+00  1.70D+00
 E= -1935.32539543484     Delta-E=       -0.000314900871 Rises=F Damp=F
 DIIS: error= 2.29D-04 at cycle  11 NSaved=  11.
 NSaved=11 IEnMin=11 EnMin= -1935.32539543484     IErMin=11 ErrMin= 2.29D-04
 ErrMax= 2.29D-04  0.00D+00 EMaxC= 1.00D-01 BMatC= 9.77D-05 BMatP= 1.07D-03
 IDIUse=3 WtCom= 9.98D-01 WtEn= 2.29D-03
 Coeff-Com: -0.260D-02 0.465D-02 0.276D-02-0.437D-03-0.178D-02-0.803D-03
 Coeff-Com:  0.335D-03 0.311D-01 0.157D+00 0.293D+00 0.517D+00
 Coeff-En:   0.000D+00 0.000D+00 0.000D+00 0.000D+00 0.000D+00 0.000D+00
 Coeff-En:   0.000D+00 0.000D+00 0.000D+00 0.000D+00 0.100D+01
 Coeff:     -0.259D-02 0.464D-02 0.275D-02-0.436D-03-0.178D-02-0.801D-03
 Coeff:      0.335D-03 0.310D-01 0.156D+00 0.293D+00 0.518D+00
 Gap=     0.017 Goal=   None    Shift=    0.000
 Gap=     0.017 Goal=   None    Shift=    0.000
 RMSDP=2.13D-02 MaxDP=1.14D+00 DE=-3.15D-04 OVMax= 3.60D-02

 Cycle  12  Pass 1  IDiag  1:
 RMSU=  7.93D-03    CP:  1.57D+00  2.35D-03  5.13D-01  7.07D-03 -5.72D-02
                    CP:  2.68D-01  2.02D+00  9.39D-01  3.00D+00  3.00D+00
                    CP:  2.80D+00
 E= -1935.32555439011     Delta-E=       -0.000158955272 Rises=F Damp=F
 DIIS: error= 3.05D-04 at cycle  12 NSaved=  12.
 NSaved=12 IEnMin=12 EnMin= -1935.32555439011     IErMin=11 ErrMin= 2.29D-04
 ErrMax= 3.05D-04  0.00D+00 EMaxC= 1.00D-01 BMatC= 8.64D-05 BMatP= 9.77D-05
 IDIUse=3 WtCom= 9.98D-01 WtEn= 2.29D-03
 Coeff-Com: -0.102D-02 0.232D-02 0.242D-02-0.396D-03-0.978D-03-0.116D-02
 Coeff-Com:  0.126D-02 0.237D-01 0.113D+00 0.193D+00 0.374D+00 0.294D+00
 Coeff-En:   0.000D+00 0.000D+00 0.000D+00 0.000D+00 0.000D+00 0.000D+00
 Coeff-En:   0.000D+00 0.000D+00 0.000D+00 0.000D+00 0.000D+00 0.100D+01
 Coeff:     -0.102D-02 0.231D-02 0.242D-02-0.395D-03-0.975D-03-0.115D-02
 Coeff:      0.126D-02 0.236D-01 0.112D+00 0.193D+00 0.374D+00 0.295D+00
 Gap=     0.016 Goal=   None    Shift=    0.000
 Gap=     0.016 Goal=   None    Shift=    0.000
 RMSDP=1.41D-02 MaxDP=7.51D-01 DE=-1.59D-04 OVMax= 2.05D-02

 Cycle  13  Pass 1  IDiag  1:
 RMSU=  5.87D-03    CP:  1.59D+00  2.42D-03  5.42D-01  9.28D-03 -1.13D-01
                    CP:  2.07D-01  2.25D+00  9.55D-01  3.00D+00  3.00D+00
                    CP:  3.00D+00  2.15D+00
 E= -1935.32563450891     Delta-E=       -0.000080118807 Rises=F Damp=F
 DIIS: error= 3.41D-04 at cycle  13 NSaved=  13.
 NSaved=13 IEnMin=13 EnMin= -1935.32563450891     IErMin=11 ErrMin= 2.29D-04
 ErrMax= 3.41D-04  0.00D+00 EMaxC= 1.00D-01 BMatC= 1.39D-04 BMatP= 8.64D-05
 IDIUse=3 WtCom= 9.98D-01 WtEn= 2.29D-03
 Coeff-Com: -0.148D-02 0.278D-02 0.234D-02-0.387D-03-0.966D-03-0.113D-02
 Coeff-Com: -0.954D-03 0.189D-01 0.109D+00 0.199D+00 0.431D+00 0.564D+00
 Coeff-Com: -0.322D+00
 Coeff-En:   0.000D+00 0.000D+00 0.000D+00 0.000D+00 0.000D+00 0.000D+00
 Coeff-En:   0.000D+00 0.000D+00 0.000D+00 0.000D+00 0.000D+00 0.000D+00
 Coeff-En:   0.100D+01
 Coeff:     -0.148D-02 0.277D-02 0.233D-02-0.386D-03-0.963D-03-0.113D-02
 Coeff:     -0.952D-03 0.188D-01 0.108D+00 0.199D+00 0.430D+00 0.563D+00
 Coeff:     -0.319D+00
 Gap=     0.016 Goal=   None    Shift=    0.000
 Gap=     0.016 Goal=   None    Shift=    0.000
 RMSDP=5.95D-03 MaxDP=3.19D-01 DE=-8.01D-05 OVMax= 8.34D-03

 Cycle  14  Pass 1  IDiag  1:
 RMSU=  2.57D-04    CP:  1.58D+00  2.39D-03  5.28D-01  8.31D-03 -8.85D-02
                    CP:  2.33D-01  2.16D+00  9.49D-01  3.00D+00  3.00D+00
                    CP:  3.00D+00  1.67D+00  5.69D-01
 E= -1935.32559882786     Delta-E=        0.000035681052 Rises=F Damp=F
 DIIS: error= 3.03D-04 at cycle  14 NSaved=  14.
 NSaved=14 IEnMin=13 EnMin= -1935.32563450891     IErMin=11 ErrMin= 2.29D-04
 ErrMax= 3.03D-04  0.00D+00 EMaxC= 1.00D-01 BMatC= 1.27D-04 BMatP= 8.64D-05
 IDIUse=3 WtCom= 9.98D-01 WtEn= 2.29D-03
 Rare condition: small coef for last iteration:  0.000D+00
 Coeff-Com: -0.185D-02 0.323D-02 0.224D-02-0.346D-03-0.721D-03-0.115D-02
 Coeff-Com: -0.329D-02 0.127D-01 0.973D-01 0.187D+00 0.440D+00 0.829D+00
 Coeff-Com: -0.191D+01 0.134D+01
 Coeff-En:   0.000D+00 0.000D+00 0.000D+00 0.000D+00 0.000D+00 0.000D+00
 Coeff-En:   0.000D+00 0.000D+00 0.000D+00 0.000D+00 0.000D+00 0.000D+00
 Coeff-En:   0.000D+00 0.100D+01
 Coeff:     -0.185D-02 0.323D-02 0.224D-02-0.346D-03-0.721D-03-0.115D-02
 Coeff:     -0.329D-02 0.127D-01 0.973D-01 0.187D+00 0.440D+00 0.829D+00
 Coeff:     -0.191D+01 0.134D+01
 Gap=     0.017 Goal=   None    Shift=    0.000
 Gap=     0.017 Goal=   None    Shift=    0.000
 RMSDP=9.67D-03 MaxDP=5.23D-01 DE= 3.57D-05 OVMax= 1.43D-02

 Cycle  15  Pass 1  IDiag  1:
 RMSU=  3.59D-04    CP:  1.57D+00  2.35D-03  5.06D-01  6.73D-03 -4.80D-02
                    CP:  2.75D-01  2.00D+00  9.42D-01  3.00D+00  2.92D+00
                    CP:  2.62D+00  8.96D-01  3.81D-03  1.38D+00
 E= -1935.32553131465     Delta-E=        0.000067513216 Rises=F Damp=F
 DIIS: error= 3.34D-04 at cycle  15 NSaved=  15.
 NSaved=15 IEnMin=13 EnMin= -1935.32563450891     IErMin=11 ErrMin= 2.29D-04
 ErrMax= 3.34D-04  0.00D+00 EMaxC= 1.00D-01 BMatC= 1.23D-04 BMatP= 8.64D-05
 IDIUse=3 WtCom= 9.98D-01 WtEn= 2.29D-03
 Rare condition: small coef for last iteration:  0.000D+00
 Coeff-Com: -0.144D-02 0.238D-02 0.226D-02-0.305D-03-0.126D-02-0.944D-03
 Coeff-Com: -0.534D-03 0.188D-01 0.116D+00 0.229D+00 0.538D+00 0.817D+00
 Coeff-Com:  0.193D+01-0.252D+00-0.240D+01
 Coeff-En:   0.000D+00 0.000D+00 0.000D+00 0.000D+00 0.000D+00 0.000D+00
 Coeff-En:   0.000D+00 0.000D+00 0.000D+00 0.000D+00 0.000D+00 0.000D+00
 Coeff-En:   0.000D+00 0.000D+00 0.100D+01
 Coeff:     -0.144D-02 0.238D-02 0.226D-02-0.305D-03-0.126D-02-0.944D-03
 Coeff:     -0.534D-03 0.188D-01 0.116D+00 0.229D+00 0.538D+00 0.817D+00
 Coeff:      0.193D+01-0.252D+00-0.240D+01
 Gap=     0.016 Goal=   None    Shift=    0.000
 Gap=     0.016 Goal=   None    Shift=    0.000
 RMSDP=4.54D-02 MaxDP=2.39D+00 DE= 6.75D-05 OVMax= 5.98D-02

 Cycle  16  Pass 1  IDiag  1:
 RMSU=  1.19D-02    CP:  1.64D+00  2.59D-03  6.18D-01  1.44D-02 -2.42D-01
                    CP:  6.63D-02  2.68D+00  1.01D+00  3.00D+00  3.00D+00
                    CP:  3.00D+00  3.00D+00  3.00D+00 -3.00D+00 -1.14D+00
 E= -1935.32579342464     Delta-E=       -0.000262109993 Rises=F Damp=F
 DIIS: error= 4.41D-04 at cycle  16 NSaved=  16.
 NSaved=16 IEnMin=16 EnMin= -1935.32579342464     IErMin=11 ErrMin= 2.29D-04
 ErrMax= 4.41D-04  0.00D+00 EMaxC= 1.00D-01 BMatC= 1.86D-04 BMatP= 8.64D-05
 IDIUse=3 WtCom= 9.98D-01 WtEn= 2.29D-03
 Coeff-Com: -0.764D-03 0.140D-02 0.209D-02-0.213D-03-0.888D-03-0.110D-02
 Coeff-Com: -0.693D-04 0.172D-01 0.987D-01 0.183D+00 0.416D+00 0.470D+00
 Coeff-Com:  0.115D+01-0.555D+00-0.220D+00-0.560D+00
 Coeff-En:   0.000D+00 0.000D+00 0.000D+00 0.000D+00 0.000D+00 0.000D+00
 Coeff-En:   0.000D+00 0.000D+00 0.000D+00 0.000D+00 0.000D+00 0.000D+00
 Coeff-En:   0.000D+00 0.000D+00 0.000D+00 0.100D+01
 Coeff:     -0.763D-03 0.140D-02 0.209D-02-0.212D-03-0.886D-03-0.110D-02
 Coeff:     -0.691D-04 0.172D-01 0.984D-01 0.183D+00 0.415D+00 0.469D+00
 Coeff:      0.115D+01-0.553D+00-0.219D+00-0.556D+00
 Gap=     0.016 Goal=   None    Shift=    0.000
 Gap=     0.016 Goal=   None    Shift=    0.000
 RMSDP=3.65D-02 MaxDP=1.92D+00 DE=-2.62D-04 OVMax= 4.62D-02

 Cycle  17  Pass 1  IDiag  1:
 RMSU=  8.87D-05    CP:  1.58D+00  2.39D-03  5.22D-01  8.08D-03 -8.22D-02
                    CP:  2.38D-01  2.16D+00  9.48D-01  3.00D+00  3.00D+00
                    CP:  3.00D+00  1.64D+00  5.32D-01  3.00D+00  9.22D-01
                    CP: -3.79D-04
 E= -1935.32556397158     Delta-E=        0.000229453058 Rises=F Damp=F
 DIIS: error= 4.60D-04 at cycle  17 NSaved=  17.
 NSaved=17 IEnMin=16 EnMin= -1935.32579342464     IErMin=11 ErrMin= 2.29D-04
 ErrMax= 4.60D-04  0.00D+00 EMaxC= 1.00D-01 BMatC= 2.06D-04 BMatP= 8.64D-05
 IDIUse=3 WtCom= 9.98D-01 WtEn= 2.29D-03
 Rare condition: small coef for last iteration:  0.000D+00
 Coeff-Com: -0.114D-02 0.191D-02 0.223D-02-0.243D-03-0.423D-03-0.164D-02
 Coeff-Com: -0.423D-02 0.778D-02 0.812D-01 0.158D+00 0.427D+00 0.877D+00
 Coeff-Com: -0.123D+01 0.144D+01-0.738D+00 0.115D+01-0.117D+01
 Coeff-En:   0.000D+00 0.000D+00 0.000D+00 0.000D+00 0.000D+00 0.000D+00
 Coeff-En:   0.000D+00 0.000D+00 0.000D+00 0.000D+00 0.000D+00 0.000D+00
 Coeff-En:   0.000D+00 0.000D+00 0.000D+00 0.000D+00 0.100D+01
 Coeff:     -0.114D-02 0.191D-02 0.223D-02-0.243D-03-0.423D-03-0.164D-02
 Coeff:     -0.423D-02 0.778D-02 0.812D-01 0.158D+00 0.427D+00 0.877D+00
 Coeff:     -0.123D+01 0.144D+01-0.738D+00 0.115D+01-0.117D+01
 Gap=     0.016 Goal=   None    Shift=    0.000
 Gap=     0.016 Goal=   None    Shift=    0.000
 RMSDP=5.33D-02 MaxDP=2.76D+00 DE= 2.29D-04 OVMax= 6.42D-02

 Cycle  18  Pass 1  IDiag  1:
 RMSU=  6.23D-03    CP:  1.67D+00  2.71D-03  6.66D-01  1.74D-02 -3.17D-01
                    CP: -1.83D-02  2.90D+00  1.07D+00  3.00D+00  3.00D+00
                    CP:  3.00D+00  3.00D+00  3.00D+00 -3.00D+00 -2.65D+00
                    CP:  1.91D+00 -2.47D+00
 E= -1935.32586994193     Delta-E=       -0.000305970345 Rises=F Damp=F
 DIIS: error= 4.66D-04 at cycle  18 NSaved=  18.
 NSaved=18 IEnMin=18 EnMin= -1935.32586994193     IErMin=11 ErrMin= 2.29D-04
 ErrMax= 4.66D-04  0.00D+00 EMaxC= 1.00D-01 BMatC= 2.04D-04 BMatP= 8.64D-05
 IDIUse=3 WtCom= 9.98D-01 WtEn= 2.29D-03
 Coeff-Com: -0.125D-02 0.205D-02 0.166D-02-0.248D-03 0.373D-03-0.159D-02
 Coeff-Com: -0.577D-02 0.187D-02 0.581D-01 0.114D+00 0.243D+00 0.596D-01
 Coeff-Com: -0.372D+01 0.989D+00 0.485D+01-0.122D+01-0.378D+01 0.341D+01
 Coeff-En:   0.000D+00 0.000D+00 0.000D+00 0.000D+00 0.000D+00 0.000D+00
 Coeff-En:   0.000D+00 0.000D+00 0.000D+00 0.000D+00 0.000D+00 0.000D+00
 Coeff-En:   0.000D+00 0.000D+00 0.000D+00 0.000D+00 0.000D+00 0.100D+01
 Coeff:     -0.125D-02 0.205D-02 0.166D-02-0.248D-03 0.372D-03-0.159D-02
 Coeff:     -0.576D-02 0.186D-02 0.580D-01 0.114D+00 0.242D+00 0.595D-01
 Coeff:     -0.372D+01 0.987D+00 0.484D+01-0.122D+01-0.377D+01 0.341D+01
 Gap=     0.017 Goal=   None    Shift=    0.000
 Gap=     0.017 Goal=   None    Shift=    0.000
 RMSDP=2.19D-02 MaxDP=1.11D+00 DE=-3.06D-04 OVMax= 1.89D-02

 Cycle  19  Pass 1  IDiag  1:
 RMSU=  4.92D-03    CP:  1.71D+00  2.99D-03  7.53D-01  2.18D-02 -4.29D-01
                    CP: -1.36D-01  3.00D+00  1.21D+00  3.00D+00  3.00D+00
                    CP:  3.00D+00  3.00D+00  3.00D+00 -3.00D+00 -3.00D+00
                    CP:  2.95D+00 -3.00D+00  2.12D+00
 E= -1935.32600643331     Delta-E=       -0.000136491381 Rises=F Damp=F
 DIIS: error= 2.09D-04 at cycle  19 NSaved=  19.
 NSaved=19 IEnMin=19 EnMin= -1935.32600643331     IErMin=19 ErrMin= 2.09D-04
 ErrMax= 2.09D-04  0.00D+00 EMaxC= 1.00D-01 BMatC= 5.41D-05 BMatP= 8.64D-05
 IDIUse=3 WtCom= 9.98D-01 WtEn= 2.09D-03
 Coeff-Com:  0.574D-03-0.925D-03 0.277D-03-0.416D-04 0.659D-03-0.886D-03
 Coeff-Com:  0.529D-04 0.177D-02 0.186D-01 0.357D-01-0.268D-01-0.101D+01
 Coeff-Com: -0.793D+00-0.179D+01 0.636D+01-0.352D+01-0.340D+01 0.415D+01
 Coeff-Com:  0.981D+00
 Coeff-En:   0.000D+00 0.000D+00 0.000D+00 0.000D+00 0.000D+00 0.000D+00
 Coeff-En:   0.000D+00 0.000D+00 0.000D+00 0.000D+00 0.000D+00 0.000D+00
 Coeff-En:   0.000D+00 0.000D+00 0.000D+00 0.000D+00 0.000D+00 0.000D+00
 Coeff-En:   0.100D+01
 Coeff:      0.572D-03-0.923D-03 0.276D-03-0.415D-04 0.658D-03-0.884D-03
 Coeff:      0.528D-04 0.176D-02 0.186D-01 0.357D-01-0.267D-01-0.101D+01
 Coeff:     -0.791D+00-0.179D+01 0.634D+01-0.351D+01-0.340D+01 0.414D+01
 Coeff:      0.981D+00
 Gap=     0.017 Goal=   None    Shift=    0.000
 Gap=     0.017 Goal=   None    Shift=    0.000
 RMSDP=6.89D-02 MaxDP=3.41D+00 DE=-1.36D-04 OVMax= 5.75D-02

 Cycle  20  Pass 1  IDiag  1:
 RMSU=  4.81D-02    CP:  1.85D+00  3.78D-03  9.65D-01  3.46D-02 -7.48D-01
                    CP: -5.07D-01  3.00D+00  1.56D+00  3.00D+00  3.00D+00
                    CP:  3.00D+00  3.00D+00  3.00D+00 -3.00D+00 -3.00D+00
                    CP:  3.00D+00 -3.00D+00  3.00D+00  3.00D+00
 E= -1935.32616251778     Delta-E=       -0.000156084478 Rises=F Damp=F
 DIIS: error= 3.58D-04 at cycle  20 NSaved=  20.
 NSaved=20 IEnMin=20 EnMin= -1935.32616251778     IErMin=19 ErrMin= 2.09D-04
 ErrMax= 3.58D-04  0.00D+00 EMaxC= 1.00D-01 BMatC= 1.52D-04 BMatP= 5.41D-05
 IDIUse=3 WtCom= 9.98D-01 WtEn= 2.09D-03
 Coeff-Com:  0.166D-03-0.370D-04-0.103D-03 0.141D-04 0.174D-03 0.267D-03
 Coeff-Com:  0.218D-02 0.550D-02 0.136D-01 0.271D-01-0.127D+00-0.132D+01
 Coeff-Com: -0.646D+00-0.300D+01 0.772D+01-0.462D+01-0.203D+01 0.301D+01
 Coeff-Com:  0.123D+01 0.731D+00
 Coeff-En:   0.000D+00 0.000D+00 0.000D+00 0.000D+00 0.000D+00 0.000D+00
 Coeff-En:   0.000D+00 0.000D+00 0.000D+00 0.000D+00 0.000D+00 0.000D+00
 Coeff-En:   0.000D+00 0.000D+00 0.000D+00 0.000D+00 0.000D+00 0.000D+00
 Coeff-En:   0.000D+00 0.100D+01
 Coeff:      0.166D-03-0.369D-04-0.103D-03 0.141D-04 0.174D-03 0.267D-03
 Coeff:      0.217D-02 0.549D-02 0.136D-01 0.270D-01-0.127D+00-0.132D+01
 Coeff:     -0.645D+00-0.299D+01 0.770D+01-0.461D+01-0.202D+01 0.300D+01
 Coeff:      0.123D+01 0.732D+00
 Gap=     0.018 Goal=   None    Shift=    0.000
 Gap=     0.018 Goal=   None    Shift=    0.000
 RMSDP=3.70D-02 MaxDP=1.81D+00 DE=-1.56D-04 OVMax= 3.45D-02

 Cycle  21  Pass 1  IDiag  1:
 Restarting incremental Fock formation.
 E= -1935.32610854531     Delta-E=        0.000053972474 Rises=F Damp=F
 DIIS: error= 1.29D-04 at cycle  21 NSaved=  20.
 NSaved=20 IEnMin=19 EnMin= -1935.32616251778     IErMin=20 ErrMin= 1.29D-04
 ErrMax= 1.29D-04  0.00D+00 EMaxC= 1.00D-01 BMatC= 1.81D-05 BMatP= 5.41D-05
 IDIUse=3 WtCom= 9.99D-01 WtEn= 1.29D-03
 Coeff-Com:  0.979D-04 0.802D-04-0.236D-03-0.126D-04 0.677D-03 0.245D-02
 Coeff-Com:  0.454D-02 0.411D-02 0.884D-02-0.138D+00-0.104D+01-0.223D+00
 Coeff-Com: -0.252D+01 0.546D+01-0.313D+01-0.120D+01 0.178D+01 0.856D+00
 Coeff-Com:  0.822D+00 0.319D+00
 Coeff-En:   0.000D+00 0.000D+00 0.000D+00 0.000D+00 0.000D+00 0.000D+00
 Coeff-En:   0.000D+00 0.000D+00 0.000D+00 0.000D+00 0.000D+00 0.000D+00
 Coeff-En:   0.000D+00 0.000D+00 0.000D+00 0.000D+00 0.000D+00 0.000D+00
 Coeff-En:   0.865D+00 0.135D+00
 Coeff:      0.978D-04 0.801D-04-0.236D-03-0.126D-04 0.676D-03 0.245D-02
 Coeff:      0.453D-02 0.410D-02 0.883D-02-0.138D+00-0.104D+01-0.223D+00
 Coeff:     -0.251D+01 0.545D+01-0.313D+01-0.120D+01 0.177D+01 0.855D+00
 Coeff:      0.822D+00 0.319D+00
 Gap=     0.018 Goal=   None    Shift=    0.000
 Gap=     0.018 Goal=   None    Shift=    0.000
 RMSDP=4.61D-02 MaxDP=2.33D+00 DE= 5.40D-05 OVMax= 3.66D-02

 Cycle  22  Pass 1  IDiag  1:
 RMSU=  2.67D-02    CP:  1.16D+00
 E= -1935.32622131577     Delta-E=       -0.000112770464 Rises=F Damp=F
 DIIS: error= 6.76D-05 at cycle  22 NSaved=  20.
 NSaved=20 IEnMin=20 EnMin= -1935.32622131577     IErMin=20 ErrMin= 6.76D-05
 ErrMax= 6.76D-05  0.00D+00 EMaxC= 1.00D-01 BMatC= 2.14D-06 BMatP= 1.81D-05
 IDIUse=1 WtCom= 1.00D+00 WtEn= 0.00D+00
 Coeff-Com:  0.209D-04-0.105D-03-0.107D-03 0.529D-03 0.102D-02 0.327D-02
 Coeff-Com:  0.956D-03-0.751D-02-0.570D-01-0.390D+00 0.257D+00-0.116D+01
 Coeff-Com:  0.182D+01-0.686D+00-0.524D+00 0.396D+00 0.223D+00 0.843D-01
 Coeff-Com: -0.612D+00 0.165D+01
 Coeff:      0.209D-04-0.105D-03-0.107D-03 0.529D-03 0.102D-02 0.327D-02
 Coeff:      0.956D-03-0.751D-02-0.570D-01-0.390D+00 0.257D+00-0.116D+01
 Coeff:      0.182D+01-0.686D+00-0.524D+00 0.396D+00 0.223D+00 0.843D-01
 Coeff:     -0.612D+00 0.165D+01
 Gap=     0.019 Goal=   None    Shift=    0.000
 Gap=     0.019 Goal=   None    Shift=    0.000
 RMSDP=5.43D-02 MaxDP=2.89D+00 DE=-1.13D-04 OVMax= 3.76D-02

 Cycle  23  Pass 1  IDiag  1:
 RMSU=  3.23D-03    CP:  1.34D+00  2.19D+00
 E= -1935.32625536406     Delta-E=       -0.000034048286 Rises=F Damp=F
 DIIS: error= 4.37D-05 at cycle  23 NSaved=  20.
 NSaved=20 IEnMin=20 EnMin= -1935.32625536406     IErMin=20 ErrMin= 4.37D-05
 ErrMax= 4.37D-05  0.00D+00 EMaxC= 1.00D-01 BMatC= 3.23D-06 BMatP= 2.14D-06
 IDIUse=1 WtCom= 1.00D+00 WtEn= 0.00D+00
 Coeff-Com: -0.800D-04-0.804D-04 0.183D-03 0.543D-04 0.134D-02 0.140D-02
 Coeff-Com: -0.419D-02 0.110D-01 0.950D-03 0.276D+00-0.302D+00 0.125D+00
 Coeff-Com:  0.165D+00-0.185D+00-0.595D-01 0.309D-01-0.230D+00-0.529D+00
 Coeff-Com:  0.117D+01 0.532D+00
 Coeff:     -0.800D-04-0.804D-04 0.183D-03 0.543D-04 0.134D-02 0.140D-02
 Coeff:     -0.419D-02 0.110D-01 0.950D-03 0.276D+00-0.302D+00 0.125D+00
 Coeff:      0.165D+00-0.185D+00-0.595D-01 0.309D-01-0.230D+00-0.529D+00
 Coeff:      0.117D+01 0.532D+00
 Gap=     0.019 Goal=   None    Shift=    0.000
 Gap=     0.019 Goal=   None    Shift=    0.000
 RMSDP=4.30D-03 MaxDP=2.28D-01 DE=-3.40D-05 OVMax= 1.82D-03

 Cycle  24  Pass 1  IDiag  1:
 RMSU=  3.46D-03    CP:  1.33D+00  2.15D+00  1.50D+00
 E= -1935.32625716353     Delta-E=       -0.000001799470 Rises=F Damp=F
 DIIS: error= 1.76D-05 at cycle  24 NSaved=  20.
 NSaved=20 IEnMin=20 EnMin= -1935.32625716353     IErMin=20 ErrMin= 1.76D-05
 ErrMax= 1.76D-05  0.00D+00 EMaxC= 1.00D-01 BMatC= 4.76D-07 BMatP= 2.14D-06
 IDIUse=1 WtCom= 1.00D+00 WtEn= 0.00D+00
 Coeff-Com: -0.387D-04 0.500D-04-0.785D-05 0.151D-03 0.417D-03 0.681D-03
 Coeff-Com:  0.148D-01 0.600D-01 0.556D-01-0.520D-01-0.520D-01 0.865D-01
 Coeff-Com: -0.475D-01-0.393D-01 0.360D-01-0.102D+00-0.884D-01 0.255D+00
 Coeff-Com:  0.269D+00 0.602D+00
 Coeff:     -0.387D-04 0.500D-04-0.785D-05 0.151D-03 0.417D-03 0.681D-03
 Coeff:      0.148D-01 0.600D-01 0.556D-01-0.520D-01-0.520D-01 0.865D-01
 Coeff:     -0.475D-01-0.393D-01 0.360D-01-0.102D+00-0.884D-01 0.255D+00
 Coeff:      0.269D+00 0.602D+00
 Gap=     0.019 Goal=   None    Shift=    0.000
 Gap=     0.019 Goal=   None    Shift=    0.000
 RMSDP=1.04D-02 MaxDP=5.46D-01 DE=-1.80D-06 OVMax= 6.14D-03

 Cycle  25  Pass 1  IDiag  1:
 RMSU=  2.00D-04    CP:  1.30D+00  1.94D+00  1.69D+00  1.90D+00
 E= -1935.32625842496     Delta-E=       -0.000001261428 Rises=F Damp=F
 DIIS: error= 1.07D-05 at cycle  25 NSaved=  20.
 NSaved=20 IEnMin=20 EnMin= -1935.32625842496     IErMin=20 ErrMin= 1.07D-05
 ErrMax= 1.07D-05  0.00D+00 EMaxC= 1.00D-01 BMatC= 9.13D-08 BMatP= 4.76D-07
 IDIUse=1 WtCom= 1.00D+00 WtEn= 0.00D+00
 Coeff-Com:  0.172D-04-0.175D-03-0.645D-03-0.182D-02-0.184D-02-0.893D-03
 Coeff-Com:  0.332D-01 0.211D-01 0.651D-01-0.203D+00 0.123D+00 0.160D-01
 Coeff-Com: -0.303D-01-0.249D-01-0.136D-01-0.924D-02-0.330D-01-0.535D-01
 Coeff-Com:  0.123D+00 0.992D+00
 Coeff:      0.172D-04-0.175D-03-0.645D-03-0.182D-02-0.184D-02-0.893D-03
 Coeff:      0.332D-01 0.211D-01 0.651D-01-0.203D+00 0.123D+00 0.160D-01
 Coeff:     -0.303D-01-0.249D-01-0.136D-01-0.924D-02-0.330D-01-0.535D-01
 Coeff:      0.123D+00 0.992D+00
 Gap=     0.019 Goal=   None    Shift=    0.000
 Gap=     0.019 Goal=   None    Shift=    0.000
 RMSDP=9.51D-03 MaxDP=5.22D-01 DE=-1.26D-06 OVMax= 6.82D-03

 Cycle  26  Pass 1  IDiag  1:
 RMSU=  2.79D-04    CP:  1.33D+00  2.13D+00  2.29D+00  2.92D+00  3.00D+00
 E= -1935.32625774595     Delta-E=        0.000000679004 Rises=F Damp=F
 DIIS: error= 1.53D-05 at cycle  26 NSaved=  20.
 NSaved=20 IEnMin=19 EnMin= -1935.32625842496     IErMin=19 ErrMin= 1.07D-05
 ErrMax= 1.53D-05  0.00D+00 EMaxC= 1.00D-01 BMatC= 2.68D-07 BMatP= 9.13D-08
 IDIUse=1 WtCom= 1.00D+00 WtEn= 0.00D+00
 Coeff-Com: -0.202D-05-0.189D-03-0.172D-03 0.385D-03-0.558D-02-0.376D-01
 Coeff-Com:  0.608D-01-0.363D-01 0.226D-01-0.738D-01-0.104D-02 0.520D-01
 Coeff-Com:  0.725D-03 0.505D-01 0.874D-01-0.117D+00-0.211D+00-0.403D+00
 Coeff-Com:  0.652D+00 0.959D+00
 Coeff:     -0.202D-05-0.189D-03-0.172D-03 0.385D-03-0.558D-02-0.376D-01
 Coeff:      0.608D-01-0.363D-01 0.226D-01-0.738D-01-0.104D-02 0.520D-01
 Coeff:      0.725D-03 0.505D-01 0.874D-01-0.117D+00-0.211D+00-0.403D+00
 Coeff:      0.652D+00 0.959D+00
 Gap=     0.019 Goal=   None    Shift=    0.000
 Gap=     0.019 Goal=   None    Shift=    0.000
 RMSDP=8.94D-03 MaxDP=4.60D-01 DE= 6.79D-07 OVMax= 4.76D-03

 Cycle  27  Pass 1  IDiag  1:
 RMSU=  3.78D-03    CP:  1.30D+00  1.95D+00  2.56D+00  3.00D+00  3.00D+00
                    CP:  2.38D+00
 E= -1935.32625917069     Delta-E=       -0.000001424733 Rises=F Damp=F
 DIIS: error= 4.26D-06 at cycle  27 NSaved=  20.
 NSaved=20 IEnMin=20 EnMin= -1935.32625917069     IErMin=20 ErrMin= 4.26D-06
 ErrMax= 4.26D-06  0.00D+00 EMaxC= 1.00D-01 BMatC= 3.63D-08 BMatP= 9.13D-08
 IDIUse=1 WtCom= 1.00D+00 WtEn= 0.00D+00
 Coeff-Com: -0.464D-04 0.110D-03-0.333D-04-0.317D-02-0.323D-01 0.345D-01
 Coeff-Com: -0.255D-01 0.398D-01-0.426D-01-0.328D-02 0.130D-01 0.196D-04
 Coeff-Com:  0.307D-01 0.576D-01-0.133D-01-0.126D+00-0.374D+00-0.204D-01
 Coeff-Com:  0.577D+00 0.889D+00
 Coeff:     -0.464D-04 0.110D-03-0.333D-04-0.317D-02-0.323D-01 0.345D-01
 Coeff:     -0.255D-01 0.398D-01-0.426D-01-0.328D-02 0.130D-01 0.196D-04
 Coeff:      0.307D-01 0.576D-01-0.133D-01-0.126D+00-0.374D+00-0.204D-01
 Coeff:      0.577D+00 0.889D+00
 Gap=     0.019 Goal=   None    Shift=    0.000
 Gap=     0.019 Goal=   None    Shift=    0.000
 RMSDP=4.41D-03 MaxDP=2.11D-01 DE=-1.42D-06 OVMax= 2.08D-03

 Cycle  28  Pass 1  IDiag  1:
 RMSU=  3.36D-04    CP:  1.29D+00  1.88D+00  2.81D+00  3.00D+00  3.00D+00
                    CP:  3.00D+00  1.80D+00
 E= -1935.32625935166     Delta-E=       -0.000000180975 Rises=F Damp=F
 DIIS: error= 3.05D-06 at cycle  28 NSaved=  20.
 NSaved=20 IEnMin=20 EnMin= -1935.32625935166     IErMin=20 ErrMin= 3.05D-06
 ErrMax= 3.05D-06  0.00D+00 EMaxC= 1.00D-01 BMatC= 1.42D-08 BMatP= 3.63D-08
 IDIUse=1 WtCom= 1.00D+00 WtEn= 0.00D+00
 Coeff-Com:  0.105D-03 0.102D-03-0.676D-03-0.143D-01 0.157D-01-0.151D-01
 Coeff-Com:  0.219D-01-0.131D-01-0.139D-02-0.534D-02 0.825D-03 0.103D-01
 Coeff-Com:  0.224D-01 0.109D-01-0.428D-01-0.159D+00-0.111D+00 0.177D+00
 Coeff-Com:  0.458D+00 0.645D+00
 Coeff:      0.105D-03 0.102D-03-0.676D-03-0.143D-01 0.157D-01-0.151D-01
 Coeff:      0.219D-01-0.131D-01-0.139D-02-0.534D-02 0.825D-03 0.103D-01
 Coeff:      0.224D-01 0.109D-01-0.428D-01-0.159D+00-0.111D+00 0.177D+00
 Coeff:      0.458D+00 0.645D+00
 Gap=     0.019 Goal=   None    Shift=    0.000
 Gap=     0.019 Goal=   None    Shift=    0.000
 RMSDP=1.11D-03 MaxDP=5.15D-02 DE=-1.81D-07 OVMax= 5.94D-04

 Cycle  29  Pass 1  IDiag  1:
 RMSU=  4.26D-05    CP:  1.29D+00  1.87D+00  2.87D+00  3.00D+00  3.00D+00
                    CP:  3.00D+00  2.02D+00  1.96D+00
 E= -1935.32625937325     Delta-E=       -0.000000021593 Rises=F Damp=F
 DIIS: error= 1.93D-06 at cycle  29 NSaved=  20.
 NSaved=20 IEnMin=20 EnMin= -1935.32625937325     IErMin=20 ErrMin= 1.93D-06
 ErrMax= 1.93D-06  0.00D+00 EMaxC= 1.00D-01 BMatC= 4.81D-09 BMatP= 1.42D-08
 IDIUse=1 WtCom= 1.00D+00 WtEn= 0.00D+00
 Coeff-Com: -0.111D-03-0.284D-03-0.716D-02 0.650D-02-0.115D-01 0.182D-01
 Coeff-Com: -0.487D-02-0.260D-02-0.571D-02 0.135D-02 0.154D-02 0.243D-02
 Coeff-Com:  0.229D-01-0.136D-01-0.801D-01-0.648D-01 0.931D-01 0.163D+00
 Coeff-Com:  0.160D+00 0.721D+00
 Coeff:     -0.111D-03-0.284D-03-0.716D-02 0.650D-02-0.115D-01 0.182D-01
 Coeff:     -0.487D-02-0.260D-02-0.571D-02 0.135D-02 0.154D-02 0.243D-02
 Coeff:      0.229D-01-0.136D-01-0.801D-01-0.648D-01 0.931D-01 0.163D+00
 Coeff:      0.160D+00 0.721D+00
 Gap=     0.019 Goal=   None    Shift=    0.000
 Gap=     0.019 Goal=   None    Shift=    0.000
 RMSDP=3.40D-04 MaxDP=1.37D-02 DE=-2.16D-08 OVMax= 2.80D-04

 Cycle  30  Pass 1  IDiag  1:
 RMSU=  1.42D-05    CP:  1.29D+00  1.87D+00  2.87D+00  3.00D+00  3.00D+00
                    CP:  3.00D+00  2.07D+00  2.78D+00  2.44D+00
 E= -1935.32625938318     Delta-E=       -0.000000009924 Rises=F Damp=F
 DIIS: error= 1.24D-06 at cycle  30 NSaved=  20.
 NSaved=20 IEnMin=20 EnMin= -1935.32625938318     IErMin=20 ErrMin= 1.24D-06
 ErrMax= 1.24D-06  0.00D+00 EMaxC= 1.00D-01 BMatC= 1.57D-09 BMatP= 4.81D-09
 IDIUse=1 WtCom= 1.00D+00 WtEn= 0.00D+00
 Coeff-Com: -0.705D-04-0.528D-02 0.199D-02-0.127D-01 0.251D-01-0.102D-01
 Coeff-Com: -0.752D-02 0.384D-02 0.358D-02-0.149D-03-0.496D-02 0.202D-01
 Coeff-Com: -0.383D-02-0.443D-01-0.243D-01 0.724D-01 0.144D-01-0.190D+00
 Coeff-Com:  0.577D+00 0.585D+00
 Coeff:     -0.705D-04-0.528D-02 0.199D-02-0.127D-01 0.251D-01-0.102D-01
 Coeff:     -0.752D-02 0.384D-02 0.358D-02-0.149D-03-0.496D-02 0.202D-01
 Coeff:     -0.383D-02-0.443D-01-0.243D-01 0.724D-01 0.144D-01-0.190D+00
 Coeff:      0.577D+00 0.585D+00
 Gap=     0.019 Goal=   None    Shift=    0.000
 Gap=     0.019 Goal=   None    Shift=    0.000
 RMSDP=3.40D-04 MaxDP=1.63D-02 DE=-9.92D-09 OVMax= 2.82D-04

 Cycle  31  Pass 1  IDiag  1:
 RMSU=  2.18D-04    CP:  1.29D+00  1.87D+00  2.86D+00  3.00D+00  3.00D+00
                    CP:  3.00D+00  2.10D+00  3.00D+00  3.00D+00  2.46D+00
 E= -1935.32625939107     Delta-E=       -0.000000007889 Rises=F Damp=F
 DIIS: error= 1.16D-06 at cycle  31 NSaved=  20.
 NSaved=20 IEnMin=20 EnMin= -1935.32625939107     IErMin=20 ErrMin= 1.16D-06
 ErrMax= 1.16D-06  0.00D+00 EMaxC= 1.00D-01 BMatC= 8.02D-10 BMatP= 1.57D-09
 IDIUse=1 WtCom= 1.00D+00 WtEn= 0.00D+00
 Coeff-Com: -0.263D-02 0.222D-03-0.473D-02 0.135D-01-0.581D-02-0.961D-02
 Coeff-Com:  0.876D-02 0.233D-02 0.813D-03-0.955D-02 0.189D-01-0.801D-02
 Coeff-Com: -0.519D-01 0.142D-01 0.120D+00-0.200D-01-0.458D+00-0.938D-01
 Coeff-Com:  0.106D+00 0.138D+01
 Coeff:     -0.263D-02 0.222D-03-0.473D-02 0.135D-01-0.581D-02-0.961D-02
 Coeff:      0.876D-02 0.233D-02 0.813D-03-0.955D-02 0.189D-01-0.801D-02
 Coeff:     -0.519D-01 0.142D-01 0.120D+00-0.200D-01-0.458D+00-0.938D-01
 Coeff:      0.106D+00 0.138D+01
 Gap=     0.019 Goal=   None    Shift=    0.000
 Gap=     0.019 Goal=   None    Shift=    0.000
 RMSDP=7.50D-04 MaxDP=3.94D-02 DE=-7.89D-09 OVMax= 6.25D-04

 Cycle  32  Pass 1  IDiag  1:
 RMSU=  2.23D-04    CP:  1.29D+00  1.87D+00  2.84D+00  3.00D+00  3.00D+00
                    CP:  3.00D+00  2.14D+00  3.00D+00  3.00D+00  3.00D+00
                    CP:  3.00D+00
 E= -1935.32625940646     Delta-E=       -0.000000015390 Rises=F Damp=F
 DIIS: error= 1.01D-06 at cycle  32 NSaved=  20.
 NSaved=20 IEnMin=20 EnMin= -1935.32625940646     IErMin=20 ErrMin= 1.01D-06
 ErrMax= 1.01D-06  0.00D+00 EMaxC= 1.00D-01 BMatC= 9.97D-10 BMatP= 8.02D-10
 IDIUse=1 WtCom= 1.00D+00 WtEn= 0.00D+00
 Coeff-Com:  0.691D-03-0.298D-02 0.492D-02-0.170D-02-0.781D-02 0.965D-02
 Coeff-Com:  0.114D-02 0.320D-02-0.673D-02 0.136D-01-0.125D-01-0.527D-01
 Coeff-Com:  0.324D-01 0.125D+00 0.146D-01-0.408D+00-0.889D+00-0.127D+01
 Coeff-Com:  0.203D+01 0.141D+01
 Coeff:      0.691D-03-0.298D-02 0.492D-02-0.170D-02-0.781D-02 0.965D-02
 Coeff:      0.114D-02 0.320D-02-0.673D-02 0.136D-01-0.125D-01-0.527D-01
 Coeff:      0.324D-01 0.125D+00 0.146D-01-0.408D+00-0.889D+00-0.127D+01
 Coeff:      0.203D+01 0.141D+01
 Gap=     0.019 Goal=   None    Shift=    0.000
 Gap=     0.019 Goal=   None    Shift=    0.000
 RMSDP=1.58D-03 MaxDP=7.16D-02 DE=-1.54D-08 OVMax= 1.36D-03

 Cycle  33  Pass 1  IDiag  1:
 RMSU=  1.09D-03    CP:  1.29D+00  1.87D+00  2.78D+00  3.00D+00  3.00D+00
                    CP:  3.00D+00  2.23D+00  3.00D+00  3.00D+00  3.00D+00
                    CP:  3.00D+00  3.00D+00
 E= -1935.32625943192     Delta-E=       -0.000000025457 Rises=F Damp=F
 DIIS: error= 5.90D-07 at cycle  33 NSaved=  20.
 NSaved=20 IEnMin=20 EnMin= -1935.32625943192     IErMin=20 ErrMin= 5.90D-07
 ErrMax= 5.90D-07  0.00D+00 EMaxC= 1.00D-01 BMatC= 7.27D-10 BMatP= 8.02D-10
 IDIUse=1 WtCom= 1.00D+00 WtEn= 0.00D+00
 Coeff-Com:  0.268D-02 0.672D-04-0.529D-02-0.140D-02 0.387D-02 0.118D-02
 Coeff-Com:  0.235D-02 0.230D-02 0.116D-01-0.100D-01-0.378D-01 0.248D-02
 Coeff-Com:  0.466D-01 0.944D-01 0.512D-01-0.587D+00-0.144D+01 0.478D+00
 Coeff-Com:  0.132D+01 0.106D+01
 Coeff:      0.268D-02 0.672D-04-0.529D-02-0.140D-02 0.387D-02 0.118D-02
 Coeff:      0.235D-02 0.230D-02 0.116D-01-0.100D-01-0.378D-01 0.248D-02
 Coeff:      0.466D-01 0.944D-01 0.512D-01-0.587D+00-0.144D+01 0.478D+00
 Coeff:      0.132D+01 0.106D+01
 Gap=     0.019 Goal=   None    Shift=    0.000
 Gap=     0.019 Goal=   None    Shift=    0.000
 RMSDP=1.67D-03 MaxDP=7.06D-02 DE=-2.55D-08 OVMax= 1.44D-03

 Cycle  34  Pass 1  IDiag  1:
 RMSU=  9.98D-05    CP:  1.29D+00  1.87D+00  2.68D+00  3.00D+00  3.00D+00
                    CP:  3.00D+00  2.28D+00  3.00D+00  3.00D+00  3.00D+00
                    CP:  3.00D+00  3.00D+00  2.46D+00
 E= -1935.32625944586     Delta-E=       -0.000000013941 Rises=F Damp=F
 DIIS: error= 2.31D-07 at cycle  34 NSaved=  20.
 NSaved=20 IEnMin=20 EnMin= -1935.32625944586     IErMin=20 ErrMin= 2.31D-07
 ErrMax= 2.31D-07  0.00D+00 EMaxC= 1.00D-01 BMatC= 1.74D-10 BMatP= 7.27D-10
 IDIUse=1 WtCom= 1.00D+00 WtEn= 0.00D+00
 Coeff-Com:  0.269D-02-0.158D-02-0.248D-02 0.692D-03 0.435D-03-0.597D-04
 Coeff-Com:  0.918D-03 0.688D-02-0.271D-02-0.115D-01-0.171D-04 0.487D-02
 Coeff-Com:  0.343D-01 0.720D-01-0.950D-01-0.530D+00-0.184D+00 0.458D+00
 Coeff-Com:  0.659D+00 0.588D+00
 Coeff:      0.269D-02-0.158D-02-0.248D-02 0.692D-03 0.435D-03-0.597D-04
 Coeff:      0.918D-03 0.688D-02-0.271D-02-0.115D-01-0.171D-04 0.487D-02
 Coeff:      0.343D-01 0.720D-01-0.950D-01-0.530D+00-0.184D+00 0.458D+00
 Coeff:      0.659D+00 0.588D+00
 Gap=     0.019 Goal=   None    Shift=    0.000
 Gap=     0.019 Goal=   None    Shift=    0.000
 RMSDP=3.14D-04 MaxDP=1.65D-02 DE=-1.39D-08 OVMax= 2.68D-04

 Cycle  35  Pass 1  IDiag  1:
 RMSU=  1.16D-05    CP:  1.29D+00  1.87D+00  2.67D+00  3.00D+00  3.00D+00
                    CP:  3.00D+00  2.29D+00  3.00D+00  3.00D+00  3.00D+00
                    CP:  3.00D+00  3.00D+00  2.73D+00  1.22D+00
 E= -1935.32625944678     Delta-E=       -0.000000000922 Rises=F Damp=F
 DIIS: error= 2.32D-07 at cycle  35 NSaved=  20.
 NSaved=20 IEnMin=20 EnMin= -1935.32625944678     IErMin=19 ErrMin= 2.31D-07
 ErrMax= 2.32D-07  0.00D+00 EMaxC= 1.00D-01 BMatC= 8.19D-11 BMatP= 1.74D-10
 IDIUse=1 WtCom= 1.00D+00 WtEn= 0.00D+00
 Coeff-Com:  0.169D-03-0.199D-03-0.111D-03-0.146D-03-0.807D-03-0.427D-03
 Coeff-Com:  0.294D-02-0.119D-03-0.139D-02 0.913D-03-0.513D-02 0.109D-02
 Coeff-Com:  0.264D-01 0.301D-01-0.116D+00-0.169D+00 0.707D-01 0.241D+00
 Coeff-Com:  0.356D+00 0.564D+00
 Coeff:      0.169D-03-0.199D-03-0.111D-03-0.146D-03-0.807D-03-0.427D-03
 Coeff:      0.294D-02-0.119D-03-0.139D-02 0.913D-03-0.513D-02 0.109D-02
 Coeff:      0.264D-01 0.301D-01-0.116D+00-0.169D+00 0.707D-01 0.241D+00
 Coeff:      0.356D+00 0.564D+00
 Gap=     0.019 Goal=   None    Shift=    0.000
 Gap=     0.019 Goal=   None    Shift=    0.000
 RMSDP=1.55D-04 MaxDP=7.42D-03 DE=-9.22D-10 OVMax= 1.36D-04

 Cycle  36  Pass 1  IDiag  1:
 RMSU=  4.09D-06    CP:  1.29D+00  1.87D+00  2.66D+00  3.00D+00  3.00D+00
                    CP:  3.00D+00  2.30D+00  3.00D+00  3.00D+00  3.00D+00
                    CP:  3.00D+00  3.00D+00  2.87D+00  1.34D+00  2.24D+00
 E= -1935.32625944697     Delta-E=       -0.000000000187 Rises=F Damp=F
 DIIS: error= 1.01D-07 at cycle  36 NSaved=  20.
 NSaved=20 IEnMin=20 EnMin= -1935.32625944697     IErMin=20 ErrMin= 1.01D-07
 ErrMax= 1.01D-07  0.00D+00 EMaxC= 1.00D-01 BMatC= 1.14D-11 BMatP= 8.19D-11
 IDIUse=1 WtCom= 1.00D+00 WtEn= 0.00D+00
 Coeff-Com:  0.782D-04-0.798D-04-0.182D-03-0.599D-03-0.369D-03 0.100D-02
 Coeff-Com:  0.153D-03 0.468D-03 0.721D-03-0.516D-02-0.388D-02 0.120D-01
 Coeff-Com:  0.435D-01-0.499D-02-0.105D+00-0.338D-01 0.743D-01 0.170D+00
 Coeff-Com:  0.391D+00 0.461D+00
 Coeff:      0.782D-04-0.798D-04-0.182D-03-0.599D-03-0.369D-03 0.100D-02
 Coeff:      0.153D-03 0.468D-03 0.721D-03-0.516D-02-0.388D-02 0.120D-01
 Coeff:      0.435D-01-0.499D-02-0.105D+00-0.338D-01 0.743D-01 0.170D+00
 Coeff:      0.391D+00 0.461D+00
 Gap=     0.019 Goal=   None    Shift=    0.000
 Gap=     0.019 Goal=   None    Shift=    0.000
 RMSDP=8.22D-05 MaxDP=3.83D-03 DE=-1.87D-10 OVMax= 7.20D-05

 Cycle  37  Pass 1  IDiag  1:
 RMSU=  5.67D-06    CP:  1.29D+00  1.87D+00  2.66D+00  3.00D+00  3.00D+00
                    CP:  3.00D+00  2.31D+00  3.00D+00  3.00D+00  3.00D+00
                    CP:  3.00D+00  3.00D+00  2.94D+00  1.41D+00  3.00D+00
                    CP:  2.85D+00
 E= -1935.32625944701     Delta-E=       -0.000000000040 Rises=F Damp=F
 DIIS: error= 1.03D-07 at cycle  37 NSaved=  20.
 NSaved=20 IEnMin=20 EnMin= -1935.32625944701     IErMin=19 ErrMin= 1.01D-07
 ErrMax= 1.03D-07  0.00D+00 EMaxC= 1.00D-01 BMatC= 4.12D-12 BMatP= 1.14D-11
 IDIUse=1 WtCom= 1.00D+00 WtEn= 0.00D+00
 Coeff-Com:  0.153D-05-0.147D-03-0.497D-03-0.297D-03 0.841D-03 0.475D-04
 Coeff-Com:  0.232D-03 0.856D-03-0.422D-02-0.337D-02 0.948D-02 0.348D-01
 Coeff-Com: -0.846D-02-0.869D-01-0.275D-01 0.667D-01 0.149D+00 0.340D+00
 Coeff-Com:  0.406D+00 0.124D+00
 Coeff:      0.153D-05-0.147D-03-0.497D-03-0.297D-03 0.841D-03 0.475D-04
 Coeff:      0.232D-03 0.856D-03-0.422D-02-0.337D-02 0.948D-02 0.348D-01
 Coeff:     -0.846D-02-0.869D-01-0.275D-01 0.667D-01 0.149D+00 0.340D+00
 Coeff:      0.406D+00 0.124D+00
 Gap=     0.019 Goal=   None    Shift=    0.000
 Gap=     0.019 Goal=   None    Shift=    0.000
 RMSDP=8.84D-06 MaxDP=5.55D-04 DE=-4.00D-11 OVMax= 7.88D-06

 Cycle  38  Pass 1  IDiag  1:
 RMSU=  2.22D-06    CP:  1.29D+00  1.87D+00  2.66D+00  3.00D+00  3.00D+00
                    CP:  3.00D+00  2.31D+00  3.00D+00  3.00D+00  3.00D+00
                    CP:  3.00D+00  3.00D+00  2.94D+00  1.42D+00  3.00D+00
                    CP:  3.00D+00  1.70D+00
 E= -1935.32625944712     Delta-E=       -0.000000000115 Rises=F Damp=F
 DIIS: error= 1.06D-07 at cycle  38 NSaved=  20.
 NSaved=20 IEnMin=20 EnMin= -1935.32625944712     IErMin=18 ErrMin= 1.01D-07
 ErrMax= 1.06D-07  0.00D+00 EMaxC= 1.00D-01 BMatC= 4.27D-12 BMatP= 4.12D-12
 IDIUse=1 WtCom= 1.00D+00 WtEn= 0.00D+00
 Coeff-Com: -0.110D-03-0.411D-03-0.230D-03 0.685D-03-0.124D-03-0.369D-03
 Coeff-Com:  0.351D-03-0.339D-02-0.180D-02 0.908D-02 0.240D-01-0.148D-01
 Coeff-Com: -0.658D-01-0.339D-01 0.507D-01 0.131D+00 0.347D+00 0.540D+00
 Coeff-Com:  0.309D+01-0.307D+01
 Coeff:     -0.110D-03-0.411D-03-0.230D-03 0.685D-03-0.124D-03-0.369D-03
 Coeff:      0.351D-03-0.339D-02-0.180D-02 0.908D-02 0.240D-01-0.148D-01
 Coeff:     -0.658D-01-0.339D-01 0.507D-01 0.131D+00 0.347D+00 0.540D+00
 Coeff:      0.309D+01-0.307D+01
 Gap=     0.019 Goal=   None    Shift=    0.000
[...]
 ,-0.00369022,0.00116938,-0.00124390,-0.00210014,-0.00198748,0.00211258
 ,0.00149749,0.00053553,-0.00242067,-0.00044746,0.00067656,0.00257927,0
 .00054271,0.00111376,-0.00085075,-0.00047077,-0.00075593,0.00021619,0.
 00042016,0.05690716,-0.13303850,0.09237428,0.00625388,0.01361443,0.004
 18661,0.02855394,-0.01860864,0.02770792,-0.08324319,0.12663490,-0.0002
 0303,-0.00042619,-0.00008491,0.00047525,0.00126385,0.00010779,-0.00009
 394,-0.00069900,-0.00010198,-0.00035351,-0.00071991,0.00023241,-0.0005
 0557,-0.00001493,-0.00026007,-0.00024631,-0.00020058,0.00033718,0.0006
 9972,0.00039013,0.00039666,-0.00148015,-0.00074203,0.00003346,-0.00137
 322,-0.00419652,-0.00177126,-0.00148473,0.00418979,0.00138788,0.003676
 88,0.00508215,0.00173087,-0.00166620,-0.00156959,-0.00018241,-0.000851
 40,0.00318589,0.00128486,-0.00549129,0.00812130,-0.00000855,-0.0014418
 1,-0.00380192,-0.00108415,-0.00009283,-0.00307530,-0.00059383,-0.00072
 236,0.00062721,0.00043775,-0.00024109,-0.00214477,-0.00031397,-0.00125
 606,0.00015990,-0.00001190,0.00046379,-0.00010607,-0.00016098,-0.11267
 002,0.09466376,-0.25587075,-0.01524531,0.01884115,-0.03629474,-0.00308
 759,0.00192855,0.01065590,0.13980619,-0.12006826,0.28138870,0.00092764
 ,0.00085792,0.00105526,-0.00320812,-0.00064294,-0.00050090,0.00093163,
 0.00028796,0.00011045,0.00117652,0.00150486,-0.00077075,0.00556321,0.0
 0140524,0.00151418,-0.22848284,-0.12574109,-0.02810403,-0.01973190,-0.
 01956617,-0.00399699,-0.00315987,0.00531854,0.00139609,0.00020676,-0.0
 0092671,0.00002362,0.00075626,-0.00034117,-0.00002870,-0.00127031,-0.0
 0102886,-0.00028196,0.00026449,0.00010011,0.00022263,-0.00023853,-0.00
 070858,0.00010068,0.00056172,0.00069378,-0.00009157,-0.00022701,-0.000
 16290,-0.00008059,-0.00004391,0.00095849,0.00035907,0.00050457,0.00037
 659,-0.00029607,0.00021035,-0.00035037,0.00008438,-0.00012104,-0.00014
 000,-0.00031914,0.00090193,0.00108394,0.00084417,-0.00138195,0.0008377
 3,0.00012172,0.00055460,-0.00031408,-0.00028064,0.00034929,-0.00050096
 ,-0.00010968,0.00069451,-0.00061142,0.00032049,0.24425719,0.00378071,0
 .00346820,0.00292169,-0.01133847,-0.00769855,-0.00220182,0.00259510,0.
 00264274,0.00069783,0.00438291,0.00503414,-0.00171582,-0.02184787,-0.0
 1562438,-0.00117151,-0.12622080,-0.14409887,-0.02803710,0.01160267,0.0
 0904332,0.00218522,-0.00132232,0.00506477,-0.00138002,0.00161681,-0.00
 084849,-0.00022211,0.00263055,0.00193396,0.00063295,-0.00025921,-0.003
 43402,-0.00019141,0.00006262,0.00106585,0.00065921,-0.00044065,-0.0017
 6714,0.00071791,0.00203101,0.00177891,-0.00059145,-0.00110210,-0.00052
 428,-0.00062052,0.00103114,0.00214339,0.00089691,0.00015851,0.00168666
 ,0.00021186,0.00108485,-0.00181905,-0.00029951,0.00072213,-0.00404069,
 -0.00157543,0.00208003,-0.00523721,-0.00097419,-0.00456214,0.00346048,
 0.00060776,0.00188418,-0.00123059,-0.00095058,0.00126532,-0.00200232,-
 0.00043917,0.00243915,-0.00231675,0.00108049,0.13551632,0.14893014,-0.
 00020488,-0.00048020,-0.00080290,-0.00067651,-0.00036733,0.00059425,0.
 00014690,0.00009383,-0.00017709,0.00027399,0.00109423,-0.00051863,-0.0
 0616914,-0.00334079,0.00082302,-0.02600254,-0.02481371,-0.03822361,0.0
 0362400,0.00174681,0.00200368,-0.00001233,-0.00219300,0.00881342,0.000
 37928,-0.00023985,-0.00024406,0.00007441,0.00024648,0.00044913,0.00004
 393,0.00026575,-0.00085410,-0.00004669,-0.00028602,0.00057776,0.000088
 59,0.00006673,0.00005512,-0.00014055,-0.00007375,0.00024037,0.00008161
 ,-0.00001594,0.00000081,-0.00022198,0.00001652,-0.00011072,0.00014812,
 0.00006568,-0.00060793,-0.00010224,0.00013170,0.00000142,0.00030766,0.
 00004209,-0.00044578,0.00049834,-0.00224876,0.00366107,0.00011716,-0.0
 0005947,-0.00001883,-0.00006178,0.00002050,0.00002050,-0.00003303,0.00
 001915,-0.00000463,-0.00007328,0.00005489,-0.00004064,0.02864898,0.029
 22783,0.02912530,0.00124701,0.00066254,0.00066314,-0.00269058,-0.00106
 180,-0.00018814,0.00038652,0.00147989,0.00032061,0.00150690,0.00138384
 ,-0.00069437,-0.00257940,-0.00047618,0.00044896,-0.00120941,0.02936600
 ,0.00668698,-0.05822585,0.03185864,0.00684310,0.00590610,-0.02172228,-
 0.00506014,0.00005368,-0.00573535,-0.00184950,0.00183605,0.00561535,0.
 00143442,0.00166671,-0.00010746,0.00029883,-0.00060884,0.00062481,0.00
 028399,-0.00002967,-0.00049737,0.00043397,0.00075269,0.00058931,-0.000
 23294,-0.00032284,-0.00008812,-0.00040156,0.00067131,0.00048712,0.0003
 1366,0.00101136,-0.00010823,-0.00002174,0.00020876,-0.00143518,-0.0004
 0265,-0.00440814,-0.00399446,-0.00105709,-0.00139315,0.00002028,0.0004
 3394,-0.00197680,0.00190014,0.00035453,0.00082141,-0.00063260,-0.00041
 086,0.00060474,-0.00105485,-0.00023830,0.00111382,-0.00116352,0.000471
 30,0.00092043,-0.00234826,-0.00042297,0.05685596,0.00103267,0.00060735
 ,0.00080840,-0.00318681,-0.00126809,-0.00065233,0.00067981,0.00048430,
 0.00025550,0.00135559,0.00122288,-0.00066935,0.00356714,0.00101894,-0.
 00257548,-0.00122935,-0.00641234,-0.00099815,0.03167648,-0.30483547,-0
 .06363607,-0.00057615,-0.01423943,-0.00520873,0.00299826,-0.00600767,-
 0.00177123,0.00345909,0.00527779,0.00133771,0.00020004,-0.00079574,0.0
 0022338,-0.00022187,0.00038723,-0.00016405,-0.00017556,-0.00061996,0.0
 0037326,0.00056171,0.00085665,-0.00021671,-0.00008773,-0.00013856,-0.0
 0051160,0.00014423,0.00066942,0.00055038,0.00096185,-0.00038956,0.0006
 4796,0.00016972,-0.00079476,-0.00061651,-0.00320253,-0.00167676,-0.000
 42331,-0.00125292,0.00077648,0.00052265,-0.00210047,0.00166600,0.00028
 850,0.00088455,-0.00054954,-0.00041316,0.00062177,-0.00089284,-0.00019
 718,0.00117490,-0.00111213,0.00050895,0.00049605,-0.00008049,0.0012297
 0,-0.03597630,0.32490914,0.00000167,-0.00004860,0.00005817,0.00020951,
 0.00032596,0.00044048,-0.00001372,-0.00034281,-0.00032745,-0.00031035,
 -0.00047785,0.00014577,0.00044111,-0.00154842,0.00925646,-0.00073490,-
 0.00268117,0.00141669,0.00749784,-0.06172474,-0.05443106,-0.00030516,-
 0.00623792,0.00502865,0.00033495,0.00038725,-0.00254329,0.00059906,0.0
 0015828,-0.00095209,0.00006942,0.00055833,-0.00096092,0.00008590,-0.00
 042712,0.00092853,0.00010458,0.00027483,-0.00048198,-0.00037697,-0.000
 42104,0.00063020,0.00017020,0.00014683,-0.00008565,-0.00043737,-0.0004
 1607,0.00008711,0.00045924,-0.00012174,-0.00051414,-0.00033524,0.00008
 765,0.00022113,-0.00070270,-0.00051158,0.00435762,0.00025795,0.0003494
 1,-0.00110665,0.00084481,-0.00044301,-0.00013185,-0.00037492,0.0001561
 4,0.00017336,-0.00024191,0.00022688,0.00004705,-0.00047029,0.00036713,
 -0.00021231,0.00026990,0.00160278,-0.00430288,-0.00767171,0.07114769,0
 .04416700,0.00079594,0.00090641,0.00055032,-0.00185486,-0.00255371,-0.
 00052035,0.00044367,0.00129881,0.00029779,0.00106699,0.00159110,-0.000
 50268,0.00095747,-0.00064665,0.00018133,-0.00003129,0.00065983,-0.0004
 4188,-0.00049902,-0.00076790,-0.00035832,0.00148786,0.00063497,-0.0001
 3403,-0.00089502,0.00659363,0.00217606,0.00395079,-0.00564277,-0.00131
 051,0.00012575,0.02525964,0.00589311,-0.05679955,0.02523911,0.00660416
 ,0.00456890,-0.02675579,-0.00628152,-0.00177975,-0.00009295,-0.0006978
 3,-0.00150272,-0.00051034,-0.00055800,-0.00575218,0.00305203,0.0004703
 1,0.00113746,0.00056419,0.00005272,-0.00012848,0.00140567,0.00045913,0
 .00071838,-0.00051596,-0.00038126,-0.00035913,0.00004936,0.00048416,-0
 .00337323,0.00061152,0.00008218,0.00155235,-0.00044516,-0.00069526,0.0
 0081657,-0.00139662,-0.00031073,0.00190843,-0.00117710,0.00088960,-0.0
 0062129,-0.00225808,0.00000181,-0.00126348,-0.00098582,0.00027301,0.05
 478306,-0.00058303,-0.00052706,-0.00036170,0.00134742,0.00147594,0.000
 28958,-0.00033336,-0.00070613,-0.00015894,-0.00075310,-0.00099760,0.00
 035419,-0.00051342,0.00066956,-0.00012781,0.00017187,-0.00049242,0.000
 26536,0.00006536,0.00024561,-0.00021177,0.00036689,-0.00072439,0.00016
 133,-0.00180184,-0.00501784,-0.00137913,-0.00375954,0.00308147,0.00073
 381,0.00385617,-0.00885281,-0.00391854,0.02553076,-0.30622947,-0.06370
 638,0.00366812,-0.01196702,-0.00221571,-0.00394729,0.00037045,-0.00290
 242,0.00072672,0.00090600,0.00046900,0.00226498,-0.00024217,-0.0000441
 2,-0.00065730,-0.00060023,0.00055927,0.00000912,-0.00036432,-0.0004872
 7,-0.00008651,0.00056827,0.00045969,0.00005263,-0.00011537,-0.00041020
 ,0.00258234,-0.00045155,-0.00042523,-0.00079513,0.00027256,0.00056321,
 -0.00057823,0.00003756,0.00014544,-0.00106832,0.00065099,-0.00054000,0
 .00050509,0.00143162,0.00010435,0.00062633,0.00037708,-0.00004593,-0.0
 2645050,0.32698938,0.00034782,0.00024889,0.00021136,-0.00077830,-0.000
 64842,-0.00019171,0.00020257,0.00029229,0.00006441,0.00042863,0.000491
 38,-0.00020120,0.00042652,-0.00037448,0.00062946,-0.00008520,0.0002758
 8,-0.00049180,-0.00009787,-0.00046754,0.00091261,-0.00004650,0.0005324
 1,-0.00098356,-0.00030901,0.00059318,-0.00252842,-0.00042720,-0.000152
 37,-0.00102410,0.00143342,-0.00435396,0.00549768,0.00555881,-0.0620092
 7,-0.05450098,0.00145258,-0.00417350,0.00104032,-0.00089032,-0.0018213
 4,0.00910875,-0.00034268,0.00028927,-0.00113008,0.00020739,-0.00031431
 ,0.00439708,-0.00035174,-0.00008912,-0.00050936,0.00027392,0.00012655,
 0.00023593,0.00049627,-0.00033320,0.00012154,-0.00018059,0.00010746,-0
 .00008154,-0.00025758,0.00024269,0.00040296,-0.00000619,-0.00005116,0.
 00006960,0.00009659,-0.00039202,-0.00033729,0.00038931,-0.00040893,0.0
 0016474,-0.00018829,-0.00062072,-0.00020807,-0.00029239,-0.00012411,0.
 00005978,-0.00678924,0.07137069,0.04423618,0.00074986,0.00069679,0.000
 51139,-0.00186541,-0.00181131,-0.00034796,0.00038493,0.00092547,0.0002
 0865,0.00094233,0.00122250,-0.00046123,0.00109056,-0.00087421,0.000162
 05,-0.00040788,0.00099497,-0.00022349,0.00032175,-0.00019150,-0.000362
 16,-0.00172096,0.00135256,0.00028559,0.00030353,0.00088424,-0.00012475
 ,0.00115681,0.00051845,0.00005620,-0.00170622,-0.00637016,-0.00172089,
 -0.01997445,0.01322454,0.00207325,-0.27934240,0.09853950,0.01821665,-0
 .00000308,0.00194130,-0.00132601,0.00133798,0.00050059,-0.00073891,-0.
 00008235,0.00075870,0.00061101,0.00061931,-0.00043537,0.00038762,0.000
 25718,0.00056946,-0.00006168,0.00036659,-0.00133578,-0.00048961,-0.000
 46068,0.00017583,0.00015223,-0.00559242,0.00098938,0.00054211,0.001904
 97,-0.00108785,-0.00139011,0.00152746,-0.00048419,-0.00014288,0.002318
 82,-0.00202378,0.00119408,-0.00042397,-0.00160704,0.00002592,-0.000845
 61,-0.00096807,0.00028615,0.00056241,-0.00048382,-0.00021893,0.2987735
 2,-0.00145213,-0.00147031,-0.00100112,0.00348821,0.00391838,0.00079896
 ,-0.00076193,-0.00201509,-0.00045252,-0.00186845,-0.00256264,0.0008993
 1,-0.00214124,0.00134977,-0.00051915,0.00047069,-0.00161266,0.00065440
 ,-0.00020144,0.00096498,0.00060654,0.00085835,-0.00316888,-0.00014100,
 -0.00138846,-0.00053327,-0.00002651,-0.00273371,0.00092627,0.00030483,
 -0.00027452,0.00371231,-0.00176830,-0.01794999,0.00938734,0.00189886,0
 .09929740,-0.09631144,-0.01551190,0.02527939,-0.01036801,0.00024181,-0
 .00059935,-0.00562963,-0.00123402,0.00005085,-0.00382579,-0.00147798,-
 0.00036212,0.00132271,0.00015839,-0.00064489,-0.00160868,-0.00027680,-
 0.00133051,0.00176936,0.00071864,0.00112422,-0.00027972,-0.00050929,0.
 01168133,-0.00513074,-0.00132496,-0.00417255,0.00236975,0.00234170,-0.
 00281218,0.00200478,0.00050443,-0.00471864,0.00367873,-0.00174194,0.00
 088360,0.00346527,-0.00003403,0.00178876,0.00173305,-0.00052175,0.0023
 1423,0.00037302,0.00159798,-0.10547551,0.09765433,0.00005852,0.0000308
 4,0.00002664,-0.00011529,-0.00006973,-0.00002311,0.00003055,0.00001902
 ,-0.00000435,0.00006586,0.00006511,-0.00003867,0.00014208,-0.00006267,
 0.00024860,-0.00011386,0.00006401,0.00005715,0.00009025,-0.00026088,0.
 00057964,-0.00013353,0.00026127,-0.00085765,-0.00029755,-0.00037482,-0
 .00035613,-0.00017862,0.00036368,0.00047826,-0.00014116,-0.00242689,0.
 00877733,-0.00543238,0.00183860,0.00182928,0.01547197,-0.01271824,-0.0
 3537191,0.00679290,-0.00205324,0.00113962,-0.00016356,-0.00231030,0.00
 361087,-0.00024950,-0.00010870,-0.00046379,-0.00011130,0.00006596,-0.0
 0057582,0.00006869,0.00011136,-0.00001691,0.00019824,0.00002551,-0.000
 09954,-0.00007137,-0.00002923,-0.00001672,0.00061743,-0.00025249,0.000
 64980,0.00036505,-0.00045393,-0.00082159,-0.00012234,0.00007576,-0.000
 18713,-0.00043911,0.00097481,-0.00052607,-0.00000347,-0.00002587,-0.00
 017324,-0.00000777,0.00009296,-0.00020755,0.00052541,0.00125634,-0.004
 20064,-0.01717064,0.01612187,0.02615369,-0.00001874,0.00003538,-0.0000
 0044,0.00009287,-0.00012525,-0.00002932,-0.00001644,0.00010388,0.00002
 390,-0.00001461,0.00004424,0.00000498,0.00022610,0.00045596,0.00017286
 ,-0.00001932,-0.00036530,-0.00012288,-0.00002574,0.00017501,0.00003540
 ,0.00039904,-0.00048573,-0.00022552,0.00078620,-0.00066634,-0.00001442
 ,-0.00031924,-0.00075329,-0.00027074,-0.00449425,-0.00195831,-0.000567
 07,-0.00075122,-0.00026217,-0.00010975,-0.00501861,0.00107929,0.000299
 50,-0.00019599,0.02643238,0.00632574,-0.05726967,0.02962055,0.00712520
 ,0.00773186,-0.02397520,-0.00577648,-0.00084518,-0.00394834,-0.0010106
 2,0.00069920,0.00356943,0.00090713,0.00168437,0.00125921,0.00030938,-0
 .00058307,0.00011803,0.00003107,-0.00163327,0.00477725,0.00109508,0.00
 063558,-0.00064400,-0.00084230,0.00196840,-0.00164907,-0.00040662,0.00
 065050,-0.00095788,0.00050643,-0.00001993,-0.00003702,0.00000608,0.000
 00971,-0.00001155,0.00002139,-0.00001323,0.00001369,-0.00002844,-0.000
 15739,0.00159905,0.00033389,0.05662486,0.00006507,0.00004898,0.0000438
 1,-0.00015319,-0.00012032,-0.00002858,0.00003706,0.00005598,0.00001331
 ,0.00007029,0.00008502,-0.00002890,0.00009942,-0.00003999,0.00007615,-
 0.00006617,0.00006798,-0.00007510,0.00009344,0.00001887,-0.00002351,-0
 .00028288,0.00008573,-0.00004542,0.00075305,-0.00065847,0.00004065,-0.
 00019837,-0.00001045,-0.00008734,-0.00240733,0.00036530,-0.00129894,-0
 .00058271,0.00047147,0.00049654,0.00169165,0.00134974,-0.00142843,0.00
 196179,-0.00749943,-0.00276188,0.03071928,-0.31582607,-0.06707362,0.00
 043854,-0.01345977,-0.00437567,0.00136076,-0.00271873,-0.00008713,0.00
 231227,0.00158665,0.00055812,0.00000045,-0.00012928,0.00005647,-0.0000
 5109,0.00001201,-0.00003314,-0.00015909,-0.00175168,0.00046474,-0.0003
 0220,0.00014695,0.00032506,-0.00198909,-0.00014809,0.00004864,0.000325
 65,0.00016535,0.00003582,-0.00002972,-0.00010786,0.00001601,-0.0000417
 8,-0.00006618,0.00002264,-0.00003286,-0.00011124,0.00014786,-0.0001850
 9,-0.00002598,-0.00023428,-0.03343017,0.33818438,-0.00005868,-0.000051
 23,-0.00006025,0.00009710,0.00016525,0.00006295,-0.00003088,-0.0000847
 3,-0.00003744,-0.00004946,-0.00009298,0.00000696,-0.00000571,0.0000561
 6,-0.00005621,-0.00002978,-0.00008728,0.00006855,0.00007038,0.00007756
 ,0.00002642,-0.00012266,-0.00013113,0.00002010,0.00000407,-0.00033923,
 -0.00041131,-0.00014060,0.00009456,0.00008076,-0.00045395,-0.00085846,
 0.00551383,-0.00021121,0.00049805,-0.00119428,0.00052066,-0.00129655,0
 .00707555,-0.00022145,-0.00257738,0.00333611,0.00839182,-0.06669406,-0
 .05523440,-0.00101591,-0.00519884,0.00318144,0.00071008,-0.00016449,-0
 .00315602,0.00053630,0.00072623,-0.00056563,0.00005814,0.00000244,0.00
 005632,-0.00005307,-0.00005233,0.00011409,0.00036686,0.00023309,-0.003
 11728,0.00101707,0.00012494,-0.00041807,-0.00055212,0.00014510,-0.0003
 7015,-0.00139180,0.00035033,-0.00064916,0.00003246,0.00013323,-0.00001
 485,0.00006176,0.00006181,-0.00004009,0.00011183,0.00015443,-0.0007205
 4,0.00012360,-0.00043389,0.00040491,-0.00777474,0.07523743,0.04607186,
 0.00044903,0.00071152,0.00081818,-0.00061692,-0.00454773,-0.00102282,0
 .00107010,0.00190130,0.00049738,0.00044879,0.00099280,-0.00043201,0.00
 559188,-0.02347672,-0.00565106,-0.00410309,-0.00214963,-0.00073558,-0.
 00088268,-0.00006019,0.00002195,-0.00523550,0.00083210,0.00013999,0.00
 073610,0.00097251,0.00007712,-0.00051912,0.00065317,0.00025254,0.00020
 547,0.00051523,0.00024509,0.00003851,-0.00017350,-0.00002819,-0.000118
 20,0.00033010,0.00012825,0.00034271,-0.00037796,-0.00016438,-0.0005451
 5,-0.00023347,-0.00007020,0.00188298,-0.00082666,-0.00020029,-0.001491
 42,0.00423559,0.00113692,0.00205802,-0.00353976,-0.00086072,0.00145448
 ,0.02747782,0.00664742,-0.05703486,0.03004484,0.00714314,0.00002425,0.
 00015579,0.00003528,0.00000394,-0.00004485,-0.00000677,0.00001628,-0.0
 0011187,-0.00002477,0.00001332,-0.00005947,0.00000268,0.00014957,-0.00
 154005,-0.00029884,-0.00001939,-0.00000873,0.00004856,-0.00000280,0.00
 002389,-0.00002336,-0.00003518,0.00005154,-0.00000939,-0.00011281,-0.0
 0001699,0.00000991,0.05623170,0.00033455,0.00036201,0.00052200,0.00037
 242,-0.00268954,0.00025973,0.00224246,0.00067206,0.00027610,-0.0002600
 1,0.00031161,-0.00007998,0.00102746,-0.01292636,-0.00407395,-0.0027660
 2,0.00053013,-0.00168750,0.00026078,0.00058250,0.00053856,0.00130044,0
 .00106006,-0.00110411,-0.00045645,-0.00060454,0.00001695,0.00009899,0.
 00016104,-0.00002450,0.00030730,0.00024982,0.00002307,-0.00009004,-0.0
 0003806,-0.00003563,0.00003818,0.00014808,-0.00004533,-0.00002210,-0.0
 0013540,0.00004047,-0.00006571,-0.00002837,-0.00004469,0.00042198,-0.0
 0030204,0.00001564,-0.00109560,-0.00211371,0.00005681,-0.00224766,0.00
 034618,0.00022421,0.00304438,-0.00767931,-0.00295917,0.02894746,-0.315
 91908,-0.06724040,0.00017854,-0.00005381,-0.00001062,-0.00007379,0.000
 02426,0.00003697,-0.00004423,0.00002340,0.00000547,-0.00007959,0.00005
 576,-0.00003194,0.00023876,-0.00031876,-0.00028941,0.00004073,-0.00010
 678,0.00015797,0.00005171,-0.00004988,0.00001792,0.00003938,-0.0000872
 0,0.00001417,-0.00001370,0.00002911,0.00000197,-0.03173064,0.33849680,
 -0.00095166,-0.00003747,-0.00041951,-0.00025892,-0.00014945,-0.0032157
 9,0.00064021,0.00042101,-0.00029731,0.00136588,0.00070656,-0.00059938,
 0.00087780,-0.00414726,0.00297118,-0.00097325,-0.00155415,0.00699423,0
 .00012547,0.00054111,-0.00118132,-0.00007134,-0.00072348,0.00555414,0.
 00013988,-0.00028864,-0.00041761,0.00007922,0.00018502,0.00011154,0.00
 016684,-0.00006410,0.00004731,-0.00008246,0.00005118,0.00001941,0.0000
 2675,-0.00005424,0.00008145,0.00002154,0.00002561,-0.00007423,0.000017
 97,-0.00005542,0.00011284,0.00007106,-0.00006864,0.00004013,-0.0005464
 6,-0.00001468,-0.00311902,-0.00054013,0.00037617,-0.00065939,0.0019690
 8,-0.00320655,0.00368550,0.00583637,-0.06705097,-0.05536818,-0.0001282
 9,0.00015570,0.00005886,0.00006986,-0.00004081,-0.00005566,0.00005023,
 -0.00008557,-0.00003725,0.00006604,-0.00008542,0.00000947,-0.00005129,
 -0.00055846,0.00038212,-0.00009707,0.00012912,-0.00072009,-0.00007132,
 0.00004842,-0.00004311,-0.00005725,0.00012744,-0.00001500,-0.00001871,
 -0.00000130,0.00002582,-0.00767604,0.07541925,0.04612884\\0.00000022,-
 0.00000136,-0.00000598,0.00000753,0.00000657,0.00001068,0.00000224,-0.
 00001289,-0.00000448,0.00000185,-0.00000185,0.00000259,-0.00002261,0.0
 0002269,0.00000295,-0.00000113,-0.00001716,0.00000045,-0.00000084,-0.0
 0000101,-0.00000241,0.00000011,0.00000886,0.00000532,0.00000387,-0.000
 03638,-0.00001154,-0.00000575,0.00002259,0.00000902,-0.00000402,0.0000
 2714,0.00000522,0.00000353,-0.00000432,0.00000032,0.00000146,-0.000003
 53,-0.00000451,0.00001327,0.00000770,0.00000631,-0.00000009,-0.0000017
 0,-0.00000595,-0.00000618,-0.00001998,-0.00000567,-0.00000734,0.000000
 40,0.00000262,-0.00000005,0.00000293,-0.00000042,0.00000995,0.00000090
 ,-0.00000139,0.00000320,-0.00000658,-0.00000246,-0.00001684,0.00000232
 ,0.00000244,-0.00000138,0.00000671,0.00000234,0.00000947,-0.00001632,-
 0.00000601,0.00000166,0.00000770,-0.00000188,0.00000240,0.00000724,-0.
 00000201,0.00000152,0.00000263,0.00000111,0.00000270,-0.00000127,0.000
 00134,-0.00000007,-0.00000448,0.00000121,0.00000171,0.00000083,-0.0000
 0005,-0.00000038,0.00000162,0.00000085\\\@


 TIMES HAVE CHANGED. IN THE BIBLE WHEN AN ASS
 SPOKE IT WAS CONSIDERED A MIRACLE.
 Job cpu time:       0 days  9 hours 39 minutes 41.3 seconds.
 Elapsed time:       0 days  1 hours 12 minutes 54.2 seconds.
 File lengths (MBytes):  RWF=   2034 Int=      0 D2E=      0 Chk=     36 Scr=      1
 Normal termination of Gaussian 16 at Mon Jan  8 18:10:32 2024.
