 Entering Gaussian System, Link 0=g16
 Input=069-an.com
 Output=069-an.log
 Initial command:
 /sysapps/ubuntu-applications/gaussian/Gaussian/AVX2/g16/l1.exe "/scratch/selhajj1/4219838/Gau-3935999.inp" -scrdir="/scratch/selhajj1/4219838/"
 Entering Link 1 = /sysapps/ubuntu-applications/gaussian/Gaussian/AVX2/g16/l1.exe PID=   3936041.
  
 Copyright (c) 1988,1990,1992,1993,1995,1998,2003,2009,2016,
            Gaussian, Inc.  All Rights Reserved.
  
 This is part of the Gaussian(R) 16 program.  It is based on
 the Gaussian(R) 09 system (copyright 2009, Gaussian, Inc.),
 the Gaussian(R) 03 system (copyright 2003, Gaussian, Inc.),
 the Gaussian(R) 98 system (copyright 1998, Gaussian, Inc.),
 the Gaussian(R) 94 system (copyright 1995, Gaussian, Inc.),
 the Gaussian 92(TM) system (copyright 1992, Gaussian, Inc.),
 the Gaussian 90(TM) system (copyright 1990, Gaussian, Inc.),
 the Gaussian 88(TM) system (copyright 1988, Gaussian, Inc.),
 the Gaussian 86(TM) system (copyright 1986, Carnegie Mellon
 University), and the Gaussian 82(TM) system (copyright 1983,
 Carnegie Mellon University). Gaussian is a federally registered
 trademark of Gaussian, Inc.
  
 This software contains proprietary and confidential information,
 including trade secrets, belonging to Gaussian, Inc.
  
 This software is provided under written license and may be
 used, copied, transmitted, or stored only in accord with that
 written license.
  
 The following legend is applicable only to US Government
 contracts under FAR:
  
                    RESTRICTED RIGHTS LEGEND
  
 Use, reproduction and disclosure by the US Government is
 subject to restrictions as set forth in subparagraphs (a)
 and (c) of the Commercial Computer Software - Restricted
 Rights clause in FAR 52.227-19.
  
 Gaussian, Inc.
 340 Quinnipiac St., Bldg. 40, Wallingford CT 06492
  
  
 ---------------------------------------------------------------
 Warning -- This program may not be used in any manner that
 competes with the business of Gaussian, Inc. or will provide
 assistance to any competitor of Gaussian, Inc.  The licensee
 of this program is prohibited from giving any competitor of
 Gaussian, Inc. access to this program.  By using this program,
 the user acknowledges that Gaussian, Inc. is engaged in the
 business of creating and licensing software in the field of
 computational chemistry and represents and warrants to the
 licensee that it is not a competitor of Gaussian, Inc. and that
 it will not use this program in any manner prohibited above.
 ---------------------------------------------------------------
  

 Cite this work as:
 Gaussian 16, Revision A.03,
 M. J. Frisch, G. W. Trucks, H. B. Schlegel, G. E. Scuseria, 
 M. A. Robb, J. R. Cheeseman, G. Scalmani, V. Barone, 
 G. A. Petersson, H. Nakatsuji, X. Li, M. Caricato, A. V. Marenich, 
 J. Bloino, B. G. Janesko, R. Gomperts, B. Mennucci, H. P. Hratchian, 
 J. V. Ortiz, A. F. Izmaylov, J. L. Sonnenberg, D. Williams-Young, 
 F. Ding, F. Lipparini, F. Egidi, J. Goings, B. Peng, A. Petrone, 
 T. Henderson, D. Ranasinghe, V. G. Zakrzewski, J. Gao, N. Rega, 
 G. Zheng, W. Liang, M. Hada, M. Ehara, K. Toyota, R. Fukuda, 
 J. Hasegawa, M. Ishida, T. Nakajima, Y. Honda, O. Kitao, H. Nakai, 
 T. Vreven, K. Throssell, J. A. Montgomery, Jr., J. E. Peralta, 
 F. Ogliaro, M. J. Bearpark, J. J. Heyd, E. N. Brothers, K. N. Kudin, 
 V. N. Staroverov, T. A. Keith, R. Kobayashi, J. Normand, 
 K. Raghavachari, A. P. Rendell, J. C. Burant, S. S. Iyengar, 
 J. Tomasi, M. Cossi, J. M. Millam, M. Klene, C. Adamo, R. Cammi, 
 J. W. Ochterski, R. L. Martin, K. Morokuma, O. Farkas, 
 J. B. Foresman, and D. J. Fox, Gaussian, Inc., Wallingford CT, 2016.
 
 ******************************************
 Gaussian 16:  ES64L-G16RevA.03 25-Dec-2016
                20-Dec-2023 
 ******************************************
 %chk=069-an.chk
 %nproc=8
 Will use up to    8 processors via shared memory.
 %mem=30GB
 --------------------------------------
 #P UB3LYP/6-311++G(d,p) nosym opt freq
 --------------------------------------
 1/18=20,19=15,26=3,38=1/1,3;
 2/9=110,12=2,15=1,17=6,18=5,40=1/2;
 3/5=4,6=6,7=1111,11=2,25=1,30=1,71=1,74=-5,116=2/1,2,3;
 4//1;
 5/5=2,38=5/2;
 6/7=2,8=2,9=2,10=2,28=1/1;
 7/30=1/1,2,3,16;
 1/18=20,19=15,26=3/3(2);
 2/9=110,15=1/2;
 99//99;
 2/9=110,15=1/2;
 3/5=4,6=6,7=1111,11=2,25=1,30=1,71=1,74=-5,116=2/1,2,3;
 4/5=5,16=3,69=1/1;
 5/5=2,38=5/2;
 7/30=1/1,2,3,16;
 1/18=20,19=15,26=3/3(-5);
 2/9=110,15=1/2;
 6/7=2,8=2,9=2,10=2,19=2,28=1/1;
 99/9=1/99;
 Leave Link    1 at Wed Dec 20 01:21:57 2023, MaxMem=  4026531840 cpu:               1.1 elap:               0.2
 (Enter /sysapps/ubuntu-applications/gaussian/Gaussian/AVX2/g16/l101.exe)
 -------
 Reduced
 -------
 Symbolic Z-matrix:
 Charge = -2 Multiplicity = 1
 C                     0.96259   1.64227  -0.36932 
 C                    -0.24172   1.09738   0.28394 
 C                    -0.34774  -0.19823   0.57136 
 C                     0.73566  -1.13468   0.23855 
 C                     1.89877  -0.617    -0.52612 
 C                     1.98665   0.68817  -0.84547 
 O                     1.07489   2.85775  -0.44301 
 O                     0.63647  -2.30839   0.57108 
 S                     3.22635   1.30574  -1.89335 
 C                     4.43362   2.01043  -0.79061 
 C                     4.25094   3.30921  -0.30477 
 C                     5.59554   1.29845  -0.48066 
 C                     6.55158   1.86869   0.36036 
 C                     5.2108    3.87323   0.53637 
 C                     6.35637   3.15142   0.87258 
 O                     2.69454   2.39529  -2.69355 
 O                     3.86684   0.21923  -2.6145 
 H                    -1.01667   1.80997   0.54533 
 H                    -1.21448  -0.61084   1.07542 
 H                     3.37548   3.89405  -0.58078 
 H                     5.77095   0.30367  -0.88561 
 H                     7.45246   1.31313   0.61027 
 H                     5.07051   4.88051   0.92138 
 H                     7.10567   3.5943    1.52437 
 C                     3.00645  -1.56868  -0.78871 
 C                     2.79132  -2.71308  -1.71722 
 C                     1.72996  -2.75805  -2.63082 
 C                     3.71309  -3.76839  -1.68037 
 C                     1.58774  -3.85719  -3.48252 
 C                     2.50259  -4.90832  -3.4312 
 C                     3.5664   -4.86381  -2.53262 
 O                     4.0619   -1.41934  -0.1789 
 H                     1.00874  -1.95206  -2.7132 
 H                     4.55022  -3.74283  -0.98516 
 H                     0.76482  -3.89273  -4.19255 
 H                     2.38987  -5.76096  -4.0965 
 H                     4.28412  -5.67954  -2.49567 
 
 ITRead=  0  0  0  0  0  0  0  0  0  0  0  0  0  0  0  0  0  0  0  0
 ITRead=  0  0  0  0  0  0  0  0  0  0  0  0  0  0  0  0  0
 MicOpt= -1 -1 -1 -1 -1 -1 -1 -1 -1 -1 -1 -1 -1 -1 -1 -1 -1 -1 -1 -1
 MicOpt= -1 -1 -1 -1 -1 -1 -1 -1 -1 -1 -1 -1 -1 -1 -1 -1 -1
 NAtoms=     37 NQM=       37 NQMF=       0 NMMI=      0 NMMIF=      0
                NMic=       0 NMicF=      0.
                    Isotopes and Nuclear Properties:
 (Nuclear quadrupole moments (NQMom) in fm**2, nuclear magnetic moments (NMagM)
  in nuclear magnetons)

  Atom         1           2           3           4           5           6           7           8           9          10
 IAtWgt=          12          12          12          12          12          12          16          16          32          12
 AtmWgt=  12.0000000  12.0000000  12.0000000  12.0000000  12.0000000  12.0000000  15.9949146  15.9949146  31.9720718  12.0000000
 NucSpn=           0           0           0           0           0           0           0           0           0           0
 AtZEff=  -0.0000000  -0.0000000  -0.0000000  -0.0000000  -0.0000000  -0.0000000  -0.0000000  -0.0000000  -0.0000000  -0.0000000
 NQMom=    0.0000000   0.0000000   0.0000000   0.0000000   0.0000000   0.0000000   0.0000000   0.0000000   0.0000000   0.0000000
 NMagM=    0.0000000   0.0000000   0.0000000   0.0000000   0.0000000   0.0000000   0.0000000   0.0000000   0.0000000   0.0000000
 AtZNuc=   6.0000000   6.0000000   6.0000000   6.0000000   6.0000000   6.0000000   8.0000000   8.0000000  16.0000000   6.0000000

  Atom        11          12          13          14          15          16          17          18          19          20
 IAtWgt=          12          12          12          12          12          16          16           1           1           1
 AtmWgt=  12.0000000  12.0000000  12.0000000  12.0000000  12.0000000  15.9949146  15.9949146   1.0078250   1.0078250   1.0078250
 NucSpn=           0           0           0           0           0           0           0           1           1           1
 AtZEff=  -0.0000000  -0.0000000  -0.0000000  -0.0000000  -0.0000000  -0.0000000  -0.0000000  -0.0000000  -0.0000000  -0.0000000
 NQMom=    0.0000000   0.0000000   0.0000000   0.0000000   0.0000000   0.0000000   0.0000000   0.0000000   0.0000000   0.0000000
 NMagM=    0.0000000   0.0000000   0.0000000   0.0000000   0.0000000   0.0000000   0.0000000   2.7928460   2.7928460   2.7928460
 AtZNuc=   6.0000000   6.0000000   6.0000000   6.0000000   6.0000000   8.0000000   8.0000000   1.0000000   1.0000000   1.0000000

  Atom        21          22          23          24          25          26          27          28          29          30
 IAtWgt=           1           1           1           1          12          12          12          12          12          12
 AtmWgt=   1.0078250   1.0078250   1.0078250   1.0078250  12.0000000  12.0000000  12.0000000  12.0000000  12.0000000  12.0000000
 NucSpn=           1           1           1           1           0           0           0           0           0           0
 AtZEff=  -0.0000000  -0.0000000  -0.0000000  -0.0000000  -0.0000000  -0.0000000  -0.0000000  -0.0000000  -0.0000000  -0.0000000
 NQMom=    0.0000000   0.0000000   0.0000000   0.0000000   0.0000000   0.0000000   0.0000000   0.0000000   0.0000000   0.0000000
 NMagM=    2.7928460   2.7928460   2.7928460   2.7928460   0.0000000   0.0000000   0.0000000   0.0000000   0.0000000   0.0000000
 AtZNuc=   1.0000000   1.0000000   1.0000000   1.0000000   6.0000000   6.0000000   6.0000000   6.0000000   6.0000000   6.0000000

  Atom        31          32          33          34          35          36          37
 IAtWgt=          12          16           1           1           1           1           1
 AtmWgt=  12.0000000  15.9949146   1.0078250   1.0078250   1.0078250   1.0078250   1.0078250
 NucSpn=           0           0           1           1           1           1           1
 AtZEff=  -0.0000000  -0.0000000  -0.0000000  -0.0000000  -0.0000000  -0.0000000  -0.0000000
 NQMom=    0.0000000   0.0000000   0.0000000   0.0000000   0.0000000   0.0000000   0.0000000
 NMagM=    0.0000000   0.0000000   2.7928460   2.7928460   2.7928460   2.7928460   2.7928460
 AtZNuc=   6.0000000   8.0000000   1.0000000   1.0000000   1.0000000   1.0000000   1.0000000
 Leave Link  101 at Wed Dec 20 01:21:58 2023, MaxMem=  4026531840 cpu:               3.7 elap:               0.9
 (Enter /sysapps/ubuntu-applications/gaussian/Gaussian/AVX2/g16/l103.exe)

 GradGradGradGradGradGradGradGradGradGradGradGradGradGradGradGradGradGrad
 Berny optimization.
 Initialization pass.
                           ----------------------------
                           !    Initial Parameters    !
                           ! (Angstroms and Degrees)  !
 --------------------------                            --------------------------
 ! Name  Definition              Value          Derivative Info.                !
 --------------------------------------------------------------------------------
 ! R1    R(1,2)                  1.4745         estimate D2E/DX2                !
 ! R2    R(1,6)                  1.4784         estimate D2E/DX2                !
 ! R3    R(1,7)                  1.2229         estimate D2E/DX2                !
 ! R4    R(2,3)                  1.3313         estimate D2E/DX2                !
 ! R5    R(2,18)                 1.0847         estimate D2E/DX2                !
 ! R6    R(3,4)                  1.4702         estimate D2E/DX2                !
 ! R7    R(3,19)                 1.0842         estimate D2E/DX2                !
 ! R8    R(4,5)                  1.4851         estimate D2E/DX2                !
 ! R9    R(4,8)                  1.2239         estimate D2E/DX2                !
 ! R10   R(5,6)                  1.3465         estimate D2E/DX2                !
 ! R11   R(5,25)                 1.4838         estimate D2E/DX2                !
 ! R12   R(6,9)                  1.7368         estimate D2E/DX2                !
 ! R13   R(9,10)                 1.7805         estimate D2E/DX2                !
 ! R14   R(9,16)                 1.4527         estimate D2E/DX2                !
 ! R15   R(9,17)                 1.4529         estimate D2E/DX2                !
 ! R16   R(10,11)                1.3987         estimate D2E/DX2                !
 ! R17   R(10,12)                1.3975         estimate D2E/DX2                !
 ! R18   R(11,14)                1.3953         estimate D2E/DX2                !
 ! R19   R(11,20)                1.0884         estimate D2E/DX2                !
 ! R20   R(12,13)                1.3952         estimate D2E/DX2                !
 ! R21   R(12,21)                1.0883         estimate D2E/DX2                !
 ! R22   R(13,15)                1.3949         estimate D2E/DX2                !
 ! R23   R(13,22)                1.0875         estimate D2E/DX2                !
 ! R24   R(14,15)                1.3951         estimate D2E/DX2                !
 ! R25   R(14,23)                1.0874         estimate D2E/DX2                !
 ! R26   R(15,24)                1.0874         estimate D2E/DX2                !
 ! R27   R(25,26)                1.4893         estimate D2E/DX2                !
 ! R28   R(25,32)                1.2281         estimate D2E/DX2                !
 ! R29   R(26,27)                1.4011         estimate D2E/DX2                !
 ! R30   R(26,28)                1.4017         estimate D2E/DX2                !
 ! R31   R(27,29)                1.3978         estimate D2E/DX2                !
 ! R32   R(27,33)                1.0847         estimate D2E/DX2                !
 ! R33   R(28,31)                1.3956         estimate D2E/DX2                !
 ! R34   R(28,34)                1.0885         estimate D2E/DX2                !
 ! R35   R(29,30)                1.3944         estimate D2E/DX2                !
 ! R36   R(29,35)                1.0875         estimate D2E/DX2                !
 ! R37   R(30,31)                1.3932         estimate D2E/DX2                !
 ! R38   R(30,36)                1.0873         estimate D2E/DX2                !
 ! R39   R(31,37)                1.0872         estimate D2E/DX2                !
 ! A1    A(2,1,6)              118.0319         estimate D2E/DX2                !
 ! A2    A(2,1,7)              117.9709         estimate D2E/DX2                !
 ! A3    A(6,1,7)              123.9472         estimate D2E/DX2                !
 ! A4    A(1,2,3)              121.3544         estimate D2E/DX2                !
 ! A5    A(1,2,18)             116.5843         estimate D2E/DX2                !
 ! A6    A(3,2,18)             122.0312         estimate D2E/DX2                !
 ! A7    A(2,3,4)              120.8179         estimate D2E/DX2                !
 ! A8    A(2,3,19)             122.3011         estimate D2E/DX2                !
 ! A9    A(4,3,19)             116.8678         estimate D2E/DX2                !
 ! A10   A(3,4,5)              118.1423         estimate D2E/DX2                !
 ! A11   A(3,4,8)              119.3142         estimate D2E/DX2                !
 ! A12   A(5,4,8)              122.5231         estimate D2E/DX2                !
 ! A13   A(4,5,6)              120.737          estimate D2E/DX2                !
 ! A14   A(4,5,25)             116.8858         estimate D2E/DX2                !
 ! A15   A(6,5,25)             122.0724         estimate D2E/DX2                !
 ! A16   A(1,6,5)              120.2606         estimate D2E/DX2                !
 ! A17   A(1,6,9)              117.3402         estimate D2E/DX2                !
 ! A18   A(5,6,9)              122.2994         estimate D2E/DX2                !
 ! A19   A(6,9,10)             104.5396         estimate D2E/DX2                !
 ! A20   A(6,9,16)             109.7394         estimate D2E/DX2                !
 ! A21   A(6,9,17)             110.3798         estimate D2E/DX2                !
 ! A22   A(10,9,16)            107.0104         estimate D2E/DX2                !
 ! A23   A(10,9,17)            107.7275         estimate D2E/DX2                !
 ! A24   A(16,9,17)            116.6715         estimate D2E/DX2                !
 ! A25   A(9,10,11)            119.6104         estimate D2E/DX2                !
 ! A26   A(9,10,12)            119.9653         estimate D2E/DX2                !
 ! A27   A(11,10,12)           120.3071         estimate D2E/DX2                !
 ! A28   A(10,11,14)           119.6633         estimate D2E/DX2                !
 ! A29   A(10,11,20)           121.0596         estimate D2E/DX2                !
 ! A30   A(14,11,20)           119.2737         estimate D2E/DX2                !
 ! A31   A(10,12,13)           119.6826         estimate D2E/DX2                !
 ! A32   A(10,12,21)           121.143          estimate D2E/DX2                !
 ! A33   A(13,12,21)           119.1743         estimate D2E/DX2                !
 ! A34   A(12,13,15)           120.086          estimate D2E/DX2                !
 ! A35   A(12,13,22)           119.8266         estimate D2E/DX2                !
 ! A36   A(15,13,22)           120.0861         estimate D2E/DX2                !
 ! A37   A(11,14,15)           120.0658         estimate D2E/DX2                !
 ! A38   A(11,14,23)           119.9408         estimate D2E/DX2                !
 ! A39   A(15,14,23)           119.9901         estimate D2E/DX2                !
 ! A40   A(13,15,14)           120.1442         estimate D2E/DX2                !
 ! A41   A(13,15,24)           119.8805         estimate D2E/DX2                !
 ! A42   A(14,15,24)           119.9701         estimate D2E/DX2                !
 ! A43   A(5,25,26)            119.6926         estimate D2E/DX2                !
 ! A44   A(5,25,32)            118.4062         estimate D2E/DX2                !
 ! A45   A(26,25,32)           121.8143         estimate D2E/DX2                !
 ! A46   A(25,26,27)           122.7243         estimate D2E/DX2                !
 ! A47   A(25,26,28)           117.849          estimate D2E/DX2                !
 ! A48   A(27,26,28)           119.4146         estimate D2E/DX2                !
 ! A49   A(26,27,29)           119.9752         estimate D2E/DX2                !
 ! A50   A(26,27,33)           121.9608         estimate D2E/DX2                !
 ! A51   A(29,27,33)           118.0589         estimate D2E/DX2                !
 ! A52   A(26,28,31)           120.382          estimate D2E/DX2                !
 ! A53   A(26,28,34)           120.3235         estimate D2E/DX2                !
 ! A54   A(31,28,34)           119.2944         estimate D2E/DX2                !
 ! A55   A(27,29,30)           120.2371         estimate D2E/DX2                !
 ! A56   A(27,29,35)           120.0356         estimate D2E/DX2                !
 ! A57   A(30,29,35)           119.7264         estimate D2E/DX2                !
 ! A58   A(29,30,31)           120.0396         estimate D2E/DX2                !
 ! A59   A(29,30,36)           120.0371         estimate D2E/DX2                !
 ! A60   A(31,30,36)           119.9223         estimate D2E/DX2                !
 ! A61   A(28,31,30)           119.9454         estimate D2E/DX2                !
 ! A62   A(28,31,37)           119.9198         estimate D2E/DX2                !
 ! A63   A(30,31,37)           120.1346         estimate D2E/DX2                !
 ! D1    D(6,1,2,3)              7.1758         estimate D2E/DX2                !
 ! D2    D(6,1,2,18)          -174.7811         estimate D2E/DX2                !
 ! D3    D(7,1,2,3)           -170.3566         estimate D2E/DX2                !
 ! D4    D(7,1,2,18)             7.6865         estimate D2E/DX2                !
 ! D5    D(2,1,6,5)             -8.8129         estimate D2E/DX2                !
 ! D6    D(2,1,6,9)            167.6392         estimate D2E/DX2                !
 ! D7    D(7,1,6,5)            168.5598         estimate D2E/DX2                !
 ! D8    D(7,1,6,9)            -14.988          estimate D2E/DX2                !
 ! D9    D(1,2,3,4)             -0.3267         estimate D2E/DX2                !
 ! D10   D(1,2,3,19)           178.3107         estimate D2E/DX2                !
 ! D11   D(18,2,3,4)          -178.2624         estimate D2E/DX2                !
 ! D12   D(18,2,3,19)            0.375          estimate D2E/DX2                !
 ! D13   D(2,3,4,5)             -4.9972         estimate D2E/DX2                !
 ! D14   D(2,3,4,8)            176.6049         estimate D2E/DX2                !
 ! D15   D(19,3,4,5)           176.2939         estimate D2E/DX2                !
 ! D16   D(19,3,4,8)            -2.104          estimate D2E/DX2                !
 ! D17   D(3,4,5,6)              3.2715         estimate D2E/DX2                !
 ! D18   D(3,4,5,25)           177.0593         estimate D2E/DX2                !
 ! D19   D(8,4,5,6)           -178.3852         estimate D2E/DX2                !
 ! D20   D(8,4,5,25)            -4.5974         estimate D2E/DX2                !
 ! D21   D(4,5,6,1)              3.623          estimate D2E/DX2                !
 ! D22   D(4,5,6,9)           -172.6483         estimate D2E/DX2                !
 ! D23   D(25,5,6,1)          -169.8369         estimate D2E/DX2                !
 ! D24   D(25,5,6,9)            13.8918         estimate D2E/DX2                !
 ! D25   D(4,5,25,26)           68.4991         estimate D2E/DX2                !
 ! D26   D(4,5,25,32)         -108.1734         estimate D2E/DX2                !
 ! D27   D(6,5,25,26)         -117.8025         estimate D2E/DX2                !
 ! D28   D(6,5,25,32)           65.525          estimate D2E/DX2                !
 ! D29   D(1,6,9,10)            83.2864         estimate D2E/DX2                !
 ! D30   D(1,6,9,16)           -31.1797         estimate D2E/DX2                !
 ! D31   D(1,6,9,17)          -161.1243         estimate D2E/DX2                !
 ! D32   D(5,6,9,10)          -100.3391         estimate D2E/DX2                !
 ! D33   D(5,6,9,16)           145.1948         estimate D2E/DX2                !
 ! D34   D(5,6,9,17)            15.2502         estimate D2E/DX2                !
 ! D35   D(6,9,10,11)          -83.4046         estimate D2E/DX2                !
 ! D36   D(6,9,10,12)          100.5196         estimate D2E/DX2                !
 ! D37   D(16,9,10,11)          32.9691         estimate D2E/DX2                !
 ! D38   D(16,9,10,12)        -143.1067         estimate D2E/DX2                !
 ! D39   D(17,9,10,11)         159.1693         estimate D2E/DX2                !
 ! D40   D(17,9,10,12)         -16.9065         estimate D2E/DX2                !
 ! D41   D(9,10,11,14)        -178.6167         estimate D2E/DX2                !
 ! D42   D(9,10,11,20)           0.7086         estimate D2E/DX2                !
 ! D43   D(12,10,11,14)         -2.5545         estimate D2E/DX2                !
 ! D44   D(12,10,11,20)        176.7707         estimate D2E/DX2                !
 ! D45   D(9,10,12,13)         178.5707         estimate D2E/DX2                !
 ! D46   D(9,10,12,21)          -1.3324         estimate D2E/DX2                !
 ! D47   D(11,10,12,13)          2.5225         estimate D2E/DX2                !
 ! D48   D(11,10,12,21)       -177.3806         estimate D2E/DX2                !
 ! D49   D(10,11,14,15)          1.0151         estimate D2E/DX2                !
 ! D50   D(10,11,14,23)       -179.6433         estimate D2E/DX2                !
 ! D51   D(20,11,14,15)       -178.3223         estimate D2E/DX2                !
 ! D52   D(20,11,14,23)          1.0193         estimate D2E/DX2                !
 ! D53   D(10,12,13,15)         -0.9512         estimate D2E/DX2                !
 ! D54   D(10,12,13,22)        179.4517         estimate D2E/DX2                !
 ! D55   D(21,12,13,15)        178.9538         estimate D2E/DX2                !
 ! D56   D(21,12,13,22)         -0.6433         estimate D2E/DX2                !
 ! D57   D(12,13,15,14)         -0.5774         estimate D2E/DX2                !
 ! D58   D(12,13,15,24)       -179.7401         estimate D2E/DX2                !
 ! D59   D(22,13,15,14)        179.0186         estimate D2E/DX2                !
 ! D60   D(22,13,15,24)         -0.144          estimate D2E/DX2                !
 ! D61   D(11,14,15,13)          0.5446         estimate D2E/DX2                !
 ! D62   D(11,14,15,24)        179.7065         estimate D2E/DX2                !
 ! D63   D(23,14,15,13)       -178.7966         estimate D2E/DX2                !
 ! D64   D(23,14,15,24)          0.3653         estimate D2E/DX2                !
 ! D65   D(5,25,26,27)          17.4206         estimate D2E/DX2                !
 ! D66   D(5,25,26,28)        -163.8506         estimate D2E/DX2                !
 ! D67   D(32,25,26,27)       -166.0239         estimate D2E/DX2                !
 ! D68   D(32,25,26,28)         12.705          estimate D2E/DX2                !
 ! D69   D(25,26,27,29)        179.5595         estimate D2E/DX2                !
 ! D70   D(25,26,27,33)          0.3973         estimate D2E/DX2                !
 ! D71   D(28,26,27,29)          0.8498         estimate D2E/DX2                !
 ! D72   D(28,26,27,33)       -178.3124         estimate D2E/DX2                !
 ! D73   D(25,26,28,31)       -179.6462         estimate D2E/DX2                !
 ! D74   D(25,26,28,34)          0.4606         estimate D2E/DX2                !
 ! D75   D(27,26,28,31)         -0.8738         estimate D2E/DX2                !
 ! D76   D(27,26,28,34)        179.2329         estimate D2E/DX2                !
 ! D77   D(26,27,29,30)         -0.2939         estimate D2E/DX2                !
 ! D78   D(26,27,29,35)       -179.949          estimate D2E/DX2                !
 ! D79   D(33,27,29,30)        178.9006         estimate D2E/DX2                !
 ! D80   D(33,27,29,35)         -0.7544         estimate D2E/DX2                !
 ! D81   D(26,28,31,30)          0.3368         estimate D2E/DX2                !
 ! D82   D(26,28,31,37)       -179.8213         estimate D2E/DX2                !
 ! D83   D(34,28,31,30)       -179.7688         estimate D2E/DX2                !
 ! D84   D(34,28,31,37)          0.073          estimate D2E/DX2                !
 ! D85   D(27,29,30,31)         -0.2494         estimate D2E/DX2                !
 ! D86   D(27,29,30,36)       -179.89           estimate D2E/DX2                !
 ! D87   D(35,29,30,31)        179.4067         estimate D2E/DX2                !
 ! D88   D(35,29,30,36)         -0.2339         estimate D2E/DX2                !
 ! D89   D(29,30,31,28)          0.2282         estimate D2E/DX2                !
 ! D90   D(29,30,31,37)       -179.6133         estimate D2E/DX2                !
 ! D91   D(36,30,31,28)        179.8692         estimate D2E/DX2                !
 ! D92   D(36,30,31,37)          0.0277         estimate D2E/DX2                !
 --------------------------------------------------------------------------------
 Trust Radius=3.00D-01 FncErr=1.00D-07 GrdErr=1.00D-06 EigMax=2.50D+02 EigMin=1.00D-04
 Number of steps in this run=    204 maximum allowed number of steps=    222.
 GradGradGradGradGradGradGradGradGradGradGradGradGradGradGradGradGradGrad

 Leave Link  103 at Wed Dec 20 01:21:58 2023, MaxMem=  4026531840 cpu:               0.3 elap:               0.1
 (Enter /sysapps/ubuntu-applications/gaussian/Gaussian/AVX2/g16/l202.exe)
                          Input orientation:                          
 ---------------------------------------------------------------------
 Center     Atomic      Atomic             Coordinates (Angstroms)
 Number     Number       Type             X           Y           Z
 ---------------------------------------------------------------------
      1          6           0        0.962590    1.642270   -0.369320
      2          6           0       -0.241720    1.097380    0.283940
      3          6           0       -0.347740   -0.198230    0.571360
      4          6           0        0.735660   -1.134680    0.238550
      5          6           0        1.898770   -0.617000   -0.526120
      6          6           0        1.986650    0.688170   -0.845470
      7          8           0        1.074890    2.857750   -0.443010
      8          8           0        0.636470   -2.308390    0.571080
      9         16           0        3.226350    1.305740   -1.893350
     10          6           0        4.433620    2.010430   -0.790610
     11          6           0        4.250940    3.309210   -0.304770
     12          6           0        5.595540    1.298450   -0.480660
     13          6           0        6.551580    1.868690    0.360360
     14          6           0        5.210800    3.873230    0.536370
     15          6           0        6.356370    3.151420    0.872580
     16          8           0        2.694540    2.395290   -2.693550
     17          8           0        3.866840    0.219230   -2.614500
     18          1           0       -1.016670    1.809970    0.545330
     19          1           0       -1.214480   -0.610840    1.075420
     20          1           0        3.375480    3.894050   -0.580780
     21          1           0        5.770950    0.303670   -0.885610
     22          1           0        7.452460    1.313130    0.610270
     23          1           0        5.070510    4.880510    0.921380
     24          1           0        7.105670    3.594300    1.524370
     25          6           0        3.006450   -1.568680   -0.788710
     26          6           0        2.791320   -2.713080   -1.717220
     27          6           0        1.729960   -2.758050   -2.630820
     28          6           0        3.713090   -3.768390   -1.680370
     29          6           0        1.587740   -3.857190   -3.482520
     30          6           0        2.502590   -4.908320   -3.431200
     31          6           0        3.566400   -4.863810   -2.532620
     32          8           0        4.061900   -1.419340   -0.178900
     33          1           0        1.008740   -1.952060   -2.713200
     34          1           0        4.550220   -3.742830   -0.985160
     35          1           0        0.764820   -3.892730   -4.192550
     36          1           0        2.389870   -5.760960   -4.096500
     37          1           0        4.284120   -5.679540   -2.495670
 ---------------------------------------------------------------------
                    Distance matrix (angstroms):
                    1          2          3          4          5
     1  C    0.000000
     2  C    1.474455   0.000000
     3  C    2.447301   1.331336   0.000000
     4  C    2.851746   2.437093   1.470189   0.000000
     5  C    2.450575   2.859544   2.535081   1.485105   0.000000
     6  C    1.478420   2.531532   2.870974   2.462287   1.346542
     7  O    1.222879   2.315345   3.520204   4.064369   3.572054
     8  O    4.074116   3.528872   2.328400   1.223932   2.378665
     9  S    2.749642   4.100185   4.594653   4.087075   2.707160
    10  C    3.515832   4.883352   5.440087   4.962438   3.660438
    11  C    3.687289   5.042099   5.849581   5.692148   4.582229
    12  C    4.647024   5.890556   6.218470   5.482319   4.163787
    13  C    5.640967   6.837374   7.205366   6.546754   5.349125
    14  C    4.883108   6.123646   6.890238   6.722703   5.679841
    15  C    5.736960   6.935443   7.500399   7.096832   6.002295
    16  O    2.994785   4.378543   5.161536   4.989500   3.795378
    17  O    3.937073   5.104152   5.299685   4.447163   2.988965
    18  H    2.186819   1.084738   2.116840   3.440311   3.941824
    19  H    3.450132   2.119131   1.084233   2.185819   3.501042
    20  H    3.307154   4.653304   5.651243   5.738299   4.746918
    21  H    5.017841   6.176571   6.309757   5.356000   3.996329
    22  H    6.571632   7.704119   7.945366   7.158586   5.988343
    23  H    5.387681   6.552724   7.434618   7.445784   6.509824
    24  H    6.718178   7.858589   8.416937   8.037015   7.003668
    25  C    3.829289   4.336942   3.870209   2.529843   1.483780
    26  C    4.912246   5.265318   4.627717   3.246863   2.570781
    27  C    5.006601   5.219932   4.596028   3.443435   3.007051
    28  C    6.209617   6.570750   5.857190   4.414043   3.815142
    29  C    6.350345   6.486980   5.793791   4.688759   4.397257
    30  C    7.393033   7.576406   6.806601   5.552429   5.217233
    31  C    7.334083   7.613841   6.835409   5.440486   4.984218
    32  O    4.360669   5.006920   4.636693   3.364397   2.333119
    33  H    4.291283   4.454838   3.962864   3.074981   2.712537
    34  H    6.499973   6.928271   6.243153   4.780249   4.124526
    35  H    6.729965   6.778885   6.130413   5.219419   5.045687
    36  H    8.410518   8.552798   7.760631   6.552216   6.280853
    37  H    8.316419   8.610233   7.804201   6.381479   5.932818
                    6          7          8          9         10
     6  C    0.000000
     7  O    2.387542   0.000000
     8  O    3.578962   5.282953   0.000000
     9  S    1.736750   3.023409   5.083584   0.000000
    10  C    2.781914   3.481357   5.909717   1.780484   0.000000
    11  C    3.505598   3.210953   6.737131   2.754499   1.398657
    12  C    3.678263   4.782166   6.221561   2.758407   1.397513
    13  C    4.866851   5.622969   7.244372   4.056264   2.414659
    14  C    4.738062   4.369913   7.690132   4.053836   2.415556
    15  C    5.302240   5.450784   7.913134   4.566610   2.786580
    16  O    2.613574   2.811061   6.084247   1.452674   2.606472
    17  O    2.623830   4.412725   5.193464   1.452855   2.618437
    18  H    3.494666   2.539544   4.437840   4.919820   5.615210
    19  H    3.952781   4.424699   2.561650   5.675196   6.500320
    20  H    3.503795   2.526977   6.877443   2.905930   2.170648
    21  H    3.803995   5.363972   5.942027   2.914562   2.170370
    22  H    5.690767   6.645950   7.718462   4.912044   3.400307
    23  H    5.496150   4.681677   8.453621   4.909441   3.402043
    24  H    6.345557   6.386188   8.809146   5.653976   3.873968
    25  C    2.477213   4.841871   2.830725   3.087212   3.853161
    26  C    3.602214   5.966900   3.169143   4.046132   5.085991
    27  C    3.889704   6.062412   3.413221   4.392884   5.782262
    28  C    4.851657   7.238570   4.082428   5.101869   5.891146
    29  C    5.270053   7.388644   4.442451   5.645029   7.055096
    30  C    6.186509   8.442716   5.124479   6.442310   7.653149
    31  C    6.013865   8.378340   4.974697   6.211896   7.144358
    32  O    3.031926   5.223551   3.617520   3.326191   3.503668
    33  H    3.378689   5.319061   3.324463   4.025321   5.579201
    34  H    5.121051   7.479271   4.449375   5.297688   5.757729
    35  H    5.803487   7.728142   5.021830   6.194315   7.738255
    36  H    7.233468   9.453006   6.064730   7.449283   8.689092
    37  H    6.967730   9.348684   5.837376   7.090543   7.878148
                   11         12         13         14         15
    11  C    0.000000
    12  C    2.425292   0.000000
    13  C    2.794716   1.395171   0.000000
    14  C    1.395337   2.794972   2.418026   0.000000
    15  C    2.417413   2.417358   1.394945   1.395126   0.000000
    16  O    2.993977   3.809953   4.947770   4.352959   5.167012
    17  O    3.876901   2.950660   4.333398   5.008585   5.191842
    18  H    5.542392   6.710859   7.570738   6.560374   7.501220
    19  H    6.866042   7.241764   8.183585   7.853769   8.456566
    20  H    1.088416   3.416991   3.882710   2.148687   3.398450
    21  H    3.417759   1.088274   2.147350   3.882983   3.397592
    22  H    3.882185   2.153717   1.087514   3.403618   2.156277
    23  H    2.155023   3.882335   3.402848   1.087441   2.155358
    24  H    3.402427   3.401700   2.153988   2.155105   1.087393
    25  C    5.057348   3.875399   5.069894   6.019085   6.021727
    26  C    6.355587   5.048277   6.280805   7.369670   7.335462
    27  C    6.969756   6.001757   7.321332   8.131495   8.282470
    28  C    7.230075   5.536767   6.633120   8.096384   7.835066
    29  C    8.279373   7.187089   8.496654   9.435965   9.530338
    30  C    8.964323   7.536313   8.757746  10.009577   9.916328
    31  C    8.498833   6.804513   7.912470   9.405244   9.144574
    32  O    4.734001   3.135202   4.159381   5.462864   5.221307
    33  H    6.632749   6.048866   7.400539   7.883592   8.215867
    34  H    7.091105   5.173173   6.107784   7.794600   7.365057
    35  H    8.895831   8.003895   9.349307  10.121243  10.321871
    36  H   10.005438   8.554875   9.767036  11.056163  10.947849
    37  H    9.251960   7.380544   8.382962  10.065159   9.676011
                   16         17         18         19         20
    16  O    0.000000
    17  O    2.473009   0.000000
    18  H    4.960446   6.030228   0.000000
    19  H    6.206641   6.334378   2.486050   0.000000
    20  H    2.678387   4.228682   4.990240   6.641142   0.000000
    21  H    4.136160   2.573291   7.098473   7.312879   4.326896
    22  H    5.892716   4.944940   8.483940   8.890100   4.970062
    23  H    4.988915   5.973173   6.828132   8.347440   2.470367
    24  H    6.219851   6.245908   8.373456   9.333255   4.293696
    25  C    4.408941   2.696368   5.420372   4.712609   5.479127
    26  C    5.201733   3.249661   6.330711   5.316454   6.729555
    27  C    5.243211   3.664794   6.204733   5.197735   7.152680
    28  C    6.328896   4.098457   7.644768   6.468806   7.748294
    29  C    6.398514   4.750258   7.424502   6.258278   8.467457
    30  C    7.343275   5.368421   8.563492   7.252211   9.293468
    31  C    7.313041   5.092570   8.661273   7.345919   8.974756
    32  O    4.769124   2.941956   6.061751   5.483355   5.372597
    33  H    4.662806   3.590679   5.373376   4.592953   6.657753
    34  H    6.636163   4.338165   8.010384   6.876563   7.737278
    35  H    6.746111   5.387113   7.625090   6.514594   8.971866
    36  H    8.281637   6.335648   9.511576   8.140260  10.322351
    37  H    8.232181   5.914705   9.666376   8.287280   9.805410
                   21         22         23         24         25
    21  H    0.000000
    22  H    2.466605   0.000000
    23  H    4.970241   4.300776   0.000000
    24  H    4.291588   2.481850   2.481896   0.000000
    25  C    3.340291   5.479870   6.984039   6.986437   0.000000
    26  C    4.320943   6.584360   8.355808   8.300877   1.489316
    27  C    5.361855   7.734738   9.062284   9.301409   2.537203
    28  C    4.631210   6.712061   9.133190   8.717176   2.476514
    29  C    6.446390   8.824856  10.386117  10.537609   3.808757
    30  C    6.657856   8.918584  11.016368  10.864648   4.288336
    31  C    5.854531   7.945679  10.447212  10.026227   3.769967
    32  O    2.527658   4.425503   6.474258   6.107557   1.228066
    33  H    5.577369   7.951632   8.740261   9.267776   2.800266
    34  H    4.227795   6.044098   8.846897   8.164652   2.673714
    35  H    7.321678   9.741283  11.030004  11.355403   4.691720
    36  H    7.649919   9.890715  12.066724  11.889232   5.375580
    37  H    6.371951   8.281466  11.126963  10.494092   4.630910
                   26         27         28         29         30
    26  C    0.000000
    27  C    1.401133   0.000000
    28  C    1.401677   2.420113   0.000000
    29  C    2.423608   1.397758   2.787964   0.000000
    30  C    2.800031   2.420997   2.414572   1.394438   0.000000
    31  C    2.427193   2.795779   1.395634   2.414682   1.393240
    32  O    2.377933   3.638956   2.809647   4.793588   5.018155
    33  H    2.179156   1.084696   3.417499   2.134623   3.389186
    34  H    2.165647   3.410551   1.088465   3.876361   3.396214
    35  H    3.409624   2.158239   3.875410   1.087476   2.151958
    36  H    3.887378   3.406049   3.399843   2.155162   1.087348
    37  H    3.410912   3.882924   2.154828   3.400779   2.154958
                   31         32         33         34         35
    31  C    0.000000
    32  O    4.201177   0.000000
    33  H    3.879758   4.003530   0.000000
    34  H    2.149216   2.507412   4.328402   0.000000
    35  H    3.398119   5.753067   2.452381   4.963776   0.000000
    36  H    2.152864   6.082182   4.281210   4.291899   2.477962
    37  H    1.087154   4.854494   4.966844   2.470485   4.296227
                   36         37
    36  H    0.000000
    37  H    2.481425   0.000000
 Symmetry turned off by external request.
 Stoichiometry    C19H12O5S(2-)
 Framework group  C1[X(C19H12O5S)]
 Deg. of freedom   105
 Full point group                 C1      NOp   1
 Rotational constants (GHZ):           0.3419741           0.1664071           0.1369418
 Leave Link  202 at Wed Dec 20 01:21:58 2023, MaxMem=  4026531840 cpu:               0.5 elap:               0.2
 (Enter /sysapps/ubuntu-applications/gaussian/Gaussian/AVX2/g16/l301.exe)
 Standard basis: 6-311++G(d,p) (5D, 7F)
 Ernie: Thresh=  0.10000D-02 Tol=  0.10000D-05 Strict=F.
   642 basis functions,  1022 primitive gaussians,   667 cartesian basis functions
    92 alpha electrons       92 beta electrons
       nuclear repulsion energy      2333.8797691210 Hartrees.
 IExCor=  402 DFT=T Ex+Corr=B3LYP ExCW=0 ScaHFX=  0.200000
 ScaDFX=  0.800000  0.720000  1.000000  0.810000 ScalE2=  1.000000  1.000000
 IRadAn=      5 IRanWt=     -1 IRanGd=            0 ICorTp=0 IEmpDi=  4
 NAtoms=   37 NActive=   37 NUniq=   37 SFac= 1.00D+00 NAtFMM=   60 NAOKFM=F Big=F
 Integral buffers will be    131072 words long.
 Raffenetti 2 integral format.
 Two-electron integral symmetry is turned off.
 Leave Link  301 at Wed Dec 20 01:21:59 2023, MaxMem=  4026531840 cpu:               0.8 elap:               0.2
 (Enter /sysapps/ubuntu-applications/gaussian/Gaussian/AVX2/g16/l302.exe)
 NPDir=0 NMtPBC=     1 NCelOv=     1 NCel=       1 NClECP=     1 NCelD=      1
         NCelK=      1 NCelE2=     1 NClLst=     1 CellRange=     0.0.
 One-electron integrals computed using PRISM.
 NBasis=   642 RedAO= T EigKep=  1.22D-06  NBF=   642
 NBsUse=   637 1.00D-06 EigRej=  6.59D-07 NBFU=   637
 Precomputing XC quadrature grid using
 IXCGrd= 4 IRadAn=           5 IRanWt=          -1 IRanGd=           0 AccXCQ= 0.00D+00.
 Generated NRdTot=       0 NPtTot=           0 NUsed=           0 NTot=          32
 NSgBfM=   660   660   660   660   660 MxSgAt=    37 MxSgA2=    37.
 Leave Link  302 at Wed Dec 20 01:22:00 2023, MaxMem=  4026531840 cpu:              10.8 elap:               1.5
 (Enter /sysapps/ubuntu-applications/gaussian/Gaussian/AVX2/g16/l303.exe)
 DipDrv:  MaxL=1.
 Leave Link  303 at Wed Dec 20 01:22:01 2023, MaxMem=  4026531840 cpu:               1.8 elap:               0.5
 (Enter /sysapps/ubuntu-applications/gaussian/Gaussian/AVX2/g16/l401.exe)
 ExpMin= 3.60D-02 ExpMax= 9.34D+04 ExpMxC= 3.17D+03 IAcc=3 IRadAn=         5 AccDes= 0.00D+00
 Harris functional with IExCor=  402 and IRadAn=       5 diagonalized for initial guess.
 HarFok:  IExCor=  402 AccDes= 0.00D+00 IRadAn=         5 IDoV= 1 UseB2=F ITyADJ=14
 ICtDFT=  3500011 ScaDFX=  1.000000  1.000000  1.000000  1.000000
 FoFCou: FMM=F IPFlag=           0 FMFlag=      100000 FMFlg1=           0
         NFxFlg=           0 DoJE=T BraDBF=F KetDBF=T FulRan=T
         wScrn=  0.000000 ICntrl=       500 IOpCl=  0 I1Cent=   200000004 NGrid=           0
         NMat0=    1 NMatS0=      1 NMatT0=    0 NMatD0=    1 NMtDS0=    0 NMtDT0=    0
 Symmetry not used in FoFCou.
 Harris En= -1506.31868681966    
 JPrj=0 DoOrth=F DoCkMO=F.
 Initial guess <Sx>= 0.0000 <Sy>= 0.0000 <Sz>= 0.0000 <S**2>=-0.0000 S=-0.0000
 Leave Link  401 at Wed Dec 20 01:22:11 2023, MaxMem=  4026531840 cpu:              81.1 elap:              10.4
 (Enter /sysapps/ubuntu-applications/gaussian/Gaussian/AVX2/g16/l502.exe)
 Two-electron integral symmetry not used.
 UHF open shell SCF:
 Using DIIS extrapolation, IDIIS=  1040.
 NGot=  4026531840 LenX=  4025632072 LenY=  4025186516
 Requested convergence on RMS density matrix=1.00D-08 within 128 cycles.
 Requested convergence on MAX density matrix=1.00D-06.
 Requested convergence on             energy=1.00D-06.
 No special actions if energy rises.
 Fock matrices will be formed incrementally for  20 cycles.

 Cycle   1  Pass 1  IDiag  1:
 FoFJK:  IHMeth= 1 ICntrl=       0 DoSepK=F KAlg= 0 I1Cent=           0 FoldK=F
 IRaf= 810000000 NMat=       1 IRICut=       1 DoRegI=T DoRafI=F ISym2E= 0 IDoP0=0 IntGTp=1.
 FoFCou: FMM=F IPFlag=           0 FMFlag=      100000 FMFlg1=           0
         NFxFlg=           0 DoJE=F BraDBF=F KetDBF=F FulRan=T
         wScrn=  0.000000 ICntrl=         0 IOpCl=  1 I1Cent=           0 NGrid=           0
         NMat0=    1 NMatS0=      1 NMatT0=    0 NMatD0=    1 NMtDS0=    0 NMtDT0=    0
 Symmetry not used in FoFCou.
 E= -1504.80143846820    
 DIIS: error= 2.25D-02 at cycle   1 NSaved=   1.
 NSaved= 1 IEnMin= 1 EnMin= -1504.80143846820     IErMin= 1 ErrMin= 2.25D-02
 ErrMax= 2.25D-02  0.00D+00 EMaxC= 1.00D-01 BMatC= 4.81D+00 BMatP= 4.81D+00
 IDIUse=3 WtCom= 7.75D-01 WtEn= 2.25D-01
 Coeff-Com:  0.100D+01
 Coeff-En:   0.100D+01
 Coeff:      0.100D+01
 Gap=    -0.055 Goal=   None    Shift=    0.000
 Gap=    -0.055 Goal=   None    Shift=    0.000
 GapD=   -0.055 DampG=0.250 DampE=0.500 DampFc=0.2500 IDamp=-1.
 Damping current iteration by 2.50D-01
 RMSDP=1.34D+00 MaxDP=1.61D+02              OVMax= 9.97D-01

 Cycle   2  Pass 1  IDiag  1:
 RMSU=  3.02D-01    CP:  2.30D+00
 E= -1504.78961012900     Delta-E=        0.011828339194 Rises=F Damp=T
 DIIS: error= 7.78D-03 at cycle   2 NSaved=   2.
 NSaved= 2 IEnMin= 1 EnMin= -1504.80143846820     IErMin= 2 ErrMin= 7.78D-03
 ErrMax= 7.78D-03  0.00D+00 EMaxC= 1.00D-01 BMatC= 8.30D-01 BMatP= 4.81D+00
 IDIUse=3 WtCom= 9.22D-01 WtEn= 7.78D-02
 Coeff-Com: -0.160D+00 0.116D+01
 Coeff-En:   0.507D+00 0.493D+00
 Coeff:     -0.108D+00 0.111D+01
 Gap=     0.002 Goal=   None    Shift=    0.000
 Gap=     0.002 Goal=   None    Shift=    0.000
 RMSDP=3.10D-01 MaxDP=3.12D+01 DE= 1.18D-02 OVMax= 8.51D-01

 Cycle   3  Pass 1  IDiag  1:
 RMSU=  9.06D-02    CP:  2.22D+00  1.68D-02
 E= -1504.69223718280     Delta-E=        0.097372946199 Rises=F Damp=F
 DIIS: error= 3.81D-02 at cycle   3 NSaved=   3.
 NSaved= 3 IEnMin= 1 EnMin= -1504.80143846820     IErMin= 2 ErrMin= 7.78D-03
 ErrMax= 3.81D-02  0.00D+00 EMaxC= 1.00D-01 BMatC= 4.01D+00 BMatP= 8.30D-01
 IDIUse=2 WtCom= 0.00D+00 WtEn= 1.00D+00
 EnCoef did     2 forward-backward iterations
 Coeff-En:   0.135D+00 0.456D+00 0.410D+00
 Coeff:      0.135D+00 0.456D+00 0.410D+00
 Gap=     0.383 Goal=   None    Shift=    0.000
 Gap=     0.383 Goal=   None    Shift=    0.000
 RMSDP=6.89D-01 MaxDP=1.20D+02 DE= 9.74D-02 OVMax= 9.99D-01

 Cycle   4  Pass 1  IDiag  1:
 RMSU=  5.86D-01    CP:  2.77D+00  1.14D+00 -1.90D-01
 E= -1504.95180814776     Delta-E=       -0.259570964958 Rises=F Damp=F
 DIIS: error= 2.74D-02 at cycle   4 NSaved=   4.
 NSaved= 4 IEnMin= 4 EnMin= -1504.95180814776     IErMin= 2 ErrMin= 7.78D-03
 ErrMax= 2.74D-02  0.00D+00 EMaxC= 1.00D-01 BMatC= 2.72D+00 BMatP= 8.30D-01
 IDIUse=2 WtCom= 0.00D+00 WtEn= 1.00D+00
 EnCoef did     4 forward-backward iterations
 Coeff-En:   0.114D+00 0.000D+00 0.374D+00 0.512D+00
 Coeff:      0.114D+00 0.000D+00 0.374D+00 0.512D+00
 Gap=    -0.001 Goal=   None    Shift=    0.000
 Gap=    -0.001 Goal=   None    Shift=    0.000
 RMSDP=6.98D-01 MaxDP=1.27D+02 DE=-2.60D-01 OVMax= 9.80D-01

 Cycle   5  Pass 1  IDiag  1:
 RMSU=  2.43D-02    CP:  1.50D+00 -2.11D-03  3.45D-01 -2.43D-03
 E= -1505.68465123143     Delta-E=       -0.732843083663 Rises=F Damp=F
 DIIS: error= 7.66D-03 at cycle   5 NSaved=   5.
 NSaved= 5 IEnMin= 5 EnMin= -1505.68465123143     IErMin= 5 ErrMin= 7.66D-03
 ErrMax= 7.66D-03  0.00D+00 EMaxC= 1.00D-01 BMatC= 3.27D-01 BMatP= 8.30D-01
 IDIUse=3 WtCom= 9.23D-01 WtEn= 7.66D-02
 Coeff-Com: -0.681D-01 0.259D+00 0.159D+00 0.198D+00 0.453D+00
 Coeff-En:   0.000D+00 0.000D+00 0.000D+00 0.168D+00 0.832D+00
 Coeff:     -0.629D-01 0.239D+00 0.147D+00 0.196D+00 0.482D+00
 Gap=     0.066 Goal=   None    Shift=    0.000
 Gap=     0.066 Goal=   None    Shift=    0.000
 RMSDP=1.48D-02 MaxDP=1.54D+00 DE=-7.33D-01 OVMax= 2.76D-01

 Cycle   6  Pass 1  IDiag  1:
 RMSU=  1.16D-02    CP:  1.58D+00 -1.83D-03  3.89D-01 -2.15D-03  1.07D+00
 E= -1505.67900938910     Delta-E=        0.005641842326 Rises=F Damp=F
 DIIS: error= 1.50D-02 at cycle   6 NSaved=   6.
 NSaved= 6 IEnMin= 5 EnMin= -1505.68465123143     IErMin= 5 ErrMin= 7.66D-03
 ErrMax= 1.50D-02  0.00D+00 EMaxC= 1.00D-01 BMatC= 3.27D-01 BMatP= 3.27D-01
 IDIUse=3 WtCom= 9.23D-01 WtEn= 7.66D-02
 EnCoef did     2 forward-backward iterations
 Coeff-Com: -0.182D+00 0.260D+00-0.334D-01 0.266D-01 0.443D+00 0.486D+00
 Coeff-En:   0.000D+00 0.000D+00 0.000D+00 0.141D+00 0.468D+00 0.391D+00
 Coeff:     -0.168D+00 0.240D+00-0.308D-01 0.354D-01 0.445D+00 0.479D+00
 Gap=     0.047 Goal=   None    Shift=    0.000
 Gap=     0.047 Goal=   None    Shift=    0.000
 RMSDP=9.85D-03 MaxDP=2.19D+00 DE= 5.64D-03 OVMax= 2.13D-01

 Cycle   7  Pass 1  IDiag  1:
 RMSU=  7.84D-03    CP:  1.58D+00  4.14D-03  3.75D-01  1.93D-03  1.21D+00
                    CP:  6.81D-01
 E= -1505.76164004740     Delta-E=       -0.082630658304 Rises=F Damp=F
 DIIS: error= 4.34D-03 at cycle   7 NSaved=   7.
 NSaved= 7 IEnMin= 7 EnMin= -1505.76164004740     IErMin= 7 ErrMin= 4.34D-03
 ErrMax= 4.34D-03  0.00D+00 EMaxC= 1.00D-01 BMatC= 5.52D-02 BMatP= 3.27D-01
 IDIUse=3 WtCom= 9.57D-01 WtEn= 4.34D-02
 Coeff-Com: -0.131D+00 0.194D+00-0.450D-01 0.184D-01 0.221D+00 0.288D+00
 Coeff-Com:  0.454D+00
 Coeff-En:   0.000D+00 0.000D+00 0.000D+00 0.563D-01 0.000D+00 0.000D+00
 Coeff-En:   0.944D+00
 Coeff:     -0.125D+00 0.186D+00-0.430D-01 0.201D-01 0.212D+00 0.275D+00
 Coeff:      0.475D+00
 Gap=     0.046 Goal=   None    Shift=    0.000
 Gap=     0.046 Goal=   None    Shift=    0.000
 RMSDP=4.24D-03 MaxDP=4.58D-01 DE=-8.26D-02 OVMax= 3.39D-02

 Cycle   8  Pass 1  IDiag  1:
 RMSU=  3.96D-03    CP:  1.58D+00  5.54D-03  3.61D-01  2.10D-03  1.22D+00
                    CP:  6.90D-01  1.07D+00
 E= -1505.77135497297     Delta-E=       -0.009714925563 Rises=F Damp=F
 DIIS: error= 2.78D-03 at cycle   8 NSaved=   8.
 NSaved= 8 IEnMin= 8 EnMin= -1505.77135497297     IErMin= 8 ErrMin= 2.78D-03
 ErrMax= 2.78D-03  0.00D+00 EMaxC= 1.00D-01 BMatC= 2.66D-02 BMatP= 5.52D-02
 IDIUse=3 WtCom= 9.72D-01 WtEn= 2.78D-02
 Coeff-Com: -0.423D-01 0.767D-01-0.296D-01 0.166D-01-0.640D-01-0.221D-01
 Coeff-Com:  0.149D+00 0.916D+00
 Coeff-En:   0.000D+00 0.000D+00 0.000D+00 0.218D-01 0.000D+00 0.000D+00
 Coeff-En:   0.000D+00 0.978D+00
 Coeff:     -0.411D-01 0.746D-01-0.288D-01 0.168D-01-0.622D-01-0.215D-01
 Coeff:      0.145D+00 0.918D+00
 Gap=     0.021 Goal=   None    Shift=    0.000
 Gap=     0.021 Goal=   None    Shift=    0.000
 RMSDP=8.23D-03 MaxDP=1.93D+00 DE=-9.71D-03 OVMax= 1.24D-01

 Cycle   9  Pass 1  IDiag  1:
 RMSU=  4.04D-03    CP:  1.59D+00  9.22D-03  3.27D-01  4.49D-03  1.32D+00
                    CP:  7.39D-01  1.75D+00  1.25D+00
 E= -1505.78155331515     Delta-E=       -0.010198342181 Rises=F Damp=F
 DIIS: error= 7.93D-04 at cycle   9 NSaved=   9.
 NSaved= 9 IEnMin= 9 EnMin= -1505.78155331515     IErMin= 9 ErrMin= 7.93D-04
 ErrMax= 7.93D-04  0.00D+00 EMaxC= 1.00D-01 BMatC= 3.71D-03 BMatP= 2.66D-02
 IDIUse=3 WtCom= 9.92D-01 WtEn= 7.93D-03
 Coeff-Com: -0.593D-03 0.642D-02 0.309D-02 0.411D-02-0.857D-01-0.603D-01
 Coeff-Com: -0.325D+00 0.717D+00 0.741D+00
 Coeff-En:   0.000D+00 0.000D+00 0.000D+00 0.000D+00 0.000D+00 0.000D+00
 Coeff-En:   0.000D+00 0.000D+00 0.100D+01
 Coeff:     -0.588D-03 0.637D-02 0.306D-02 0.407D-02-0.850D-01-0.598D-01
 Coeff:     -0.322D+00 0.711D+00 0.743D+00
 Gap=     0.015 Goal=   None    Shift=    0.000
 Gap=     0.015 Goal=   None    Shift=    0.000
 RMSDP=4.32D-03 MaxDP=4.02D-01 DE=-1.02D-02 OVMax= 5.30D-02

 Cycle  10  Pass 1  IDiag  1:
 RMSU=  2.38D-03    CP:  1.60D+00  9.21D-03  3.14D-01  3.23D-03  1.32D+00
                    CP:  7.69D-01  1.77D+00  1.97D+00  1.34D+00
 E= -1505.78262306684     Delta-E=       -0.001069751691 Rises=F Damp=F
 DIIS: error= 5.36D-04 at cycle  10 NSaved=  10.
 NSaved=10 IEnMin=10 EnMin= -1505.78262306684     IErMin=10 ErrMin= 5.36D-04
 ErrMax= 5.36D-04  0.00D+00 EMaxC= 1.00D-01 BMatC= 1.24D-03 BMatP= 3.71D-03
 IDIUse=3 WtCom= 9.95D-01 WtEn= 5.36D-03
 Coeff-Com: -0.490D-02 0.701D-02 0.639D-02-0.192D-02-0.203D-01-0.133D-02
 Coeff-Com: -0.234D+00 0.333D+00 0.424D+00 0.491D+00
 Coeff-En:   0.000D+00 0.000D+00 0.000D+00 0.000D+00 0.000D+00 0.000D+00
 Coeff-En:   0.000D+00 0.000D+00 0.000D+00 0.100D+01
 Coeff:     -0.487D-02 0.697D-02 0.636D-02-0.191D-02-0.202D-01-0.132D-02
 Coeff:     -0.232D+00 0.332D+00 0.422D+00 0.494D+00
 Gap=     0.017 Goal=   None    Shift=    0.000
 Gap=     0.017 Goal=   None    Shift=    0.000
 RMSDP=1.80D-03 MaxDP=2.41D-01 DE=-1.07D-03 OVMax= 6.14D-03

 Cycle  11  Pass 1  IDiag  1:
 RMSU=  7.36D-04    CP:  1.61D+00  8.08D-03  3.23D-01  2.27D-03  1.33D+00
                    CP:  7.95D-01  1.68D+00  1.86D+00  1.33D+00  1.04D+00
 E= -1505.78291523887     Delta-E=       -0.000292172029 Rises=F Damp=F
 DIIS: error= 1.46D-04 at cycle  11 NSaved=  11.
 NSaved=11 IEnMin=11 EnMin= -1505.78291523887     IErMin=11 ErrMin= 1.46D-04
 ErrMax= 1.46D-04  0.00D+00 EMaxC= 1.00D-01 BMatC= 1.64D-04 BMatP= 1.24D-03
 IDIUse=3 WtCom= 9.99D-01 WtEn= 1.46D-03
 Coeff-Com: -0.415D-02 0.439D-02 0.160D-02-0.157D-02 0.836D-02 0.158D-01
 Coeff-Com: -0.566D-01 0.828D-01 0.302D-01 0.237D+00 0.683D+00
 Coeff-En:   0.000D+00 0.000D+00 0.000D+00 0.000D+00 0.000D+00 0.000D+00
 Coeff-En:   0.000D+00 0.000D+00 0.000D+00 0.000D+00 0.100D+01
 Coeff:     -0.414D-02 0.438D-02 0.160D-02-0.157D-02 0.835D-02 0.158D-01
 Coeff:     -0.565D-01 0.826D-01 0.302D-01 0.236D+00 0.683D+00
 Gap=     0.018 Goal=   None    Shift=    0.000
 Gap=     0.018 Goal=   None    Shift=    0.000
 RMSDP=1.13D-03 MaxDP=2.30D-01 DE=-2.92D-04 OVMax= 6.23D-03

 Cycle  12  Pass 1  IDiag  1:
 RMSU=  4.13D-04    CP:  1.61D+00  7.22D-03  3.20D-01  1.36D-03  1.33D+00
                    CP:  7.93D-01  1.61D+00  1.82D+00  1.37D+00  1.25D+00
                    CP:  1.33D+00
 E= -1505.78295013088     Delta-E=       -0.000034892017 Rises=F Damp=F
 DIIS: error= 9.17D-05 at cycle  12 NSaved=  12.
 NSaved=12 IEnMin=12 EnMin= -1505.78295013088     IErMin=12 ErrMin= 9.17D-05
 ErrMax= 9.17D-05  0.00D+00 EMaxC= 1.00D-01 BMatC= 5.22D-05 BMatP= 1.64D-04
 IDIUse=1 WtCom= 1.00D+00 WtEn= 0.00D+00
 Coeff-Com: -0.214D-02 0.180D-02-0.598D-03-0.484D-03 0.113D-01 0.130D-01
 Coeff-Com:  0.974D-02-0.131D-02-0.982D-01 0.487D-01 0.495D+00 0.523D+00
 Coeff:     -0.214D-02 0.180D-02-0.598D-03-0.484D-03 0.113D-01 0.130D-01
 Coeff:      0.974D-02-0.131D-02-0.982D-01 0.487D-01 0.495D+00 0.523D+00
 Gap=     0.018 Goal=   None    Shift=    0.000
 Gap=     0.018 Goal=   None    Shift=    0.000
 RMSDP=8.13D-04 MaxDP=1.74D-01 DE=-3.49D-05 OVMax= 4.03D-03

 Cycle  13  Pass 1  IDiag  1:
 RMSU=  1.57D-04    CP:  1.61D+00  6.58D-03  3.21D-01  6.52D-04  1.33D+00
                    CP:  7.91D-01  1.55D+00  1.83D+00  1.38D+00  1.37D+00
                    CP:  1.73D+00  1.40D+00
 E= -1505.78296347272     Delta-E=       -0.000013341831 Rises=F Damp=F
 DIIS: error= 3.35D-05 at cycle  13 NSaved=  13.
 NSaved=13 IEnMin=13 EnMin= -1505.78296347272     IErMin=13 ErrMin= 3.35D-05
 ErrMax= 3.35D-05  0.00D+00 EMaxC= 1.00D-01 BMatC= 6.80D-06 BMatP= 5.22D-05
 IDIUse=1 WtCom= 1.00D+00 WtEn= 0.00D+00
 Coeff-Com: -0.209D-03 0.223D-04-0.479D-03-0.349D-04 0.344D-02 0.391D-02
 Coeff-Com:  0.637D-02-0.386D-02-0.602D-01-0.227D-01 0.116D+00 0.289D+00
 Coeff-Com:  0.668D+00
 Coeff:     -0.209D-03 0.223D-04-0.479D-03-0.349D-04 0.344D-02 0.391D-02
 Coeff:      0.637D-02-0.386D-02-0.602D-01-0.227D-01 0.116D+00 0.289D+00
 Coeff:      0.668D+00
 Gap=     0.018 Goal=   None    Shift=    0.000
 Gap=     0.018 Goal=   None    Shift=    0.000
 RMSDP=6.79D-04 MaxDP=1.25D-01 DE=-1.33D-05 OVMax= 4.11D-03

 Cycle  14  Pass 1  IDiag  1:
 RMSU=  1.14D-04    CP:  1.61D+00  6.07D-03  3.21D-01  2.21D-05  1.33D+00
                    CP:  7.90D-01  1.52D+00  1.83D+00  1.40D+00  1.49D+00
                    CP:  2.07D+00  2.02D+00  1.57D+00
 E= -1505.78296646076     Delta-E=       -0.000002988046 Rises=F Damp=F
 DIIS: error= 1.51D-05 at cycle  14 NSaved=  14.
 NSaved=14 IEnMin=14 EnMin= -1505.78296646076     IErMin=14 ErrMin= 1.51D-05
 ErrMax= 1.51D-05  0.00D+00 EMaxC= 1.00D-01 BMatC= 1.33D-06 BMatP= 6.80D-06
 IDIUse=1 WtCom= 1.00D+00 WtEn= 0.00D+00
 Coeff-Com: -0.665D-04 0.842D-04-0.215D-03-0.238D-04 0.986D-03 0.135D-02
 Coeff-Com:  0.137D-02 0.955D-04-0.247D-01-0.198D-01 0.447D-02 0.107D+00
 Coeff-Com:  0.409D+00 0.521D+00
 Coeff:     -0.665D-04 0.842D-04-0.215D-03-0.238D-04 0.986D-03 0.135D-02
 Coeff:      0.137D-02 0.955D-04-0.247D-01-0.198D-01 0.447D-02 0.107D+00
 Coeff:      0.409D+00 0.521D+00
 Gap=     0.018 Goal=   None    Shift=    0.000
 Gap=     0.018 Goal=   None    Shift=    0.000
 RMSDP=4.06D-04 MaxDP=8.24D-02 DE=-2.99D-06 OVMax= 2.29D-03

 Cycle  15  Pass 1  IDiag  1:
 RMSU=  3.46D-05    CP:  1.61D+00  5.77D-03  3.21D-01 -3.55D-04  1.33D+00
                    CP:  7.89D-01  1.50D+00  1.83D+00  1.40D+00  1.56D+00
                    CP:  2.27D+00  2.41D+00  2.03D+00  1.42D+00
 E= -1505.78296731275     Delta-E=       -0.000000851986 Rises=F Damp=F
 DIIS: error= 7.05D-06 at cycle  15 NSaved=  15.
 NSaved=15 IEnMin=15 EnMin= -1505.78296731275     IErMin=15 ErrMin= 7.05D-06
 ErrMax= 7.05D-06  0.00D+00 EMaxC= 1.00D-01 BMatC= 1.78D-07 BMatP= 1.33D-06
 IDIUse=1 WtCom= 1.00D+00 WtEn= 0.00D+00
 Coeff-Com: -0.336D-04 0.627D-04-0.456D-04 0.983D-06 0.145D-03 0.247D-03
 Coeff-Com: -0.639D-03 0.155D-02-0.491D-02-0.826D-02-0.151D-01 0.158D-01
 Coeff-Com:  0.134D+00 0.326D+00 0.551D+00
 Coeff:     -0.336D-04 0.627D-04-0.456D-04 0.983D-06 0.145D-03 0.247D-03
 Coeff:     -0.639D-03 0.155D-02-0.491D-02-0.826D-02-0.151D-01 0.158D-01
 Coeff:      0.134D+00 0.326D+00 0.551D+00
 Gap=     0.018 Goal=   None    Shift=    0.000
 Gap=     0.018 Goal=   None    Shift=    0.000
 RMSDP=3.63D-04 MaxDP=6.90D-02 DE=-8.52D-07 OVMax= 2.16D-03

 Cycle  16  Pass 1  IDiag  1:
 RMSU=  1.92D-05    CP:  1.61D+00  5.50D-03  3.20D-01 -6.88D-04  1.33D+00
                    CP:  7.87D-01  1.49D+00  1.82D+00  1.40D+00  1.61D+00
                    CP:  2.46D+00  2.79D+00  2.47D+00  1.93D+00  1.64D+00
 E= -1505.78296781527     Delta-E=       -0.000000502520 Rises=F Damp=F
 DIIS: error= 3.90D-06 at cycle  16 NSaved=  16.
 NSaved=16 IEnMin=16 EnMin= -1505.78296781527     IErMin=16 ErrMin= 3.90D-06
 ErrMax= 3.90D-06  0.00D+00 EMaxC= 1.00D-01 BMatC= 5.50D-08 BMatP= 1.78D-07
 IDIUse=1 WtCom= 1.00D+00 WtEn= 0.00D+00
 Coeff-Com: -0.383D-04 0.578D-04 0.224D-04-0.510D-05-0.465D-04-0.142D-03
 Coeff-Com: -0.861D-03 0.111D-02 0.333D-02-0.857D-03-0.129D-01-0.195D-01
 Coeff-Com: -0.118D-01 0.101D+00 0.359D+00 0.581D+00
 Coeff:     -0.383D-04 0.578D-04 0.224D-04-0.510D-05-0.465D-04-0.142D-03
 Coeff:     -0.861D-03 0.111D-02 0.333D-02-0.857D-03-0.129D-01-0.195D-01
 Coeff:     -0.118D-01 0.101D+00 0.359D+00 0.581D+00
 Gap=     0.018 Goal=   None    Shift=    0.000
 Gap=     0.018 Goal=   None    Shift=    0.000
 RMSDP=3.71D-04 MaxDP=7.03D-02 DE=-5.03D-07 OVMax= 2.23D-03

 Cycle  17  Pass 1  IDiag  1:
 RMSU=  7.58D-05    CP:  1.61D+00  5.24D-03  3.20D-01 -1.03D-03  1.33D+00
                    CP:  7.84D-01  1.47D+00  1.81D+00  1.41D+00  1.67D+00
                    CP:  2.65D+00  3.00D+00  2.94D+00  2.47D+00  2.50D+00
                    CP:  1.84D+00
 E= -1505.78296826449     Delta-E=       -0.000000449225 Rises=F Damp=F
 DIIS: error= 2.87D-06 at cycle  17 NSaved=  17.
 NSaved=17 IEnMin=17 EnMin= -1505.78296826449     IErMin=17 ErrMin= 2.87D-06
 ErrMax= 2.87D-06  0.00D+00 EMaxC= 1.00D-01 BMatC= 2.63D-08 BMatP= 5.50D-08
 IDIUse=1 WtCom= 1.00D+00 WtEn= 0.00D+00
 Coeff-Com: -0.245D-04 0.267D-04 0.272D-04-0.365D-05-0.668D-05-0.202D-03
 Coeff-Com: -0.369D-03 0.571D-03 0.408D-02 0.275D-02-0.168D-02-0.168D-01
 Coeff-Com: -0.414D-01-0.492D-01-0.203D-01 0.224D+00 0.898D+00
 Coeff:     -0.245D-04 0.267D-04 0.272D-04-0.365D-05-0.668D-05-0.202D-03
 Coeff:     -0.369D-03 0.571D-03 0.408D-02 0.275D-02-0.168D-02-0.168D-01
 Coeff:     -0.414D-01-0.492D-01-0.203D-01 0.224D+00 0.898D+00
 Gap=     0.017 Goal=   None    Shift=    0.000
 Gap=     0.017 Goal=   None    Shift=    0.000
 RMSDP=4.91D-04 MaxDP=9.15D-02 DE=-4.49D-07 OVMax= 2.98D-03

 Cycle  18  Pass 1  IDiag  1:
 RMSU=  1.19D-04    CP:  1.61D+00  4.90D-03  3.20D-01 -1.47D-03  1.33D+00
                    CP:  7.81D-01  1.45D+00  1.81D+00  1.41D+00  1.74D+00
                    CP:  2.90D+00  3.00D+00  3.00D+00  3.00D+00  3.00D+00
                    CP:  3.00D+00  3.00D+00
 E= -1505.78296877636     Delta-E=       -0.000000511867 Rises=F Damp=F
 DIIS: error= 2.82D-06 at cycle  18 NSaved=  18.
 NSaved=18 IEnMin=18 EnMin= -1505.78296877636     IErMin=18 ErrMin= 2.82D-06
 ErrMax= 2.82D-06  0.00D+00 EMaxC= 1.00D-01 BMatC= 3.39D-08 BMatP= 2.63D-08
 IDIUse=1 WtCom= 1.00D+00 WtEn= 0.00D+00
 Coeff-Com: -0.158D-04 0.148D-04 0.633D-05-0.141D-05 0.783D-04-0.137D-03
 Coeff-Com:  0.560D-03-0.276D-03 0.233D-02 0.286D-02 0.169D-02-0.940D-02
 Coeff-Com: -0.262D-01-0.102D+00-0.248D+00-0.226D+00 0.644D+00 0.961D+00
 Coeff:     -0.158D-04 0.148D-04 0.633D-05-0.141D-05 0.783D-04-0.137D-03
 Coeff:      0.560D-03-0.276D-03 0.233D-02 0.286D-02 0.169D-02-0.940D-02
 Coeff:     -0.262D-01-0.102D+00-0.248D+00-0.226D+00 0.644D+00 0.961D+00
 Gap=     0.017 Goal=   None    Shift=    0.000
 Gap=     0.017 Goal=   None    Shift=    0.000
 RMSDP=7.12D-04 MaxDP=1.33D-01 DE=-5.12D-07 OVMax= 4.34D-03

 Cycle  19  Pass 1  IDiag  1:
 RMSU=  2.88D-04    CP:  1.61D+00  4.44D-03  3.19D-01 -2.10D-03  1.33D+00
                    CP:  7.76D-01  1.42D+00  1.79D+00  1.42D+00  1.85D+00
                    CP:  3.00D+00  3.00D+00  3.00D+00  3.00D+00  3.00D+00
                    CP:  3.00D+00  3.00D+00  3.00D+00
 E= -1505.78296938680     Delta-E=       -0.000000610445 Rises=F Damp=F
 DIIS: error= 2.44D-06 at cycle  19 NSaved=  19.
 NSaved=19 IEnMin=19 EnMin= -1505.78296938680     IErMin=19 ErrMin= 2.44D-06
 ErrMax= 2.44D-06  0.00D+00 EMaxC= 1.00D-01 BMatC= 2.78D-08 BMatP= 2.63D-08
 IDIUse=1 WtCom= 1.00D+00 WtEn= 0.00D+00
 Coeff-Com:  0.967D-05-0.814D-05-0.891D-05-0.999D-05 0.110D-04-0.786D-04
 Coeff-Com:  0.793D-03 0.963D-04-0.340D-04 0.134D-02 0.138D-02 0.232D-02
 Coeff-Com:  0.218D-01-0.519D-01-0.245D+00-0.436D+00-0.251D+00 0.774D+00
 Coeff-Com:  0.118D+01
 Coeff:      0.967D-05-0.814D-05-0.891D-05-0.999D-05 0.110D-04-0.786D-04
 Coeff:      0.793D-03 0.963D-04-0.340D-04 0.134D-02 0.138D-02 0.232D-02
 Coeff:      0.218D-01-0.519D-01-0.245D+00-0.436D+00-0.251D+00 0.774D+00
 Coeff:      0.118D+01
 Gap=     0.017 Goal=   None    Shift=    0.000
 Gap=     0.017 Goal=   None    Shift=    0.000
 RMSDP=1.12D-03 MaxDP=2.07D-01 DE=-6.10D-07 OVMax= 6.87D-03

 Cycle  20  Pass 1  IDiag  1:
 RMSU=  3.64D-04    CP:  1.61D+00  3.79D-03  3.18D-01 -3.05D-03  1.33D+00
                    CP:  7.67D-01  1.37D+00  1.78D+00  1.43D+00  2.02D+00
                    CP:  3.00D+00  3.00D+00  3.00D+00  3.00D+00  3.00D+00
                    CP:  3.00D+00  3.00D+00  3.00D+00  3.00D+00
 E= -1505.78297002560     Delta-E=       -0.000000638792 Rises=F Damp=F
 DIIS: error= 3.81D-06 at cycle  20 NSaved=  20.
 NSaved=20 IEnMin=20 EnMin= -1505.78297002560     IErMin=19 ErrMin= 2.44D-06
 ErrMax= 3.81D-06  0.00D+00 EMaxC= 1.00D-01 BMatC= 4.83D-08 BMatP= 2.63D-08
 IDIUse=1 WtCom= 1.00D+00 WtEn= 0.00D+00
 Coeff-Com: -0.579D-05 0.169D-04-0.805D-05-0.838D-05-0.209D-04-0.608D-04
 Coeff-Com:  0.574D-03 0.455D-03 0.898D-04-0.429D-03-0.507D-02-0.249D-02
 Coeff-Com:  0.285D-01 0.171D-01-0.507D-01-0.182D+00-0.486D+00-0.951D-01
 Coeff-Com:  0.105D+01 0.722D+00
 Coeff:     -0.579D-05 0.169D-04-0.805D-05-0.838D-05-0.209D-04-0.608D-04
 Coeff:      0.574D-03 0.455D-03 0.898D-04-0.429D-03-0.507D-02-0.249D-02
 Coeff:      0.285D-01 0.171D-01-0.507D-01-0.182D+00-0.486D+00-0.951D-01
 Coeff:      0.105D+01 0.722D+00
 Gap=     0.017 Goal=   None    Shift=    0.000
 Gap=     0.017 Goal=   None    Shift=    0.000
 RMSDP=7.27D-04 MaxDP=1.35D-01 DE=-6.39D-07 OVMax= 4.47D-03

 Cycle  21  Pass 1  IDiag  1:
 Restarting incremental Fock formation.
 E= -1505.78297027274     Delta-E=       -0.000000247147 Rises=F Damp=F
 DIIS: error= 2.12D-06 at cycle  21 NSaved=  20.
 NSaved=20 IEnMin=20 EnMin= -1505.78297027274     IErMin=20 ErrMin= 2.12D-06
 ErrMax= 2.12D-06  0.00D+00 EMaxC= 1.00D-01 BMatC= 1.76D-08 BMatP= 2.63D-08
 IDIUse=1 WtCom= 1.00D+00 WtEn= 0.00D+00
 Coeff-Com: -0.485D-05 0.116D-04-0.102D-04-0.594D-04-0.698D-04 0.370D-04
 Coeff-Com:  0.813D-03 0.529D-03-0.675D-03-0.504D-02-0.401D-02 0.226D-01
 Coeff-Com:  0.430D-01 0.663D-01 0.444D-01-0.297D+00-0.566D+00 0.457D+00
 Coeff-Com:  0.409D+00 0.829D+00
 Coeff:     -0.485D-05 0.116D-04-0.102D-04-0.594D-04-0.698D-04 0.370D-04
 Coeff:      0.813D-03 0.529D-03-0.675D-03-0.504D-02-0.401D-02 0.226D-01
 Coeff:      0.430D-01 0.663D-01 0.444D-01-0.297D+00-0.566D+00 0.457D+00
 Coeff:      0.409D+00 0.829D+00
 Gap=     0.017 Goal=   None    Shift=    0.000
 Gap=     0.017 Goal=   None    Shift=    0.000
 RMSDP=6.11D-04 MaxDP=1.12D-01 DE=-2.47D-07 OVMax= 3.77D-03

 Cycle  22  Pass 1  IDiag  1:
 RMSU=  6.11D-04    CP:  1.00D+00
 E= -1505.78297037043     Delta-E=       -0.000000097690 Rises=F Damp=F
 DIIS: error= 1.58D-06 at cycle  22 NSaved=  20.
 NSaved=20 IEnMin=20 EnMin= -1505.78297037043     IErMin=20 ErrMin= 1.58D-06
 ErrMax= 1.58D-06  0.00D+00 EMaxC= 1.00D-01 BMatC= 8.63D-09 BMatP= 1.76D-08
 IDIUse=1 WtCom= 1.00D+00 WtEn= 0.00D+00
 Coeff-Com: -0.335D-05-0.113D-05-0.755D-06-0.339D-04-0.495D-04 0.116D-03
 Coeff-Com:  0.806D-03 0.133D-03-0.178D-02-0.465D-02-0.284D-02 0.118D-02
 Coeff-Com:  0.147D-01 0.669D-01 0.120D+00-0.154D+00-0.116D+00-0.434D+00
 Coeff-Com:  0.463D+00 0.105D+01
 Coeff:     -0.335D-05-0.113D-05-0.755D-06-0.339D-04-0.495D-04 0.116D-03
 Coeff:      0.806D-03 0.133D-03-0.178D-02-0.465D-02-0.284D-02 0.118D-02
 Coeff:      0.147D-01 0.669D-01 0.120D+00-0.154D+00-0.116D+00-0.434D+00
 Coeff:      0.463D+00 0.105D+01
 Gap=     0.017 Goal=   None    Shift=    0.000
 Gap=     0.017 Goal=   None    Shift=    0.000
 RMSDP=3.37D-04 MaxDP=6.27D-02 DE=-9.77D-08 OVMax= 2.07D-03

 Cycle  23  Pass 1  IDiag  1:
 RMSU=  1.16D-05    CP:  1.00D+00  1.55D+00
 E= -1505.78297038761     Delta-E=       -0.000000017180 Rises=F Damp=F
 DIIS: error= 2.45D-07 at cycle  23 NSaved=  20.
 NSaved=20 IEnMin=20 EnMin= -1505.78297038761     IErMin=20 ErrMin= 2.45D-07
 ErrMax= 2.45D-07  0.00D+00 EMaxC= 1.00D-01 BMatC= 4.57D-10 BMatP= 8.63D-09
 IDIUse=1 WtCom= 1.00D+00 WtEn= 0.00D+00
 Coeff-Com: -0.598D-06-0.104D-05-0.198D-07-0.394D-04-0.130D-04 0.311D-03
 Coeff-Com:  0.211D-03-0.262D-03-0.139D-02-0.197D-02-0.169D-02-0.692D-03
 Coeff-Com:  0.328D-01 0.822D-01 0.862D-02-0.979D-01-0.303D+00 0.911D-01
 Coeff-Com:  0.636D+00 0.556D+00
 Coeff:     -0.598D-06-0.104D-05-0.198D-07-0.394D-04-0.130D-04 0.311D-03
 Coeff:      0.211D-03-0.262D-03-0.139D-02-0.197D-02-0.169D-02-0.692D-03
 Coeff:      0.328D-01 0.822D-01 0.862D-02-0.979D-01-0.303D+00 0.911D-01
 Coeff:      0.636D+00 0.556D+00
 Gap=     0.017 Goal=   None    Shift=    0.000
 Gap=     0.017 Goal=   None    Shift=    0.000
 RMSDP=7.77D-06 MaxDP=1.80D-03 DE=-1.72D-08 OVMax= 5.05D-05

 Cycle  24  Pass 1  IDiag  1:
 RMSU=  2.20D-06    CP:  1.00D+00  1.56D+00  1.17D+00
 E= -1505.78297038758     Delta-E=        0.000000000033 Rises=F Damp=F
 DIIS: error= 2.60D-07 at cycle  24 NSaved=  20.
 NSaved=20 IEnMin=19 EnMin= -1505.78297038761     IErMin=19 ErrMin= 2.45D-07
 ErrMax= 2.60D-07  0.00D+00 EMaxC= 1.00D-01 BMatC= 3.04D-10 BMatP= 4.57D-10
 IDIUse=1 WtCom= 1.00D+00 WtEn= 0.00D+00
 Coeff-Com: -0.231D-05 0.967D-05-0.129D-04-0.357D-05 0.802D-04 0.793D-04
 Coeff-Com: -0.158D-03-0.285D-03-0.358D-04 0.106D-02 0.255D-02 0.145D-01
 Coeff-Com:  0.534D-02-0.111D-01-0.193D-01-0.392D-01 0.186D-01 0.214D+00
 Coeff-Com:  0.160D+00 0.653D+00
 Coeff:     -0.231D-05 0.967D-05-0.129D-04-0.357D-05 0.802D-04 0.793D-04
 Coeff:     -0.158D-03-0.285D-03-0.358D-04 0.106D-02 0.255D-02 0.145D-01
 Coeff:      0.534D-02-0.111D-01-0.193D-01-0.392D-01 0.186D-01 0.214D+00
 Coeff:      0.160D+00 0.653D+00
 Gap=     0.017 Goal=   None    Shift=    0.000
 Gap=     0.017 Goal=   None    Shift=    0.000
 RMSDP=3.12D-05 MaxDP=5.64D-03 DE= 3.27D-11 OVMax= 1.93D-04

 Cycle  25  Pass 1  IDiag  1:
 RMSU=  7.27D-07    CP:  1.00D+00  1.51D+00  1.10D+00  1.52D+00
 E= -1505.78297038758     Delta-E=        0.000000000000 Rises=F Damp=F
 DIIS: error= 5.74D-08 at cycle  25 NSaved=  20.
 NSaved=20 IEnMin=18 EnMin= -1505.78297038761     IErMin=20 ErrMin= 5.74D-08
 ErrMax= 5.74D-08  0.00D+00 EMaxC= 1.00D-01 BMatC= 1.26D-11 BMatP= 3.04D-10
 IDIUse=1 WtCom= 1.00D+00 WtEn= 0.00D+00
 Coeff-Com: -0.582D-05-0.156D-04 0.932D-05 0.727D-04 0.308D-04-0.919D-04
 Coeff-Com: -0.294D-03-0.104D-02-0.317D-03 0.189D-02 0.894D-02 0.117D-01
 Coeff-Com: -0.128D-01-0.239D-01-0.145D-01 0.121D-01 0.810D-01 0.171D-02
 Coeff-Com:  0.226D+00 0.710D+00
 Coeff:     -0.582D-05-0.156D-04 0.932D-05 0.727D-04 0.308D-04-0.919D-04
 Coeff:     -0.294D-03-0.104D-02-0.317D-03 0.189D-02 0.894D-02 0.117D-01
 Coeff:     -0.128D-01-0.239D-01-0.145D-01 0.121D-01 0.810D-01 0.171D-02
 Coeff:      0.226D+00 0.710D+00
 Gap=     0.017 Goal=   None    Shift=    0.000
 Gap=     0.017 Goal=   None    Shift=    0.000
 RMSDP=2.15D-05 MaxDP=4.10D-03 DE= 4.55D-13 OVMax= 1.31D-04

 Cycle  26  Pass 1  IDiag  1:
 RMSU=  3.41D-07    CP:  1.00D+00  1.55D+00  1.19D+00  1.71D+00  1.72D+00
 E= -1505.78297038768     Delta-E=       -0.000000000097 Rises=F Damp=F
 DIIS: error= 2.68D-08 at cycle  26 NSaved=  20.
 NSaved=20 IEnMin=20 EnMin= -1505.78297038768     IErMin=20 ErrMin= 2.68D-08
 ErrMax= 2.68D-08  0.00D+00 EMaxC= 1.00D-01 BMatC= 3.03D-12 BMatP= 1.26D-11
 IDIUse=1 WtCom= 1.00D+00 WtEn= 0.00D+00
 Coeff-Com:  0.409D-06-0.795D-05-0.194D-05-0.894D-06 0.622D-04 0.322D-04
 Coeff-Com: -0.453D-03-0.994D-03-0.169D-02-0.838D-03 0.788D-02 0.304D-02
 Coeff-Com: -0.954D-02-0.461D-02-0.233D-02 0.640D-02-0.389D-01-0.153D-01
 Coeff-Com:  0.419D+00 0.638D+00
 Coeff:      0.409D-06-0.795D-05-0.194D-05-0.894D-06 0.622D-04 0.322D-04
 Coeff:     -0.453D-03-0.994D-03-0.169D-02-0.838D-03 0.788D-02 0.304D-02
 Coeff:     -0.954D-02-0.461D-02-0.233D-02 0.640D-02-0.389D-01-0.153D-01
 Coeff:      0.419D+00 0.638D+00
 Gap=     0.017 Goal=   None    Shift=    0.000
 Gap=     0.017 Goal=   None    Shift=    0.000
 RMSDP=2.41D-06 MaxDP=6.00D-04 DE=-9.73D-11 OVMax= 1.37D-05

 Cycle  27  Pass 1  IDiag  1:
 RMSU=  3.02D-07    CP:  1.00D+00  1.55D+00  1.24D+00  1.98D+00  2.07D+00
                    CP:  1.38D+00
 E= -1505.78297038769     Delta-E=       -0.000000000007 Rises=F Damp=F
 DIIS: error= 1.84D-08 at cycle  27 NSaved=  20.
 NSaved=20 IEnMin=20 EnMin= -1505.78297038769     IErMin=20 ErrMin= 1.84D-08
 ErrMax= 1.84D-08  0.00D+00 EMaxC= 1.00D-01 BMatC= 1.24D-12 BMatP= 3.03D-12
 IDIUse=1 WtCom= 1.00D+00 WtEn= 0.00D+00
 Coeff-Com: -0.118D-05-0.818D-05-0.166D-05 0.388D-04 0.683D-04-0.876D-04
 Coeff-Com: -0.167D-03-0.407D-03-0.337D-03 0.370D-03 0.140D-02-0.231D-02
 Coeff-Com:  0.406D-02-0.634D-02-0.818D-02-0.228D-01-0.109D-01 0.131D+00
 Coeff-Com:  0.340D+00 0.574D+00
 Coeff:     -0.118D-05-0.818D-05-0.166D-05 0.388D-04 0.683D-04-0.876D-04
 Coeff:     -0.167D-03-0.407D-03-0.337D-03 0.370D-03 0.140D-02-0.231D-02
 Coeff:      0.406D-02-0.634D-02-0.818D-02-0.228D-01-0.109D-01 0.131D+00
 Coeff:      0.340D+00 0.574D+00
 Gap=     0.017 Goal=   None    Shift=    0.000
 Gap=     0.017 Goal=   None    Shift=    0.000
 RMSDP=2.47D-06 MaxDP=5.59D-04 DE=-7.28D-12 OVMax= 1.45D-05

 Cycle  28  Pass 1  IDiag  1:
 RMSU=  7.08D-08    CP:  1.00D+00  1.55D+00  1.26D+00  2.12D+00  2.22D+00
                    CP:  1.76D+00  1.52D+00
 E= -1505.78297038777     Delta-E=       -0.000000000082 Rises=F Damp=F
 DIIS: error= 5.81D-09 at cycle  28 NSaved=  20.
 NSaved=20 IEnMin=20 EnMin= -1505.78297038777     IErMin=20 ErrMin= 5.81D-09
 ErrMax= 5.81D-09  0.00D+00 EMaxC= 1.00D-01 BMatC= 8.63D-14 BMatP= 1.24D-12
 IDIUse=1 WtCom= 1.00D+00 WtEn= 0.00D+00
 Coeff-Com: -0.136D-05 0.130D-05 0.698D-05 0.193D-04 0.471D-05 0.202D-04
 Coeff-Com: -0.714D-04-0.688D-04-0.653D-03 0.786D-03 0.358D-03 0.185D-02
 Coeff-Com: -0.322D-02-0.379D-02-0.387D-02 0.377D-03-0.914D-02 0.518D-01
 Coeff-Com:  0.241D+00 0.724D+00
 Coeff:     -0.136D-05 0.130D-05 0.698D-05 0.193D-04 0.471D-05 0.202D-04
 Coeff:     -0.714D-04-0.688D-04-0.653D-03 0.786D-03 0.358D-03 0.185D-02
 Coeff:     -0.322D-02-0.379D-02-0.387D-02 0.377D-03-0.914D-02 0.518D-01
 Coeff:      0.241D+00 0.724D+00
 Gap=     0.017 Goal=   None    Shift=    0.000
 Gap=     0.017 Goal=   None    Shift=    0.000
 RMSDP=4.69D-07 MaxDP=1.13D-04 DE=-8.19D-11 OVMax= 2.84D-06

 Cycle  29  Pass 1  IDiag  1:
 RMSU=  2.24D-08    CP:  1.00D+00  1.55D+00  1.29D+00  2.25D+00  2.30D+00
                    CP:  2.06D+00  2.31D+00  1.90D+00
 E= -1505.78297038778     Delta-E=       -0.000000000012 Rises=F Damp=F
 DIIS: error= 2.95D-09 at cycle  29 NSaved=  20.
 NSaved=20 IEnMin=20 EnMin= -1505.78297038778     IErMin=20 ErrMin= 2.95D-09
 ErrMax= 2.95D-09  0.00D+00 EMaxC= 1.00D-01 BMatC= 3.90D-14 BMatP= 8.63D-14
 IDIUse=1 WtCom= 1.00D+00 WtEn= 0.00D+00
 Coeff-Com: -0.100D-05-0.630D-05-0.790D-05 0.233D-04 0.644D-04 0.165D-03
 Coeff-Com:  0.786D-04-0.184D-03-0.286D-03 0.702D-03-0.176D-03 0.485D-03
 Coeff-Com: -0.130D-02 0.301D-02-0.627D-02-0.434D-01-0.816D-01-0.826D-01
 Coeff-Com:  0.285D+00 0.926D+00
 Coeff:     -0.100D-05-0.630D-05-0.790D-05 0.233D-04 0.644D-04 0.165D-03
 Coeff:      0.786D-04-0.184D-03-0.286D-03 0.702D-03-0.176D-03 0.485D-03
 Coeff:     -0.130D-02 0.301D-02-0.627D-02-0.434D-01-0.816D-01-0.826D-01
 Coeff:      0.285D+00 0.926D+00
 Gap=     0.017 Goal=   None    Shift=    0.000
 Gap=     0.017 Goal=   None    Shift=    0.000
 RMSDP=6.05D-07 MaxDP=1.90D-04 DE=-1.18D-11 OVMax= 3.16D-06

 Cycle  30  Pass 1  IDiag  1:
 RMSU=  7.26D-08    CP:  1.00D+00  1.55D+00  1.31D+00  2.38D+00  2.39D+00
                    CP:  2.47D+00  3.00D+00  3.00D+00  2.68D+00
 E= -1505.78297038773     Delta-E=        0.000000000050 Rises=F Damp=F
 DIIS: error= 3.63D-09 at cycle  30 NSaved=  20.
 NSaved=20 IEnMin=19 EnMin= -1505.78297038778     IErMin=19 ErrMin= 2.95D-09
 ErrMax= 3.63D-09  0.00D+00 EMaxC= 1.00D-01 BMatC= 4.04D-14 BMatP= 3.90D-14
 IDIUse=1 WtCom= 1.00D+00 WtEn= 0.00D+00
 Coeff-Com: -0.162D-05-0.579D-05 0.699D-05-0.153D-04-0.104D-04-0.927D-04
 Coeff-Com:  0.102D-03-0.198D-03 0.372D-03-0.454D-03 0.131D-02 0.704D-03
 Coeff-Com:  0.188D-02-0.466D-02-0.542D-02-0.457D-01-0.927D-01-0.876D-01
 Coeff-Com:  0.469D+00 0.764D+00
 Coeff:     -0.162D-05-0.579D-05 0.699D-05-0.153D-04-0.104D-04-0.927D-04
 Coeff:      0.102D-03-0.198D-03 0.372D-03-0.454D-03 0.131D-02 0.704D-03
 Coeff:      0.188D-02-0.466D-02-0.542D-02-0.457D-01-0.927D-01-0.876D-01
 Coeff:      0.469D+00 0.764D+00
 Gap=     0.017 Goal=   None    Shift=    0.000
 Gap=     0.017 Goal=   None    Shift=    0.000
 RMSDP=4.60D-07 MaxDP=5.03D-05 DE= 4.96D-11 OVMax= 3.14D-06

 Cycle  31  Pass 1  IDiag  1:
 RMSU=  5.57D-08    CP:  1.00D+00  1.55D+00  1.32D+00  2.44D+00  2.41D+00
                    CP:  2.70D+00  3.00D+00  3.00D+00  3.00D+00  3.00D+00
 E= -1505.78297038777     Delta-E=       -0.000000000036 Rises=F Damp=F
 DIIS: error= 1.68D-09 at cycle  31 NSaved=  20.
 NSaved=20 IEnMin=18 EnMin= -1505.78297038778     IErMin=20 ErrMin= 1.68D-09
 ErrMax= 1.68D-09  0.00D+00 EMaxC= 1.00D-01 BMatC= 7.89D-15 BMatP= 3.90D-14
 IDIUse=1 WtCom= 1.00D+00 WtEn= 0.00D+00
 Large coefficients: NSaved= 20 BigCof=    0.00 CofMax=   10.00 Det=-8.75D-15
 Inversion failed.  Reducing to 19 matrices.
 Large coefficients: NSaved= 19 BigCof=    0.00 CofMax=   10.00 Det=-9.38D-15
 Inversion failed.  Reducing to 18 matrices.
 Large coefficients: NSaved= 18 BigCof=    0.00 CofMax=   10.00 Det=-9.38D-15
 Inversion failed.  Reducing to 17 matrices.
 Large coefficients: NSaved= 17 BigCof=    0.00 CofMax=   10.00 Det=-9.74D-15
 Inversion failed.  Reducing to 16 matrices.
 Large coefficients: NSaved= 16 BigCof=    0.00 CofMax=   10.00 Det=-9.82D-15
 Inversion failed.  Reducing to 15 matrices.
 Coeff-Com:  0.359D-04-0.241D-03 0.500D-04-0.353D-03 0.820D-03 0.116D-02
 Coeff-Com:  0.160D-02 0.146D-02 0.673D-02-0.492D-02-0.237D-01-0.130D+00
 Coeff-Com: -0.181D-01 0.464D+00 0.702D+00
 Coeff:      0.359D-04-0.241D-03 0.500D-04-0.353D-03 0.820D-03 0.116D-02
 Coeff:      0.160D-02 0.146D-02 0.673D-02-0.492D-02-0.237D-01-0.130D+00
 Coeff:     -0.181D-01 0.464D+00 0.702D+00
 Gap=     0.017 Goal=   None    Shift=    0.000
 Gap=     0.017 Goal=   None    Shift=    0.000
 RMSDP=1.82D-07 MaxDP=5.89D-05 DE=-3.64D-11 OVMax= 8.81D-07

 Cycle  32  Pass 1  IDiag  1:
 RMSU=  8.39D-08    CP:  1.00D+00  1.55D+00  1.32D+00  2.47D+00  2.41D+00
                    CP:  2.85D+00  3.00D+00  3.00D+00  3.00D+00  3.00D+00
                    CP:  2.21D+00
 E= -1505.78297038774     Delta-E=        0.000000000023 Rises=F Damp=F
 DIIS: error= 1.77D-09 at cycle  32 NSaved=  16.
 NSaved=16 IEnMin=13 EnMin= -1505.78297038778     IErMin=15 ErrMin= 1.68D-09
 ErrMax= 1.77D-09  0.00D+00 EMaxC= 1.00D-01 BMatC= 9.61D-15 BMatP= 7.89D-15
 IDIUse=1 WtCom= 1.00D+00 WtEn= 0.00D+00
 Large coefficients: NSaved= 16 BigCof=    0.00 CofMax=   10.00 Det=-6.20D-15
 Inversion failed.  Reducing to 15 matrices.
 Coeff-Com: -0.119D-03 0.512D-04-0.354D-03 0.540D-03 0.672D-03 0.152D-02
 Coeff-Com:  0.194D-02 0.271D-02-0.534D-02-0.253D-01-0.114D+00-0.672D-01
 Coeff-Com:  0.273D+00 0.491D+00 0.441D+00
 Coeff:     -0.119D-03 0.512D-04-0.354D-03 0.540D-03 0.672D-03 0.152D-02
 Coeff:      0.194D-02 0.271D-02-0.534D-02-0.253D-01-0.114D+00-0.672D-01
 Coeff:      0.273D+00 0.491D+00 0.441D+00
 Gap=     0.017 Goal=   None    Shift=    0.000
 Gap=     0.017 Goal=   None    Shift=    0.000
 RMSDP=2.18D-07 MaxDP=6.27D-05 DE= 2.32D-11 OVMax= 1.16D-06

 Cycle  33  Pass 1  IDiag  1:
 RMSU=  4.19D-09    CP:  1.00D+00  1.55D+00  1.33D+00  2.49D+00  2.42D+00
                    CP:  2.94D+00  3.00D+00  3.00D+00  3.00D+00  3.00D+00
                    CP:  2.94D+00  1.64D+00
 E= -1505.78297038777     Delta-E=       -0.000000000027 Rises=F Damp=F
 DIIS: error= 9.70D-10 at cycle  33 NSaved=  16.
 NSaved=16 IEnMin=12 EnMin= -1505.78297038778     IErMin=16 ErrMin= 9.70D-10
 ErrMax= 9.70D-10  0.00D+00 EMaxC= 1.00D-01 BMatC= 3.28D-15 BMatP= 7.89D-15
 IDIUse=1 WtCom= 1.00D+00 WtEn= 0.00D+00
 Large coefficients: NSaved= 16 BigCof=    0.00 CofMax=   10.00 Det=-1.39D-15
 Inversion failed.  Reducing to 15 matrices.
 Coeff-Com:  0.164D-04-0.123D-03 0.367D-04-0.194D-04 0.652D-03 0.202D-02
 Coeff-Com:  0.199D-04 0.180D-02-0.331D-02-0.304D-01-0.582D-01 0.300D-01
 Coeff-Com:  0.112D+00 0.224D+00 0.721D+00
 Coeff:      0.164D-04-0.123D-03 0.367D-04-0.194D-04 0.652D-03 0.202D-02
 Coeff:      0.199D-04 0.180D-02-0.331D-02-0.304D-01-0.582D-01 0.300D-01
 Coeff:      0.112D+00 0.224D+00 0.721D+00
 Gap=     0.017 Goal=   None    Shift=    0.000
 Gap=     0.017 Goal=   None    Shift=    0.000
 RMSDP=9.55D-08 MaxDP=2.80D-05 DE=-2.68D-11 OVMax= 4.90D-07

 Cycle  34  Pass 1  IDiag  1:
 RMSU=  2.11D-08    CP:  1.00D+00  1.55D+00  1.33D+00  2.49D+00  2.41D+00
                    CP:  2.99D+00  3.00D+00  3.00D+00  3.00D+00  3.00D+00
[...]
 .00048589,-0.00005814,0.00011607,0.00010468,0.00000848,-0.00011391,-0.
 00067654,0.00028980,0.00017548,-0.00033679,-0.00060335,-0.00004429,0.0
 0003346,0.00006754,0.00003628,-0.00000267,0.00001775,0.00000101,0.0000
 1767,0.00003102,0.00000199,-0.00000471,-0.00001486,0.00000176,0.000008
 41,-0.00000698,0.00000541,0.00000644,0.00001974,-0.00001342,0.00004963
 ,0.00011267,0.00008955,0.00033963,0.00039000,0.00000487,0.00000809,0.0
 0001548,-0.00002725,-0.00001684,0.00001407,-0.00001392,-0.00000952,-0.
 00000499,-0.00000141,0.00001809,-0.00002643,0.00001295,-0.00000058,0.0
 0000189,0.00000382,0.00000509,0.00000520,0.00000518,0.00000217,0.00000
 222,-0.00088509,0.00167446,0.00264803,-0.01035693,0.01572185,-0.004795
 48,-0.16486289,0.13823135,-0.04551618,0.00057022,0.00019200,-0.0056083
 9,0.00527412,-0.00354768,-0.00051701,0.00385729,0.00059944,-0.00283624
 ,-0.00032193,-0.00082612,0.00006171,-0.00060020,-0.00069331,-0.0006649
 3,0.16891337,-0.00032260,-0.00010019,0.00007600,0.00021933,0.00032139,
 -0.00008364,0.00024847,-0.00041891,0.00001876,0.00090350,0.00187208,-0
 .00096170,0.00019231,0.00028965,0.00075340,-0.00011661,-0.00042661,0.0
 0014083,0.00008307,0.00027565,0.00003819,-0.00053719,-0.00165997,-0.00
 099760,-0.00007685,-0.00016549,-0.00008284,-0.00001875,0.00000732,-0.0
 0002220,0.00000983,0.00001167,0.00001092,0.00001943,-0.00000773,0.0000
 1617,-0.00000428,0.00000039,-0.00001359,-0.00001114,0.00000212,-0.0000
 0882,0.00001716,0.00000305,0.00001667,0.00003147,0.00004764,-0.0000137
 5,0.00009136,0.00005266,-0.00002182,-0.00001903,0.00002139,-0.00003177
 ,-0.00003789,-0.00001461,0.00004679,-0.00001824,-0.00001001,-0.0000016
 7,-0.00001256,0.00000018,0.00000165,0.00000845,-0.00000347,0.00000239,
 0.,0.00000482,0.00000515,0.00000662,0.00000288,0.00000444,-0.00232851,
 -0.00016086,0.00076550,-0.00184147,0.00575898,-0.00084596,0.13830591,-
 0.20940223,0.03836516,0.00074498,0.00155281,-0.00246233,0.01704871,-0.
 01389606,0.00623864,0.00032045,-0.00168070,-0.00489165,-0.00072787,0.0
 0017485,-0.00012247,0.00043797,0.00011912,-0.00041868,-0.15134596,0.21
 796575,-0.00017215,-0.00010973,0.00005156,0.00002096,0.00012568,0.0000
 0953,0.00000031,-0.00008253,0.00006382,-0.00015108,-0.00146382,-0.0013
 9347,0.00081494,-0.00054502,0.00010049,0.00016708,-0.00040535,0.000117
 10,0.00004168,0.00026531,-0.00000786,0.00026523,0.00075454,0.00033588,
 -0.00015977,-0.00010458,0.00045585,-0.00003693,-0.00001460,-0.00012195
 ,0.00001242,0.00003588,0.00003094,0.00006533,-0.00000931,0.00000313,-0
 .00002708,-0.00002264,-0.00000937,-0.00004067,-0.00000302,-0.00001292,
 0.00004381,0.00000993,0.00002274,0.00000566,0.00008652,-0.00016444,0.0
 0009801,-0.00003734,-0.00027707,-0.00000428,0.00003266,0.00001575,-0.0
 0004225,0.00000585,0.00000048,-0.00001261,-0.00000523,0.00000278,-0.00
 001928,-0.00001391,0.00000994,0.00001035,-0.00000568,0.00000346,-0.000
 00150,0.00000666,0.00000439,0.00000878,0.00000541,0.00000402,0.0001784
 6,0.00125959,-0.00170610,-0.01536896,0.01880974,0.00011127,-0.04434501
 ,0.03621420,-0.05968428,-0.00553571,-0.00281718,-0.00043570,0.01067514
 ,-0.01281433,0.00658161,-0.00308927,-0.00449392,0.00190299,0.00010493,
 -0.00027112,-0.00099183,0.00152331,0.00029884,0.00081822,0.05285085,-0
 .03702028,0.05588080,-0.00001002,-0.00000688,-0.00006400,0.00004069,0.
 00003730,-0.00000451,0.00000342,-0.00010122,-0.00003984,0.00004263,0.0
 0018138,0.00004684,0.00041633,0.00031001,0.00013557,-0.00012164,0.0000
 2686,0.00000720,0.00000671,0.00003625,0.00004253,0.00011915,-0.0002196
 5,0.00015918,0.00001821,-0.00000599,-0.00010200,-0.00000219,0.00000968
 ,0.00002054,-0.00000006,0.00000409,0.00000281,-0.00000302,-0.00000344,
 -0.00001416,0.00000580,-0.00000321,0.00000489,-0.00000058,0.00000378,0
 .00000363,-0.00000237,-0.00000108,0.00000260,0.00000088,-0.00000239,0.
 00002332,-0.00001255,0.00002586,0.00010340,-0.00000223,-0.00000072,0.0
 0000116,-0.00001440,0.00000360,-0.00000215,-0.00000186,0.00000094,-0.0
 0000232,0.00000971,-0.00001076,-0.00000048,-0.00000360,-0.00000172,-0.
 00000395,0.00000019,0.00000315,0.00000120,0.00000301,0.00000210,-0.000
 00012,-0.00436362,-0.00293532,-0.00026173,-0.01123921,-0.00129827,-0.0
 1564455,0.00070391,0.00464948,-0.00272645,-0.17979222,-0.02176021,-0.1
 4390094,-0.00020779,0.00032497,0.00077002,0.00385099,0.00137270,-0.001
 99679,0.00303435,0.00168274,0.00147029,0.00215882,-0.00161003,0.000791
 50,-0.00063862,-0.00031482,-0.00071436,0.18730314,-0.00025437,-0.00015
 847,0.00003470,0.00017258,0.00025073,-0.00002557,0.00007738,-0.0003227
 5,-0.00021017,0.00029195,0.00120205,0.00018495,-0.00108375,0.00046703,
 0.00028646,-0.00017786,-0.00019078,-0.00011277,0.00008320,0.00024359,0
 .00004445,0.00001778,-0.00099610,-0.00012203,0.00012178,-0.00016362,0.
 00013776,0.00001302,0.00003005,-0.00000796,-0.00000918,0.00000054,-0.0
 0000518,0.00000786,-0.00003317,-0.00002943,-0.00001513,0.00001309,-0.0
 0001946,0.00000724,0.00000593,0.00000102,0.00000376,0.00000878,0.00000
 839,-0.00003757,0.00007092,-0.00006354,-0.00004135,0.00008866,-0.00014
 229,-0.00000176,0.00001290,0.00001271,-0.00004179,-0.00000590,0.000039
 35,-0.00001308,-0.00000627,0.00000416,-0.00002397,-0.00004637,0.000033
 56,0.00000014,-0.00001108,0.00000173,-0.00000171,0.00000917,0.00000814
 ,0.00001013,0.00000663,0.00001127,0.00183311,-0.00043875,0.00167776,0.
 01517094,0.00922063,0.01667478,0.00431485,-0.00302711,-0.00092730,-0.0
 2212267,-0.05876450,-0.03394440,0.00019083,-0.00084188,0.00020915,0.00
 187424,-0.00323976,-0.00344060,-0.01875882,0.00006684,-0.01886887,-0.0
 0189173,-0.00036183,-0.00143205,0.00085419,0.00016376,0.00109827,0.021
 15097,0.05632045,-0.00000564,0.00000864,0.00006913,-0.00001081,0.00000
 549,0.00000204,-0.00000699,0.00004677,-0.00000524,0.00003470,-0.000126
 31,-0.00008397,-0.00011770,0.00006620,0.00013364,0.00008295,-0.0000670
 6,0.00011371,-0.00000297,0.00003884,-0.00002542,-0.00007711,0.00014429
 ,0.00008648,-0.00011431,-0.00003095,0.00007733,-0.00001559,-0.00000770
 ,-0.00004823,0.00001591,0.00000378,0.00001028,0.00002755,0.00001967,0.
 00003265,-0.00001783,-0.00000922,-0.00001408,-0.00001046,-0.00000575,-
 0.00000371,0.00001788,0.00000704,0.00000888,0.00003315,0.00001523,-0.0
 0002003,0.00007856,-0.00001946,-0.00006552,-0.00000003,0.00000633,0.00
 000263,-0.00000155,0.00000011,0.00000015,-0.00000641,-0.00000458,-0.00
 000078,-0.00002057,0.00002484,0.00000298,0.00001395,0.00000094,0.00000
 797,0.00000119,-0.00000099,0.00000027,0.00000042,-0.00000060,0.0000007
 7,0.00088255,-0.00094009,-0.00216671,-0.00612598,-0.00168909,-0.001721
 86,-0.00336533,-0.00012113,0.00354010,-0.14365016,-0.03165655,-0.18739
 769,0.00072255,0.00046522,-0.00002893,-0.00197045,-0.00441981,0.003260
 51,-0.01014184,-0.00000723,-0.00687812,0.00177256,-0.00081538,-0.00004
 837,-0.00005904,-0.00021998,-0.00036756,0.15985762,0.03818347,0.193723
 41,0.00007848,0.00010582,0.00000471,-0.00005008,-0.00008009,0.00001570
 ,-0.00004241,0.00002367,0.00001986,-0.00007308,0.00001234,0.00000408,0
 .00013395,-0.00006685,-0.00012604,0.00002237,-0.00001273,0.00000532,-0
 .00003911,-0.00018933,-0.00002432,0.00014250,-0.00005571,-0.00004948,0
 .00009614,0.00010107,-0.00018054,0.00001761,0.00000115,0.00004937,-0.0
 0000618,-0.00002220,-0.00001099,-0.00002720,0.00001404,-0.00000205,0.0
 0000995,0.00000447,0.00001026,0.00001759,0.00000415,0.00000451,-0.0000
 2155,-0.00001013,-0.00000897,-0.00000626,-0.00008191,0.00008065,-0.000
 04740,-0.00001641,0.00011708,0.00000497,-0.00001760,-0.00000854,0.0000
 1345,0.00000717,-0.00000916,0.00001175,0.00000672,-0.00000195,0.000011
 06,0.00001147,-0.00000863,-0.00000315,0.00000527,-0.00000242,0.0000009
 0,-0.00000510,-0.00000477,-0.00000536,-0.00000186,-0.00000551,-0.00021
 068,0.00067057,0.00016995,0.00435427,0.00104613,-0.00222495,0.00142165
 ,0.00103104,-0.00078588,-0.00019298,0.00001488,0.00068441,-0.16888132,
 -0.01324324,-0.14204892,-0.01033138,-0.00548560,-0.01445783,0.00130696
 ,0.00530582,-0.00233978,-0.00006165,-0.00020804,0.00001561,-0.00121788
 ,-0.00145035,0.00199192,-0.00041214,-0.00025107,0.00040243,0.17542289,
 0.00008541,0.00004039,-0.00001649,-0.00004761,-0.00008873,0.00001077,-
 0.00002134,0.00007236,0.00005495,-0.00013099,-0.00025938,0.00000064,0.
 00020147,-0.00023591,-0.00007795,0.00006438,0.00004781,0.00001859,-0.0
 0002620,-0.00009997,-0.00000924,0.00004323,0.00017530,0.00008859,-0.00
 001092,0.00006050,-0.00014007,-0.00000043,-0.00000273,0.00002155,0.000
 00257,-0.00000442,0.00000296,-0.00001197,0.00001080,0.00000578,0.00000
 666,-0.00000153,0.00000622,0.00000092,0.00000066,-0.00000087,-0.000004
 97,-0.00000569,-0.00000397,0.00001858,-0.00004473,0.00006001,0.0000022
 1,-0.00001030,0.00010277,-0.00000061,-0.00000753,-0.00000837,0.0000145
 0,0.00000284,-0.00001258,0.00000496,0.00000279,-0.00000254,0.00001241,
 0.00000884,-0.00001070,-0.00000092,0.00000244,-0.00000113,0.00000070,-
 0.00000151,-0.00000195,-0.00000176,-0.00000109,-0.00000299,-0.00089663
 ,0.00137105,-0.00031971,0.00212788,-0.00348420,-0.00432453,-0.01951017
 ,0.00140984,-0.02024011,0.00017769,-0.00123904,-0.00004207,-0.01361872
 ,-0.05775864,-0.02701517,0.01587496,0.00620406,0.01833891,0.00417894,-
 0.00228171,-0.00079306,-0.00037377,-0.00069224,-0.00020067,-0.00080947
 ,0.00028638,0.00167544,-0.00030699,-0.00003978,0.00023351,0.01350702,0
 .05606203,0.00016785,0.00013033,-0.00001620,-0.00011821,-0.00020039,0.
 00003315,-0.00011511,0.00020159,0.00012876,-0.00024922,-0.00058371,-0.
 00000258,0.00035139,-0.00036437,-0.00017260,0.00012584,0.00007347,0.00
 001370,-0.00005891,-0.00021060,-0.00004032,0.00026807,0.00063569,0.000
 05162,-0.00005706,0.00014043,-0.00005280,0.00000919,-0.00001377,0.0000
 1013,-0.00000106,-0.00000510,-0.00000410,-0.00001294,0.00000765,-0.000
 00111,0.00000683,0.00000407,0.00001939,-0.00000526,-0.00000193,0.00000
 299,-0.00000182,-0.00001118,-0.00001299,0.00002435,-0.00006688,0.00005
 485,0.00001531,-0.00008272,0.00003474,0.00000579,-0.00001698,-0.000007
 34,0.00003096,0.00001159,-0.00003468,0.00001124,0.00000622,-0.00000156
 ,0.00001482,0.00001209,-0.00000944,-0.00000174,0.00000456,-0.00000099,
 0.00000057,-0.00000628,-0.00000599,-0.00000648,-0.00000299,-0.00000600
 ,-0.00083105,0.00150589,0.00021509,-0.00194245,-0.00513270,0.00247775,
 -0.01226346,0.00028231,-0.00913748,0.00104738,-0.00010238,0.00006464,-
 0.14195610,-0.02707385,-0.18714548,-0.00279168,-0.00263215,-0.00306716
 ,-0.00291072,0.00038067,0.00389816,-0.00008203,-0.00070197,-0.00048414
 ,0.00226490,0.00108706,-0.00121469,0.00031460,0.00023679,-0.00050876,0
 .15754512,0.03120789,0.19600277,-0.00005665,-0.00004624,-0.00000390,0.
 00004586,0.00005921,-0.00001509,0.00006669,-0.00007436,-0.00001658,0.0
 0011679,0.00020970,0.00003300,-0.00000111,-0.00002984,0.00017256,0.000
 01076,0.00003498,-0.00001365,0.00002377,0.00006941,0.00001422,-0.00004
 293,-0.00018302,-0.00007419,-0.00004793,0.00001512,-0.00000996,-0.0000
 1223,-0.00001010,-0.00000309,0.00000402,0.00000781,0.00000524,0.000009
 31,0.00000539,0.00000163,-0.00000224,-0.00000818,0.00000242,-0.0000048
 1,-0.00000180,-0.00000239,0.00000429,0.00000227,0.00000463,0.00001414,
 0.00000288,-0.00000110,0.00001674,-0.00000485,0.00002369,-0.00000276,0
 .00000467,-0.00000223,-0.00000553,-0.00000435,0.00000622,-0.00000488,-
 0.00000238,-0.00000041,0.00000440,0.00000461,-0.00000591,0.00000214,0.
 00000114,-0.00000155,0.00000011,0.00000071,0.00000044,0.00000163,0.000
 00070,-0.00000073,-0.00064686,-0.00003479,0.00056588,-0.00106016,-0.00
 007809,-0.00005196,0.00042540,0.00428096,-0.00391135,0.00012869,0.0016
 7815,-0.00581730,0.00422128,0.01650180,0.01199315,-0.04623254,-0.00231
 835,-0.01790462,0.00260930,-0.01978209,-0.00952831,0.00011881,-0.00019
 741,-0.00008640,0.00021792,0.00072243,0.00036378,0.00021591,-0.0007092
 3,-0.00064901,-0.00099561,-0.00159268,0.00170499,0.04195667,0.00009123
 ,0.00014185,0.00000530,-0.00004980,-0.00008944,0.00000910,-0.00004087,
 0.00002356,0.00004489,-0.00002774,0.00012409,0.00002062,0.00007214,-0.
 00008890,-0.00009884,0.00003023,0.00005212,-0.00002607,-0.00004404,-0.
 00021754,-0.00003715,0.00012497,-0.00009053,-0.00020810,0.00005291,0.0
 0019795,-0.00004866,0.00003114,-0.00001223,0.00004351,-0.00001587,-0.0
 0001895,-0.00002399,-0.00003384,0.00001114,-0.00001179,0.00001421,0.00
 000728,0.00001898,0.00001707,-0.00000051,0.00000742,-0.00002487,-0.000
 01332,-0.00001770,-0.00000825,-0.00010032,0.00005233,-0.00004042,-0.00
 009544,0.00002687,0.00000753,-0.00002148,-0.00001286,0.00001981,0.0000
 0872,-0.00000861,0.00001451,0.00000868,0.,0.00001987,0.00001321,-0.000
 00481,-0.00000853,0.00000756,-0.00000389,-0.00000010,-0.00000939,-0.00
 000783,-0.00000962,-0.00000461,-0.00000836,-0.00037770,0.00029992,0.00
 047318,0.00027228,0.00009438,0.00089080,0.00537171,-0.00116493,0.00102
 255,0.00034685,0.00277517,-0.00198023,-0.00465835,-0.01600635,-0.01425
 837,-0.00249096,-0.24840074,-0.12260719,0.00157372,-0.00149438,-0.0000
 5746,-0.00007404,-0.00029290,-0.00017979,-0.00024820,-0.00080231,-0.00
 077810,0.00023978,-0.00012693,-0.00009552,-0.00065074,0.00037512,0.001
 56567,0.00212873,0.26458992,0.00011803,0.00011722,0.00000143,-0.000089
 87,-0.00012153,0.00002570,-0.00008558,0.00012346,0.00005924,-0.0001758
 9,-0.00038001,-0.00004427,0.00020324,-0.00013705,-0.00025176,0.0000548
 9,-0.00001927,0.00001741,-0.00004976,-0.00018128,-0.00003464,0.0000672
 1,0.00030933,0.00011467,0.00003941,0.00007833,-0.00002943,0.00001617,0
 .00000170,0.00001611,-0.00000687,-0.00001384,-0.00001021,-0.00001892,0
 .00000751,0.00000048,0.00000783,0.00000558,0.00000749,0.00000836,0.000
 00033,0.00000505,-0.00001157,-0.00000687,-0.00000967,-0.00000889,-0.00
 004927,0.00002870,-0.00001497,-0.00004207,0.00000780,0.00000608,-0.000
 01346,-0.00000333,0.00001833,0.00000781,-0.00001530,0.00001182,0.00000
 627,-0.00000045,0.00000686,0.00000930,-0.00000199,-0.00000334,0.000003
 82,-0.00000024,0.00000057,-0.00000556,-0.00000508,-0.00000685,-0.00000
 326,-0.00000478,0.00010435,0.00023298,-0.00047625,-0.00027508,0.001063
 74,-0.00067598,-0.00313757,-0.00020764,0.00352770,-0.00641817,-0.00070
 224,0.00019438,0.00020118,0.00663864,0.00531317,-0.01794603,-0.1226749
 3,-0.11540790,0.00229268,-0.02094317,-0.00800074,0.00037141,-0.0001741
 5,0.00015148,-0.00013754,0.00030687,0.00026630,-0.00006688,-0.00110063
 ,-0.00023677,0.00222381,0.00063706,-0.00108118,0.02084376,0.13559710,0
 .11769064,-0.00006785,-0.00011035,-0.00000204,0.00005919,0.00008726,-0
 .00001158,0.00005448,-0.00005935,-0.00002545,0.00008743,0.00009629,0.0
 0000494,-0.00016336,0.00011421,0.00010055,-0.00003687,-0.00001974,0.00
 005962,0.00003331,0.00017322,0.00003436,-0.00011489,-0.00012966,0.0001
 0289,-0.00004222,-0.00012257,-0.00000835,-0.00002307,0.00000537,-0.000
 02250,0.00001298,0.00001396,0.00001623,0.00002024,-0.00001276,0.000010
 80,-0.00000888,-0.00000445,-0.00001229,-0.00001234,0.00000116,-0.00000
 452,0.00001568,0.00000669,0.00001586,0.00000921,0.00006276,-0.00002169
 ,0.00001440,0.00006542,0.00000906,-0.00000916,0.00001645,0.00000293,-0
 .00001634,-0.00000672,0.00001022,-0.00001203,-0.00000634,-0.00000114,-
 0.00001139,-0.00000810,-0.00000185,0.00000727,-0.00000494,0.00000047,0
 .00000010,0.00000753,0.00000537,0.00000839,0.00000482,0.00000517,0.000
 11232,-0.00042983,-0.00033061,0.00436916,0.00079706,-0.00238642,-0.000
 32993,-0.00076077,0.00021520,0.00284127,-0.00151852,-0.00036025,0.0010
 1510,-0.00056561,-0.00624742,-0.01047237,0.01770702,-0.00189709,-0.153
 53500,0.12947615,-0.04886430,-0.00004661,0.00008551,0.00002006,-0.0004
 5410,-0.00022730,0.00047798,-0.00110571,-0.00076090,0.00242582,-0.0004
 4103,0.00104168,-0.00050389,-0.00109840,-0.00162476,0.00185776,0.15934
 102,0.00012098,0.00014522,0.00002223,-0.00010271,-0.00015673,0.0000208
 8,-0.00006754,0.00011438,0.00008996,-0.00019205,-0.00029925,0.00005466
 ,-0.00001924,-0.00060398,-0.00028882,0.00016242,0.00001194,-0.00012308
 ,-0.00006515,-0.00031296,-0.00006628,0.00014468,0.00029936,-0.00010230
 ,0.00017293,0.00020016,-0.00012397,0.00004341,0.00000054,0.00007048,-0
 .00002507,-0.00002725,-0.00003067,-0.00005883,0.00000079,-0.00002329,0
 .00003365,0.00001901,0.00002576,0.00002229,0.00000476,0.00000781,-0.00
 003896,-0.00002232,-0.00003476,-0.00004206,-0.00010224,0.00006851,-0.0
 0009050,-0.00007441,0.00007242,0.00000839,-0.00002482,-0.00001181,0.00
 003182,0.00001010,-0.00001905,0.00002518,0.00001262,0.00000241,0.00003
 196,0.00000976,-0.00000229,-0.00002422,0.00000588,-0.00000435,-0.00000
 130,-0.00000932,-0.00000695,-0.00001226,-0.00000764,-0.00000873,0.0016
 7539,0.00048529,0.00121914,-0.00046934,-0.00298298,-0.00527457,-0.0010
 4528,-0.00025773,-0.00061200,0.01920042,-0.01610030,0.00858143,0.00063
 935,0.00254159,-0.00176451,-0.00370812,0.00461576,-0.00186286,0.129777
 94,-0.19752711,0.03696727,-0.00043506,-0.00019819,-0.00027785,-0.00014
 353,-0.00018540,0.00033316,-0.00148295,0.00059329,0.00096705,-0.000023
 83,0.00012590,-0.00028404,-0.00065289,0.00032050,0.00162918,-0.1433899
 0,0.20937579,0.00000869,-0.00002615,-0.00000383,-0.00000492,-0.0000158
 3,-0.00000831,-0.00000750,0.00001640,0.00000471,-0.00003947,-0.0000734
 2,0.00000181,0.00005650,-0.00020964,-0.00010654,0.00003393,0.00003897,
 -0.00006048,0.00000686,0.00000978,0.00000044,0.00006682,0.00011354,-0.
 00005730,-0.00003621,-0.00000700,0.00002899,-0.00000331,-0.00000384,-0
 .00000842,0.00000143,0.00000336,0.00000269,0.00000820,0.00000258,0.000
 00030,-0.00000403,-0.00000005,-0.00000433,-0.00000131,-0.00000132,-0.0
 0000163,0.00000457,0.00000311,0.00000116,0.00001227,0.00000393,-0.0000
 0601,0.00002137,-0.00000092,-0.00001675,0.00000211,-0.00000072,0.00000
 361,0.00000256,-0.00000009,-0.00000542,-0.00000198,-0.00000118,0.00000
 038,-0.00000499,-0.00000144,0.00000480,0.00000160,-0.00000150,0.000002
 87,-0.00000011,-0.00000003,0.00000069,0.00000040,-0.00000007,0.0000013
 3,0.00057176,-0.00026912,0.00031351,-0.00312747,-0.00428411,0.00204011
 ,0.00014808,-0.00041111,-0.00085835,0.01104947,-0.01176208,0.00669439,
 -0.00540410,-0.00314007,-0.00009939,-0.01365577,0.01910673,-0.00165319
 ,-0.04857244,0.03657202,-0.05934031,-0.00006831,0.00020437,0.00008510,
 0.00050284,0.00032615,-0.00040582,0.00178633,0.00156338,-0.00145117,-0
 .00104406,0.00075853,-0.00000015,0.00236410,0.00069702,-0.00113777,0.0
 5532609,-0.03921018,0.05603828\\0.00000671,-0.00000619,-0.00000748,-0.
 00000142,-0.00000094,0.00000589,-0.00000051,-0.00000393,-0.00000613,-0
 .00000614,-0.00000400,0.00001180,0.00000498,-0.00001249,-0.00000548,-0
 .00000333,0.00000810,0.00000114,0.00000342,0.00000639,0.00000077,0.000
 00501,0.00001356,-0.00000320,-0.00000999,-0.00001493,0.00000096,-0.000
 00109,0.00000968,0.00000032,-0.00000598,-0.00000679,-0.00000550,-0.000
 00525,-0.00000520,-0.00000072,0.00000228,-0.00000119,-0.00000040,0.000
 00237,0.00000335,0.00000317,-0.00000325,0.00000066,-0.00000137,0.00000
 220,0.00000322,0.00000301,-0.00000069,0.00000553,0.00000867,0.00000388
 ,0.00000211,-0.00000010,0.00000093,-0.00000474,-0.00000259,0.00000404,
 -0.00000219,0.00000098,0.00000071,0.00000028,0.00000009,-0.00000024,0.
 00000068,0.00000073,0.00000176,-0.00000106,0.00000046,0.00000016,0.000
 00032,0.00000062,-0.00001927,0.00000964,0.00000092,-0.00000263,-0.0000
 0659,-0.00000645,0.00000717,0.00000297,0.00000721,0.00000085,0.0000052
 4,0.00000234,-0.00000224,0.00000049,-0.00000266,0.00000010,-0.00000069
 ,0.00000097,0.00000032,-0.00000096,-0.00000247,0.00001615,0.00000331,0
 .00000189,-0.00000003,-0.00000149,-0.00000238,-0.00000115,-0.00000133,
 -0.00000249,0.00000023,-0.00000062,-0.00000022,0.00000046,0.00000040,-
 0.00000143,-0.00000054,-0.00000059,-0.00000086\\\@


 THAT'S WHAT MAKES US A GREAT COUNTRY.
 THE LITTLE THINGS ARE SERIOUS AND THE BIG ONES ARE NOT.
           WILL ROGERS
 Job cpu time:       1 days 13 hours 44 minutes  3.6 seconds.
 Elapsed time:       0 days  4 hours 53 minutes 38.0 seconds.
 File lengths (MBytes):  RWF=   2869 Int=      0 D2E=      0 Chk=     47 Scr=      1
 Normal termination of Gaussian 16 at Wed Dec 20 11:45:16 2023.
