 Entering Gaussian System, Link 0=g16
 Input=234-rad.com
 Output=234-rad.log
 Initial command:
 /sysapps/ubuntu-applications/gaussian/Gaussian/AVX2/g16/l1.exe "/scratch/selhajj1/4262267/Gau-2835564.inp" -scrdir="/scratch/selhajj1/4262267/"
 Entering Link 1 = /sysapps/ubuntu-applications/gaussian/Gaussian/AVX2/g16/l1.exe PID=   2835584.
  
 Copyright (c) 1988,1990,1992,1993,1995,1998,2003,2009,2016,
            Gaussian, Inc.  All Rights Reserved.
  
 This is part of the Gaussian(R) 16 program.  It is based on
 the Gaussian(R) 09 system (copyright 2009, Gaussian, Inc.),
 the Gaussian(R) 03 system (copyright 2003, Gaussian, Inc.),
 the Gaussian(R) 98 system (copyright 1998, Gaussian, Inc.),
 the Gaussian(R) 94 system (copyright 1995, Gaussian, Inc.),
 the Gaussian 92(TM) system (copyright 1992, Gaussian, Inc.),
 the Gaussian 90(TM) system (copyright 1990, Gaussian, Inc.),
 the Gaussian 88(TM) system (copyright 1988, Gaussian, Inc.),
 the Gaussian 86(TM) system (copyright 1986, Carnegie Mellon
 University), and the Gaussian 82(TM) system (copyright 1983,
 Carnegie Mellon University). Gaussian is a federally registered
 trademark of Gaussian, Inc.
  
 This software contains proprietary and confidential information,
 including trade secrets, belonging to Gaussian, Inc.
  
 This software is provided under written license and may be
 used, copied, transmitted, or stored only in accord with that
 written license.
  
 The following legend is applicable only to US Government
 contracts under FAR:
  
                    RESTRICTED RIGHTS LEGEND
  
 Use, reproduction and disclosure by the US Government is
 subject to restrictions as set forth in subparagraphs (a)
 and (c) of the Commercial Computer Software - Restricted
 Rights clause in FAR 52.227-19.
  
 Gaussian, Inc.
 340 Quinnipiac St., Bldg. 40, Wallingford CT 06492
  
  
 ---------------------------------------------------------------
 Warning -- This program may not be used in any manner that
 competes with the business of Gaussian, Inc. or will provide
 assistance to any competitor of Gaussian, Inc.  The licensee
 of this program is prohibited from giving any competitor of
 Gaussian, Inc. access to this program.  By using this program,
 the user acknowledges that Gaussian, Inc. is engaged in the
 business of creating and licensing software in the field of
 computational chemistry and represents and warrants to the
 licensee that it is not a competitor of Gaussian, Inc. and that
 it will not use this program in any manner prohibited above.
 ---------------------------------------------------------------
  

 Cite this work as:
 Gaussian 16, Revision A.03,
 M. J. Frisch, G. W. Trucks, H. B. Schlegel, G. E. Scuseria, 
 M. A. Robb, J. R. Cheeseman, G. Scalmani, V. Barone, 
 G. A. Petersson, H. Nakatsuji, X. Li, M. Caricato, A. V. Marenich, 
 J. Bloino, B. G. Janesko, R. Gomperts, B. Mennucci, H. P. Hratchian, 
 J. V. Ortiz, A. F. Izmaylov, J. L. Sonnenberg, D. Williams-Young, 
 F. Ding, F. Lipparini, F. Egidi, J. Goings, B. Peng, A. Petrone, 
 T. Henderson, D. Ranasinghe, V. G. Zakrzewski, J. Gao, N. Rega, 
 G. Zheng, W. Liang, M. Hada, M. Ehara, K. Toyota, R. Fukuda, 
 J. Hasegawa, M. Ishida, T. Nakajima, Y. Honda, O. Kitao, H. Nakai, 
 T. Vreven, K. Throssell, J. A. Montgomery, Jr., J. E. Peralta, 
 F. Ogliaro, M. J. Bearpark, J. J. Heyd, E. N. Brothers, K. N. Kudin, 
 V. N. Staroverov, T. A. Keith, R. Kobayashi, J. Normand, 
 K. Raghavachari, A. P. Rendell, J. C. Burant, S. S. Iyengar, 
 J. Tomasi, M. Cossi, J. M. Millam, M. Klene, C. Adamo, R. Cammi, 
 J. W. Ochterski, R. L. Martin, K. Morokuma, O. Farkas, 
 J. B. Foresman, and D. J. Fox, Gaussian, Inc., Wallingford CT, 2016.
 
 ******************************************
 Gaussian 16:  ES64L-G16RevA.03 25-Dec-2016
                 7-Jan-2024 
 ******************************************
 %chk=234-rad.chk
 %nproc=8
 Will use up to    8 processors via shared memory.
 %mem=30GB
 --------------------------------------
 #P UB3LYP/6-311++G(d,p) nosym opt freq
 --------------------------------------
 1/18=20,19=15,26=3,38=1/1,3;
 2/9=110,12=2,15=1,17=6,18=5,40=1/2;
 3/5=4,6=6,7=1111,11=2,25=1,30=1,71=1,74=-5,116=2/1,2,3;
 4//1;
 5/5=2,38=5/2;
 6/7=2,8=2,9=2,10=2,28=1/1;
 7/30=1/1,2,3,16;
 1/18=20,19=15,26=3/3(2);
 2/9=110,15=1/2;
 99//99;
 2/9=110,15=1/2;
 3/5=4,6=6,7=1111,11=2,25=1,30=1,71=1,74=-5,116=2/1,2,3;
 4/5=5,16=3,69=1/1;
 5/5=2,38=5/2;
 7/30=1/1,2,3,16;
 1/18=20,19=15,26=3/3(-5);
 2/9=110,15=1/2;
 6/7=2,8=2,9=2,10=2,19=2,28=1/1;
 99/9=1/99;
 Leave Link    1 at Sun Jan  7 20:11:47 2024, MaxMem=  4026531840 cpu:               0.7 elap:               0.1
 (Enter /sysapps/ubuntu-applications/gaussian/Gaussian/AVX2/g16/l101.exe)
 -------
 Radical
 -------
 Symbolic Z-matrix:
 Charge = -1 Multiplicity = 2
 C                     5.72569  -5.23502   1.1208 
 C                     6.66305  -5.10687   0.11638 
 C                     6.53941  -4.07168  -0.8355 
 C                     4.63933  -4.34645   1.21601 
 C                     4.51629  -3.30609   0.25843 
 C                     5.47979  -3.19056  -0.75745 
 C                     3.66212  -4.51756   2.3017 
 C                     2.57328  -3.56284   2.33252 
 C                     2.46955  -2.55756   1.39325 
 C                     3.39731  -2.34976   0.3145 
 O                     3.77272  -5.44101   3.15153 
 O                     3.27491  -1.42222  -0.52701 
 H                     5.80114  -6.02148   1.86108 
 H                     5.36251  -2.38827  -1.47515 
 Br                    8.11721  -6.37016   0.06528 
 Br                    7.81327  -3.83817  -2.26177 
 C                     1.56     -3.71706   3.43502 
 H                     1.64105  -1.85513   1.44138 
 H                     2.03991  -3.65664   4.41756 
 H                     1.08493  -4.70302   3.39371 
 H                     0.78653  -2.94739   3.36938 
 
 ITRead=  0  0  0  0  0  0  0  0  0  0  0  0  0  0  0  0  0  0  0  0
 ITRead=  0
 MicOpt= -1 -1 -1 -1 -1 -1 -1 -1 -1 -1 -1 -1 -1 -1 -1 -1 -1 -1 -1 -1
 MicOpt= -1
 NAtoms=     21 NQM=       21 NQMF=       0 NMMI=      0 NMMIF=      0
                NMic=       0 NMicF=      0.
                    Isotopes and Nuclear Properties:
 (Nuclear quadrupole moments (NQMom) in fm**2, nuclear magnetic moments (NMagM)
  in nuclear magnetons)

  Atom         1           2           3           4           5           6           7           8           9          10
 IAtWgt=          12          12          12          12          12          12          12          12          12          12
 AtmWgt=  12.0000000  12.0000000  12.0000000  12.0000000  12.0000000  12.0000000  12.0000000  12.0000000  12.0000000  12.0000000
 NucSpn=           0           0           0           0           0           0           0           0           0           0
 AtZEff=  -0.0000000  -0.0000000  -0.0000000  -0.0000000  -0.0000000  -0.0000000  -0.0000000  -0.0000000  -0.0000000  -0.0000000
 NQMom=    0.0000000   0.0000000   0.0000000   0.0000000   0.0000000   0.0000000   0.0000000   0.0000000   0.0000000   0.0000000
 NMagM=    0.0000000   0.0000000   0.0000000   0.0000000   0.0000000   0.0000000   0.0000000   0.0000000   0.0000000   0.0000000
 AtZNuc=   6.0000000   6.0000000   6.0000000   6.0000000   6.0000000   6.0000000   6.0000000   6.0000000   6.0000000   6.0000000

  Atom        11          12          13          14          15          16          17          18          19          20
 IAtWgt=          16          16           1           1          79          79          12           1           1           1
 AtmWgt=  15.9949146  15.9949146   1.0078250   1.0078250  78.9183361  78.9183361  12.0000000   1.0078250   1.0078250   1.0078250
 NucSpn=           0           0           1           1           3           3           0           1           1           1
 AtZEff=  -0.0000000  -0.0000000  -0.0000000  -0.0000000  -0.0000000  -0.0000000  -0.0000000  -0.0000000  -0.0000000  -0.0000000
 NQMom=    0.0000000   0.0000000   0.0000000   0.0000000  31.3000000  31.3000000   0.0000000   0.0000000   0.0000000   0.0000000
 NMagM=    0.0000000   0.0000000   2.7928460   2.7928460   2.1063990   2.1063990   0.0000000   2.7928460   2.7928460   2.7928460
 AtZNuc=   8.0000000   8.0000000   1.0000000   1.0000000  35.0000000  35.0000000   6.0000000   1.0000000   1.0000000   1.0000000

  Atom        21
 IAtWgt=           1
 AtmWgt=   1.0078250
 NucSpn=           1
 AtZEff=  -0.0000000
 NQMom=    0.0000000
 NMagM=    2.7928460
 AtZNuc=   1.0000000
 Leave Link  101 at Sun Jan  7 20:11:48 2024, MaxMem=  4026531840 cpu:               2.2 elap:               0.6
 (Enter /sysapps/ubuntu-applications/gaussian/Gaussian/AVX2/g16/l103.exe)

 GradGradGradGradGradGradGradGradGradGradGradGradGradGradGradGradGradGrad
 Berny optimization.
 Initialization pass.
                           ----------------------------
                           !    Initial Parameters    !
                           ! (Angstroms and Degrees)  !
 --------------------------                            --------------------------
 ! Name  Definition              Value          Derivative Info.                !
 --------------------------------------------------------------------------------
 ! R1    R(1,2)                  1.3798         estimate D2E/DX2                !
 ! R2    R(1,4)                  1.4067         estimate D2E/DX2                !
 ! R3    R(1,13)                 1.0827         estimate D2E/DX2                !
 ! R4    R(2,3)                  1.4117         estimate D2E/DX2                !
 ! R5    R(2,15)                 1.9269         estimate D2E/DX2                !
 ! R6    R(3,6)                  1.3803         estimate D2E/DX2                !
 ! R7    R(3,16)                 1.9265         estimate D2E/DX2                !
 ! R8    R(4,5)                  1.4193         estimate D2E/DX2                !
 ! R9    R(4,7)                  1.4707         estimate D2E/DX2                !
 ! R10   R(5,6)                  1.4049         estimate D2E/DX2                !
 ! R11   R(5,10)                 1.473          estimate D2E/DX2                !
 ! R12   R(6,14)                 1.0828         estimate D2E/DX2                !
 ! R13   R(7,8)                  1.4485         estimate D2E/DX2                !
 ! R14   R(7,11)                 1.2598         estimate D2E/DX2                !
 ! R15   R(8,9)                  1.3797         estimate D2E/DX2                !
 ! R16   R(8,17)                 1.5053         estimate D2E/DX2                !
 ! R17   R(9,10)                 1.4379         estimate D2E/DX2                !
 ! R18   R(9,18)                 1.0873         estimate D2E/DX2                !
 ! R19   R(10,12)                1.2583         estimate D2E/DX2                !
 ! R20   R(17,19)                1.0952         estimate D2E/DX2                !
 ! R21   R(17,20)                1.0952         estimate D2E/DX2                !
 ! R22   R(17,21)                1.0931         estimate D2E/DX2                !
 ! A1    A(2,1,4)              121.0127         estimate D2E/DX2                !
 ! A2    A(2,1,13)             121.1871         estimate D2E/DX2                !
 ! A3    A(4,1,13)             117.8002         estimate D2E/DX2                !
 ! A4    A(1,2,3)              119.9618         estimate D2E/DX2                !
 ! A5    A(1,2,15)             118.1037         estimate D2E/DX2                !
 ! A6    A(3,2,15)             121.9344         estimate D2E/DX2                !
 ! A7    A(2,3,6)              119.8149         estimate D2E/DX2                !
 ! A8    A(2,3,16)             122.0154         estimate D2E/DX2                !
 ! A9    A(6,3,16)             118.1697         estimate D2E/DX2                !
 ! A10   A(1,4,5)              118.9671         estimate D2E/DX2                !
 ! A11   A(1,4,7)              119.315          estimate D2E/DX2                !
 ! A12   A(5,4,7)              121.7179         estimate D2E/DX2                !
 ! A13   A(4,5,6)              119.2543         estimate D2E/DX2                !
 ! A14   A(4,5,10)             121.0683         estimate D2E/DX2                !
 ! A15   A(6,5,10)             119.6773         estimate D2E/DX2                !
 ! A16   A(3,6,5)              120.9891         estimate D2E/DX2                !
 ! A17   A(3,6,14)             121.241          estimate D2E/DX2                !
 ! A18   A(5,6,14)             117.7699         estimate D2E/DX2                !
 ! A19   A(4,7,8)              116.0086         estimate D2E/DX2                !
 ! A20   A(4,7,11)             121.6627         estimate D2E/DX2                !
 ! A21   A(8,7,11)             122.3286         estimate D2E/DX2                !
 ! A22   A(7,8,9)              121.486          estimate D2E/DX2                !
 ! A23   A(7,8,17)             117.0047         estimate D2E/DX2                !
 ! A24   A(9,8,17)             121.5093         estimate D2E/DX2                !
 ! A25   A(8,9,10)             124.5774         estimate D2E/DX2                !
 ! A26   A(8,9,18)             119.8599         estimate D2E/DX2                !
 ! A27   A(10,9,18)            115.5627         estimate D2E/DX2                !
 ! A28   A(5,10,9)             115.1417         estimate D2E/DX2                !
 ! A29   A(5,10,12)            121.8019         estimate D2E/DX2                !
 ! A30   A(9,10,12)            123.0564         estimate D2E/DX2                !
 ! A31   A(8,17,19)            110.8834         estimate D2E/DX2                !
 ! A32   A(8,17,20)            110.8902         estimate D2E/DX2                !
 ! A33   A(8,17,21)            111.111          estimate D2E/DX2                !
 ! A34   A(19,17,20)           105.8775         estimate D2E/DX2                !
 ! A35   A(19,17,21)           108.9713         estimate D2E/DX2                !
 ! A36   A(20,17,21)           108.9454         estimate D2E/DX2                !
 ! D1    D(4,1,2,3)             -0.0013         estimate D2E/DX2                !
 ! D2    D(4,1,2,15)           179.9959         estimate D2E/DX2                !
 ! D3    D(13,1,2,3)           179.997          estimate D2E/DX2                !
 ! D4    D(13,1,2,15)           -0.0058         estimate D2E/DX2                !
 ! D5    D(2,1,4,5)             -0.0039         estimate D2E/DX2                !
 ! D6    D(2,1,4,7)            179.9977         estimate D2E/DX2                !
 ! D7    D(13,1,4,5)           179.9977         estimate D2E/DX2                !
 ! D8    D(13,1,4,7)            -0.0007         estimate D2E/DX2                !
 ! D9    D(1,2,3,6)              0.0027         estimate D2E/DX2                !
 ! D10   D(1,2,3,16)          -179.9979         estimate D2E/DX2                !
 ! D11   D(15,2,3,6)          -179.9944         estimate D2E/DX2                !
 ! D12   D(15,2,3,16)            0.005          estimate D2E/DX2                !
 ! D13   D(2,3,6,5)              0.0012         estimate D2E/DX2                !
 ! D14   D(2,3,6,14)           179.9982         estimate D2E/DX2                !
 ! D15   D(16,3,6,5)          -179.9982         estimate D2E/DX2                !
 ! D16   D(16,3,6,14)           -0.0012         estimate D2E/DX2                !
 ! D17   D(1,4,5,6)              0.0077         estimate D2E/DX2                !
 ! D18   D(1,4,5,10)          -179.9915         estimate D2E/DX2                !
 ! D19   D(7,4,5,6)           -179.9939         estimate D2E/DX2                !
 ! D20   D(7,4,5,10)             0.0069         estimate D2E/DX2                !
 ! D21   D(1,4,7,8)            179.9626         estimate D2E/DX2                !
 ! D22   D(1,4,7,11)             0.0343         estimate D2E/DX2                !
 ! D23   D(5,4,7,8)             -0.0358         estimate D2E/DX2                !
 ! D24   D(5,4,7,11)          -179.9641         estimate D2E/DX2                !
 ! D25   D(4,5,6,3)             -0.0065         estimate D2E/DX2                !
 ! D26   D(4,5,6,14)           179.9965         estimate D2E/DX2                !
 ! D27   D(10,5,6,3)           179.9928         estimate D2E/DX2                !
 ! D28   D(10,5,6,14)           -0.0043         estimate D2E/DX2                !
 ! D29   D(4,5,10,9)             0.0263         estimate D2E/DX2                !
 ! D30   D(4,5,10,12)          179.9876         estimate D2E/DX2                !
 ! D31   D(6,5,10,9)          -179.9729         estimate D2E/DX2                !
 ! D32   D(6,5,10,12)           -0.0116         estimate D2E/DX2                !
 ! D33   D(4,7,8,9)              0.0316         estimate D2E/DX2                !
 ! D34   D(4,7,8,17)          -179.9842         estimate D2E/DX2                !
 ! D35   D(11,7,8,9)           179.9594         estimate D2E/DX2                !
 ! D36   D(11,7,8,17)           -0.0564         estimate D2E/DX2                !
 ! D37   D(7,8,9,10)             0.0022         estimate D2E/DX2                !
 ! D38   D(7,8,9,18)           179.9979         estimate D2E/DX2                !
 ! D39   D(17,8,9,10)         -179.9812         estimate D2E/DX2                !
 ! D40   D(17,8,9,18)            0.0145         estimate D2E/DX2                !
 ! D41   D(7,8,17,19)           58.4291         estimate D2E/DX2                !
 ! D42   D(7,8,17,20)          -58.8959         estimate D2E/DX2                !
 ! D43   D(7,8,17,21)          179.7807         estimate D2E/DX2                !
 ! D44   D(9,8,17,19)         -121.5868         estimate D2E/DX2                !
 ! D45   D(9,8,17,20)          121.0883         estimate D2E/DX2                !
 ! D46   D(9,8,17,21)           -0.2351         estimate D2E/DX2                !
 ! D47   D(8,9,10,5)            -0.0316         estimate D2E/DX2                !
 ! D48   D(8,9,10,12)         -179.9923         estimate D2E/DX2                !
 ! D49   D(18,9,10,5)          179.9726         estimate D2E/DX2                !
 ! D50   D(18,9,10,12)           0.0118         estimate D2E/DX2                !
 --------------------------------------------------------------------------------
 Trust Radius=3.00D-01 FncErr=1.00D-07 GrdErr=1.00D-06 EigMax=2.50D+02 EigMin=1.00D-04
 Number of steps in this run=    118 maximum allowed number of steps=    126.
 GradGradGradGradGradGradGradGradGradGradGradGradGradGradGradGradGradGrad

 Leave Link  103 at Sun Jan  7 20:11:48 2024, MaxMem=  4026531840 cpu:               0.2 elap:               0.1
 (Enter /sysapps/ubuntu-applications/gaussian/Gaussian/AVX2/g16/l202.exe)
                          Input orientation:                          
 ---------------------------------------------------------------------
 Center     Atomic      Atomic             Coordinates (Angstroms)
 Number     Number       Type             X           Y           Z
 ---------------------------------------------------------------------
      1          6           0        5.725685   -5.235024    1.120804
      2          6           0        6.663053   -5.106868    0.116376
      3          6           0        6.539407   -4.071681   -0.835499
      4          6           0        4.639334   -4.346452    1.216010
      5          6           0        4.516291   -3.306087    0.258430
      6          6           0        5.479792   -3.190556   -0.757450
      7          6           0        3.662120   -4.517563    2.301703
      8          6           0        2.573276   -3.562843    2.332516
      9          6           0        2.469548   -2.557560    1.393246
     10          6           0        3.397307   -2.349755    0.314496
     11          8           0        3.772715   -5.441008    3.151532
     12          8           0        3.274908   -1.422221   -0.527013
     13          1           0        5.801142   -6.021478    1.861079
     14          1           0        5.362507   -2.388270   -1.475147
     15         35           0        8.117211   -6.370155    0.065278
     16         35           0        7.813267   -3.838169   -2.261767
     17          6           0        1.559998   -3.717057    3.435017
     18          1           0        1.641048   -1.855129    1.441380
     19          1           0        2.039906   -3.656641    4.417561
     20          1           0        1.084931   -4.703023    3.393709
     21          1           0        0.786526   -2.947390    3.369379
 ---------------------------------------------------------------------
                    Distance matrix (angstroms):
                    1          2          3          4          5
     1  C    0.000000
     2  C    1.379840   0.000000
     3  C    2.417154   1.411725   0.000000
     4  C    1.406692   2.425462   2.809709   0.000000
     5  C    2.434568   2.805633   2.424008   1.419316   0.000000
     6  C    2.787140   2.415767   1.380310   2.436598   1.404882
     7  C    2.483460   3.758794   4.280143   1.470699   2.524331
     8  C    3.768570   4.901180   5.101513   2.475727   2.853605
     9  C    4.224389   5.070981   4.880944   2.817715   2.457083
    10  C    3.794240   4.278554   3.763019   2.518364   1.473038
    11  O    2.824956   4.204507   5.042426   2.386488   3.671625
    12  O    4.822766   5.046791   4.215656   3.667549   2.388913
    13  H    1.082687   2.150207   3.408559   2.138136   3.404802
    14  H    3.869737   3.408099   2.151306   3.405845   2.136296
    15  Br   2.849922   1.926936   2.929820   4.185115   4.732066
    16  Br   4.213192   2.930555   1.926522   4.735730   4.183845
    17  C    5.001275   6.243887   6.569443   3.847394   4.358815
    18  H    5.311376   6.127804   5.838767   3.904766   3.430987
    19  H    5.190844   6.478954   6.929099   4.181243   4.853220
    20  H    5.194778   6.482241   6.930808   4.183694   4.853415
    21  H    5.889368   7.055419   7.213922   4.630173   4.870094
                    6          7          8          9         10
     6  C    0.000000
     7  C    3.797801   0.000000
     8  C    4.258441   1.448455   0.000000
     9  C    3.753365   2.467617   1.379703   0.000000
    10  C    2.488525   2.952712   2.494597   1.437923   0.000000
    11  O    4.822736   1.259838   2.374225   3.619957   4.212547
    12  O    2.835776   4.211022   3.640255   2.371707   1.258347
    13  H    3.869636   2.651665   4.084882   4.828780   4.653159
    14  H    1.082824   4.657231   4.863921   4.077444   2.658254
    15  Br   4.212210   5.318038   6.614876   6.942296   6.205096
    16  Br   2.850873   6.206356   6.974292   6.599577   5.324773
    17  C    5.763572   2.518755   1.505331   2.518044   3.870771
    18  H    4.621058   3.451586   2.139967   1.087262   2.144520
    19  H    6.231436   2.801717   2.154227   3.246391   4.515045
    20  H    6.231732   2.805134   2.154370   3.243768   4.512927
    21  H    6.254326   3.445927   2.155538   2.624811   4.062715
                   11         12         13         14         15
    11  O    0.000000
    12  O    5.470846   0.000000
    13  H    2.473202   5.765241   0.000000
    14  H    5.766525   2.488027   4.952071   0.000000
    15  Br   5.409522   6.948436   2.951381   5.081015   0.000000
    16  Br   6.942547   5.426129   5.080683   2.954184   3.452314
    17  C    2.819306   4.889261   5.076903   6.350942   7.835248
    18  H    4.508564   2.594509   5.902626   4.758112   8.013726
    19  H    2.790954   5.564771   5.125910   6.882765   7.952305
    20  H    2.797759   5.561629   5.131269   6.881969   7.956805
    21  H    3.896526   4.868270   6.072179   6.687425   8.739070
                   16         17         18         19         20
    16  Br   0.000000
    17  C    8.459988   0.000000
    18  H    7.466059   2.729090   0.000000
    19  H    8.830519   1.095150   3.501741   0.000000
    20  H    8.831924   1.095228   3.497335   1.747903   0.000000
    21  H    9.048667   1.093140   2.374957   1.781203   1.780979
                   21
    21  H    0.000000
 Symmetry turned off by external request.
 Stoichiometry    C11H6Br2O2(1-,2)
 Framework group  C1[X(C11H6Br2O2)]
 Deg. of freedom    57
 Full point group                 C1      NOp   1
 Rotational constants (GHZ):           0.5716897           0.2130914           0.1553777
 Leave Link  202 at Sun Jan  7 20:11:48 2024, MaxMem=  4026531840 cpu:               0.5 elap:               0.1
 (Enter /sysapps/ubuntu-applications/gaussian/Gaussian/AVX2/g16/l301.exe)
 Standard basis: 6-311++G(d,p) (5D, 7F)
 Ernie: Thresh=  0.10000D-02 Tol=  0.10000D-05 Strict=F.
   424 basis functions,   710 primitive gaussians,   443 cartesian basis functions
    80 alpha electrons       79 beta electrons
       nuclear repulsion energy      1609.2207146761 Hartrees.
 IExCor=  402 DFT=T Ex+Corr=B3LYP ExCW=0 ScaHFX=  0.200000
 ScaDFX=  0.800000  0.720000  1.000000  0.810000 ScalE2=  1.000000  1.000000
 IRadAn=      5 IRanWt=     -1 IRanGd=            0 ICorTp=0 IEmpDi=  4
 NAtoms=   21 NActive=   21 NUniq=   21 SFac= 1.00D+00 NAtFMM=   60 NAOKFM=F Big=F
 Integral buffers will be    131072 words long.
 Raffenetti 2 integral format.
 Two-electron integral symmetry is turned off.
 Leave Link  301 at Sun Jan  7 20:11:48 2024, MaxMem=  4026531840 cpu:               0.5 elap:               0.1
 (Enter /sysapps/ubuntu-applications/gaussian/Gaussian/AVX2/g16/l302.exe)
 NPDir=0 NMtPBC=     1 NCelOv=     1 NCel=       1 NClECP=     1 NCelD=      1
         NCelK=      1 NCelE2=     1 NClLst=     1 CellRange=     0.0.
 One-electron integrals computed using PRISM.
 NBasis=   424 RedAO= T EigKep=  1.40D-06  NBF=   424
 NBsUse=   420 1.00D-06 EigRej=  9.05D-07 NBFU=   420
 Precomputing XC quadrature grid using
 IXCGrd= 4 IRadAn=           5 IRanWt=          -1 IRanGd=           0 AccXCQ= 0.00D+00.
 Generated NRdTot=       0 NPtTot=           0 NUsed=           0 NTot=          32
 NSgBfM=   431   431   431   431   431 MxSgAt=    21 MxSgA2=    21.
 Leave Link  302 at Sun Jan  7 20:11:49 2024, MaxMem=  4026531840 cpu:               6.1 elap:               1.1
 (Enter /sysapps/ubuntu-applications/gaussian/Gaussian/AVX2/g16/l303.exe)
 DipDrv:  MaxL=1.
 Leave Link  303 at Sun Jan  7 20:11:50 2024, MaxMem=  4026531840 cpu:               1.4 elap:               0.3
 (Enter /sysapps/ubuntu-applications/gaussian/Gaussian/AVX2/g16/l401.exe)
 ExpMin= 3.50D-02 ExpMax= 4.40D+05 ExpMxC= 1.51D+04 IAcc=3 IRadAn=         5 AccDes= 0.00D+00
 Harris functional with IExCor=  402 and IRadAn=       5 diagonalized for initial guess.
 HarFok:  IExCor=  402 AccDes= 0.00D+00 IRadAn=         5 IDoV= 1 UseB2=F ITyADJ=14
 ICtDFT=  3500011 ScaDFX=  1.000000  1.000000  1.000000  1.000000
 FoFCou: FMM=F IPFlag=           0 FMFlag=      100000 FMFlg1=           0
         NFxFlg=           0 DoJE=T BraDBF=F KetDBF=T FulRan=T
         wScrn=  0.000000 ICntrl=       500 IOpCl=  0 I1Cent=   200000004 NGrid=           0
         NMat0=    1 NMatS0=      1 NMatT0=    0 NMatD0=    1 NMtDS0=    0 NMtDT0=    0
 Symmetry not used in FoFCou.
 Harris En= -5722.03761321375    
 JPrj=0 DoOrth=F DoCkMO=F.
 Initial guess <Sx>= 0.0000 <Sy>= 0.0000 <Sz>= 0.5000 <S**2>= 0.7500 S= 0.5000
 Leave Link  401 at Sun Jan  7 20:11:54 2024, MaxMem=  4026531840 cpu:              31.8 elap:               4.1
 (Enter /sysapps/ubuntu-applications/gaussian/Gaussian/AVX2/g16/l502.exe)
 Two-electron integral symmetry not used.
 UHF open shell SCF:
 Using DIIS extrapolation, IDIIS=  1040.
 NGot=  4026531840 LenX=  4026132760 LenY=  4025936068
 Requested convergence on RMS density matrix=1.00D-08 within 128 cycles.
 Requested convergence on MAX density matrix=1.00D-06.
 Requested convergence on             energy=1.00D-06.
 No special actions if energy rises.
 Fock matrices will be formed incrementally for  20 cycles.

 Cycle   1  Pass 1  IDiag  1:
 FoFJK:  IHMeth= 1 ICntrl=       0 DoSepK=F KAlg= 0 I1Cent=           0 FoldK=F
 IRaf= 830000000 NMat=       1 IRICut=       1 DoRegI=T DoRafI=F ISym2E= 0 IDoP0=0 IntGTp=1.
 FoFCou: FMM=F IPFlag=           0 FMFlag=      100000 FMFlg1=           0
         NFxFlg=           0 DoJE=F BraDBF=F KetDBF=F FulRan=T
         wScrn=  0.000000 ICntrl=         0 IOpCl=  1 I1Cent=           0 NGrid=           0
         NMat0=    1 NMatS0=      1 NMatT0=    0 NMatD0=    1 NMtDS0=    0 NMtDT0=    0
 Symmetry not used in FoFCou.
 E= -5721.31423229299    
 DIIS: error= 7.01D-02 at cycle   1 NSaved=   1.
 NSaved= 1 IEnMin= 1 EnMin= -5721.31423229299     IErMin= 1 ErrMin= 7.01D-02
 ErrMax= 7.01D-02  0.00D+00 EMaxC= 1.00D-01 BMatC= 1.12D+01 BMatP= 1.12D+01
 IDIUse=3 WtCom= 2.99D-01 WtEn= 7.01D-01
 Coeff-Com:  0.100D+01
 Coeff-En:   0.100D+01
 Coeff:      0.100D+01
 Gap=     0.071 Goal=   None    Shift=    0.000
 Gap=     0.262 Goal=   None    Shift=    0.000
 GapD=    0.071 DampG=0.500 DampE=0.500 DampFc=0.2500 IDamp=-1.
 Damping current iteration by 2.50D-01
 RMSDP=5.26D-01 MaxDP=3.14D+01              OVMax= 9.44D-01

 Cycle   2  Pass 1  IDiag  1:
 RMSU=  1.21D-01    CP:  2.03D+00
 E= -5721.38250119938     Delta-E=       -0.068268906385 Rises=F Damp=T
 DIIS: error= 5.32D-02 at cycle   2 NSaved=   2.
 NSaved= 2 IEnMin= 2 EnMin= -5721.38250119938     IErMin= 2 ErrMin= 5.32D-02
 ErrMax= 5.32D-02  0.00D+00 EMaxC= 1.00D-01 BMatC= 4.79D+00 BMatP= 1.12D+01
 IDIUse=3 WtCom= 4.68D-01 WtEn= 5.32D-01
 Coeff-Com: -0.114D+01 0.214D+01
 Coeff-En:   0.324D+00 0.676D+00
 Coeff:     -0.360D+00 0.136D+01
 Gap=     0.331 Goal=   None    Shift=    0.000
 Gap=    -0.011 Goal=   None    Shift=    0.000
 RMSDP=1.28D-01 MaxDP=7.63D+00 DE=-6.83D-02 OVMax= 6.93D-01

 Cycle   3  Pass 1  IDiag  1:
 RMSU=  3.08D-02    CP:  1.15D+00  3.73D-02
 E= -5721.32183422826     Delta-E=        0.060666971118 Rises=F Damp=F
 DIIS: error= 4.69D-02 at cycle   3 NSaved=   3.
 NSaved= 3 IEnMin= 2 EnMin= -5721.38250119938     IErMin= 3 ErrMin= 4.69D-02
 ErrMax= 4.69D-02  0.00D+00 EMaxC= 1.00D-01 BMatC= 1.66D+00 BMatP= 4.79D+00
 IDIUse=3 WtCom= 5.31D-01 WtEn= 4.69D-01
 Coeff-Com: -0.638D+00 0.108D+01 0.557D+00
 Coeff-En:   0.000D+00 0.561D+00 0.439D+00
 Coeff:     -0.339D+00 0.837D+00 0.502D+00
 Gap=     0.195 Goal=   None    Shift=    0.000
 Gap=     0.154 Goal=   None    Shift=    0.000
 RMSDP=2.82D-02 MaxDP=2.96D+00 DE= 6.07D-02 OVMax= 4.03D-01

 Cycle   4  Pass 1  IDiag  1:
 RMSU=  1.30D-02    CP:  9.65D-01  1.50D-02  2.50D-01
 E= -5721.65048889173     Delta-E=       -0.328654663466 Rises=F Damp=F
 DIIS: error= 2.53D-02 at cycle   4 NSaved=   4.
 NSaved= 4 IEnMin= 4 EnMin= -5721.65048889173     IErMin= 4 ErrMin= 2.53D-02
 ErrMax= 2.53D-02  0.00D+00 EMaxC= 1.00D-01 BMatC= 4.13D-01 BMatP= 1.66D+00
 IDIUse=3 WtCom= 7.47D-01 WtEn= 2.53D-01
 Coeff-Com: -0.173D+00 0.297D+00 0.335D+00 0.542D+00
 Coeff-En:   0.000D+00 0.000D+00 0.216D+00 0.784D+00
 Coeff:     -0.130D+00 0.222D+00 0.305D+00 0.603D+00
 Gap=     0.083 Goal=   None    Shift=    0.000
 Gap=     0.159 Goal=   None    Shift=    0.000
 RMSDP=9.18D-03 MaxDP=8.47D-01 DE=-3.29D-01 OVMax= 1.94D-01

 Cycle   5  Pass 1  IDiag  1:
 RMSU=  7.16D-03    CP:  9.01D-01  8.22D-03  1.25D-01  8.00D-01
 E= -5721.71993708019     Delta-E=       -0.069448188458 Rises=F Damp=F
 DIIS: error= 1.49D-02 at cycle   5 NSaved=   5.
 NSaved= 5 IEnMin= 5 EnMin= -5721.71993708019     IErMin= 5 ErrMin= 1.49D-02
 ErrMax= 1.49D-02  0.00D+00 EMaxC= 1.00D-01 BMatC= 1.21D-01 BMatP= 4.13D-01
 IDIUse=3 WtCom= 8.51D-01 WtEn= 1.49D-01
 Coeff-Com: -0.188D-01 0.396D-01 0.109D+00 0.391D+00 0.479D+00
 Coeff-En:   0.000D+00 0.000D+00 0.000D+00 0.287D+00 0.713D+00
 Coeff:     -0.160D-01 0.337D-01 0.928D-01 0.375D+00 0.514D+00
 Gap=     0.086 Goal=   None    Shift=    0.000
 Gap=     0.154 Goal=   None    Shift=    0.000
 RMSDP=3.97D-03 MaxDP=3.07D-01 DE=-6.94D-02 OVMax= 1.00D-01

 Cycle   6  Pass 1  IDiag  1:
 RMSU=  1.98D-03    CP:  8.83D-01  7.21D-03  1.69D-01  8.07D-01  5.76D-01
 E= -5721.74865299876     Delta-E=       -0.028715918579 Rises=F Damp=F
 DIIS: error= 5.17D-03 at cycle   6 NSaved=   6.
 NSaved= 6 IEnMin= 6 EnMin= -5721.74865299876     IErMin= 6 ErrMin= 5.17D-03
 ErrMax= 5.17D-03  0.00D+00 EMaxC= 1.00D-01 BMatC= 1.49D-02 BMatP= 1.21D-01
 IDIUse=3 WtCom= 9.48D-01 WtEn= 5.17D-02
 Coeff-Com: -0.155D-02 0.516D-02 0.260D-01 0.164D+00 0.330D+00 0.476D+00
 Coeff-En:   0.000D+00 0.000D+00 0.000D+00 0.000D+00 0.855D-01 0.914D+00
 Coeff:     -0.147D-02 0.489D-02 0.246D-01 0.156D+00 0.317D+00 0.499D+00
 Gap=     0.091 Goal=   None    Shift=    0.000
 Gap=     0.142 Goal=   None    Shift=    0.000
 RMSDP=1.63D-03 MaxDP=1.48D-01 DE=-2.87D-02 OVMax= 3.83D-02

 Cycle   7  Pass 1  IDiag  1:
 RMSU=  1.15D-03    CP:  8.98D-01  1.08D-02  1.86D-01  8.09D-01  6.39D-01
                    CP:  8.52D-01
 E= -5721.75169013122     Delta-E=       -0.003037132454 Rises=F Damp=F
 DIIS: error= 1.86D-03 at cycle   7 NSaved=   7.
 NSaved= 7 IEnMin= 7 EnMin= -5721.75169013122     IErMin= 7 ErrMin= 1.86D-03
 ErrMax= 1.86D-03  0.00D+00 EMaxC= 1.00D-01 BMatC= 2.63D-03 BMatP= 1.49D-02
 IDIUse=3 WtCom= 9.81D-01 WtEn= 1.86D-02
 Coeff-Com:  0.958D-03-0.177D-02 0.527D-03 0.242D-01 0.105D+00 0.336D+00
 Coeff-Com:  0.536D+00
 Coeff-En:   0.000D+00 0.000D+00 0.000D+00 0.000D+00 0.000D+00 0.149D+00
 Coeff-En:   0.851D+00
 Coeff:      0.941D-03-0.174D-02 0.517D-03 0.238D-01 0.103D+00 0.332D+00
 Coeff:      0.542D+00
 Gap=     0.092 Goal=   None    Shift=    0.000
 Gap=     0.142 Goal=   None    Shift=    0.000
 RMSDP=6.83D-04 MaxDP=5.96D-02 DE=-3.04D-03 OVMax= 1.06D-02

 Cycle   8  Pass 1  IDiag  1:
 RMSU=  3.49D-04    CP:  8.92D-01  9.72D-03  1.80D-01  8.02D-01  6.26D-01
                    CP:  9.03D-01  6.55D-01
 E= -5721.75227629706     Delta-E=       -0.000586165837 Rises=F Damp=F
 DIIS: error= 4.52D-04 at cycle   8 NSaved=   8.
 NSaved= 8 IEnMin= 8 EnMin= -5721.75227629706     IErMin= 8 ErrMin= 4.52D-04
 ErrMax= 4.52D-04  0.00D+00 EMaxC= 1.00D-01 BMatC= 3.26D-04 BMatP= 2.63D-03
 IDIUse=3 WtCom= 9.95D-01 WtEn= 4.52D-03
 EnCoef did     2 forward-backward iterations
 Coeff-Com: -0.729D-03 0.795D-03-0.277D-02-0.856D-02 0.188D-01 0.142D+00
 Coeff-Com:  0.330D+00 0.521D+00
 Coeff-En:   0.000D+00 0.000D+00 0.000D+00 0.000D+00 0.000D+00 0.000D+00
 Coeff-En:   0.132D-02 0.999D+00
 Coeff:     -0.726D-03 0.791D-03-0.275D-02-0.853D-02 0.187D-01 0.141D+00
 Coeff:      0.328D+00 0.523D+00
 Gap=     0.092 Goal=   None    Shift=    0.000
 Gap=     0.142 Goal=   None    Shift=    0.000
 RMSDP=1.61D-04 MaxDP=1.37D-02 DE=-5.86D-04 OVMax= 4.89D-03

 Cycle   9  Pass 1  IDiag  1:
 RMSU=  1.10D-04    CP:  8.93D-01  9.87D-03  1.80D-01  7.98D-01  6.37D-01
                    CP:  9.07D-01  7.06D-01  9.28D-01
 E= -5721.75235578477     Delta-E=       -0.000079487718 Rises=F Damp=F
 DIIS: error= 3.00D-04 at cycle   9 NSaved=   9.
 NSaved= 9 IEnMin= 9 EnMin= -5721.75235578477     IErMin= 9 ErrMin= 3.00D-04
 ErrMax= 3.00D-04  0.00D+00 EMaxC= 1.00D-01 BMatC= 4.22D-05 BMatP= 3.26D-04
 IDIUse=3 WtCom= 9.97D-01 WtEn= 3.00D-03
 Coeff-Com: -0.697D-03 0.913D-03-0.206D-02-0.724D-02-0.414D-02 0.211D-01
 Coeff-Com:  0.706D-01 0.257D+00 0.664D+00
 Coeff-En:   0.000D+00 0.000D+00 0.000D+00 0.000D+00 0.000D+00 0.000D+00
 Coeff-En:   0.000D+00 0.000D+00 0.100D+01
 Coeff:     -0.695D-03 0.910D-03-0.206D-02-0.722D-02-0.413D-02 0.210D-01
 Coeff:      0.704D-01 0.257D+00 0.665D+00
 Gap=     0.092 Goal=   None    Shift=    0.000
 Gap=     0.141 Goal=   None    Shift=    0.000
 RMSDP=7.88D-05 MaxDP=5.57D-03 DE=-7.95D-05 OVMax= 3.06D-03

 Cycle  10  Pass 1  IDiag  1:
 RMSU=  5.97D-05    CP:  8.92D-01  9.87D-03  1.81D-01  7.98D-01  6.32D-01
                    CP:  9.17D-01  7.10D-01  9.47D-01  8.46D-01
 E= -5721.75236786960     Delta-E=       -0.000012084829 Rises=F Damp=F
 DIIS: error= 2.04D-04 at cycle  10 NSaved=  10.
 NSaved=10 IEnMin=10 EnMin= -5721.75236786960     IErMin=10 ErrMin= 2.04D-04
 ErrMax= 2.04D-04  0.00D+00 EMaxC= 1.00D-01 BMatC= 2.75D-05 BMatP= 4.22D-05
 IDIUse=3 WtCom= 9.98D-01 WtEn= 2.04D-03
 Coeff-Com: -0.682D-05 0.156D-04 0.174D-03-0.127D-02-0.131D-01-0.511D-01
 Coeff-Com: -0.981D-01-0.192D-01 0.539D+00 0.644D+00
 Coeff-En:   0.000D+00 0.000D+00 0.000D+00 0.000D+00 0.000D+00 0.000D+00
 Coeff-En:   0.000D+00 0.000D+00 0.873D-01 0.913D+00
 Coeff:     -0.681D-05 0.156D-04 0.174D-03-0.126D-02-0.131D-01-0.510D-01
 Coeff:     -0.979D-01-0.191D-01 0.538D+00 0.645D+00
 Gap=     0.092 Goal=   None    Shift=    0.000
 Gap=     0.142 Goal=   None    Shift=    0.000
 RMSDP=6.77D-05 MaxDP=7.53D-03 DE=-1.21D-05 OVMax= 1.94D-03

 Cycle  11  Pass 1  IDiag  1:
 RMSU=  4.56D-05    CP:  8.92D-01  9.80D-03  1.81D-01  7.96D-01  6.33D-01
                    CP:  9.22D-01  7.09D-01  9.67D-01  1.10D+00  1.11D+00
 E= -5721.75237714641     Delta-E=       -0.000009276807 Rises=F Damp=F
 DIIS: error= 6.36D-05 at cycle  11 NSaved=  11.
 NSaved=11 IEnMin=11 EnMin= -5721.75237714641     IErMin=11 ErrMin= 6.36D-05
 ErrMax= 6.36D-05  0.00D+00 EMaxC= 1.00D-01 BMatC= 3.28D-06 BMatP= 2.75D-05
 IDIUse=1 WtCom= 1.00D+00 WtEn= 0.00D+00
 Coeff-Com:  0.149D-03-0.174D-03 0.648D-03-0.194D-03-0.693D-02-0.311D-01
 Coeff-Com: -0.628D-01-0.482D-01 0.151D+00 0.322D+00 0.675D+00
 Coeff:      0.149D-03-0.174D-03 0.648D-03-0.194D-03-0.693D-02-0.311D-01
 Coeff:     -0.628D-01-0.482D-01 0.151D+00 0.322D+00 0.675D+00
 Gap=     0.092 Goal=   None    Shift=    0.000
 Gap=     0.142 Goal=   None    Shift=    0.000
 RMSDP=2.91D-05 MaxDP=2.19D-03 DE=-9.28D-06 OVMax= 6.78D-04

 Cycle  12  Pass 1  IDiag  1:
 RMSU=  1.44D-05    CP:  8.92D-01  9.83D-03  1.81D-01  7.96D-01  6.34D-01
                    CP:  9.21D-01  7.08D-01  1.02D+00  1.20D+00  1.23D+00
                    CP:  8.81D-01
 E= -5721.75237836670     Delta-E=       -0.000001220294 Rises=F Damp=F
 DIIS: error= 3.19D-05 at cycle  12 NSaved=  12.
 NSaved=12 IEnMin=12 EnMin= -5721.75237836670     IErMin=12 ErrMin= 3.19D-05
 ErrMax= 3.19D-05  0.00D+00 EMaxC= 1.00D-01 BMatC= 1.19D-06 BMatP= 3.28D-06
 IDIUse=1 WtCom= 1.00D+00 WtEn= 0.00D+00
 Coeff-Com:  0.207D-03-0.259D-03 0.498D-03-0.583D-04-0.170D-02-0.861D-02
 Coeff-Com: -0.174D-01-0.239D-01-0.257D-01 0.448D-01 0.424D+00 0.608D+00
 Coeff:      0.207D-03-0.259D-03 0.498D-03-0.583D-04-0.170D-02-0.861D-02
 Coeff:     -0.174D-01-0.239D-01-0.257D-01 0.448D-01 0.424D+00 0.608D+00
 Gap=     0.092 Goal=   None    Shift=    0.000
 Gap=     0.142 Goal=   None    Shift=    0.000
 RMSDP=1.65D-05 MaxDP=1.74D-03 DE=-1.22D-06 OVMax= 2.82D-04

 Cycle  13  Pass 1  IDiag  1:
 RMSU=  8.18D-06    CP:  8.92D-01  9.85D-03  1.81D-01  7.95D-01  6.34D-01
                    CP:  9.21D-01  7.11D-01  1.04D+00  1.22D+00  1.29D+00
                    CP:  9.31D-01  1.11D+00
 E= -5721.75237871086     Delta-E=       -0.000000344156 Rises=F Damp=F
 DIIS: error= 9.90D-06 at cycle  13 NSaved=  13.
 NSaved=13 IEnMin=13 EnMin= -5721.75237871086     IErMin=13 ErrMin= 9.90D-06
 ErrMax= 9.90D-06  0.00D+00 EMaxC= 1.00D-01 BMatC= 1.20D-07 BMatP= 1.19D-06
 IDIUse=1 WtCom= 1.00D+00 WtEn= 0.00D+00
 Coeff-Com:  0.151D-03-0.198D-03 0.197D-03 0.127D-04 0.228D-04-0.654D-03
 Coeff-Com: -0.142D-02-0.667D-02-0.269D-01-0.197D-01 0.121D+00 0.284D+00
 Coeff-Com:  0.650D+00
 Coeff:      0.151D-03-0.198D-03 0.197D-03 0.127D-04 0.228D-04-0.654D-03
 Coeff:     -0.142D-02-0.667D-02-0.269D-01-0.197D-01 0.121D+00 0.284D+00
 Coeff:      0.650D+00
 Gap=     0.092 Goal=   None    Shift=    0.000
 Gap=     0.142 Goal=   None    Shift=    0.000
 RMSDP=7.15D-06 MaxDP=5.56D-04 DE=-3.44D-07 OVMax= 1.11D-04

 Cycle  14  Pass 1  IDiag  1:
 RMSU=  4.72D-06    CP:  8.92D-01  9.84D-03  1.81D-01  7.95D-01  6.33D-01
                    CP:  9.21D-01  7.12D-01  1.04D+00  1.23D+00  1.33D+00
                    CP:  9.69D-01  1.05D+00  8.34D-01
 E= -5721.75237873917     Delta-E=       -0.000000028309 Rises=F Damp=F
 DIIS: error= 7.51D-06 at cycle  14 NSaved=  14.
 NSaved=14 IEnMin=14 EnMin= -5721.75237873917     IErMin=14 ErrMin= 7.51D-06
 ErrMax= 7.51D-06  0.00D+00 EMaxC= 1.00D-01 BMatC= 3.92D-08 BMatP= 1.20D-07
 IDIUse=1 WtCom= 1.00D+00 WtEn= 0.00D+00
 Coeff-Com:  0.674D-04-0.936D-04 0.282D-05 0.122D-04 0.436D-03 0.152D-02
 Coeff-Com:  0.315D-02 0.109D-02-0.670D-02-0.219D-01-0.268D-01 0.148D-01
 Coeff-Com:  0.404D+00 0.630D+00
 Coeff:      0.674D-04-0.936D-04 0.282D-05 0.122D-04 0.436D-03 0.152D-02
 Coeff:      0.315D-02 0.109D-02-0.670D-02-0.219D-01-0.268D-01 0.148D-01
 Coeff:      0.404D+00 0.630D+00
 Gap=     0.092 Goal=   None    Shift=    0.000
 Gap=     0.142 Goal=   None    Shift=    0.000
 RMSDP=2.03D-06 MaxDP=1.86D-04 DE=-2.83D-08 OVMax= 5.92D-05

 Cycle  15  Pass 1  IDiag  1:
 RMSU=  1.05D-06    CP:  8.92D-01  9.84D-03  1.81D-01  7.95D-01  6.33D-01
                    CP:  9.21D-01  7.12D-01  1.04D+00  1.23D+00  1.34D+00
                    CP:  9.70D-01  1.06D+00  9.86D-01  9.72D-01
 E= -5721.75237875134     Delta-E=       -0.000000012174 Rises=F Damp=F
 DIIS: error= 2.17D-06 at cycle  15 NSaved=  15.
 NSaved=15 IEnMin=15 EnMin= -5721.75237875134     IErMin=15 ErrMin= 2.17D-06
 ErrMax= 2.17D-06  0.00D+00 EMaxC= 1.00D-01 BMatC= 4.78D-09 BMatP= 3.92D-08
 IDIUse=1 WtCom= 1.00D+00 WtEn= 0.00D+00
 Coeff-Com:  0.114D-04-0.174D-04-0.264D-04 0.821D-05 0.217D-03 0.699D-03
 Coeff-Com:  0.159D-02 0.128D-02 0.310D-02-0.639D-02-0.325D-01-0.440D-01
 Coeff-Com:  0.842D-01 0.292D+00 0.700D+00
 Coeff:      0.114D-04-0.174D-04-0.264D-04 0.821D-05 0.217D-03 0.699D-03
 Coeff:      0.159D-02 0.128D-02 0.310D-02-0.639D-02-0.325D-01-0.440D-01
 Coeff:      0.842D-01 0.292D+00 0.700D+00
 Gap=     0.092 Goal=   None    Shift=    0.000
 Gap=     0.142 Goal=   None    Shift=    0.000
 RMSDP=1.55D-06 MaxDP=1.52D-04 DE=-1.22D-08 OVMax= 2.74D-05

 Cycle  16  Pass 1  IDiag  1:
 RMSU=  5.99D-07    CP:  8.92D-01  9.84D-03  1.81D-01  7.95D-01  6.33D-01
                    CP:  9.21D-01  7.12D-01  1.04D+00  1.23D+00  1.33D+00
                    CP:  9.65D-01  1.11D+00  9.97D-01  9.84D-01  7.78D-01
 E= -5721.75237875302     Delta-E=       -0.000000001681 Rises=F Damp=F
 DIIS: error= 1.67D-06 at cycle  16 NSaved=  16.
 NSaved=16 IEnMin=16 EnMin= -5721.75237875302     IErMin=16 ErrMin= 1.67D-06
 ErrMax= 1.67D-06  0.00D+00 EMaxC= 1.00D-01 BMatC= 1.48D-09 BMatP= 4.78D-09
 IDIUse=1 WtCom= 1.00D+00 WtEn= 0.00D+00
 Coeff-Com: -0.421D-05 0.480D-05-0.158D-04 0.100D-05 0.554D-04 0.101D-03
 Coeff-Com:  0.363D-03 0.419D-03 0.321D-02 0.297D-03-0.135D-01-0.276D-01
 Coeff-Com: -0.257D-01 0.507D-01 0.411D+00 0.600D+00
 Coeff:     -0.421D-05 0.480D-05-0.158D-04 0.100D-05 0.554D-04 0.101D-03
 Coeff:      0.363D-03 0.419D-03 0.321D-02 0.297D-03-0.135D-01-0.276D-01
 Coeff:     -0.257D-01 0.507D-01 0.411D+00 0.600D+00
 Gap=     0.092 Goal=   None    Shift=    0.000
 Gap=     0.142 Goal=   None    Shift=    0.000
 RMSDP=4.91D-07 MaxDP=3.94D-05 DE=-1.68D-09 OVMax= 1.61D-05

 Cycle  17  Pass 1  IDiag  1:
 RMSU=  1.92D-07    CP:  8.92D-01  9.85D-03  1.81D-01  7.95D-01  6.33D-01
                    CP:  9.21D-01  7.12D-01  1.04D+00  1.23D+00  1.33D+00
                    CP:  9.67D-01  1.09D+00  1.00D+00  9.99D-01  1.00D+00
                    CP:  8.33D-01
 E= -5721.75237875373     Delta-E=       -0.000000000711 Rises=F Damp=F
 DIIS: error= 7.65D-07 at cycle  17 NSaved=  17.
 NSaved=17 IEnMin=17 EnMin= -5721.75237875373     IErMin=17 ErrMin= 7.65D-07
 ErrMax= 7.65D-07  0.00D+00 EMaxC= 1.00D-01 BMatC= 3.03D-10 BMatP= 1.48D-09
 IDIUse=1 WtCom= 1.00D+00 WtEn= 0.00D+00
 Coeff-Com: -0.102D-04 0.141D-04 0.204D-05-0.667D-05-0.485D-04-0.186D-03
 Coeff-Com: -0.288D-03-0.212D-03 0.242D-03 0.214D-02 0.497D-02 0.323D-02
 Coeff-Com: -0.468D-01-0.868D-01-0.571D-01 0.274D+00 0.907D+00
 Coeff:     -0.102D-04 0.141D-04 0.204D-05-0.667D-05-0.485D-04-0.186D-03
 Coeff:     -0.288D-03-0.212D-03 0.242D-03 0.214D-02 0.497D-02 0.323D-02
 Coeff:     -0.468D-01-0.868D-01-0.571D-01 0.274D+00 0.907D+00
 Gap=     0.092 Goal=   None    Shift=    0.000
 Gap=     0.142 Goal=   None    Shift=    0.000
 RMSDP=3.71D-07 MaxDP=2.57D-05 DE=-7.11D-10 OVMax= 1.17D-05

 Cycle  18  Pass 1  IDiag  1:
 RMSU=  1.29D-07    CP:  8.92D-01  9.85D-03  1.81D-01  7.95D-01  6.33D-01
                    CP:  9.21D-01  7.12D-01  1.04D+00  1.23D+00  1.33D+00
                    CP:  9.67D-01  1.09D+00  1.00D+00  1.02D+00  1.02D+00
                    CP:  9.92D-01  8.54D-01
 E= -5721.75237875404     Delta-E=       -0.000000000306 Rises=F Damp=F
 DIIS: error= 4.39D-07 at cycle  18 NSaved=  18.
 NSaved=18 IEnMin=18 EnMin= -5721.75237875404     IErMin=18 ErrMin= 4.39D-07
 ErrMax= 4.39D-07  0.00D+00 EMaxC= 1.00D-01 BMatC= 8.37D-11 BMatP= 3.03D-10
 IDIUse=1 WtCom= 1.00D+00 WtEn= 0.00D+00
 Coeff-Com: -0.422D-05 0.615D-05 0.415D-05-0.390D-05-0.355D-04-0.103D-03
 Coeff-Com: -0.193D-03-0.224D-03-0.803D-03 0.565D-03 0.602D-02 0.954D-02
 Coeff-Com: -0.115D-01-0.486D-01-0.131D+00-0.739D-01 0.364D+00 0.887D+00
 Coeff:     -0.422D-05 0.615D-05 0.415D-05-0.390D-05-0.355D-04-0.103D-03
 Coeff:     -0.193D-03-0.224D-03-0.803D-03 0.565D-03 0.602D-02 0.954D-02
 Coeff:     -0.115D-01-0.486D-01-0.131D+00-0.739D-01 0.364D+00 0.887D+00
 Gap=     0.092 Goal=   None    Shift=    0.000
 Gap=     0.142 Goal=   None    Shift=    0.000
 RMSDP=1.84D-07 MaxDP=1.86D-05 DE=-3.06D-10 OVMax= 7.60D-06

 Cycle  19  Pass 1  IDiag  1:
 RMSU=  6.58D-08    CP:  8.92D-01  9.85D-03  1.81D-01  7.95D-01  6.34D-01
                    CP:  9.21D-01  7.12D-01  1.04D+00  1.23D+00  1.33D+00
                    CP:  9.67D-01  1.09D+00  9.97D-01  1.03D+00  1.03D+00
                    CP:  9.93D-01  1.14D+00  1.05D+00
 E= -5721.75237875414     Delta-E=       -0.000000000104 Rises=F Damp=F
 DIIS: error= 1.75D-07 at cycle  19 NSaved=  19.
 NSaved=19 IEnMin=19 EnMin= -5721.75237875414     IErMin=19 ErrMin= 1.75D-07
 ErrMax= 1.75D-07  0.00D+00 EMaxC= 1.00D-01 BMatC= 2.51D-11 BMatP= 8.37D-11
 IDIUse=1 WtCom= 1.00D+00 WtEn= 0.00D+00
 Coeff-Com:  0.755D-06-0.913D-06 0.150D-05 0.862D-06-0.239D-05-0.152D-05
 Coeff-Com: -0.129D-04-0.841D-04-0.505D-03-0.486D-03 0.177D-02 0.391D-02
 Coeff-Com:  0.847D-02 0.735D-03-0.492D-01-0.116D+00-0.654D-01 0.467D+00
 Coeff-Com:  0.750D+00
 Coeff:      0.755D-06-0.913D-06 0.150D-05 0.862D-06-0.239D-05-0.152D-05
 Coeff:     -0.129D-04-0.841D-04-0.505D-03-0.486D-03 0.177D-02 0.391D-02
 Coeff:      0.847D-02 0.735D-03-0.492D-01-0.116D+00-0.654D-01 0.467D+00
 Coeff:      0.750D+00
 Gap=     0.092 Goal=   None    Shift=    0.000
 Gap=     0.142 Goal=   None    Shift=    0.000
 RMSDP=1.04D-07 MaxDP=9.11D-06 DE=-1.04D-10 OVMax= 3.88D-06

 Cycle  20  Pass 1  IDiag  1:
 RMSU=  3.53D-08    CP:  8.92D-01  9.85D-03  1.81D-01  7.95D-01  6.34D-01
                    CP:  9.21D-01  7.12D-01  1.04D+00  1.23D+00  1.33D+00
                    CP:  9.68D-01  1.09D+00  9.96D-01  1.02D+00  1.05D+00
                    CP:  9.86D-01  1.20D+00  1.19D+00  1.20D+00
 E= -5721.75237875415     Delta-E=       -0.000000000008 Rises=F Damp=F
 DIIS: error= 9.38D-08 at cycle  20 NSaved=  20.
 NSaved=20 IEnMin=20 EnMin= -5721.75237875415     IErMin=20 ErrMin= 9.38D-08
 ErrMax= 9.38D-08  0.00D+00 EMaxC= 1.00D-01 BMatC= 4.85D-12 BMatP= 2.51D-11
 IDIUse=1 WtCom= 1.00D+00 WtEn= 0.00D+00
 Coeff-Com:  0.124D-05-0.171D-05-0.988D-07 0.111D-05 0.636D-05 0.155D-04
 Coeff-Com:  0.283D-04 0.395D-05 0.164D-04-0.286D-03-0.479D-03-0.780D-03
 Coeff-Com:  0.540D-02 0.941D-02 0.559D-02-0.285D-01-0.105D+00 0.158D-01
 Coeff-Com:  0.283D+00 0.817D+00
 Coeff:      0.124D-05-0.171D-05-0.988D-07 0.111D-05 0.636D-05 0.155D-04
 Coeff:      0.283D-04 0.395D-05 0.164D-04-0.286D-03-0.479D-03-0.780D-03
 Coeff:      0.540D-02 0.941D-02 0.559D-02-0.285D-01-0.105D+00 0.158D-01
 Coeff:      0.283D+00 0.817D+00
 Gap=     0.092 Goal=   None    Shift=    0.000
 Gap=     0.142 Goal=   None    Shift=    0.000
 RMSDP=5.00D-08 MaxDP=3.65D-06 DE=-8.19D-12 OVMax= 1.61D-06

 Cycle  21  Pass 1  IDiag  1:
 Restarting incremental Fock formation.
 E= -5721.75237875414     Delta-E=        0.000000000012 Rises=F Damp=F
 DIIS: error= 4.79D-08 at cycle  21 NSaved=  20.
 NSaved=20 IEnMin=19 EnMin= -5721.75237875415     IErMin=20 ErrMin= 4.79D-08
 ErrMax= 4.79D-08  0.00D+00 EMaxC= 1.00D-01 BMatC= 2.06D-12 BMatP= 4.85D-12
 IDIUse=1 WtCom= 1.00D+00 WtEn= 0.00D+00
 Coeff-Com:  0.114D-07-0.130D-06 0.715D-07 0.163D-05 0.178D-05 0.706D-05
 Coeff-Com:  0.238D-04 0.164D-03 0.691D-04-0.592D-03-0.151D-02-0.503D-03
 Coeff-Com:  0.226D-02 0.123D-01 0.158D-01-0.286D-01-0.867D-01-0.319D-01
 Coeff-Com:  0.468D+00 0.651D+00
 Coeff:      0.114D-07-0.130D-06 0.715D-07 0.163D-05 0.178D-05 0.706D-05
 Coeff:      0.238D-04 0.164D-03 0.691D-04-0.592D-03-0.151D-02-0.503D-03
 Coeff:      0.226D-02 0.123D-01 0.158D-01-0.286D-01-0.867D-01-0.319D-01
 Coeff:      0.468D+00 0.651D+00
 Gap=     0.092 Goal=   None    Shift=    0.000
 Gap=     0.142 Goal=   None    Shift=    0.000
 RMSDP=2.76D-08 MaxDP=1.91D-06 DE= 1.18D-11 OVMax= 7.05D-07

 Cycle  22  Pass 1  IDiag  1:
 RMSU=  2.58D-08    CP:  1.00D+00
 E= -5721.75237875416     Delta-E=       -0.000000000022 Rises=F Damp=F
 DIIS: error= 2.77D-08 at cycle  22 NSaved=  20.
 NSaved=20 IEnMin=20 EnMin= -5721.75237875416     IErMin=20 ErrMin= 2.77D-08
 ErrMax= 2.77D-08  0.00D+00 EMaxC= 1.00D-01 BMatC= 4.73D-13 BMatP= 2.06D-12
 IDIUse=1 WtCom= 1.00D+00 WtEn= 0.00D+00
 Coeff-Com: -0.224D-07-0.924D-07 0.340D-06 0.900D-06 0.190D-05 0.110D-04
 Coeff-Com:  0.429D-04 0.676D-04-0.235D-03-0.509D-03-0.987D-04 0.868D-03
 Coeff-Com:  0.662D-02 0.114D-01-0.175D-02-0.541D-01-0.814D-01 0.408D-01
 Coeff-Com:  0.323D+00 0.755D+00
 Coeff:     -0.224D-07-0.924D-07 0.340D-06 0.900D-06 0.190D-05 0.110D-04
 Coeff:      0.429D-04 0.676D-04-0.235D-03-0.509D-03-0.987D-04 0.868D-03
 Coeff:      0.662D-02 0.114D-01-0.175D-02-0.541D-01-0.814D-01 0.408D-01
 Coeff:      0.323D+00 0.755D+00
 Gap=     0.092 Goal=   None    Shift=    0.000
 Gap=     0.142 Goal=   None    Shift=    0.000
 RMSDP=1.43D-08 MaxDP=8.74D-07 DE=-2.18D-11 OVMax= 3.99D-07

 Cycle  23  Pass 1  IDiag  1:
 RMSU=  1.10D-08    CP:  1.00D+00  6.67D-01
 E= -5721.75237875414     Delta-E=        0.000000000025 Rises=F Damp=F
 DIIS: error= 9.49D-09 at cycle  23 NSaved=  20.
 NSaved=20 IEnMin=19 EnMin= -5721.75237875416     IErMin=20 ErrMin= 9.49D-09
 ErrMax= 9.49D-09  0.00D+00 EMaxC= 1.00D-01 BMatC= 7.40D-14 BMatP= 4.73D-13
 IDIUse=1 WtCom= 1.00D+00 WtEn= 0.00D+00
 Coeff-Com:  0.597D-07-0.295D-06-0.820D-07-0.255D-05-0.335D-05-0.352D-04
 Coeff-Com:  0.167D-04 0.973D-04 0.230D-03-0.924D-05-0.736D-03-0.147D-02
 Coeff-Com: -0.917D-03 0.838D-02 0.858D-02-0.107D-01-0.956D-01-0.108D+00
 Coeff-Com:  0.152D+00 0.105D+01
 Coeff:      0.597D-07-0.295D-06-0.820D-07-0.255D-05-0.335D-05-0.352D-04
 Coeff:      0.167D-04 0.973D-04 0.230D-03-0.924D-05-0.736D-03-0.147D-02
 Coeff:     -0.917D-03 0.838D-02 0.858D-02-0.107D-01-0.956D-01-0.108D+00
 Coeff:      0.152D+00 0.105D+01
 Gap=     0.092 Goal=   None    Shift=    0.000
 Gap=     0.142 Goal=   None    Shift=    0.000
 RMSDP=5.50D-09 MaxDP=5.46D-07 DE= 2.55D-11 OVMax= 2.22D-07

 SCF Done:  E(UB3LYP) =  -5721.75237875     A.U. after   23 cycles
            NFock= 23  Conv=0.55D-08     -V/T= 2.0015
 <Sx>= 0.0000 <Sy>= 0.0000 <Sz>= 0.5000 <S**2>= 0.7607 S= 0.5053
 <L.S>=  0.00000000000    
 KE= 5.713264308921D+03 PE=-1.688196849425D+04 EE= 3.837731091896D+03
 Annihilation of the first spin contaminant:
 S**2 before annihilation     0.7607,   after     0.7500
 Leave Link  502 at Sun Jan  7 20:16:43 2024, MaxMem=  4026531840 cpu:            2307.9 elap:             289.4
 (Enter /sysapps/ubuntu-applications/gaussian/Gaussian/AVX2/g16/l601.exe)
 Copying SCF densities to generalized density rwf, IOpCl= 1 IROHF=0.

 **********************************************************************

            Population analysis using the SCF density.

 **********************************************************************

 Alpha  occ. eigenvalues -- -482.73236-482.73230 -62.38521 -62.38514 -56.20550
 Alpha  occ. eigenvalues --  -56.20543 -56.20176 -56.20170 -56.20158 -56.20151
 Alpha  occ. eigenvalues --  -18.95532 -18.95379 -10.13257 -10.13197 -10.10265
 Alpha  occ. eigenvalues --  -10.10188 -10.07551 -10.07532 -10.06714 -10.06633
 Alpha  occ. eigenvalues --  -10.05916 -10.05382 -10.04503  -8.59489  -8.59482
 Alpha  occ. eigenvalues --   -6.42609  -6.42602  -6.41360  -6.41353  -6.41315
 Alpha  occ. eigenvalues --   -6.41309  -2.53706  -2.53699  -2.53353  -2.53346
 Alpha  occ. eigenvalues --   -2.53322  -2.53315  -2.52327  -2.52326  -2.52320
 Alpha  occ. eigenvalues --   -2.52319  -0.88021  -0.87672  -0.77984  -0.71757
 Alpha  occ. eigenvalues --   -0.70542  -0.68600  -0.63816  -0.62983  -0.58684
 Alpha  occ. eigenvalues --   -0.54659  -0.51166  -0.48460  -0.44732  -0.39663
 Alpha  occ. eigenvalues --   -0.37758  -0.36629  -0.33571  -0.32880  -0.31783
 Alpha  occ. eigenvalues --   -0.31449  -0.29848  -0.29473  -0.27965  -0.27649
 Alpha  occ. eigenvalues --   -0.26795  -0.26683  -0.25233  -0.24365  -0.23578
 Alpha  occ. eigenvalues --   -0.21749  -0.20987  -0.20138  -0.18186  -0.15270
 Alpha  occ. eigenvalues --   -0.14756  -0.13431  -0.12274  -0.11560  -0.03391
 Alpha virt. eigenvalues --    0.05839   0.06876   0.08605   0.08629   0.09064
 Alpha virt. eigenvalues --    0.09652   0.11080   0.12090   0.12340   0.12621
 Alpha virt. eigenvalues --    0.13232   0.13478   0.13740   0.14314   0.15350
 Alpha virt. eigenvalues --    0.16050   0.16057   0.16541   0.17204   0.17349
 Alpha virt. eigenvalues --    0.17563   0.18359   0.18601   0.19944   0.20178
 Alpha virt. eigenvalues --    0.20703   0.20833   0.21177   0.21896   0.22432
 Alpha virt. eigenvalues --    0.22528   0.23267   0.23513   0.24067   0.24097
 Alpha virt. eigenvalues --    0.25175   0.25515   0.26140   0.26760   0.26832
 Alpha virt. eigenvalues --    0.27235   0.27255   0.28604   0.28939   0.29098
 Alpha virt. eigenvalues --    0.29973   0.30134   0.31173   0.31544   0.32073
 Alpha virt. eigenvalues --    0.32219   0.32248   0.33025   0.33771   0.34356
 Alpha virt. eigenvalues --    0.34468   0.34661   0.35246   0.36501   0.37154
 Alpha virt. eigenvalues --    0.37244   0.37902   0.38498   0.38733   0.40224
 Alpha virt. eigenvalues --    0.40722   0.41394   0.42592   0.42737   0.42857
 Alpha virt. eigenvalues --    0.43042   0.44130   0.44404   0.44595   0.45201
 Alpha virt. eigenvalues --    0.45634   0.46273   0.47296   0.48399   0.49143
 Alpha virt. eigenvalues --    0.50224   0.50735   0.52228   0.52586   0.53353
 Alpha virt. eigenvalues --    0.53358   0.54360   0.56064   0.56176   0.57098
 Alpha virt. eigenvalues --    0.58035   0.61695   0.63211   0.63235   0.63658
 Alpha virt. eigenvalues --    0.66350   0.66885   0.67062   0.67174   0.68243
 Alpha virt. eigenvalues --    0.68530   0.69192   0.70230   0.71355   0.71845
 Alpha virt. eigenvalues --    0.71998   0.73367   0.73513   0.74798   0.75148
 Alpha virt. eigenvalues --    0.75676   0.76116   0.76463   0.76551   0.77876
 Alpha virt. eigenvalues --    0.78556   0.79917   0.80401   0.81029   0.81393
 Alpha virt. eigenvalues --    0.82249   0.83206   0.85451   0.86057   0.87613
 Alpha virt. eigenvalues --    0.87661   0.88083   0.89081   0.90431   0.93170
 Alpha virt. eigenvalues --    0.93312   0.93654   0.94558   0.94832   0.98176
 Alpha virt. eigenvalues --    0.99409   1.01205   1.02560   1.02991   1.04268
 Alpha virt. eigenvalues --    1.04998   1.06593   1.06988   1.08579   1.08736
 Alpha virt. eigenvalues --    1.08846   1.10526   1.12694   1.13188   1.13962
 Alpha virt. eigenvalues --    1.15185   1.18168   1.18415   1.21306   1.21911
 Alpha virt. eigenvalues --    1.23956   1.25206   1.26336   1.27762   1.27869
 Alpha virt. eigenvalues --    1.32187   1.34583   1.34884   1.35612   1.36326
 Alpha virt. eigenvalues --    1.37199   1.38297   1.39351   1.43497   1.44847
 Alpha virt. eigenvalues --    1.45615   1.49134   1.50709   1.54177   1.57222
 Alpha virt. eigenvalues --    1.58345   1.61013   1.61433   1.61485   1.65275
 Alpha virt. eigenvalues --    1.65640   1.66117   1.66938   1.69246   1.72431
 Alpha virt. eigenvalues --    1.72577   1.73128   1.78177   1.79028   1.79736
 Alpha virt. eigenvalues --    1.80340   1.83548   1.84208   1.87001   1.91503
 Alpha virt. eigenvalues --    1.91969   1.93226   1.96346   1.96633   1.97291
 Alpha virt. eigenvalues --    1.99722   2.00980   2.02152   2.04902   2.04983
 Alpha virt. eigenvalues --    2.05363   2.08643   2.09013   2.11436   2.12253
 Alpha virt. eigenvalues --    2.13559   2.14650   2.16214   2.16863   2.18186
 Alpha virt. eigenvalues --    2.20728   2.23554   2.25379   2.26658   2.30653
 Alpha virt. eigenvalues --    2.30990   2.34271   2.34818   2.35372   2.39208
 Alpha virt. eigenvalues --    2.40369   2.44947   2.44995   2.48050   2.49413
 Alpha virt. eigenvalues --    2.50194   2.53252   2.56496   2.60266   2.65504
 Alpha virt. eigenvalues --    2.67071   2.68945   2.72305   2.74816   2.76698
 Alpha virt. eigenvalues --    2.77761   2.79041   2.80139   2.81170   2.85964
 Alpha virt. eigenvalues --    2.88015   2.88685   2.89767   2.89920   2.93601
 Alpha virt. eigenvalues --    2.93777   2.98343   2.98691   2.99105   2.99819
 Alpha virt. eigenvalues --    3.04882   3.08252   3.08305   3.09167   3.12533
 Alpha virt. eigenvalues --    3.14898   3.16045   3.17303   3.21094   3.24945
 Alpha virt. eigenvalues --    3.30066   3.30658   3.34472   3.38986   3.41000
 Alpha virt. eigenvalues --    3.45392   3.46944   3.47758   3.52352   3.58536
 Alpha virt. eigenvalues --    3.62382   3.66471   3.67882   3.72477   3.80144
 Alpha virt. eigenvalues --    3.83903   3.89456   3.91951   3.94898   3.98100
 Alpha virt. eigenvalues --    4.01325   4.24044   4.24186   4.26260   4.29000
 Alpha virt. eigenvalues --    4.29491   4.30705   4.31403   4.34222   4.40012
 Alpha virt. eigenvalues --    4.42190   4.45498   4.49931   4.53021   4.63742
 Alpha virt. eigenvalues --    4.72641   4.90851   4.96952   5.20316   5.21620
 Alpha virt. eigenvalues --    5.37763   5.41299   5.86930   5.95213   6.85002
 Alpha virt. eigenvalues --    6.92667   7.64300   7.67771   7.77057   7.80204
 Alpha virt. eigenvalues --    7.83043   7.90236  23.57662  23.87032  23.99155
 Alpha virt. eigenvalues --   24.02881  24.04226  24.07172  24.10286  24.12446
 Alpha virt. eigenvalues --   24.19939  24.25805  24.26541  48.10912  48.17295
 Alpha virt. eigenvalues --   50.17251  50.21691 289.84046 289.87703 289.96761
 Alpha virt. eigenvalues --  290.00750 290.04948 290.123761020.918401020.99691
  Beta  occ. eigenvalues -- -482.73236-482.73229 -62.38521 -62.38514 -56.20550
  Beta  occ. eigenvalues --  -56.20543 -56.20174 -56.20167 -56.20158 -56.20151
  Beta  occ. eigenvalues --  -18.94858 -18.94706 -10.13211 -10.13138 -10.10167
  Beta  occ. eigenvalues --  -10.10054 -10.07573 -10.07540 -10.06635 -10.06541
  Beta  occ. eigenvalues --  -10.05774 -10.05392 -10.04378  -8.59488  -8.59481
  Beta  occ. eigenvalues --   -6.42610  -6.42603  -6.41356  -6.41348  -6.41315
  Beta  occ. eigenvalues --   -6.41308  -2.53706  -2.53699  -2.53351  -2.53344
  Beta  occ. eigenvalues --   -2.53322  -2.53316  -2.52325  -2.52324  -2.52318
  Beta  occ. eigenvalues --   -2.52317  -0.86876  -0.86500  -0.77856  -0.71390
  Beta  occ. eigenvalues --   -0.70487  -0.68344  -0.63672  -0.62793  -0.58366
  Beta  occ. eigenvalues --   -0.53954  -0.51065  -0.48144  -0.44433  -0.39536
  Beta  occ. eigenvalues --   -0.37513  -0.36365  -0.33474  -0.32840  -0.31140
  Beta  occ. eigenvalues --   -0.31058  -0.29584  -0.29148  -0.27742  -0.27233
  Beta  occ. eigenvalues --   -0.26705  -0.25450  -0.24181  -0.23278  -0.22978
  Beta  occ. eigenvalues --   -0.21412  -0.20979  -0.19442  -0.18175  -0.14195
  Beta  occ. eigenvalues --   -0.12933  -0.12331  -0.11643  -0.10938
  Beta virt. eigenvalues --    0.03246   0.05884   0.07428   0.08604   0.09091
  Beta virt. eigenvalues --    0.09657   0.09783   0.11088   0.12100   0.12353
  Beta virt. eigenvalues --    0.12716   0.13265   0.13479   0.13744   0.14431
  Beta virt. eigenvalues --    0.15382   0.16061   0.16562   0.17099   0.17209
  Beta virt. eigenvalues --    0.17535   0.17585   0.18619   0.19064   0.20187
  Beta virt. eigenvalues --    0.20291   0.20840   0.21201   0.21513   0.21940
  Beta virt. eigenvalues --    0.22464   0.22583   0.23285   0.23518   0.24124
  Beta virt. eigenvalues --    0.24129   0.25297   0.25537   0.26156   0.26836
  Beta virt. eigenvalues --    0.26851   0.27263   0.27333   0.28620   0.28970
  Beta virt. eigenvalues --    0.29140   0.29992   0.30464   0.31151   0.31653
  Beta virt. eigenvalues --    0.32110   0.32217   0.32656   0.33087   0.33853
  Beta virt. eigenvalues --    0.34417   0.34826   0.34919   0.35283   0.36561
  Beta virt. eigenvalues --    0.37239   0.37277   0.38054   0.38574   0.38785
  Beta virt. eigenvalues --    0.40298   0.40801   0.41474   0.42692   0.42826
  Beta virt. eigenvalues --    0.43323   0.43378   0.44502   0.44645   0.44682
  Beta virt. eigenvalues --    0.45311   0.45686   0.46379   0.47517   0.48513
  Beta virt. eigenvalues --    0.49283   0.50234   0.50801   0.52366   0.52668
  Beta virt. eigenvalues --    0.53400   0.53479   0.54565   0.56192   0.56269
  Beta virt. eigenvalues --    0.57279   0.58150   0.61740   0.63324   0.63354
  Beta virt. eigenvalues --    0.63822   0.66486   0.66998   0.67201   0.67726
  Beta virt. eigenvalues --    0.68320   0.68628   0.69244   0.70303   0.71507
  Beta virt. eigenvalues --    0.71923   0.72055   0.73607   0.73825   0.74903
  Beta virt. eigenvalues --    0.75237   0.75689   0.76399   0.76558   0.76779
  Beta virt. eigenvalues --    0.78210   0.78673   0.79992   0.80813   0.81081
  Beta virt. eigenvalues --    0.81622   0.82319   0.83253   0.85551   0.86124
  Beta virt. eigenvalues --    0.87728   0.87925   0.88121   0.89106   0.90461
  Beta virt. eigenvalues --    0.93312   0.93453   0.93763   0.94613   0.94889
  Beta virt. eigenvalues --    0.98260   0.99573   1.01393   1.02651   1.03128
  Beta virt. eigenvalues --    1.04425   1.05071   1.06707   1.07227   1.08908
  Beta virt. eigenvalues --    1.09104   1.09240   1.10627   1.12735   1.13547
  Beta virt. eigenvalues --    1.14044   1.15278   1.18525   1.18565   1.21832
  Beta virt. eigenvalues --    1.22042   1.24016   1.26326   1.26528   1.27977
  Beta virt. eigenvalues --    1.29173   1.32302   1.34821   1.35060   1.35806
  Beta virt. eigenvalues --    1.37409   1.37489   1.39157   1.39610   1.43720
  Beta virt. eigenvalues --    1.45086   1.45917   1.49487   1.50942   1.54461
  Beta virt. eigenvalues --    1.57272   1.58449   1.61127   1.61556   1.61846
  Beta virt. eigenvalues --    1.65358   1.65729   1.66352   1.67009   1.69363
  Beta virt. eigenvalues --    1.72686   1.72771   1.73306   1.78506   1.79208
  Beta virt. eigenvalues --    1.80215   1.80477   1.83659   1.84330   1.87197
  Beta virt. eigenvalues --    1.91938   1.92077   1.93458   1.96724   1.96914
  Beta virt. eigenvalues --    1.97626   1.99883   2.01317   2.02547   2.05108
  Beta virt. eigenvalues --    2.05241   2.05532   2.08694   2.09329   2.11625
  Beta virt. eigenvalues --    2.12390   2.13746   2.14813   2.16426   2.17014
  Beta virt. eigenvalues --    2.18308   2.21141   2.23668   2.25466   2.26805
  Beta virt. eigenvalues --    2.30750   2.31191   2.34461   2.35153   2.35413
  Beta virt. eigenvalues --    2.39476   2.40553   2.45044   2.45304   2.48457
  Beta virt. eigenvalues --    2.49479   2.50277   2.53528   2.56584   2.60319
  Beta virt. eigenvalues --    2.65588   2.67292   2.69089   2.72415   2.75199
  Beta virt. eigenvalues --    2.76861   2.78347   2.79105   2.80220   2.81253
  Beta virt. eigenvalues --    2.86087   2.88053   2.89146   2.89951   2.90436
  Beta virt. eigenvalues --    2.93742   2.94199   2.98597   2.99497   2.99968
  Beta virt. eigenvalues --    3.00655   3.05967   3.09585   3.09700   3.10436
  Beta virt. eigenvalues --    3.12629   3.15438   3.16313   3.17941   3.21606
  Beta virt. eigenvalues --    3.25158   3.30304   3.30781   3.34946   3.39189
  Beta virt. eigenvalues --    3.41132   3.47048   3.47122   3.49468   3.52541
  Beta virt. eigenvalues --    3.58670   3.62650   3.66867   3.68038   3.72680
  Beta virt. eigenvalues --    3.80339   3.84137   3.89510   3.92113   3.95212
  Beta virt. eigenvalues --    3.98200   4.01609   4.24050   4.24193   4.26547
  Beta virt. eigenvalues --    4.29082   4.29497   4.30761   4.31512   4.34230
  Beta virt. eigenvalues --    4.40320   4.42476   4.45531   4.50190   4.53030
  Beta virt. eigenvalues --    4.63755   4.72651   4.91332   4.97063   5.23101
  Beta virt. eigenvalues --    5.24409   5.38325   5.41859   5.87486   5.95762
  Beta virt. eigenvalues --    6.85006   6.92671   7.64309   7.67780   7.77059
  Beta virt. eigenvalues --    7.80206   7.83042   7.90236  23.57723  23.87171
  Beta virt. eigenvalues --   23.99193  24.02982  24.04351  24.07296  24.10336
  Beta virt. eigenvalues --   24.12532  24.19948  24.25822  24.26682  48.10913
  Beta virt. eigenvalues --   48.17296  50.17927  50.22367 289.84048 289.87706
  Beta virt. eigenvalues --  289.96761 290.00750 290.04948 290.123751020.91841
  Beta virt. eigenvalues -- 1020.99692
          Condensed to atoms (all electrons):
               1          2          3          4          5          6
     1  C    8.578263  -0.666632  -1.102539   0.726393   0.868686   1.030584
     2  C   -0.666632   9.420060   0.037661  -0.925477  -0.899423  -1.361604
     3  C   -1.102539   0.037661   8.881685  -0.131435  -1.894060   0.017983
     4  C    0.726393  -0.925477  -0.131435  18.965572  -2.969045  -2.698552
     5  C    0.868686  -0.899423  -1.894060  -2.969045  15.819695   2.848800
     6  C    1.030584  -1.361604   0.017983  -2.698552   2.848800   9.110943
     7  C   -1.903311   0.010962  -0.037625   0.153673  -2.536915  -0.797635
     8  C   -1.051949  -0.094077   0.111935  -4.777858  -1.160468  -0.701589
     9  C   -0.145545  -0.108794   0.015897  -3.058228   0.120370   0.818914
    10  C   -0.703770   0.613771   0.231425   2.042490  -4.499199  -2.739906
    11  O    0.110992   0.118255   0.009000  -0.204458  -0.229149  -0.042238
    12  O   -0.008373  -0.019715   0.063774  -0.333996  -0.059398   0.244898
    13  H    0.386354  -0.262486   0.019743   0.076297   0.087531   0.048939
    14  H   -0.001037   0.057758  -0.241303   0.096521   0.101541   0.259911
    15  Br  -0.105068   0.251008  -0.159365   0.008431   0.007803   0.045910
    16  Br   0.102008  -0.224191   0.188210  -0.063115  -0.008739   0.088433
    17  C   -0.050666   0.022288  -0.004905  -1.160414  -0.191655  -0.059707
    18  H   -0.009340   0.001424   0.005203   0.032680  -0.070661  -0.006719
    19  H   -0.007146   0.000759   0.000521  -0.022019  -0.006004  -0.001462
    20  H   -0.006881   0.000842   0.000542  -0.022426  -0.006856  -0.001573
    21  H    0.008001  -0.001333  -0.000854  -0.010891   0.016209  -0.001508
               7          8          9         10         11         12
     1  C   -1.903311  -1.051949  -0.145545  -0.703770   0.110992  -0.008373
     2  C    0.010962  -0.094077  -0.108794   0.613771   0.118255  -0.019715
     3  C   -0.037625   0.111935   0.015897   0.231425   0.009000   0.063774
     4  C    0.153673  -4.777858  -3.058228   2.042490  -0.204458  -0.333996
     5  C   -2.536915  -1.160468   0.120370  -4.499199  -0.229149  -0.059398
     6  C   -0.797635  -0.701589   0.818914  -2.739906  -0.042238   0.244898
     7  C   12.221233   1.290220  -1.955555   0.389160   0.928052  -0.063586
     8  C    1.290220  14.464882  -2.947037   0.312303  -0.444494  -0.083158
     9  C   -1.955555  -2.947037  15.877939  -2.296176  -0.192999   0.040395
    10  C    0.389160   0.312303  -2.296176  12.698587   0.017142   0.286124
    11  O    0.928052  -0.444494  -0.192999   0.017142   8.295199  -0.000042
    12  O   -0.063586  -0.083158   0.040395   0.286124  -0.000042   8.334008
    13  H   -0.018372  -0.042618   0.039881  -0.015084  -0.000477   0.000655
    14  H    0.040809   0.032153  -0.049837   0.022246   0.000103  -0.007295
    15  Br   0.045682   0.025554  -0.015650   0.001219   0.002238  -0.000259
    16  Br  -0.024489  -0.011948   0.037182   0.021598  -0.000062   0.004121
    17  C   -0.998156   0.332230  -0.189660   0.610869   0.013339   0.006051
    18  H    0.049474  -0.127518   0.418651   0.054328  -0.000106  -0.020193
    19  H   -0.006784   0.035533  -0.028367   0.011397  -0.005430  -0.000082
    20  H   -0.007171   0.036567  -0.029995   0.011868  -0.005380  -0.000091
    21  H   -0.007562  -0.107843  -0.014057   0.004210   0.002834   0.001353
              13         14         15         16         17         18
     1  C    0.386354  -0.001037  -0.105068   0.102008  -0.050666  -0.009340
     2  C   -0.262486   0.057758   0.251008  -0.224191   0.022288   0.001424
     3  C    0.019743  -0.241303  -0.159365   0.188210  -0.004905   0.005203
     4  C    0.076297   0.096521   0.008431  -0.063115  -1.160414   0.032680
     5  C    0.087531   0.101541   0.007803  -0.008739  -0.191655  -0.070661
     6  C    0.048939   0.259911   0.045910   0.088433  -0.059707  -0.006719
     7  C   -0.018372   0.040809   0.045682  -0.024489  -0.998156   0.049474
     8  C   -0.042618   0.032153   0.025554  -0.011948   0.332230  -0.127518
     9  C    0.039881  -0.049837  -0.015650   0.037182  -0.189660   0.418651
    10  C   -0.015084   0.022246   0.001219   0.021598   0.610869   0.054328
    11  O   -0.000477   0.000103   0.002238  -0.000062   0.013339  -0.000106
    12  O    0.000655  -0.007295  -0.000259   0.004121   0.006051  -0.020193
    13  H    0.535999   0.002172  -0.068171   0.001151  -0.018397   0.000558
    14  H    0.002172   0.541575  -0.000314  -0.074084  -0.001201  -0.001516
    15  Br  -0.068171  -0.000314  35.227001  -0.048442   0.002716  -0.000181
    16  Br   0.001151  -0.074084  -0.048442  35.238415  -0.000649   0.000290
    17  C   -0.018397  -0.001201   0.002716  -0.000649   6.859526  -0.027117
    18  H    0.000558  -0.001516  -0.000181   0.000290  -0.027117   0.583217
    19  H   -0.000564   0.000033   0.000114  -0.000019   0.372576   0.001185
    20  H   -0.000586   0.000034   0.000117  -0.000019   0.373208   0.001165
    21  H    0.000554   0.000238  -0.000046  -0.000026   0.446688  -0.004127
              19         20         21
     1  C   -0.007146  -0.006881   0.008001
     2  C    0.000759   0.000842  -0.001333
     3  C    0.000521   0.000542  -0.000854
     4  C   -0.022019  -0.022426  -0.010891
     5  C   -0.006004  -0.006856   0.016209
     6  C   -0.001462  -0.001573  -0.001508
     7  C   -0.006784  -0.007171  -0.007562
     8  C    0.035533   0.036567  -0.107843
     9  C   -0.028367  -0.029995  -0.014057
    10  C    0.011397   0.011868   0.004210
    11  O   -0.005430  -0.005380   0.002834
    12  O   -0.000082  -0.000091   0.001353
    13  H   -0.000564  -0.000586   0.000554
    14  H    0.000033   0.000034   0.000238
    15  Br   0.000114   0.000117  -0.000046
    16  Br  -0.000019  -0.000019  -0.000026
    17  C    0.372576   0.373208   0.446688
    18  H    0.001185   0.001165  -0.004127
    19  H    0.586571  -0.060876  -0.028912
    20  H   -0.060876   0.587877  -0.029079
    21  H   -0.028912  -0.029079   0.598720
          Atomic-Atomic Spin Densities.
               1          2          3          4          5          6
     1  C   -0.122540   0.055363   0.048170  -0.119843   0.065858  -0.001548
     2  C    0.055363  -0.008700  -0.074109   0.022138   0.058706  -0.011081
     3  C    0.048170  -0.074109  -0.006071   0.071908  -0.009846   0.029210
     4  C   -0.119843   0.022138   0.071908  -0.025943  -0.093249   0.073428
     5  C    0.065858   0.058706  -0.009846  -0.093249  -0.004206  -0.124506
     6  C   -0.001548  -0.011081   0.029210   0.073428  -0.124506  -0.076834
     7  C    0.043492   0.011936   0.008128   0.075322  -0.014334  -0.002699
     8  C   -0.008827  -0.010135   0.013974   0.111047  -0.042899   0.022592
     9  C    0.050185   0.011545  -0.022773   0.005086   0.090494  -0.027545
    10  C    0.011377  -0.011006   0.002371  -0.070926   0.169358   0.126832
    11  O   -0.007930  -0.009471  -0.001921  -0.031052   0.010159   0.000068
    12  O    0.001205  -0.001397  -0.011624   0.010463  -0.036288  -0.006005
    13  H    0.004767  -0.007727  -0.000752   0.004467   0.006216   0.003102
    14  H   -0.000484   0.002230  -0.001508   0.008902   0.003124  -0.004586
    15  Br  -0.003464  -0.004401   0.002534   0.005731  -0.003819   0.000085
    16  Br   0.001267   0.001572  -0.009182  -0.004365   0.006624  -0.001068
    17  C   -0.005586  -0.001212  -0.000036  -0.006037   0.004043   0.000563
    18  H    0.000443   0.000284  -0.000217   0.000861  -0.001211  -0.000657
    19  H    0.000105   0.000040  -0.000044  -0.001691   0.001371  -0.000097
    20  H    0.000130   0.000041  -0.000038  -0.001672   0.001261  -0.000102
    21  H   -0.000238  -0.000035   0.000020  -0.002118   0.000537   0.000008
               7          8          9         10         11         12
     1  C    0.043492  -0.008827   0.050185   0.011377  -0.007930   0.001205
     2  C    0.011936  -0.010135   0.011545  -0.011006  -0.009471  -0.001397
     3  C    0.008128   0.013974  -0.022773   0.002371  -0.001921  -0.011624
     4  C    0.075322   0.111047   0.005086  -0.070926  -0.031052   0.010463
     5  C   -0.014334  -0.042899   0.090494   0.169358   0.010159  -0.036288
     6  C   -0.002699   0.022592  -0.027545   0.126832   0.000068  -0.006005
     7  C   -0.049733   0.052354  -0.021210   0.019562  -0.038472  -0.003239
     8  C    0.052354   0.136595  -0.158297  -0.018183  -0.016376   0.005692
     9  C   -0.021210  -0.158297   0.148610  -0.008578   0.008281   0.006047
    10  C    0.019562  -0.018183  -0.008578  -0.128906  -0.000429  -0.043578
    11  O   -0.038472  -0.016376   0.008281  -0.000429   0.334834  -0.000130
    12  O   -0.003239   0.005692   0.006047  -0.043578  -0.000130   0.329097
    13  H   -0.002158  -0.003073   0.001668  -0.001790  -0.003995   0.000040
    14  H    0.000208   0.000481  -0.006933   0.001706   0.000052  -0.004510
    15  Br  -0.000691   0.000099  -0.000303   0.000415  -0.000150   0.000034
    16  Br   0.000425  -0.000016   0.000446  -0.000717   0.000032  -0.000139
    17  C    0.008611   0.005612   0.010387   0.002288   0.003089  -0.000432
    18  H   -0.000618   0.001556   0.002357  -0.004241   0.000373  -0.000014
    19  H   -0.000546  -0.008649   0.005400  -0.000667   0.002350  -0.000121
    20  H   -0.000388  -0.009053   0.005183  -0.000528   0.002371  -0.000121
    21  H   -0.002895   0.001820   0.001064   0.000663  -0.000297  -0.000083
              13         14         15         16         17         18
     1  C    0.004767  -0.000484  -0.003464   0.001267  -0.005586   0.000443
     2  C   -0.007727   0.002230  -0.004401   0.001572  -0.001212   0.000284
     3  C   -0.000752  -0.001508   0.002534  -0.009182  -0.000036  -0.000217
     4  C    0.004467   0.008902   0.005731  -0.004365  -0.006037   0.000861
     5  C    0.006216   0.003124  -0.003819   0.006624   0.004043  -0.001211
     6  C    0.003102  -0.004586   0.000085  -0.001068   0.000563  -0.000657
     7  C   -0.002158   0.000208  -0.000691   0.000425   0.008611  -0.000618
     8  C   -0.003073   0.000481   0.000099  -0.000016   0.005612   0.001556
     9  C    0.001668  -0.006933  -0.000303   0.000446   0.010387   0.002357
    10  C   -0.001790   0.001706   0.000415  -0.000717   0.002288  -0.004241
    11  O   -0.003995   0.000052  -0.000150   0.000032   0.003089   0.000373
    12  O    0.000040  -0.004510   0.000034  -0.000139  -0.000432  -0.000014
    13  H   -0.001947  -0.000149  -0.000096   0.000011  -0.000577  -0.000032
    14  H   -0.000149  -0.000881   0.000035  -0.000247   0.000172   0.000058
    15  Br  -0.000096   0.000035   0.006120  -0.001331   0.000033  -0.000000
    16  Br   0.000011  -0.000247  -0.001331   0.007870  -0.000001   0.000000
    17  C   -0.000577   0.000172   0.000033  -0.000001  -0.026872   0.004668
    18  H   -0.000032   0.000058  -0.000000   0.000000   0.004668  -0.012676
    19  H    0.000011   0.000003  -0.000011   0.000004   0.002503   0.000077
    20  H    0.000003   0.000004  -0.000010   0.000004   0.002912   0.000080
    21  H   -0.000010   0.000002   0.000002   0.000001   0.002354  -0.000424
              19         20         21
     1  C    0.000105   0.000130  -0.000238
     2  C    0.000040   0.000041  -0.000035
     3  C   -0.000044  -0.000038   0.000020
     4  C   -0.001691  -0.001672  -0.002118
     5  C    0.001371   0.001261   0.000537
     6  C   -0.000097  -0.000102   0.000008
     7  C   -0.000546  -0.000388  -0.002895
     8  C   -0.008649  -0.009053   0.001820
     9  C    0.005400   0.005183   0.001064
    10  C   -0.000667  -0.000528   0.000663
    11  O    0.002350   0.002371  -0.000297
    12  O   -0.000121  -0.000121  -0.000083
    13  H    0.000011   0.000003  -0.000010
    14  H    0.000003   0.000004   0.000002
    15  Br  -0.000011  -0.000010   0.000002
    16  Br   0.000004   0.000004   0.000001
    17  C    0.002503   0.002912   0.002354
    18  H    0.000077   0.000080  -0.000424
    19  H    0.010053  -0.005136   0.000014
    20  H   -0.005136   0.010237  -0.000135
    21  H    0.000014  -0.000135  -0.000541
 Mulliken charges and spin densities:
               1          2
     1  C   -0.049024   0.011900
     2  C    0.028943   0.024581
     3  C   -0.011492   0.038194
     4  C    0.275857   0.032457
     5  C    0.660938   0.087394
     6  C   -0.102820  -0.000839
     7  C   -0.772104   0.083055
     8  C    0.909180   0.076313
     9  C   -0.337327   0.101114
    10  C   -1.074602   0.045018
    11  O   -0.372319   0.251386
    12  O   -0.385191   0.244897
    13  H    0.226922  -0.002023
    14  H    0.221493  -0.002320
    15  Br  -0.220297   0.000810
    16  Br  -0.225624   0.001192
    17  C   -0.336963   0.006483
    18  H    0.119306  -0.009335
    19  H    0.158978   0.004970
    20  H    0.158713   0.005043
    21  H    0.127432  -0.000291
 Sum of Mulliken charges =  -1.00000   1.00000
 Mulliken charges and spin densities with hydrogens summed into heavy atoms:
               1          2
     1  C    0.177898   0.009877
     2  C    0.028943   0.024581
     3  C   -0.011492   0.038194
     4  C    0.275857   0.032457
     5  C    0.660938   0.087394
     6  C    0.118672  -0.003159
     7  C   -0.772104   0.083055
     8  C    0.909180   0.076313
     9  C   -0.218021   0.091779
    10  C   -1.074602   0.045018
    11  O   -0.372319   0.251386
    12  O   -0.385191   0.244897
    15  Br  -0.220297   0.000810
    16  Br  -0.225624   0.001192
    17  C    0.108160   0.016205
 Electronic spatial extent (au):  <R**2>=          35720.8388
 Charge=             -1.0000 electrons
 Dipole moment (field-independent basis, Debye):
    X=            -22.1797    Y=             18.3026    Z=             -3.2882  Tot=             28.9437
 Quadrupole moment (field-independent basis, Debye-Ang):
   XX=           -237.6126   YY=           -207.4376   ZZ=           -139.2860
   XY=             93.7767   XZ=             -7.7365   YZ=             25.2997
 Traceless Quadrupole moment (field-independent basis, Debye-Ang):
   XX=            -42.8339   YY=            -12.6589   ZZ=             55.4927
   XY=             93.7767   XZ=             -7.7365   YZ=             25.2997
 Octapole moment (field-independent basis, Debye-Ang**2):
  XXX=          -2640.6361  YYY=           1954.4803  ZZZ=           -196.9208  XYY=          -1101.3709
  XXY=           1042.7865  XXZ=            -37.9807  XZZ=           -714.7547  YZZ=            610.9109
  YYZ=           -198.8963  XYZ=             71.1995
 Hexadecapole moment (field-independent basis, Debye-Ang**3):
 XXXX=         -29068.2091 YYYY=         -16428.6920 ZZZZ=          -2509.1484 XXXY=          12124.8726
 XXXZ=            546.0520 YYYX=          11028.9811 YYYZ=           1550.9530 ZZZX=             45.8751
 ZZZY=           1015.5155 XXYY=          -9074.4693 XXZZ=          -4712.7979 YYZZ=          -3346.5619
 XXYZ=            320.5944 YYXZ=           -377.3846 ZZXY=           3310.0352
 N-N= 1.609220714676D+03 E-N=-1.688196849071D+04  KE= 5.713264308921D+03
                          Isotropic Fermi Contact Couplings
[...]
 -0.02963759,0.00677066,0.02083726,0.02921892,0.00477676,-0.10112498,0.
 02033370,-0.01878237,0.00520751,0.01536625,-0.00284882,-0.01295196,0.0
 0151467,0.02810055,-0.03274718,0.08305809,0.00192231,-0.14595136,-0.11
 206970,-0.23874260,0.52321903,-0.00191215,0.00027621,0.00048571,0.0016
 3650,-0.00330258,0.00177701,-0.00077162,0.00150237,-0.00101629,0.01079
 944,-0.02200350,0.02530826,-0.00631736,0.00691073,0.00177982,0.0009447
 0,-0.00204846,0.00091603,-0.08122181,0.03595153,-0.01474558,0.00027437
 ,0.03886746,-0.02438623,-0.00440303,0.00046307,0.00732380,0.00253526,-
 0.00227149,-0.00084686,0.07692039,0.00855836,-0.00596136,-0.00293207,-
 0.00289250,0.00268263,-0.00017634,0.00238977,-0.00189035,-0.00048603,-
 0.01802977,-0.00187039,0.03271632,0.00741262,-0.00447318,0.00104515,-0
 .00254364,0.00042058,0.00158748,0.03652218,-0.29337577,0.20877464,0.03
 094595,-0.04562906,0.03564850,0.00263354,0.00431337,-0.00279703,-0.004
 83207,0.00940826,-0.00616363,-0.05426728,0.34441645,-0.00802187,0.0047
 6094,0.00148364,0.00134682,0.00020827,-0.00158191,-0.00192245,0.000336
 18,0.00124407,0.02121671,0.03646599,-0.04357433,0.00128775,0.00148713,
 0.00050805,0.00141657,0.00112078,-0.00282403,-0.01532335,0.20922372,-0
 .25822747,-0.01624124,0.02834494,0.00302219,0.00507122,-0.00076797,0.0
 0005581,0.00176656,-0.00845508,0.00621238,0.00916765,-0.27613843,0.302
 22740,0.00020437,0.00153653,-0.00220360,-0.00004464,-0.00148016,0.0014
 6173,0.00031437,0.00250120,-0.00301900,-0.00537611,0.00072647,0.007106
 81,-0.00241775,0.03751148,-0.02322588,0.00049156,-0.00009799,-0.001260
 43,0.00242327,-0.00274214,-0.00028371,-0.00458875,0.00741108,0.0009378
 4,0.01515287,-0.02497773,0.02727174,-0.08158764,0.03651314,-0.01526089
 ,0.00029642,0.00125458,-0.00137769,0.07432024,0.00185317,-0.00266820,0
 .00054070,-0.00203241,0.00132705,0.00040895,0.00246521,-0.00196541,-0.
 00043437,0.00045057,0.00045429,0.00225153,0.03509189,-0.04198332,0.025
 26953,-0.00910229,0.00049347,0.00697279,0.00030602,0.00764909,-0.00901
 229,0.00325560,0.00206985,-0.00040079,-0.01417535,-0.00694262,0.037677
 64,0.03739814,-0.29410178,0.20927836,0.00107900,-0.00983237,0.00928259
 ,-0.05652385,0.34692447,-0.00253452,0.00084554,0.00103072,0.00203480,-
 0.00010950,-0.00189705,-0.00298797,-0.00046320,0.00310567,0.00739611,0
 .00200408,-0.00589130,-0.02074057,0.02300756,0.00976941,0.00804085,-0.
 00142008,-0.00699473,-0.00341303,-0.00628068,0.00867315,0.00522320,-0.
 00425587,0.00417273,0.01612637,0.04770496,-0.04748197,-0.01617164,0.21
 014935,-0.25929874,-0.00120770,0.00919248,-0.00810968,0.01392843,-0.27
 781694,0.30035532,-0.04919780,0.02221184,-0.01135724,0.00161442,-0.014
 37813,0.01597430,-0.00011792,0.00160507,0.00364070,0.00343404,0.017813
 26,-0.01696437,-0.00192002,0.00400836,0.00277268,-0.00126531,-0.000069
 96,0.00002659,-0.00180845,0.00119951,-0.00253915,0.00070179,-0.0007849
 0,0.00024895,-0.00000675,0.00023898,-0.00021732,0.00063410,0.00034296,
 -0.00124428,0.00100924,-0.00230467,0.00061335,-0.00054572,0.00030472,0
 .00017015,0.04792099,0.02062996,-0.19914452,0.14816256,0.00225978,0.00
 133047,-0.00053930,0.00128932,0.00281401,0.00163562,0.00297265,-0.0112
 4193,0.01392119,0.00448718,0.00073761,0.00071396,0.00008879,-0.0003045
 4,-0.00112351,-0.00148738,-0.00292199,0.00108871,-0.00010222,0.0001994
 4,-0.00000602,0.00009713,-0.00008346,0.00001951,-0.00076067,-0.0003005
 3,0.00068753,-0.00200300,0.00143240,-0.00051099,0.00035313,-0.00036257
 ,0.00001876,-0.02775650,0.20780758,-0.00972686,0.14668977,-0.17899779,
 -0.00118083,0.01496524,-0.01148134,0.00396634,0.00134269,0.00048583,-0
 .00166524,0.00009027,0.00640430,0.00227712,0.00116000,0.00217014,-0.00
 013690,-0.00097605,-0.00018136,0.00023562,-0.00141074,-0.00196947,-0.0
 0045352,0.00062770,-0.00012262,-0.00007202,-0.00011123,0.00020513,-0.0
 0010585,-0.00034053,0.00012802,0.00030423,-0.00023460,-0.00091976,0.00
 012061,0.00006305,-0.00020296,0.00801401,-0.16180389,0.18516796,-0.001
 20264,-0.00024400,0.00014760,-0.00063573,0.00350652,0.00215209,-0.0020
 3565,0.01829573,-0.01423904,-0.00127921,0.00205103,0.00430464,0.007856
 50,-0.01626507,0.01397617,-0.05040857,0.02519703,-0.01346301,0.0007122
 6,-0.00110318,0.00021263,0.00007973,-0.00030093,0.00030003,0.00049430,
 0.00056754,-0.00094207,-0.00162396,-0.00240685,0.00087175,-0.00048372,
 0.00010358,0.00028629,0.00046045,0.00080442,-0.00205460,0.00003948,-0.
 00005576,-0.00006960,0.04860910,-0.00037797,-0.00007170,-0.00092898,0.
 00381161,0.00118257,0.00095450,0.00166718,-0.01018633,0.01196203,0.001
 55822,0.00256254,0.00168567,-0.00137587,0.00254011,0.00367950,0.026778
 89,-0.20240704,0.14559966,0.00003690,-0.00000803,-0.00031330,-0.000082
 09,0.00020597,-0.00006542,-0.00019058,-0.00025726,0.00055792,0.0002085
 2,-0.00231244,-0.00127005,0.00003760,-0.00020845,0.00011597,0.00047951
 ,-0.00056779,-0.00074399,-0.00004735,-0.00007755,0.00002424,-0.0308960
 6,0.21002680,0.00028751,-0.00105501,-0.00049523,0.00183705,0.00123832,
 0.00256583,0.00290452,-0.00353467,0.00386135,0.00480613,0.00123016,-0.
 00014309,-0.00136802,0.01754670,-0.01195635,-0.01509011,0.14707628,-0.
 17455400,-0.00095947,0.00074843,-0.00015499,0.00007449,0.00013824,-0.0
 0014346,-0.00016152,-0.00014768,0.00041343,-0.00183153,0.00116638,-0.0
 0285594,0.00035476,0.00005473,-0.00044818,-0.00171825,-0.00104235,0.00
 182245,-0.00007829,0.00003190,-0.00005690,0.01068920,-0.16103526,0.181
 98029,-0.02776231,0.02420478,0.00315444,-0.06955012,0.04639559,0.00451
 733,-0.01378614,0.00850250,0.00329864,0.00226229,-0.00257726,0.0052224
 6,-0.00029285,-0.00006538,-0.00036507,0.00243709,0.00175757,-0.0015446
 4,-0.00112348,0.00318127,-0.00191908,0.00004739,-0.00117923,0.00061106
 ,-0.00008706,0.00053945,-0.00031856,0.00003255,-0.00035472,-0.00012247
 ,0.00025781,-0.00123587,0.00124941,-0.00035939,0.00052683,-0.00023784,
 -0.00020174,-0.00046370,-0.00200415,-0.00046426,0.00039201,0.00054290,
 0.10704172,0.01276886,-0.00751085,-0.00167066,0.04377246,-0.05910164,0
 .00616486,0.02160923,-0.01605988,-0.00443677,0.00078059,0.00428459,0.0
 0002140,-0.00032839,-0.00015528,-0.00031482,-0.00132834,-0.00087527,0.
 00495279,0.00087705,-0.00208514,0.00167278,-0.00054289,0.00052048,-0.0
 0065313,0.00028127,-0.00039276,0.00031559,-0.00030124,-0.00006415,-0.0
 0015687,-0.00012773,0.00129413,-0.00096836,0.00035984,-0.00034366,-0.0
 0001442,-0.00195904,-0.00042316,-0.00069207,0.00115205,-0.00012380,-0.
 00037764,-0.07842051,0.08463083,0.01494507,-0.01232584,0.00119160,0.00
 721929,0.00371543,-0.02402677,-0.01021252,0.00776818,0.00066818,0.0017
 5975,0.00314856,0.00012416,-0.00009383,-0.00055916,-0.00009274,0.00163
 861,0.00207582,-0.00094085,0.00045276,-0.00046875,0.00039686,-0.000046
 01,-0.00005977,-0.00049872,-0.00005243,0.00007516,0.00013915,-0.000176
 49,-0.00010830,-0.00021440,0.00011052,0.00005931,0.00007157,-0.0000657
 2,-0.00016968,0.00020435,-0.00046009,-0.00208580,-0.00028433,-0.000241
 19,0.00033129,0.00043519,-0.01216920,-0.00654875,0.02539236,0.00223610
 ,-0.00057521,0.00102028,-0.00903009,0.00089853,0.00660502,-0.05883747,
 -0.00301784,0.04577460,-0.00024027,-0.00043773,-0.00003824,0.00107927,
 0.00553410,-0.00213215,-0.02411874,-0.00281364,0.02752061,-0.00011502,
 -0.00003244,-0.00034044,0.00022530,-0.00037183,0.00032152,-0.00032832,
 0.00066522,-0.00090948,-0.00034308,-0.00208829,0.00284761,-0.00019342,
 -0.00035125,0.00052380,-0.00005244,0.00120801,-0.00099224,-0.00027422,
 0.00037908,0.00041726,-0.00015800,-0.00202595,-0.00040021,0.00183392,0
 .00114908,-0.00270284,0.08860243,0.00246673,-0.00139255,0.00191531,-0.
 01219838,-0.00118676,0.01161285,-0.00045086,-0.02489687,0.01257528,-0.
 00013829,-0.00008703,-0.00057061,0.00209671,0.00082524,0.00225962,0.00
 873641,0.00362289,-0.00950392,-0.00018000,-0.00023006,-0.00012745,-0.0
 0002489,0.00001910,0.00016579,-0.00000009,-0.00030497,-0.00027263,0.00
 028288,0.00004952,0.00010036,-0.00016354,0.00016782,-0.00004025,0.0000
 8528,0.00033794,-0.00020040,-0.00037810,0.00045851,0.00049104,-0.00054
 247,-0.00035495,-0.00204577,-0.00147742,-0.00348555,0.00519078,0.00186
 866,0.02641372,-0.00211339,0.00474850,-0.00023285,0.02010336,-0.000584
 33,-0.01907846,0.04312607,0.01497539,-0.06881412,-0.00034834,-0.000291
 05,-0.00014119,0.00141068,-0.00094295,0.00456858,0.01561241,0.00125892
 ,-0.01354515,-0.00018585,-0.00026436,-0.00006731,-0.00003871,0.0004895
 0,-0.00031364,-0.00022456,-0.00089262,0.00055938,0.00040310,0.00230884
 ,-0.00235486,0.00033073,0.00013444,-0.00046643,0.00016625,-0.00124593,
 0.00135236,0.00119783,-0.00021461,-0.00030160,-0.00192799,-0.00066415,
 -0.00034728,0.00000799,0.00272882,-0.00261855,-0.07784390,-0.02157224,
 0.10204906,-0.00007013,-0.00048544,0.00065024,-0.00053084,-0.00031934,
 0.00012887,-0.00004338,0.00040437,-0.00018241,-0.00166092,0.00403775,0
 .00123670,-0.00084653,0.00038740,-0.00087781,0.00001619,-0.00028021,-0
 .00001403,-0.01997511,0.00349032,0.01921978,-0.13729041,-0.00210220,0.
 06672605,0.00312987,-0.00249342,0.00579616,0.00422886,0.00515173,0.000
 59346,-0.00057141,-0.00540781,0.00249129,-0.00024983,-0.00062485,-0.00
 058730,0.00005315,0.00003076,0.00003086,-0.00002329,0.00002075,0.00001
 121,-0.00005604,0.00003469,0.00005801,0.00008560,0.00002382,-0.0000550
 4,0.51752518,0.00025670,0.00068669,-0.00085266,0.00003088,-0.00036869,
 -0.00042358,-0.00020635,0.00011317,0.00029192,0.00544270,-0.00149570,0
 .00076034,-0.00118978,-0.00079676,0.00052595,0.00029010,-0.00000233,-0
 .00058466,0.01336120,0.00585512,-0.01375905,0.00203406,-0.08082773,0.0
 1155314,-0.01616591,0.00087596,0.02088160,0.00640024,0.00084612,0.0040
 3667,-0.00023022,-0.00045678,-0.00330892,-0.00152995,-0.00063605,0.000
 46492,-0.00002671,0.00005064,0.00009785,0.00008066,-0.00003082,-0.0000
 3120,0.00019880,-0.00008427,-0.00005192,-0.00003896,0.00001784,0.00007
 195,-0.02939575,0.55149368,-0.00011615,-0.00015901,0.00036598,-0.00023
 420,-0.00009553,-0.00043291,0.00044511,-0.00027515,0.00007872,-0.00019
 011,0.00206015,0.00220166,0.00073926,-0.00094191,-0.00108077,-0.000595
 19,-0.00005599,0.00030357,0.00902115,-0.00460871,0.00089552,0.06256243
 ,0.01538583,-0.14179182,0.01985862,0.00820087,-0.02032110,-0.00068034,
 0.00521061,0.00582672,-0.00280502,0.00151675,-0.00282734,0.00034400,-0
 .00038084,-0.00149903,0.00008989,0.00004355,-0.00000858,-0.00005010,0.
 00002461,0.00003337,-0.00011096,0.00010090,0.00004399,0.00000907,0.000
 01363,0.00003017,0.03188277,-0.00590436,0.49590296,-0.00005162,0.00001
 916,-0.00015862,0.00013023,-0.00018673,0.00023487,-0.00033917,-0.00011
 582,-0.00019003,-0.00000552,-0.00085145,-0.00016119,-0.00110319,-0.000
 14342,0.00522882,-0.00051247,0.00088408,-0.00045681,0.00432824,0.00099
 417,0.00264080,-0.00032003,0.00253284,0.00200991,-0.20649258,0.1387790
 8,0.01799805,-0.01331713,0.01755587,-0.00161393,-0.00045646,0.00028354
 ,-0.00087473,0.00178896,-0.00254393,-0.00213836,-0.00001395,0.00001820
 ,0.00000744,0.00006563,0.00001478,0.00009176,-0.00006678,0.00008649,0.
 00001279,-0.00022241,0.00003081,0.00020342,-0.00109428,-0.00277105,-0.
 00120782,0.21656798,0.00006383,-0.00008214,-0.00018282,-0.00003206,0.0
 0005464,0.00015503,-0.00030804,-0.00014412,-0.00025844,-0.00063676,-0.
 00038557,-0.00016672,0.00089363,0.00207981,0.00152309,-0.00010275,0.00
 001071,0.00005727,0.00000073,0.00289042,0.00553708,0.01929454,-0.01145
 773,-0.00135794,0.13959256,-0.15772058,-0.00170071,-0.00210674,0.00330
 138,0.00308808,0.00088625,-0.00214713,0.00026958,-0.00144387,0.0001098
 4,-0.00220183,-0.00002676,0.00000397,0.00003544,0.00004836,0.00010433,
 0.00003391,0.00009628,-0.00004817,0.00000405,0.00006291,0.00002056,-0.
 00004853,-0.00071922,-0.00172195,-0.00320055,-0.15433469,0.16421623,-0
 .00020633,-0.00013972,0.00013485,0.00007682,0.00029651,-0.00020108,0.0
 0000422,-0.00043461,-0.00022967,-0.00038441,0.00002926,-0.00079589,0.0
 0415894,0.00248675,-0.00206870,0.00055982,-0.00086033,0.00033741,0.003
 67447,0.00461107,0.00010258,-0.01527048,0.01422955,0.00416617,0.017175
 50,-0.00095304,-0.04836405,0.01865144,-0.01519730,0.00270699,-0.001504
 80,0.00084548,-0.00055225,-0.00327314,-0.00117817,0.00093371,0.0000540
 8,-0.00000650,-0.00002946,0.00005769,0.00006501,0.00006040,0.00000295,
 0.00001288,0.00002668,0.00017024,-0.00001857,-0.00010897,-0.00334179,-
 0.00127331,-0.00104459,-0.02137527,-0.00238723,0.04494154,-0.00017024,
 0.00011534,-0.00001886,0.00014087,0.00004205,-0.00003546,-0.00014123,0
 .00000789,0.00006340,0.00037218,-0.00050533,-0.00082136,-0.00016154,-0
 .00003209,0.00039704,0.00021619,0.00002053,-0.00012791,-0.00086300,-0.
 00023773,0.00134009,0.01199805,0.00136948,0.02113568,-0.00181202,0.000
 42775,0.00096816,-0.00040125,-0.00148681,-0.00045024,0.00002097,0.0003
 8740,-0.00071104,-0.00003158,0.00032006,0.00014742,-0.00003100,0.00000
 402,0.00001744,-0.00000813,-0.00001366,-0.00001358,0.00000079,0.000001
 28,-0.00000504,-0.00002087,-0.00000222,0.00003139,-0.09643932,-0.00514
 824,-0.10167105,0.00033673,0.00001497,0.00032523,0.10421684,0.00012630
 ,-0.00007058,-0.00002130,-0.00004875,-0.00002915,0.00003905,0.00010092
 ,-0.00000512,-0.00003480,-0.00037384,-0.00014087,0.00052851,0.00008374
 ,0.00008495,-0.00013864,-0.00013157,0.00002409,0.00011293,0.00126897,0
 .00071527,-0.00145424,0.00045522,-0.00050660,0.00608234,-0.00072377,-0
 .00020613,0.00058342,-0.00050481,-0.00033380,-0.00028241,-0.00070768,-
 0.00005085,0.00094873,0.00003812,-0.00012231,0.00022959,0.00003351,-0.
 00000159,-0.00003290,0.00000592,0.00000142,0.00001373,-0.00001216,0.00
 000700,0.00000459,-0.00001192,-0.00000709,-0.00000440,-0.00387516,-0.0
 4365697,-0.01491079,0.00013718,0.00043832,0.00024402,0.00892100,0.0449
 7550,0.00028824,-0.00015344,-0.00011044,-0.00023677,-0.00007623,0.0001
 9523,0.00001327,0.00009753,-0.00010942,-0.00062165,-0.00004260,0.00090
 440,-0.00003193,0.00033582,-0.00045759,-0.00007555,-0.00008801,0.00014
 427,0.00028289,0.00389229,-0.00220264,-0.00651496,0.00096813,-0.023612
 15,0.00215252,-0.00197455,-0.00052242,0.00073218,0.00131013,0.00012906
 ,-0.00061809,-0.00202426,0.00301291,0.00012398,-0.00016663,-0.00016063
 ,0.00003777,-0.00001792,-0.00001069,-0.00001836,0.00001470,-0.00000482
 ,0.00009251,-0.00007674,0.00000102,0.00011093,0.00002290,-0.00010682,-
 0.10415072,-0.01503168,-0.24670220,-0.00036902,-0.00039541,-0.00034242
 ,0.11094221,0.01390891,0.27254716,-0.00031212,0.00021978,0.00010701,0.
 00014758,-0.00001845,-0.00026835,-0.00009030,-0.00001475,0.00016183,0.
 00118066,0.00034753,-0.00084012,-0.00019580,-0.00039911,0.00043517,0.0
 0019372,0.00002132,-0.00024346,-0.00042213,-0.00199167,0.00392649,-0.0
 0920909,-0.01944501,0.00043621,-0.00189275,0.00126073,0.00001330,0.000
 71279,-0.00007381,0.00103226,0.00118835,0.00183144,-0.00248162,-0.0002
 5954,0.00015249,-0.00014573,-0.00005524,0.00001743,0.00003825,0.000019
 24,0.00000073,0.00000488,-0.00004740,0.00005042,-0.00000093,-0.0000759
 2,-0.00001519,0.00008057,-0.09197744,-0.09805268,-0.00496012,0.0000119
 4,-0.00032703,-0.00010074,-0.00718716,-0.01418151,-0.00191990,0.096997
 18,-0.00008576,-0.00001856,0.00005352,0.00007931,0.00003817,-0.0000842
 4,0.00007812,-0.00011186,-0.00000920,-0.00020048,-0.00000268,-0.000271
 40,0.00017231,-0.00017043,0.00004606,-0.00009607,0.00008708,0.00004426
 ,0.00166942,-0.00131833,0.00130237,-0.00301622,-0.00156175,0.00463854,
 -0.00083147,0.00072017,-0.00043587,-0.00021317,0.00015999,0.00032495,0
 .00020487,0.00115741,-0.00138382,0.00000893,-0.00005439,0.00014897,0.0
 0000316,0.00000958,-0.00001264,-0.00000144,-0.00002453,-0.00000681,-0.
 00006665,0.00005759,0.00000632,-0.00005076,0.00000223,0.00007193,-0.09
 673782,-0.25323996,-0.01363927,-0.00028697,-0.00001480,-0.00029384,-0.
 00132247,-0.00298067,-0.00102036,0.10984945,0.27561005,0.00009756,-0.0
 0008751,-0.00002313,-0.00006889,0.00003847,0.00012238,0.00002267,0.000
 02704,-0.00005148,-0.00061689,-0.00008868,-0.00004240,0.00016386,0.000
 20627,-0.00016344,-0.00002153,-0.00000289,0.00010080,-0.00033675,0.000
 78105,-0.00062771,0.01216077,0.02418736,-0.00135493,0.00218224,-0.0009
 1034,-0.00132601,-0.00104489,-0.00049073,-0.00149248,0.00021620,-0.000
 94002,0.00065183,0.00032049,0.00014693,0.00000487,0.00000220,-0.000013
 37,0.00000258,-0.00000849,0.00000825,-0.00000646,0.00003481,-0.0000329
 9,-0.00000256,0.00004647,0.00000226,-0.00006187,-0.00504984,-0.0111204
 1,-0.04137331,0.00042409,0.00050307,0.00042814,-0.01299070,-0.02700735
 ,-0.00244020,0.00304371,0.01224271,0.04893895,-0.00032250,-0.00017329,
 0.00038063,0.00004203,0.00004712,-0.00010822,0.00006201,-0.00004459,-0
 .00000935,-0.00064913,0.00116599,-0.00037786,0.00028545,-0.00005972,-0
 .00018767,0.00002227,-0.00006807,0.00005380,-0.00143486,-0.00095006,0.
 00354590,-0.01651948,0.01608554,-0.00253771,0.00062568,0.00122834,-0.0
 0220190,0.00004281,-0.00029397,0.00009905,0.00044750,-0.00045807,0.000
 51655,0.00006088,-0.00021344,0.00014417,0.00003089,0.00000180,-0.00001
 420,-0.00001353,0.00000281,0.00001657,-0.00011599,0.00008481,0.0000294
 7,-0.00005234,-0.00001983,0.00006398,-0.17420993,0.12666025,-0.0123312
 2,0.00076589,-0.00091612,0.00054554,-0.01003529,0.00940031,-0.00021954
 ,0.01127343,-0.00915628,0.00142292,0.18969422,0.00000422,-0.00000830,-
 0.00010493,-0.00006233,-0.00000502,0.00003970,-0.00006456,0.00004781,0
 .00001354,-0.00002536,0.00002602,0.00024361,-0.00020454,0.00017780,0.0
 0002605,0.00004362,0.00000165,-0.00003911,-0.00005785,-0.00032431,0.00
 173013,-0.00362354,0.00167472,0.00010037,-0.00123953,0.00001361,0.0007
 6902,-0.00013330,0.00008142,-0.00012774,0.00094637,0.00060264,-0.00099
 099,0.00001640,0.00021447,-0.00025932,-0.00002924,0.00001764,0.0000273
 3,0.00000291,0.00000693,-0.00000235,0.00005782,-0.00004107,-0.00000150
 ,0.00005023,0.00001046,-0.00006312,0.12885966,-0.17662123,0.01161523,-
 0.00010214,0.00049197,-0.00007790,-0.00288322,0.00186520,0.00051741,0.
 02076791,-0.01834432,0.00255088,-0.14232353,0.19011191,0.00019873,0.00
 005869,-0.00035320,0.00000236,-0.00006304,0.00003913,0.00001146,-0.000
 00397,-0.00000377,0.00084727,-0.00086086,0.00034969,-0.00003948,-0.000
 10697,0.00016300,-0.00006266,0.00006598,-0.00000466,0.00261852,0.00257
 184,-0.00377356,0.01762865,-0.01824184,0.00075475,0.00035496,-0.001535
 85,0.00089352,-0.00006121,0.00001778,-0.00013126,-0.00094414,0.0003171
 4,0.00104152,-0.00009357,-0.00004406,0.00011135,0.00001825,-0.00000139
 ,0.00000290,0.00001638,-0.00000219,-0.00000562,0.00005747,-0.00002681,
 -0.00001620,-0.00000793,0.00000204,-0.00000045,-0.01456645,0.01365741,
 -0.04860102,-0.00030617,0.00069356,-0.00010138,-0.01852283,0.02119100,
 -0.00015163,0.00168128,-0.00172217,-0.00128356,0.01116910,-0.01596630,
 0.05107045\\0.00000712,0.00002015,-0.00003363,0.00000220,-0.00002102,0
 .00002484,-0.00000699,0.00002678,-0.00001719,-0.00006702,-0.00009593,0
 .00001580,-0.00006113,0.00004772,-0.00009142,0.00001609,-0.00003626,0.
 00002461,0.00019772,0.00015686,0.00015709,-0.00006484,-0.00003798,-0.0
 0006993,-0.00003071,-0.00005419,-0.00002803,0.00012913,0.00004995,0.00
 011709,-0.00007212,-0.00005664,-0.00006547,-0.00004184,-0.00001799,-0.
 00005518,-0.00000219,0.00000029,0.00000732,-0.00000281,0.00000573,-0.0
 0000340,-0.00000287,0.00000287,0.00000172,-0.00000097,0.00000035,0.000
 00066,-0.00001632,0.00002886,0.00001632,0.00000319,0.00000487,0.000005
 52,0.00000626,-0.00001261,-0.00000187,-0.00000211,-0.00000532,0.000001
 07,0.00001018,-0.00000649,-0.00000592\\\@


 THE TEST OF A FIRST RATE INTELLIGENCE IS THE ABILITY TO HOLD TWO OPPOSED
 IDEAS IN THE MIND AT THE SAME TIME, AND STILL RETAIN THE ABILITY TO FUNCTION.
 ONE SHOULD, FOR EXAMPLE, BE ABLE TO SEE THAT THINGS ARE HOPELESS AND YET BE
 DETERMINED TO MAKE THEM OTHERWISE.

                                                       -- F. SCOTT FITZGERALD
 Job cpu time:       0 days  4 hours 30 minutes 44.9 seconds.
 Elapsed time:       0 days  0 hours 41 minutes  7.6 seconds.
 File lengths (MBytes):  RWF=    864 Int=      0 D2E=      0 Chk=     21 Scr=      1
 Normal termination of Gaussian 16 at Sun Jan  7 21:02:52 2024.
