
Running Job 1 of 1 321-rad-SM12.in
qchem 321-rad-SM12.in_412879.0 /expanse/lustre/scratch/selhajj/temp_project/qcscratch/28683904/qchem412879/ 0
/cm/shared/apps/spack/cpu/opt/spack/linux-centos8-zen2/gcc-10.2.0/qchem-5.4-akfmr7b3t57bfs6qan3padb2wnb2i7cl/exe/qcprog.exe_s 321-rad-SM12.in_412879.0 /expanse/lustre/scratch/selhajj/temp_project/qcscratch/28683904/qchem412879/
                  Welcome to Q-Chem
     A Quantum Leap Into The Future Of Chemistry


 Q-Chem 5.4, Q-Chem, Inc., Pleasanton, CA (2021)

 License issued to: University of California, San Diego (site)

 E. Epifanovsky,  A. T. B. Gilbert,  Xintian Feng,  Joonho Lee,  Yuezhi Mao,  
 N. Mardirossian,  P. Pokhilko,  A. White,  M. Wormit,  M. P. Coons,  
 A. L. Dempwolff,  Zhengting Gan,  D. Hait,  P. R. Horn,  L. D. Jacobson,  
 I. Kaliman,  J. Kussmann,  A. W. Lange,  Ka Un Lao,  D. S. Levine,  Jie Liu,  
 S. C. McKenzie,  A. F. Morrison,  K. Nanda,  F. Plasser,  D. R. Rehn,  
 M. L. Vidal,  Zhi-Qiang You,  Ying Zhu,  B. Alam,  B. Albrecht,  
 A. Aldossary,  E. Alguire,  J. H. Andersen,  D. Barton,  K. Begam,  A. Behn,  
 Y. A. Bernard,  E. J. Berquist,  H. Burton,  A. Carreras,  K. Carter-Fenk,  
 R. Chakraborty,  A. D. Chien,  K. D. Closser,  V. Cofer-Shabica,  
 S. Dasgupta,  Jia Deng,  M. de Wergifosse,  M. Diedenhofen,  Hainam Do,  
 S. Ehlert,  Po-Tung Fang,  S. Fatehi,  Qingguo Feng,  J. Gayvert,  
 Qinghui Ge,  G. Gidofalvi,  M. Goldey,  J. Gomes,  C. Gonzalez-Espinoza,  
 S. Gulania,  A. Gunina,  M. W. D. Hanson-Heine,  P. H. P. Harbach,  
 A. W. Hauser,  M. F. Herbst,  M. Hernandez Vera,  M. Hodecker,  
 Z. C. Holden,  S. Houck,  Xunkun Huang,  Kerwin Hui,  B. C. Huynh,  
 M. Ivanov,  Hyunjun Ji,  Hanjie Jiang,  B. Kaduk,  S. Kaehler,  
 K. Khistyaev,  Jaehoon Kim,  P. Klunzinger,  Z. Koczor-Benda,  
 Joong Hoon Koh,  D. Kosenkov,  L. Koulias,  T. Kowalczyk,  C. M. Krauter,  
 K. Kue,  A. Kunitsa,  T. Kus,  A. Landau,  K. V. Lawler,  D. Lefrancois,  
 S. Lehtola,  Rain Li,  Yi-Pei Li,  Jiashu Liang,  M. Liebenthal,  
 Hung-Hsuan Lin,  You-Sheng Lin,  Fenglai Liu,  Kuan-Yu Liu,  
 M. Loipersberger,  A. Luenser,  A. Manjanath,  P. Manohar,  E. Mansoor,  
 S. F. Manzer,  Shan-Ping Mao,  A. V. Marenich,  T. Markovich,  S. Mason,  
 S. A. Maurer,  P. F. McLaughlin,  M. F. S. J. Menger,  J.-M. Mewes,  
 S. A. Mewes,  P. Morgante,  J. W. Mullinax,  T. S. Nguyen-Beck,  
 K. J. Oosterbaan,  G. Paran,  Alexander C. Paul,  Suranjan K. Paul,  
 F. Pavosevic,  Zheng Pei,  S. Prager,  E. I. Proynov,  E. Ramos,  B. Rana,  
 A. E. Rask,  A. Rettig,  R. M. Richard,  F. Rob,  E. Rossomme,  T. Scheele,  
 M. Scheurer,  M. Schneider,  N. Sergueev,  S. M. Sharada,  W. Skomorowski,  
 D. W. Small,  C. J. Stein,  Yu-Chuan Su,  E. J. Sundstrom,  Zhen Tao,  
 J. Thirman,  T. Tsuchimochi,  N. M. Tubman,  S. P. Veccham,  O. Vydrov,  
 J. Wenzel,  J. Witte,  A. Yamada,  Kun Yao,  S. Yeganeh,  S. R. Yost,  
 A. Zech,  Igor Ying Zhang,  Xing Zhang,  Yu Zhang,  D. Zuev,  
 A. Aspuru-Guzik,  A. T. Bell,  N. A. Besley,  K. B. Bravaya,  B. R. Brooks,  
 D. Casanova,  Jeng-Da Chai,  S. Coriani,  C. J. Cramer,  
 A. E. DePrince, III,  R. A. DiStasio Jr.,  A. Dreuw,  B. D. Dunietz,  
 T. R. Furlani,  W. A. Goddard III,  S. Grimme,  S. Hammes-Schiffer,  
 T. Head-Gordon,  W. J. Hehre,  Chao-Ping Hsu,  T.-C. Jagau,  Yousung Jung,  
 A. Klamt,  Jing Kong,  D. S. Lambrecht,  WanZhen Liang,  N. J. Mayhall,  
 C. W. McCurdy,  J. B. Neaton,  C. Ochsenfeld,  J. A. Parkhill,  R. Peverati,  
 V. A. Rassolov,  Yihan Shao,  L. V. Slipchenko,  T. Stauch,  R. P. Steele,  
 J. E. Subotnik,  A. J. W. Thom,  A. Tkatchenko,  D. G. Truhlar,  
 T. Van Voorhis,  T. A. Wesolowski,  K. B. Whaley,  H. L. Woodcock III,  
 P. M. Zimmerman,  S. Faraji,  P. M. W. Gill,  M. Head-Gordon,  
 J. M. Herbert,  A. I. Krylov

 Contributors to earlier versions of Q-Chem not listed above: 
 R. D. Adamson,  B. Austin,  R. Baer,  J. Baker,  G. J. O. Beran,  
 K. Brandhorst,  S. T. Brown,  E. F. C. Byrd,  A. K. Chakraborty,  
 G. K. L. Chan,  Chun-Min Chang,  Yunqing Chen,  C.-L. Cheng,  
 Siu Hung Chien,  D. M. Chipman,  D. L. Crittenden,  H. Dachsel,  
 R. J. Doerksen,  A. D. Dutoi,  R. G. Edgar,  J. Fosso-Tande,  
 L. Fusti-Molnar,  D. Ghosh,  A. Ghysels,  A. Golubeva-Zadorozhnaya,  
 J. Gonthier,  M. S. Gordon,  S. R. Gwaltney,  G. Hawkins,  J. E. Herr,  
 A. Heyden,  S. Hirata,  E. G. Hohenstein,  G. Kedziora,  F. J. Keil,  
 C. Kelley,  Jihan Kim,  R. A. King,  R. Z. Khaliullin,  P. P. Korambath,  
 W. Kurlancheek,  A. Laurent,  A. M. Lee,  M. S. Lee,  S. V. Levchenko,  
 Ching Yeh Lin,  D. Liotard,  E. Livshits,  R. C. Lochan,  I. Lotan,  
 L. A. Martinez-Martinez,  P. E. Maslen,  N. Nair,  D. P. O'Neill,  
 D. Neuhauser,  E. Neuscamman,  C. M. Oana,  R. Olivares-Amaya,  R. Olson,  
 T. M. Perrine,  B. Peters,  P. A. Pieniazek,  A. Prociuk,  Y. M. Rhee,  
 J. Ritchie,  M. A. Rohrdanz,  E. Rosta,  N. J. Russ,  H. F. Schaefer III,  
 M. W. Schmidt,  N. E. Schultz,  S. Sharma,  N. Shenvi,  C. D. Sherrill,  
 A. C. Simmonett,  A. Sodt,  T. Stein,  D. Stuck,  K. S. Thanthiriwatte,  
 V. Vanovschi,  L. Vogt,  Tao Wang,  A. Warshel,  M. A. Watson,  
 C. F. Williams,  Q. Wu,  X. Xu,  Jun Yang,  W. Zhang,  Yan Zhao

 Please cite Q-Chem as follows:
 Y. Shao et al., Mol. Phys. 113, 184-215 (2015)
 DOI: 10.1080/00268976.2014.952696

 Q-Chem 5.4.0 for Intel X86 EM64T Linux

 Parts of Q-Chem use Armadillo 9.800.1 (Horizon Scraper).
 http://arma.sourceforge.net/

 Q-Chem begins on Wed Feb 14 16:30:59 2024  

 Host: 
0

     Scratch files written to /expanse/lustre/scratch/selhajj/temp_project/qcscratch/28683904/qchem412879//
 May1621 |scratch|qcdevops|jenkins|workspace|build_RNUM    
 Processing $rem in /cm/shared/apps/spack/cpu/opt/spack/linux-centos8-zen2/gcc-10.2.0/qchem-5.4-akfmr7b3t57bfs6qan3padb2wnb2i7cl/config/preferences:
 Processing $rem in /home/selhajj/.qchemrc:
 Symmetry turned off for PCM/SM12/SMD calculation
 Method-specific promolecule density matrix will be built for SM12 calculation

 Checking the input file for inconsistencies... 	...done.

--------------------------------------------------------------
User input:
--------------------------------------------------------------
$molecule
-1 2
Br                 3.7284560000     -2.1781300000      0.6149170000
C                  2.2369790000     -0.9853930000      0.2713550000
C                  0.9744330000     -1.5078580000      0.3158000000
C                 -0.1600590000     -0.6727710000      0.0702940000
C                 -1.4775950000     -1.1836840000      0.1090350000
C                 -2.5695230000     -0.3691930000     -0.1295900000
C                 -2.3757090000      0.9975230000     -0.4177240000
C                 -1.0943380000      1.5175900000     -0.4604610000
C                  0.0344390000      0.7087080000     -0.2210830000
C                  1.3808980000      1.2998850000     -0.2759020000
O                  1.5506240000      2.5047970000     -0.5303360000
C                  2.5673290000      0.4018360000     -0.0139730000
O                  3.7292150000      0.8405350000     -0.0458350000
H                  0.8193160000     -2.5573270000      0.5368400000
H                 -1.6221850000     -2.2375380000      0.3315290000
H                 -3.5731740000     -0.7819090000     -0.0949200000
H                 -3.2317340000      1.6384420000     -0.6052810000
H                 -0.9173730000      2.5644870000     -0.6795670000
$end

$rem
BASIS  =  6-311++G(d,p)
GUI  =  2
JOB_TYPE  =  SP
METHOD  =  B3LYP
SCF_CONVERGENCE  = 8
SOLVENT_METHOD = sm12
$end

$smx
solvent dimethylformamide
charges CM5
$end





--------------------------------------------------------------
 ----------------------------------------------------------------
             Standard Nuclear Orientation (Angstroms)
    I     Atom           X                Y                Z
 ----------------------------------------------------------------
    1      Br      3.7284560000    -2.1781300000     0.6149170000
    2      C       2.2369790000    -0.9853930000     0.2713550000
    3      C       0.9744330000    -1.5078580000     0.3158000000
    4      C      -0.1600590000    -0.6727710000     0.0702940000
    5      C      -1.4775950000    -1.1836840000     0.1090350000
    6      C      -2.5695230000    -0.3691930000    -0.1295900000
    7      C      -2.3757090000     0.9975230000    -0.4177240000
    8      C      -1.0943380000     1.5175900000    -0.4604610000
    9      C       0.0344390000     0.7087080000    -0.2210830000
   10      C       1.3808980000     1.2998850000    -0.2759020000
   11      O       1.5506240000     2.5047970000    -0.5303360000
   12      C       2.5673290000     0.4018360000    -0.0139730000
   13      O       3.7292150000     0.8405350000    -0.0458350000
   14      H       0.8193160000    -2.5573270000     0.5368400000
   15      H      -1.6221850000    -2.2375380000     0.3315290000
   16      H      -3.5731740000    -0.7819090000    -0.0949200000
   17      H      -3.2317340000     1.6384420000    -0.6052810000
   18      H      -0.9173730000     2.5644870000    -0.6795670000
 ----------------------------------------------------------------
 Nuclear Repulsion Energy =         980.07237237 hartrees
 There are       59 alpha and       58 beta electrons
 Requested basis set is 6-311++G(d,p)
 There are 116 shells and 347 basis functions

 Total QAlloc Memory Limit   8000 MB
 Mega-Array Size       188 MB
 MEM_STATIC part       192 MB
 A cutoff of  1.0D-11 yielded   5400 shell pairs
 There are     50769 function pairs (     54963 Cartesian)
 Smallest overlap matrix eigenvalue = 3.00E-07

 Q-Chem warning in module stvman/mkSTV.C, line 323:

 Overlap eigenvalue is smaller than square root of threshold
 Use THRESH >= 12 to get rid of this warning

 Linear dependence detected in AO basis
 Tighter screening thresholds may be required for diffuse basis sets
 Use S2THRESH > 14 and THRESH = 14 in case of SCF convergence issues
 Number of orthogonalized atomic orbitals = 345
 Maximum deviation from orthogonality = 1.013E-10

 Scale SEOQF with 1.000000e-01/1.000000e-01/1.000000e-01

 Standard Electronic Orientation quadrupole field applied
 Nucleus-field energy     =     0.0000000493 hartrees
 ================ Generating on-the-fly Promolecule Density  ================
Attempting to make child job directory: /expanse/lustre/scratch/selhajj/temp_project/qcscratch/28683904/qchem412879//Frg1/
Attempting to make child job directory: /expanse/lustre/scratch/selhajj/temp_project/qcscratch/28683904/qchem412879//Frg2/
Attempting to make child job directory: /expanse/lustre/scratch/selhajj/temp_project/qcscratch/28683904/qchem412879//Frg3/
Attempting to make child job directory: /expanse/lustre/scratch/selhajj/temp_project/qcscratch/28683904/qchem412879//Frg4/
Creating input file /expanse/lustre/scratch/selhajj/temp_project/qcscratch/28683904/qchem412879/Frg1.input
using default PutDataFrgm: nothing
calling putenv with: QCSCRATCH=/expanse/lustre/scratch/selhajj/temp_project/qcscratch/28683904/qchem412879/ 
Spawning Job For Fragment 0
Done Job For Fragment 0
calling putenv with: QCSCRATCH=/expanse/lustre/scratch/selhajj/temp_project/qcscratch/28683904 
calling putenv with: QCTHREADS=8 
Creating input file /expanse/lustre/scratch/selhajj/temp_project/qcscratch/28683904/qchem412879/Frg2.input
using default PutDataFrgm: nothing
calling putenv with: QCSCRATCH=/expanse/lustre/scratch/selhajj/temp_project/qcscratch/28683904/qchem412879/ 
Spawning Job For Fragment 1
Done Job For Fragment 1
calling putenv with: QCSCRATCH=/expanse/lustre/scratch/selhajj/temp_project/qcscratch/28683904 
calling putenv with: QCTHREADS=8 
Creating input file /expanse/lustre/scratch/selhajj/temp_project/qcscratch/28683904/qchem412879/Frg3.input
using default PutDataFrgm: nothing
calling putenv with: QCSCRATCH=/expanse/lustre/scratch/selhajj/temp_project/qcscratch/28683904/qchem412879/ 
Spawning Job For Fragment 2
Done Job For Fragment 2
calling putenv with: QCSCRATCH=/expanse/lustre/scratch/selhajj/temp_project/qcscratch/28683904 
calling putenv with: QCTHREADS=8 
Creating input file /expanse/lustre/scratch/selhajj/temp_project/qcscratch/28683904/qchem412879/Frg4.input
using default PutDataFrgm: nothing
calling putenv with: QCSCRATCH=/expanse/lustre/scratch/selhajj/temp_project/qcscratch/28683904/qchem412879/ 
Spawning Job For Fragment 3
Done Job For Fragment 3
calling putenv with: QCSCRATCH=/expanse/lustre/scratch/selhajj/temp_project/qcscratch/28683904 
calling putenv with: QCTHREADS=8 
 Time for running child jobs:  CPU 0.01 s  wall 39.04 s
 ============= Method Specific Promolecule Density Constructed =============
 Guess from superposition of atomic densities
 Warning:  Energy on first SCF cycle will be non-variational
 SAD guess density has 116.000000 electrons

 -----------------------------------------------------------------------
  General SCF calculation program by
  Eric Jon Sundstrom, Paul Horn, Yuezhi Mao, Dmitri Zuev, Alec White,
  David Stuck, Shaama M.S., Shane Yost, Joonho Lee, David Small,
  Daniel Levine, Susi Lehtola, Hugh Burton, Evgeny Epifanovsky,
  Bang C. Huynh
 -----------------------------------------------------------------------
 Exchange:     0.2000 Hartree-Fock + 0.0800 Slater + 0.7200 B88
 Correlation:  0.1900 VWN1RPA + 0.8100 LYP
 Using SG-1 standard quadrature grid
 using 8 threads for integral computing
 -------------------------------------------------------
 OpenMP Integral computing Module                
 Release: version 1.0, May 2013, Q-Chem Inc. Pittsburgh 
 -------------------------------------------------------
 
 SM12 calculation using CM5 charges
 Citation of the SM12 model:
 Marenich, A.V.; Cramer, C.J.; Truhlar, D.G.
 J. Chem. Theory Comput. 2013, 9, 609-612.
 iSolventCode=          91
 Solvent: dimethylformamide                                               
 
Hirshfeld: reading atomic densities from disk.
warning:  vdwdata pointer should have been initialzed before dftman
 Inaccurate integrated density:
   Number of electrons =   117
   Numerical integral  =   116.000410809277
   Relative error      =    -0.8543497357 %

 Charges (in A.U.) from CM5PAC (Nov. 11, 2011)
 -----------------------------------------------
 Center     Atomic      CM5         Hirshfeld
 Number     Number      Charge      Charge
 -----------------------------------------------
    1         35        0.037142    0.020851
    2          6       -0.021069   -0.006884
    3          6       -0.055293   -0.004632
    4          6       -0.009866   -0.002906
    5          6       -0.054849   -0.002088
    6          6       -0.058098   -0.002796
    7          6       -0.057909   -0.002759
    8          6       -0.052079   -0.000559
    9          6       -0.002006   -0.000056
   10          6        0.044191    0.009720
   11          8       -0.057316   -0.014752
   12          6        0.041386    0.007048
   13          8       -0.056634   -0.016699
   14          1        0.059119    0.001425
   15          1        0.059596    0.003220
   16          1        0.058511    0.003030
   17          1        0.058530    0.003033
   18          1        0.066232    0.005392
 -----------------------------------------------

 Dipole moment (in Debye)
 -----------------------------------------------
                 X        Y        Z     Total
 -----------------------------------------------
 CM5         -0.8461  -0.9780   0.1674   1.3040
 Hirshfeld   -0.0362  -0.2871   0.0610   0.2957
 -----------------------------------------------

 A unrestricted SCF calculation will be
 performed using DIIS
 SCF converges when DIIS error is below 1.0e-08
 ---------------------------------------
  Cycle       Energy         DIIS error
 ---------------------------------------
Hirshfeld: reading atomic densities from disk.

 Charges (in A.U.) from CM5PAC (Nov. 11, 2011)
 -----------------------------------------------
 Center     Atomic      CM5         Hirshfeld
 Number     Number      Charge      Charge
 -----------------------------------------------
    1         35        0.060616    0.044325
    2          6       -0.018994   -0.004809
    3          6       -0.227633   -0.176972
    4          6       -0.060754   -0.053795
    5          6       -0.173485   -0.120724
    6          6       -0.182648   -0.127346
    7          6       -0.201111   -0.145961
    8          6       -0.180617   -0.129098
    9          6       -0.095472   -0.093523
   10          6        0.256376    0.221906
   11          8       -0.623545   -0.580980
   12          6        0.221087    0.186749
   13          8       -0.644184   -0.604249
   14          1        0.168279    0.110585
   15          1        0.178947    0.122571
   16          1        0.178906    0.123426
   17          1        0.176198    0.120702
   18          1        0.167415    0.106574
 -----------------------------------------------

 Dipole moment (in Debye)
 -----------------------------------------------
                 X        Y        Z     Total
 -----------------------------------------------
 CM5        -12.4548  -9.2828   1.6699  15.6231
 Hirshfeld  -11.6449  -8.5920   1.5634  14.5558
 -----------------------------------------------

    1   -3111.6563133413      1.73e-02  
Hirshfeld: reading atomic densities from disk.

 Charges (in A.U.) from CM5PAC (Nov. 11, 2011)
 -----------------------------------------------
 Center     Atomic      CM5         Hirshfeld
 Number     Number      Charge      Charge
 -----------------------------------------------
    1         35       -0.356435   -0.372726
    2          6       -0.223324   -0.209139
    3          6       -0.046785    0.003876
    4          6       -0.003816    0.003144
    5          6       -0.021923    0.030838
    6          6       -0.027559    0.027743
    7          6       -0.005600    0.049550
    8          6       -0.026032    0.025488
    9          6       -0.036442   -0.034493
   10          6       -0.289418   -0.323889
   11          8        0.183957    0.226521
   12          6       -0.298070   -0.332409
   13          8        0.163259    0.203195
   14          1        0.009811   -0.047884
   15          1        0.001174   -0.055202
   16          1       -0.002437   -0.057918
   17          1       -0.004749   -0.060246
   18          1       -0.016792   -0.077633
 -----------------------------------------------

 Dipole moment (in Debye)
 -----------------------------------------------
                 X        Y        Z     Total
 -----------------------------------------------
 CM5         -9.3903   5.0919  -1.3070  10.7617
 Hirshfeld   -8.5804   5.7828  -1.4134  10.4433
 -----------------------------------------------

    2   -3108.5820233754      2.23e-03  
Hirshfeld: reading atomic densities from disk.

 Charges (in A.U.) from CM5PAC (Nov. 11, 2011)
 -----------------------------------------------
 Center     Atomic      CM5         Hirshfeld
 Number     Number      Charge      Charge
 -----------------------------------------------
    1         35       -0.154943   -0.171234
    2          6        0.043457    0.057642
    3          6       -0.070763   -0.020101
    4          6       -0.017314   -0.010354
    5          6       -0.093493   -0.040732
    6          6       -0.096951   -0.041649
    7          6       -0.105038   -0.049888
    8          6       -0.081824   -0.030304
    9          6       -0.007824   -0.005874
   10          6        0.143036    0.108565
   11          8       -0.523165   -0.480601
   12          6        0.142066    0.107728
   13          8       -0.514299   -0.474364
   14          1        0.059049    0.001355
   15          1        0.070208    0.013832
   16          1        0.071935    0.016454
   17          1        0.068405    0.012908
   18          1        0.066516    0.005676
 -----------------------------------------------

 Dipole moment (in Debye)
 -----------------------------------------------
                 X        Y        Z     Total
 -----------------------------------------------
 CM5        -12.4507  -6.0348   0.9593  13.8693
 Hirshfeld  -11.6408  -5.3440   0.8529  12.8372
 -----------------------------------------------

    3   -3108.1449369590      3.87e-03  
Hirshfeld: reading atomic densities from disk.

 Charges (in A.U.) from CM5PAC (Nov. 11, 2011)
 -----------------------------------------------
 Center     Atomic      CM5         Hirshfeld
 Number     Number      Charge      Charge
 -----------------------------------------------
    1         35       -0.065806   -0.082097
    2          6       -0.084673   -0.070488
    3          6       -0.154350   -0.103689
    4          6       -0.055109   -0.048150
    5          6       -0.106812   -0.054051
    6          6       -0.114103   -0.058801
    7          6       -0.119413   -0.064262
    8          6       -0.110786   -0.059266
    9          6       -0.070241   -0.068291
   10          6        0.087795    0.053325
   11          8       -0.371599   -0.329034
   12          6        0.064849    0.030511
   13          8       -0.384197   -0.344262
   14          1        0.094017    0.036322
   15          1        0.099280    0.042904
   16          1        0.099583    0.044102
   17          1        0.097030    0.041533
   18          1        0.093697    0.032856
 -----------------------------------------------

 Dipole moment (in Debye)
 -----------------------------------------------
                 X        Y        Z     Total
 -----------------------------------------------
 CM5        -10.9679  -4.4506   0.6945  11.8569
 Hirshfeld  -10.1580  -3.7597   0.5880  10.8475
 -----------------------------------------------

    4   -3108.8283388615      8.22e-04  
Hirshfeld: reading atomic densities from disk.

 Charges (in A.U.) from CM5PAC (Nov. 11, 2011)
 -----------------------------------------------
 Center     Atomic      CM5         Hirshfeld
 Number     Number      Charge      Charge
 -----------------------------------------------
    1         35       -0.114160   -0.130451
    2          6       -0.038709   -0.024524
    3          6       -0.122329   -0.071668
    4          6       -0.023777   -0.016817
    5          6       -0.110761   -0.058000
    6          6       -0.118502   -0.063200
    7          6       -0.121864   -0.066714
    8          6       -0.109220   -0.057700
    9          6       -0.047025   -0.045075
   10          6        0.076008    0.041537
   11          8       -0.392882   -0.350318
   12          6        0.061396    0.027058
   13          8       -0.395167   -0.355232
   14          1        0.087129    0.029435
   15          1        0.093676    0.037300
   16          1        0.094665    0.039184
   17          1        0.092111    0.036614
   18          1        0.088548    0.027707
 -----------------------------------------------

 Dipole moment (in Debye)
 -----------------------------------------------
                 X        Y        Z     Total
 -----------------------------------------------
 CM5        -11.3841  -4.7060   0.7273  12.3399
 Hirshfeld  -10.5742  -4.0151   0.6209  11.3279
 -----------------------------------------------

    5   -3108.8616484543      2.26e-04  
Hirshfeld: reading atomic densities from disk.

 Charges (in A.U.) from CM5PAC (Nov. 11, 2011)
 -----------------------------------------------
 Center     Atomic      CM5         Hirshfeld
 Number     Number      Charge      Charge
 -----------------------------------------------
    1         35       -0.104045   -0.120336
    2          6       -0.054138   -0.039953
    3          6       -0.131580   -0.080918
    4          6       -0.039967   -0.033007
    5          6       -0.105917   -0.053156
    6          6       -0.110014   -0.054713
    7          6       -0.114502   -0.059351
    8          6       -0.104203   -0.052683
    9          6       -0.050980   -0.049030
   10          6        0.087230    0.052759
   11          8       -0.391316   -0.348752
   12          6        0.069631    0.035293
   13          8       -0.399973   -0.360037
   14          1        0.087362    0.029668
   15          1        0.092295    0.035919
   16          1        0.092487    0.037006
   17          1        0.089896    0.034400
   18          1        0.086866    0.026026
 -----------------------------------------------

 Dipole moment (in Debye)
 -----------------------------------------------
                 X        Y        Z     Total
 -----------------------------------------------
 CM5        -11.4573  -4.5362   0.6862  12.3417
 Hirshfeld  -10.6475  -3.8453   0.5797  11.3354
 -----------------------------------------------

    6   -3108.8658251312      9.12e-05  
Hirshfeld: reading atomic densities from disk.

 Charges (in A.U.) from CM5PAC (Nov. 11, 2011)
 -----------------------------------------------
 Center     Atomic      CM5         Hirshfeld
 Number     Number      Charge      Charge
 -----------------------------------------------
    1         35       -0.103027   -0.119318
    2          6       -0.049872   -0.035687
    3          6       -0.129526   -0.078864
    4          6       -0.036141   -0.029181
    5          6       -0.106195   -0.053434
    6          6       -0.114092   -0.058790
    7          6       -0.118451   -0.063301
    8          6       -0.106597   -0.055077
    9          6       -0.052134   -0.050184
   10          6        0.085250    0.050779
   11          8       -0.392507   -0.349942
   12          6        0.068158    0.033820
   13          8       -0.397583   -0.357648
   14          1        0.086680    0.028985
   15          1        0.092856    0.036480
   16          1        0.093493    0.038012
   17          1        0.091063    0.035566
   18          1        0.087759    0.026919
 -----------------------------------------------

 Dipole moment (in Debye)
 -----------------------------------------------
                 X        Y        Z     Total
 -----------------------------------------------
 CM5        -11.3206  -4.6269   0.7136  12.2504
 Hirshfeld  -10.5107  -3.9361   0.6071  11.2399
 -----------------------------------------------

    7   -3108.8660793070      2.84e-05  
Hirshfeld: reading atomic densities from disk.

 Charges (in A.U.) from CM5PAC (Nov. 11, 2011)
 -----------------------------------------------
 Center     Atomic      CM5         Hirshfeld
 Number     Number      Charge      Charge
 -----------------------------------------------
    1         35       -0.102684   -0.118975
    2          6       -0.051454   -0.037269
    3          6       -0.130415   -0.079753
    4          6       -0.036822   -0.029862
    5          6       -0.107271   -0.054510
    6          6       -0.112813   -0.057511
    7          6       -0.116953   -0.061803
    8          6       -0.105954   -0.054434
    9          6       -0.050923   -0.048973
   10          6        0.085253    0.050782
   11          8       -0.391142   -0.348577
   12          6        0.067796    0.033458
   13          8       -0.399206   -0.359270
   14          1        0.087109    0.029415
   15          1        0.092871    0.036495
   16          1        0.093329    0.037848
   17          1        0.090817    0.035320
   18          1        0.087596    0.026756
 -----------------------------------------------

 Dipole moment (in Debye)
 -----------------------------------------------
                 X        Y        Z     Total
 -----------------------------------------------
 CM5        -11.3779  -4.5941   0.7032  12.2905
 Hirshfeld  -10.5680  -3.9033   0.5968  11.2816
 -----------------------------------------------

    8   -3108.8661789941      1.32e-05  
Hirshfeld: reading atomic densities from disk.

 Charges (in A.U.) from CM5PAC (Nov. 11, 2011)
 -----------------------------------------------
 Center     Atomic      CM5         Hirshfeld
 Number     Number      Charge      Charge
 -----------------------------------------------
    1         35       -0.103387   -0.119678
    2          6       -0.050501   -0.036316
    3          6       -0.130768   -0.080106
    4          6       -0.037099   -0.030140
    5          6       -0.106634   -0.053873
    6          6       -0.112965   -0.057664
    7          6       -0.117263   -0.062113
    8          6       -0.106270   -0.054750
    9          6       -0.051366   -0.049416
   10          6        0.085611    0.051140
   11          8       -0.392383   -0.349819
   12          6        0.068148    0.033809
   13          8       -0.397639   -0.357704
   14          1        0.087054    0.029359
   15          1        0.092815    0.036439
   16          1        0.093293    0.037812
   17          1        0.090851    0.035354
   18          1        0.087641    0.026801
 -----------------------------------------------

 Dipole moment (in Debye)
 -----------------------------------------------
                 X        Y        Z     Total
 -----------------------------------------------
 CM5        -11.3536  -4.5999   0.7058  12.2703
 Hirshfeld  -10.5437  -3.9091   0.5994  11.2610
 -----------------------------------------------

    9   -3108.8661638559      7.78e-06  
Hirshfeld: reading atomic densities from disk.

 Charges (in A.U.) from CM5PAC (Nov. 11, 2011)
 -----------------------------------------------
 Center     Atomic      CM5         Hirshfeld
 Number     Number      Charge      Charge
 -----------------------------------------------
    1         35       -0.103248   -0.119539
    2          6       -0.050589   -0.036404
    3          6       -0.130182   -0.079520
    4          6       -0.036708   -0.029748
    5          6       -0.106776   -0.054015
    6          6       -0.113263   -0.057961
    7          6       -0.117464   -0.062314
    8          6       -0.106234   -0.054714
    9          6       -0.051171   -0.049221
   10          6        0.085317    0.050847
   11          8       -0.391511   -0.348946
   12          6        0.067988    0.033650
   13          8       -0.398549   -0.358613
   14          1        0.086955    0.029260
   15          1        0.092802    0.036427
   16          1        0.093303    0.037822
   17          1        0.090856    0.035359
   18          1        0.087607    0.026766
 -----------------------------------------------

 Dipole moment (in Debye)
 -----------------------------------------------
                 X        Y        Z     Total
 -----------------------------------------------
 CM5        -11.3569  -4.5996   0.7056  12.2732
 Hirshfeld  -10.5470  -3.9087   0.5991  11.2639
 -----------------------------------------------

   10   -3108.8662050439      4.95e-06  
Hirshfeld: reading atomic densities from disk.

 Charges (in A.U.) from CM5PAC (Nov. 11, 2011)
 -----------------------------------------------
 Center     Atomic      CM5         Hirshfeld
 Number     Number      Charge      Charge
 -----------------------------------------------
    1         35       -0.103063   -0.119354
    2          6       -0.050682   -0.036497
    3          6       -0.130320   -0.079659
    4          6       -0.036778   -0.029818
    5          6       -0.106945   -0.054184
    6          6       -0.113145   -0.057843
    7          6       -0.117310   -0.062159
    8          6       -0.106170   -0.054650
    9          6       -0.051079   -0.049129
   10          6        0.085348    0.050877
   11          8       -0.391707   -0.349142
   12          6        0.067827    0.033488
   13          8       -0.398286   -0.358350
   14          1        0.086946    0.029251
   15          1        0.092801    0.036425
   16          1        0.093283    0.037802
   17          1        0.090826    0.035329
   18          1        0.087590    0.026749
 -----------------------------------------------

 Dipole moment (in Debye)
 -----------------------------------------------
                 X        Y        Z     Total
 -----------------------------------------------
 CM5        -11.3552  -4.5992   0.7056  12.2715
 Hirshfeld  -10.5453  -3.9083   0.5992  11.2622
 -----------------------------------------------

   11   -3108.8662118793      1.40e-06  
Hirshfeld: reading atomic densities from disk.

 Charges (in A.U.) from CM5PAC (Nov. 11, 2011)
 -----------------------------------------------
 Center     Atomic      CM5         Hirshfeld
 Number     Number      Charge      Charge
 -----------------------------------------------
    1         35       -0.103140   -0.119431
    2          6       -0.050607   -0.036422
    3          6       -0.130345   -0.079683
    4          6       -0.036819   -0.029860
    5          6       -0.106810   -0.054049
    6          6       -0.113174   -0.057872
    7          6       -0.117373   -0.062223
    8          6       -0.106228   -0.054708
    9          6       -0.051172   -0.049222
   10          6        0.085357    0.050886
   11          8       -0.391605   -0.349040
   12          6        0.067944    0.033606
   13          8       -0.398349   -0.358414
   14          1        0.086945    0.029251
   15          1        0.092794    0.036418
   16          1        0.093283    0.037802
   17          1        0.090837    0.035340
   18          1        0.087597    0.026756
 -----------------------------------------------

 Dipole moment (in Debye)
 -----------------------------------------------
                 X        Y        Z     Total
 -----------------------------------------------
 CM5        -11.3544  -4.5987   0.7055  12.2707
 Hirshfeld  -10.5446  -3.9078   0.5991  11.2613
 -----------------------------------------------

   12   -3108.8662075803      7.38e-07  
Hirshfeld: reading atomic densities from disk.

 Charges (in A.U.) from CM5PAC (Nov. 11, 2011)
 -----------------------------------------------
 Center     Atomic      CM5         Hirshfeld
 Number     Number      Charge      Charge
 -----------------------------------------------
    1         35       -0.103141   -0.119432
    2          6       -0.050667   -0.036483
    3          6       -0.130311   -0.079649
    4          6       -0.036805   -0.029846
    5          6       -0.106826   -0.054065
    6          6       -0.113188   -0.057886
    7          6       -0.117374   -0.062224
    8          6       -0.106196   -0.054676
    9          6       -0.051140   -0.049190
   10          6        0.085364    0.050893
   11          8       -0.391616   -0.349051
   12          6        0.067914    0.033576
   13          8       -0.398331   -0.358395
   14          1        0.086948    0.029254
   15          1        0.092793    0.036417
   16          1        0.093282    0.037801
   17          1        0.090834    0.035337
   18          1        0.087593    0.026753
 -----------------------------------------------

 Dipole moment (in Debye)
 -----------------------------------------------
                 X        Y        Z     Total
 -----------------------------------------------
 CM5        -11.3548  -4.5984   0.7055  12.2709
 Hirshfeld  -10.5449  -3.9075   0.5990  11.2616
 -----------------------------------------------

   13   -3108.8662107748      2.65e-07  
Hirshfeld: reading atomic densities from disk.

 Charges (in A.U.) from CM5PAC (Nov. 11, 2011)
 -----------------------------------------------
 Center     Atomic      CM5         Hirshfeld
 Number     Number      Charge      Charge
 -----------------------------------------------
    1         35       -0.103142   -0.119433
    2          6       -0.050620   -0.036435
    3          6       -0.130341   -0.079680
    4          6       -0.036816   -0.029857
    5          6       -0.106845   -0.054084
    6          6       -0.113170   -0.057868
    7          6       -0.117358   -0.062208
    8          6       -0.106210   -0.054690
    9          6       -0.051144   -0.049195
   10          6        0.085350    0.050879
   11          8       -0.391603   -0.349038
   12          6        0.067918    0.033579
   13          8       -0.398334   -0.358399
   14          1        0.086948    0.029254
   15          1        0.092794    0.036418
   16          1        0.093281    0.037800
   17          1        0.090834    0.035337
   18          1        0.087595    0.026755
 -----------------------------------------------

 Dipole moment (in Debye)
 -----------------------------------------------
                 X        Y        Z     Total
 -----------------------------------------------
 CM5        -11.3546  -4.5983   0.7054  12.2707
 Hirshfeld  -10.5448  -3.9074   0.5990  11.2614
 -----------------------------------------------

   14   -3108.8662113541      1.53e-07  
Hirshfeld: reading atomic densities from disk.

 Charges (in A.U.) from CM5PAC (Nov. 11, 2011)
 -----------------------------------------------
 Center     Atomic      CM5         Hirshfeld
 Number     Number      Charge      Charge
 -----------------------------------------------
    1         35       -0.103136   -0.119427
    2          6       -0.050643   -0.036458
    3          6       -0.130333   -0.079671
    4          6       -0.036810   -0.029850
    5          6       -0.106834   -0.054073
    6          6       -0.113179   -0.057877
    7          6       -0.117365   -0.062215
    8          6       -0.106212   -0.054692
    9          6       -0.051138   -0.049189
   10          6        0.085360    0.050890
   11          8       -0.391605   -0.349041
   12          6        0.067916    0.033577
   13          8       -0.398337   -0.358401
   14          1        0.086947    0.029253
   15          1        0.092793    0.036417
   16          1        0.093281    0.037800
   17          1        0.090835    0.035338
   18          1        0.087596    0.026756
 -----------------------------------------------

 Dipole moment (in Debye)
 -----------------------------------------------
                 X        Y        Z     Total
 -----------------------------------------------
 CM5        -11.3546  -4.5983   0.7054  12.2707
 Hirshfeld  -10.5448  -3.9074   0.5990  11.2614
 -----------------------------------------------

   15   -3108.8662112841      9.55e-08  
Hirshfeld: reading atomic densities from disk.

 Charges (in A.U.) from CM5PAC (Nov. 11, 2011)
 -----------------------------------------------
 Center     Atomic      CM5         Hirshfeld
 Number     Number      Charge      Charge
 -----------------------------------------------
    1         35       -0.103140   -0.119431
    2          6       -0.050637   -0.036452
    3          6       -0.130330   -0.079668
    4          6       -0.036817   -0.029858
    5          6       -0.106841   -0.054081
    6          6       -0.113181   -0.057879
    7          6       -0.117365   -0.062215
    8          6       -0.106201   -0.054681
    9          6       -0.051140   -0.049190
   10          6        0.085359    0.050889
   11          8       -0.391603   -0.349038
   12          6        0.067917    0.033579
   13          8       -0.398338   -0.358403
   14          1        0.086947    0.029253
   15          1        0.092794    0.036418
   16          1        0.093281    0.037800
   17          1        0.090835    0.035338
   18          1        0.087596    0.026756
 -----------------------------------------------

 Dipole moment (in Debye)
 -----------------------------------------------
                 X        Y        Z     Total
 -----------------------------------------------
 CM5        -11.3546  -4.5982   0.7054  12.2706
 Hirshfeld  -10.5448  -3.9073   0.5990  11.2613
 -----------------------------------------------

   16   -3108.8662115334      3.89e-08  
Hirshfeld: reading atomic densities from disk.

 Charges (in A.U.) from CM5PAC (Nov. 11, 2011)
 -----------------------------------------------
 Center     Atomic      CM5         Hirshfeld
 Number     Number      Charge      Charge
 -----------------------------------------------
    1         35       -0.103141   -0.119432
    2          6       -0.050639   -0.036454
    3          6       -0.130332   -0.079670
    4          6       -0.036813   -0.029854
    5          6       -0.106837   -0.054077
    6          6       -0.113179   -0.057877
    7          6       -0.117364   -0.062214
    8          6       -0.106208   -0.054688
    9          6       -0.051138   -0.049188
   10          6        0.085360    0.050889
   11          8       -0.391602   -0.349038
   12          6        0.067916    0.033578
   13          8       -0.398339   -0.358404
   14          1        0.086947    0.029253
   15          1        0.092793    0.036417
   16          1        0.093281    0.037800
   17          1        0.090835    0.035338
   18          1        0.087596    0.026756
 -----------------------------------------------

 Dipole moment (in Debye)
 -----------------------------------------------
                 X        Y        Z     Total
 -----------------------------------------------
 CM5        -11.3547  -4.5982   0.7054  12.2707
 Hirshfeld  -10.5448  -3.9073   0.5990  11.2614
 -----------------------------------------------

   17   -3108.8662117298      2.57e-08  
   18   -3108.8662116872      9.49e-09  Convergence criterion met
 ---------------------------------------
 SCF time:   CPU 2006.59s  wall 255.00s 
<S^2> =          0.759047833
(1)  E-EN(liq) elect-nuc energy of solute              -3108.866211687 a.u.
(2)  G-P(liq) polarization free energy of solvation           -47.3008 kcal/mol
(3)  G-ENP(liq) elect-nuc-pol free energy of system    -3108.941590255 a.u.
(4)  G-CDS(liq) cavity-dispersion-solvent structure 
     free energy                                               -7.9490 kcal/mol
(5)  G-P-CDS(liq) = G-P(liq) + G-CDS(liq) = (2) + (4)         -55.2498 kcal/mol
(6)  G-S(liq) free energy of system = (1) + (5)        -3108.954257837 a.u.
 SCF   energy in the final basis set =    -3108.9542578370
 Total energy in the final basis set =    -3108.9542578370
 
 --------------------------------------------------------------
 
                    Orbital Energies (a.u.)
 --------------------------------------------------------------
 
 Alpha MOs
 -- Occupied --
******** -62.4734 -56.2938 -56.2902 -56.2899 -19.0843 -19.0803 -10.2288
-10.2278 -10.2210 -10.1950 -10.1882 -10.1875 -10.1865 -10.1843 -10.1827
-10.1822  -8.6819  -6.5128  -6.5007  -6.5001  -2.6238  -2.6204  -2.6200
 -2.6103  -2.6103  -1.0222  -0.9956  -0.8775  -0.8335  -0.7826  -0.7675
 -0.7202  -0.6953  -0.6184  -0.6067  -0.5815  -0.5235  -0.4984  -0.4904
 -0.4542  -0.4423  -0.4300  -0.4288  -0.4205  -0.4067  -0.3866  -0.3812
 -0.3632  -0.3624  -0.3490  -0.3256  -0.2929  -0.2836  -0.2703  -0.2607
 -0.2317  -0.2287  -0.1636
 -- Virtual --
 -0.0484  -0.0277  -0.0223  -0.0202  -0.0158  -0.0086   0.0034   0.0034
  0.0176   0.0317   0.0327   0.0360   0.0428   0.0430   0.0487   0.0573
  0.0617   0.0715   0.0733   0.0737   0.0784   0.0805   0.0866   0.0905
  0.0910   0.0974   0.1022   0.1113   0.1122   0.1195   0.1235   0.1290
  0.1296   0.1392   0.1461   0.1526   0.1535   0.1607   0.1687   0.1810
  0.1836   0.1916   0.1958   0.2013   0.2049   0.2140   0.2209   0.2322
  0.2365   0.2395   0.2456   0.2535   0.2574   0.2637   0.2664   0.2745
  0.2753   0.2825   0.2852   0.2931   0.3002   0.3098   0.3124   0.3179
  0.3277   0.3325   0.3352   0.3519   0.3567   0.3669   0.3852   0.3989
  0.4193   0.4264   0.4428   0.4502   0.4617   0.4806   0.4961   0.5225
  0.5237   0.5321   0.5383   0.5408   0.5436   0.5524   0.5637   0.5654
  0.5844   0.5896   0.5984   0.6030   0.6110   0.6220   0.6280   0.6357
  0.6400   0.6551   0.6686   0.6697   0.6932   0.7111   0.7121   0.7257
  0.7284   0.7606   0.7650   0.7726   0.7821   0.7923   0.8141   0.8279
  0.8335   0.8481   0.8640   0.8781   0.8848   0.8926   0.8982   0.9094
  0.9412   0.9468   0.9599   0.9721   0.9837   0.9982   1.0094   1.0269
  1.0335   1.0495   1.0603   1.0805   1.0901   1.1152   1.1178   1.1280
  1.1422   1.1601   1.2076   1.2103   1.2243   1.2470   1.2482   1.2768
  1.2961   1.3291   1.3504   1.3795   1.3888   1.4696   1.4894   1.4899
  1.5077   1.5199   1.5296   1.5604   1.5666   1.6082   1.6119   1.6517
  1.6617   1.6787   1.7169   1.7240   1.7303   1.7422   1.7561   1.7631
  1.7848   1.8105   1.8265   1.8497   1.8695   1.8810   1.9004   1.9134
  1.9196   1.9342   1.9539   1.9643   1.9952   2.0147   2.0162   2.0492
  2.0742   2.0975   2.1098   2.1389   2.1580   2.1869   2.2245   2.2359
  2.2883   2.3177   2.3334   2.3685   2.3889   2.4535   2.4660   2.4753
  2.5091   2.6018   2.6150   2.6364   2.6558   2.7076   2.7172   2.7253
  2.7379   2.7518   2.7567   2.7633   2.7702   2.7778   2.7913   2.8517
  2.8536   2.8653   2.9002   2.9006   2.9298   2.9332   2.9564   2.9675
  3.0333   3.0457   3.0782   3.0841   3.1882   3.2045   3.2191   3.3087
  3.3106   3.3276   3.3787   3.3899   3.4102   3.4774   3.5317   3.5548
  3.5604   3.6155   3.6583   3.7061   3.7909   3.8538   4.0237   4.0304
  4.0511   4.0862   4.0988   4.1607   4.1734   4.2428   4.2690   4.3443
  4.4472   4.7572   4.8306   5.0409   5.1133   5.1873   5.3376   5.6829
  5.8494   6.7833   7.5839   7.6985   7.7610  23.5245  23.7562  23.9040
 23.9136  23.9347  23.9575  24.0188  24.0996  24.1375  24.1756  48.0382
 50.0037  50.1105 289.7808 289.8958 289.98421020.8553
 
 Beta MOs
 -- Occupied --
******** -62.4734 -56.2938 -56.2902 -56.2899 -19.0781 -19.0735 -10.2277
-10.2267 -10.2208 -10.1945 -10.1882 -10.1858 -10.1853 -10.1840 -10.1823
-10.1816  -8.6819  -6.5128  -6.5007  -6.5001  -2.6238  -2.6204  -2.6200
 -2.6103  -2.6103  -1.0114  -0.9837  -0.8750  -0.8310  -0.7809  -0.7649
 -0.7184  -0.6871  -0.6167  -0.6034  -0.5779  -0.5217  -0.4960  -0.4882
 -0.4526  -0.4411  -0.4273  -0.4156  -0.4148  -0.4013  -0.3848  -0.3699
 -0.3619  -0.3478  -0.3439  -0.3053  -0.2883  -0.2829  -0.2601  -0.2548
 -0.2227  -0.2225
 -- Virtual --
 -0.0981  -0.0399  -0.0278  -0.0220  -0.0202  -0.0085  -0.0014   0.0034
  0.0105   0.0178   0.0319   0.0350   0.0362   0.0431   0.0444   0.0539
  0.0573   0.0618   0.0719   0.0738   0.0742   0.0807   0.0845   0.0869
  0.0907   0.0947   0.0977   0.1024   0.1114   0.1135   0.1216   0.1238
  0.1299   0.1317   0.1392   0.1476   0.1526   0.1536   0.1609   0.1699
  0.1811   0.1847   0.1917   0.1959   0.2057   0.2093   0.2140   0.2223
  0.2326   0.2373   0.2405   0.2469   0.2554   0.2583   0.2645   0.2672
  0.2766   0.2797   0.2836   0.2856   0.2942   0.3009   0.3108   0.3136
  0.3188   0.3287   0.3360   0.3373   0.3527   0.3581   0.3679   0.3865
  0.4000   0.4221   0.4271   0.4434   0.4515   0.4638   0.4819   0.4973
  0.5246   0.5248   0.5331   0.5411   0.5430   0.5478   0.5531   0.5649
  0.5677   0.5867   0.5911   0.5994   0.6040   0.6148   0.6250   0.6294
  0.6369   0.6436   0.6558   0.6706   0.6730   0.6945   0.7117   0.7152
  0.7263   0.7289   0.7614   0.7656   0.7744   0.7827   0.7929   0.8155
  0.8290   0.8342   0.8486   0.8649   0.8798   0.8869   0.8936   0.9018
  0.9105   0.9428   0.9512   0.9623   0.9733   0.9863   0.9999   1.0101
  1.0279   1.0372   1.0514   1.0635   1.0825   1.0952   1.1196   1.1233
  1.1388   1.1448   1.1671   1.2086   1.2130   1.2326   1.2502   1.2588
  1.2834   1.2981   1.3323   1.3527   1.3821   1.3920   1.4709   1.4906
  1.4932   1.5089   1.5204   1.5325   1.5614   1.5682   1.6108   1.6149
  1.6528   1.6625   1.6808   1.7183   1.7266   1.7324   1.7451   1.7611
  1.7685   1.7879   1.8153   1.8276   1.8532   1.8722   1.8837   1.9047
  1.9171   1.9211   1.9371   1.9546   1.9662   1.9961   2.0165   2.0185
  2.0508   2.0751   2.1007   2.1118   2.1405   2.1615   2.1879   2.2263
  2.2384   2.2892   2.3213   2.3355   2.3720   2.3908   2.4556   2.4666
  2.4759   2.5103   2.6095   2.6162   2.6382   2.6591   2.7081   2.7181
  2.7334   2.7385   2.7521   2.7570   2.7705   2.7708   2.7788   2.7940
  2.8526   2.8603   2.8726   2.9041   2.9050   2.9467   2.9483   2.9729
  2.9757   3.0393   3.0517   3.0815   3.0876   3.1903   3.2057   3.2211
  3.3105   3.3273   3.3291   3.3808   3.4066   3.4116   3.4799   3.5330
  3.5570   3.5627   3.6176   3.6611   3.7088   3.7936   3.8601   4.0237
  4.0314   4.0524   4.0863   4.0988   4.1638   4.1749   4.2460   4.2693
  4.3467   4.4476   4.7616   4.8317   5.0678   5.1403   5.1927   5.3430
  5.6883   5.8547   6.7833   7.5839   7.6984   7.7610  23.5253  23.7570
 23.9054  23.9149  23.9352  23.9581  24.0195  24.0999  24.1393  24.1760
 48.0382  50.0102  50.1170 289.7808 289.8958 289.98421020.8553
 --------------------------------------------------------------
 
          Ground-State Mulliken Net Atomic Charges

     Atom                 Charge (a.u.)    Spin (a.u.)
  --------------------------------------------------------
      1 Br                    0.130322       0.003343
      2 C                     1.291969       0.024576
      3 C                     0.107346       0.142572
      4 C                    -0.139359       0.022313
      5 C                     0.837976       0.011775
      6 C                     1.126526       0.056839
      7 C                     0.820306       0.022224
      8 C                    -0.195129       0.050677
      9 C                    -1.734915       0.051153
     10 C                    -1.548280       0.059167
     11 O                    -0.350081       0.234293
     12 C                    -2.375479       0.091111
     13 O                    -0.293381       0.253254
     14 H                     0.194780      -0.014304
     15 H                     0.286715       0.001273
     16 H                     0.383732      -0.004056
     17 H                     0.322469      -0.002085
     18 H                     0.134483      -0.004126
  --------------------------------------------------------
  Sum of atomic charges =    -1.000000
  Sum of spin   charges =     1.000000

 -----------------------------------------------------------------
                    Cartesian Multipole Moments
 -----------------------------------------------------------------
    Charge (ESU x 10^10)
                -4.8032
    Dipole Moment (Debye)
         X     -12.4787      Y      -4.7766      Z       0.6822
       Tot      13.3790
    Quadrupole Moments (Debye-Ang)
        XX    -132.3139     XY      -7.8831     YY    -107.4604
        XZ       0.4310     YZ       2.9306     ZZ     -94.2268
    Octopole Moments (Debye-Ang^2)
       XXX    -455.7867    XXY       0.6921    XYY    -144.5194
       YYY      30.6322    XXZ      -6.3785    XYZ      11.1250
       YYZ       3.3303    XZZ     -92.6727    YZZ      23.2946
       ZZZ     -11.7616
    Hexadecapole Moments (Debye-Ang^3)
      XXXX   -3931.8005   XXXY     298.3998   XXYY    -886.3986
      XYYY     333.0616   YYYY   -1467.6762   XXXZ    -150.9916
      XXYZ      62.5360   XYYZ     -38.4167   YYYZ     168.5566
      XXZZ    -622.5582   XYZZ     131.8767   YYZZ    -273.0554
      XZZZ    -164.1515   YZZZ     161.2803   ZZZZ    -202.7813
 -----------------------------------------------------------------
 Total job time:  297.84s(wall), 2012.15s(cpu) 
 Wed Feb 14 16:35:57 2024

        *************************************************************
        *                                                           *
        *  Thank you very much for using Q-Chem.  Have a nice day.  *
        *                                                           *
        *************************************************************


