
Running Job 1 of 1 044-rad-CPCM.in
qchem 044-rad-CPCM.in_1755429.0 /expanse/lustre/scratch/selhajj/temp_project/qcscratch/31246080/qchem1755429/ 0
/cm/shared/apps/spack/cpu/opt/spack/linux-centos8-zen2/gcc-10.2.0/qchem-5.4-akfmr7b3t57bfs6qan3padb2wnb2i7cl/exe/qcprog.exe_s 044-rad-CPCM.in_1755429.0 /expanse/lustre/scratch/selhajj/temp_project/qcscratch/31246080/qchem1755429/
                  Welcome to Q-Chem
     A Quantum Leap Into The Future Of Chemistry


 Q-Chem 5.4, Q-Chem, Inc., Pleasanton, CA (2021)

 License issued to: University of California, San Diego (site)

 E. Epifanovsky,  A. T. B. Gilbert,  Xintian Feng,  Joonho Lee,  Yuezhi Mao,  
 N. Mardirossian,  P. Pokhilko,  A. White,  M. Wormit,  M. P. Coons,  
 A. L. Dempwolff,  Zhengting Gan,  D. Hait,  P. R. Horn,  L. D. Jacobson,  
 I. Kaliman,  J. Kussmann,  A. W. Lange,  Ka Un Lao,  D. S. Levine,  Jie Liu,  
 S. C. McKenzie,  A. F. Morrison,  K. Nanda,  F. Plasser,  D. R. Rehn,  
 M. L. Vidal,  Zhi-Qiang You,  Ying Zhu,  B. Alam,  B. Albrecht,  
 A. Aldossary,  E. Alguire,  J. H. Andersen,  D. Barton,  K. Begam,  A. Behn,  
 Y. A. Bernard,  E. J. Berquist,  H. Burton,  A. Carreras,  K. Carter-Fenk,  
 R. Chakraborty,  A. D. Chien,  K. D. Closser,  V. Cofer-Shabica,  
 S. Dasgupta,  Jia Deng,  M. de Wergifosse,  M. Diedenhofen,  Hainam Do,  
 S. Ehlert,  Po-Tung Fang,  S. Fatehi,  Qingguo Feng,  J. Gayvert,  
 Qinghui Ge,  G. Gidofalvi,  M. Goldey,  J. Gomes,  C. Gonzalez-Espinoza,  
 S. Gulania,  A. Gunina,  M. W. D. Hanson-Heine,  P. H. P. Harbach,  
 A. W. Hauser,  M. F. Herbst,  M. Hernandez Vera,  M. Hodecker,  
 Z. C. Holden,  S. Houck,  Xunkun Huang,  Kerwin Hui,  B. C. Huynh,  
 M. Ivanov,  Hyunjun Ji,  Hanjie Jiang,  B. Kaduk,  S. Kaehler,  
 K. Khistyaev,  Jaehoon Kim,  P. Klunzinger,  Z. Koczor-Benda,  
 Joong Hoon Koh,  D. Kosenkov,  L. Koulias,  T. Kowalczyk,  C. M. Krauter,  
 K. Kue,  A. Kunitsa,  T. Kus,  A. Landau,  K. V. Lawler,  D. Lefrancois,  
 S. Lehtola,  Rain Li,  Yi-Pei Li,  Jiashu Liang,  M. Liebenthal,  
 Hung-Hsuan Lin,  You-Sheng Lin,  Fenglai Liu,  Kuan-Yu Liu,  
 M. Loipersberger,  A. Luenser,  A. Manjanath,  P. Manohar,  E. Mansoor,  
 S. F. Manzer,  Shan-Ping Mao,  A. V. Marenich,  T. Markovich,  S. Mason,  
 S. A. Maurer,  P. F. McLaughlin,  M. F. S. J. Menger,  J.-M. Mewes,  
 S. A. Mewes,  P. Morgante,  J. W. Mullinax,  T. S. Nguyen-Beck,  
 K. J. Oosterbaan,  G. Paran,  Alexander C. Paul,  Suranjan K. Paul,  
 F. Pavosevic,  Zheng Pei,  S. Prager,  E. I. Proynov,  E. Ramos,  B. Rana,  
 A. E. Rask,  A. Rettig,  R. M. Richard,  F. Rob,  E. Rossomme,  T. Scheele,  
 M. Scheurer,  M. Schneider,  N. Sergueev,  S. M. Sharada,  W. Skomorowski,  
 D. W. Small,  C. J. Stein,  Yu-Chuan Su,  E. J. Sundstrom,  Zhen Tao,  
 J. Thirman,  T. Tsuchimochi,  N. M. Tubman,  S. P. Veccham,  O. Vydrov,  
 J. Wenzel,  J. Witte,  A. Yamada,  Kun Yao,  S. Yeganeh,  S. R. Yost,  
 A. Zech,  Igor Ying Zhang,  Xing Zhang,  Yu Zhang,  D. Zuev,  
 A. Aspuru-Guzik,  A. T. Bell,  N. A. Besley,  K. B. Bravaya,  B. R. Brooks,  
 D. Casanova,  Jeng-Da Chai,  S. Coriani,  C. J. Cramer,  
 A. E. DePrince, III,  R. A. DiStasio Jr.,  A. Dreuw,  B. D. Dunietz,  
 T. R. Furlani,  W. A. Goddard III,  S. Grimme,  S. Hammes-Schiffer,  
 T. Head-Gordon,  W. J. Hehre,  Chao-Ping Hsu,  T.-C. Jagau,  Yousung Jung,  
 A. Klamt,  Jing Kong,  D. S. Lambrecht,  WanZhen Liang,  N. J. Mayhall,  
 C. W. McCurdy,  J. B. Neaton,  C. Ochsenfeld,  J. A. Parkhill,  R. Peverati,  
 V. A. Rassolov,  Yihan Shao,  L. V. Slipchenko,  T. Stauch,  R. P. Steele,  
 J. E. Subotnik,  A. J. W. Thom,  A. Tkatchenko,  D. G. Truhlar,  
 T. Van Voorhis,  T. A. Wesolowski,  K. B. Whaley,  H. L. Woodcock III,  
 P. M. Zimmerman,  S. Faraji,  P. M. W. Gill,  M. Head-Gordon,  
 J. M. Herbert,  A. I. Krylov

 Contributors to earlier versions of Q-Chem not listed above: 
 R. D. Adamson,  B. Austin,  R. Baer,  J. Baker,  G. J. O. Beran,  
 K. Brandhorst,  S. T. Brown,  E. F. C. Byrd,  A. K. Chakraborty,  
 G. K. L. Chan,  Chun-Min Chang,  Yunqing Chen,  C.-L. Cheng,  
 Siu Hung Chien,  D. M. Chipman,  D. L. Crittenden,  H. Dachsel,  
 R. J. Doerksen,  A. D. Dutoi,  R. G. Edgar,  J. Fosso-Tande,  
 L. Fusti-Molnar,  D. Ghosh,  A. Ghysels,  A. Golubeva-Zadorozhnaya,  
 J. Gonthier,  M. S. Gordon,  S. R. Gwaltney,  G. Hawkins,  J. E. Herr,  
 A. Heyden,  S. Hirata,  E. G. Hohenstein,  G. Kedziora,  F. J. Keil,  
 C. Kelley,  Jihan Kim,  R. A. King,  R. Z. Khaliullin,  P. P. Korambath,  
 W. Kurlancheek,  A. Laurent,  A. M. Lee,  M. S. Lee,  S. V. Levchenko,  
 Ching Yeh Lin,  D. Liotard,  E. Livshits,  R. C. Lochan,  I. Lotan,  
 L. A. Martinez-Martinez,  P. E. Maslen,  N. Nair,  D. P. O'Neill,  
 D. Neuhauser,  E. Neuscamman,  C. M. Oana,  R. Olivares-Amaya,  R. Olson,  
 T. M. Perrine,  B. Peters,  P. A. Pieniazek,  A. Prociuk,  Y. M. Rhee,  
 J. Ritchie,  M. A. Rohrdanz,  E. Rosta,  N. J. Russ,  H. F. Schaefer III,  
 M. W. Schmidt,  N. E. Schultz,  S. Sharma,  N. Shenvi,  C. D. Sherrill,  
 A. C. Simmonett,  A. Sodt,  T. Stein,  D. Stuck,  K. S. Thanthiriwatte,  
 V. Vanovschi,  L. Vogt,  Tao Wang,  A. Warshel,  M. A. Watson,  
 C. F. Williams,  Q. Wu,  X. Xu,  Jun Yang,  W. Zhang,  Yan Zhao

 Please cite Q-Chem as follows:
 Y. Shao et al., Mol. Phys. 113, 184-215 (2015)
 DOI: 10.1080/00268976.2014.952696

 Q-Chem 5.4.0 for Intel X86 EM64T Linux

 Parts of Q-Chem use Armadillo 9.800.1 (Horizon Scraper).
 http://arma.sourceforge.net/

 Q-Chem begins on Tue Jun 11 17:30:12 2024  

 Host: 
0

     Scratch files written to /expanse/lustre/scratch/selhajj/temp_project/qcscratch/31246080/qchem1755429//
 May1621 |scratch|qcdevops|jenkins|workspace|build_RNUM    
 Processing $rem in /cm/shared/apps/spack/cpu/opt/spack/linux-centos8-zen2/gcc-10.2.0/qchem-5.4-akfmr7b3t57bfs6qan3padb2wnb2i7cl/config/preferences:
 Processing $rem in /home/selhajj/.qchemrc:
 Symmetry turned off for PCM/SM12/SMD calculation

 Checking the input file for inconsistencies... 	...done.

--------------------------------------------------------------
User input:
--------------------------------------------------------------
$molecule
-1 2
C                 -0.9279480000      2.1152020000      0.0029000000
C                 -2.0842000000      1.2702520000     -0.0669450000
C                 -2.0418280000     -0.0887470000     -0.1402570000
C                 -0.8350630000     -0.8628380000     -0.1578110000
C                  0.3709810000     -0.0286290000     -0.0668000000
C                  0.3278950000      1.3525730000      0.0076530000
O                 -0.9836740000      3.3749770000      0.0514450000
O                 -0.8123410000     -2.1215480000     -0.2451910000
C                  1.5952830000      2.1666900000      0.1015050000
C                  1.6868900000     -0.7676710000     -0.0566260000
O                 -3.3373310000     -0.5907060000     -0.2723140000
O                 -3.4088520000      1.7020220000     -0.1486680000
C                 -4.1483230000      0.5144720000      0.1058700000
H                  2.1819260000      1.9067380000      0.9920030000
H                  1.3400850000      3.2260860000      0.1489830000
H                  2.2494160000      2.0034780000     -0.7645400000
H                  1.4981550000     -1.8401110000     -0.1195660000
H                  2.2612580000     -0.5651310000      0.8564670000
H                  2.3247510000     -0.4753970000     -0.9006180000
H                 -5.0648940000      0.5177880000     -0.4861940000
H                 -4.3674050000      0.4492880000      1.1868040000
$end
$rem
MAX_SCF_CYCLES=200
BASIS  =  6-311++G(d,p)
GUI  =  2
JOB_TYPE  =  SP
METHOD  =  B3LYP
SOLVENT_METHOD = PCM
$end
$pcm
theory = CPCM
$end
$solvent
dielectric 37.219
opticaldielectric 1.43
$end





--------------------------------------------------------------
 ----------------------------------------------------------------
             Standard Nuclear Orientation (Angstroms)
    I     Atom           X                Y                Z
 ----------------------------------------------------------------
    1      C      -0.9279480000     2.1152020000     0.0029000000
    2      C      -2.0842000000     1.2702520000    -0.0669450000
    3      C      -2.0418280000    -0.0887470000    -0.1402570000
    4      C      -0.8350630000    -0.8628380000    -0.1578110000
    5      C       0.3709810000    -0.0286290000    -0.0668000000
    6      C       0.3278950000     1.3525730000     0.0076530000
    7      O      -0.9836740000     3.3749770000     0.0514450000
    8      O      -0.8123410000    -2.1215480000    -0.2451910000
    9      C       1.5952830000     2.1666900000     0.1015050000
   10      C       1.6868900000    -0.7676710000    -0.0566260000
   11      O      -3.3373310000    -0.5907060000    -0.2723140000
   12      O      -3.4088520000     1.7020220000    -0.1486680000
   13      C      -4.1483230000     0.5144720000     0.1058700000
   14      H       2.1819260000     1.9067380000     0.9920030000
   15      H       1.3400850000     3.2260860000     0.1489830000
   16      H       2.2494160000     2.0034780000    -0.7645400000
   17      H       1.4981550000    -1.8401110000    -0.1195660000
   18      H       2.2612580000    -0.5651310000     0.8564670000
   19      H       2.3247510000    -0.4753970000    -0.9006180000
   20      H      -5.0648940000     0.5177880000    -0.4861940000
   21      H      -4.3674050000     0.4492880000     1.1868040000
 ----------------------------------------------------------------
 Nuclear Repulsion Energy =         790.85523601 hartrees
 There are       48 alpha and       47 beta electrons
 Requested basis set is 6-311++G(d,p)
 There are 118 shells and 342 basis functions

 Total QAlloc Memory Limit   8000 MB
 Mega-Array Size       188 MB
 MEM_STATIC part       192 MB
 Discretize the solute cavity surface with Lebedev spheres
	Using 110 Lebedev grid points for each H atom
	Using 194 Lebedev grid points for other atoms
	Atomic van der Waals radii will be scaled by 1.20
 Remove points where switching function is < 1.0e-08
 Keep 1452 surface tesserae and discard 1950 interior tesserae
 Molecular Surface Area = 205.871 Angst**2
 A cutoff of  1.0D-08 yielded   5399 shell pairs
 There are     47118 function pairs (     50539 Cartesian)
 Smallest overlap matrix eigenvalue = 6.75E-07

 Q-Chem warning in module stvman/mkSTV.C, line 323:

 Overlap eigenvalue is smaller than square root of threshold
 Use THRESH >= 12 to get rid of this warning

 Linear dependence detected in AO basis
 Tighter screening thresholds may be required for diffuse basis sets
 Use S2THRESH > 14 and THRESH = 14 in case of SCF convergence issues
 Number of orthogonalized atomic orbitals = 340
 Maximum deviation from orthogonality = 5.228E-11

 Scale SEOQF with 1.000000e-01/1.000000e-01/1.000000e-01

 Standard Electronic Orientation quadrupole field applied
 Nucleus-field energy     =     0.0000000344 hartrees
 Guess from superposition of atomic densities
 Warning:  Energy on first SCF cycle will be non-variational
 SAD guess density has 94.000000 electrons

 -----------------------------------------------------------------------
  General SCF calculation program by
  Eric Jon Sundstrom, Paul Horn, Yuezhi Mao, Dmitri Zuev, Alec White,
  David Stuck, Shaama M.S., Shane Yost, Joonho Lee, David Small,
  Daniel Levine, Susi Lehtola, Hugh Burton, Evgeny Epifanovsky,
  Bang C. Huynh
 -----------------------------------------------------------------------
 Exchange:     0.2000 Hartree-Fock + 0.0800 Slater + 0.7200 B88
 Correlation:  0.1900 VWN1RPA + 0.8100 LYP
 Using SG-1 standard quadrature grid
 using 8 threads for integral computing
 -------------------------------------------------------
 OpenMP Integral computing Module                
 Release: version 1.0, May 2013, Q-Chem Inc. Pittsburgh 
 -------------------------------------------------------
 A unrestricted SCF calculation will be
 performed using DIIS
 SCF converges when DIIS error is below 1.0e-05
 ---------------------------------------
  Cycle       Energy         DIIS error
 ---------------------------------------
    1    -651.6173147067      1.76e-02  
    2    -648.6980123747      2.30e-03  
    3    -648.3640178668      3.64e-03  
    4    -648.9334915293      7.50e-04  
    5    -648.9607368991      1.68e-04  
    6    -648.9619937140      7.30e-05  
    7    -648.9622970383      2.07e-05  
    8    -648.9623237186      7.78e-06  Convergence criterion met
 ---------------------------------------
 SCF time:   CPU 187.13s  wall 28.00s 
<S^2> =          0.758878410

************** Final PCM Free Energy Summary **************
 G_electrostatic  =      -0.09457788 hartree =     -59.34851538 kcal/mol
 G_cavitation     =       0.00000000 hartree =       0.00000000 kcal/mol
 G_dispersion     =       0.00000000 hartree =       0.00000000 kcal/mol
 G_repulsion      =       0.00000000 hartree =       0.00000000 kcal/mol
 --------------------------------------------------
 Non-electrostatic Free Energy =       0.00000000 hartree =       0.00000000 kcal/mol
 Total                         =      -0.09457788 hartree =     -59.34851538 kcal/mol
 --------------------------------------------------
 SCF Energy (H0 + V/2)                       =    -648.96232372 
 Solute Internal Energy (H0)                 =    -648.86774584 
 Total Free Energy (H0 + V/2 + non-elec)     =    -648.96232372 hartree
                                             = -407230.00445558 kcal/mol
***********************************************************

 SCF   energy in the final basis set =     -648.9623237186
 Total energy in the final basis set =     -648.9623237186
 
 --------------------------------------------------------------
 
                    Orbital Energies (a.u.)
 --------------------------------------------------------------
 
 Alpha MOs
 -- Occupied --
-19.1615 -19.1615 -19.0824 -19.0823 -10.2783 -10.2284 -10.2284 -10.2187
-10.2180 -10.1698 -10.1692 -10.1518 -10.1517  -1.1233  -1.0305  -1.0051
 -1.0005  -0.8344  -0.7785  -0.7256  -0.6918  -0.6768  -0.6368  -0.5863
 -0.5786  -0.5208  -0.5124  -0.4973  -0.4568  -0.4490  -0.4339  -0.4212
 -0.4024  -0.4022  -0.3920  -0.3894  -0.3846  -0.3832  -0.3721  -0.3557
 -0.3531  -0.3435  -0.3366  -0.2632  -0.2531  -0.2460  -0.2102  -0.1635
 -- Virtual --
 -0.0045   0.0076   0.0099   0.0178   0.0289   0.0335   0.0353   0.0371
  0.0407   0.0443   0.0606   0.0643   0.0649   0.0779   0.0793   0.0862
  0.0985   0.1083   0.1085   0.1162   0.1171   0.1216   0.1333   0.1337
  0.1355   0.1380   0.1459   0.1506   0.1513   0.1520   0.1572   0.1595
  0.1642   0.1695   0.1697   0.1724   0.1823   0.1874   0.1898   0.2009
  0.2023   0.2061   0.2081   0.2164   0.2176   0.2276   0.2483   0.2492
  0.2543   0.2645   0.2654   0.2770   0.2777   0.2815   0.2939   0.2950
  0.2997   0.3012   0.3042   0.3071   0.3105   0.3167   0.3236   0.3245
  0.3354   0.3381   0.3446   0.3464   0.3537   0.3542   0.3687   0.3919
  0.4062   0.4156   0.4161   0.4172   0.4351   0.4485   0.4525   0.4767
  0.4827   0.4875   0.4980   0.4991   0.5279   0.5415   0.5662   0.5828
  0.5969   0.5976   0.6104   0.6165   0.6174   0.6220   0.6399   0.6535
  0.6703   0.6772   0.6853   0.6925   0.7039   0.7053   0.7101   0.7209
  0.7252   0.7350   0.7485   0.7705   0.7712   0.7853   0.8122   0.8392
  0.8852   0.8912   0.9122   0.9172   0.9371   0.9384   0.9450   0.9628
  0.9805   0.9918   1.0196   1.0466   1.0602   1.0623   1.0637   1.0652
  1.1113   1.1282   1.1455   1.1458   1.1856   1.1868   1.2112   1.2239
  1.2315   1.2333   1.2496   1.2508   1.2784   1.2875   1.3137   1.3215
  1.3435   1.3530   1.3693   1.3816   1.3959   1.4032   1.4681   1.4814
  1.4821   1.5499   1.5617   1.5690   1.5727   1.5935   1.6018   1.6163
  1.6189   1.6365   1.6435   1.6523   1.6610   1.6914   1.7169   1.7237
  1.7448   1.7487   1.7670   1.7831   1.7914   1.8167   1.8294   1.8482
  1.8603   1.8635   1.8832   1.8911   1.8965   1.9030   1.9167   1.9205
  1.9639   2.0288   2.0494   2.0850   2.1076   2.1444   2.1573   2.1990
  2.2228   2.2393   2.2473   2.2614   2.3109   2.3189   2.3586   2.3612
  2.4276   2.4452   2.4711   2.4865   2.5102   2.5300   2.5479   2.5658
  2.5752   2.5978   2.6234   2.6422   2.6537   2.6709   2.6976   2.6978
  2.7452   2.7711   2.8200   2.8312   2.8465   2.8692   2.9006   2.9058
  2.9211   2.9470   2.9585   2.9631   2.9660   3.0090   3.0196   3.0742
  3.0943   3.0950   3.1417   3.1507   3.1865   3.1948   3.2030   3.2262
  3.2493   3.3198   3.3236   3.3508   3.3621   3.3921   3.4954   3.5172
  3.5235   3.5414   3.5788   3.7181   3.7562   3.8020   3.8290   3.8303
  3.8432   3.9259   3.9486   3.9974   4.0852   4.1740   4.2018   4.2785
  4.2812   4.3743   4.8147   5.0358   5.0481   5.0789   5.1116   5.2389
  5.2772   5.3843   5.4942   5.5330   5.7545   5.7792   5.8465  23.5741
 23.7815  23.8083  23.9372  23.9561  23.9747  23.9949  24.1063  24.1425
 49.9087  49.9623  50.0536  50.1047
 
 Beta MOs
 -- Occupied --
-19.1612 -19.1611 -19.0759 -19.0758 -10.2783 -10.2265 -10.2265 -10.2178
-10.2171 -10.1689 -10.1683 -10.1518 -10.1518  -1.1227  -1.0289  -0.9935
 -0.9895  -0.8290  -0.7767  -0.7215  -0.6903  -0.6694  -0.6359  -0.5830
 -0.5754  -0.5192  -0.5098  -0.4947  -0.4550  -0.4447  -0.4269  -0.4139
 -0.3999  -0.3947  -0.3875  -0.3844  -0.3825  -0.3820  -0.3612  -0.3510
 -0.3510  -0.3323  -0.3236  -0.2473  -0.2400  -0.2388  -0.2035
 -- Virtual --
 -0.0921  -0.0040   0.0102   0.0179   0.0211   0.0307   0.0348   0.0375
  0.0396   0.0444   0.0581   0.0611   0.0654   0.0656   0.0783   0.0810
  0.0864   0.0997   0.1089   0.1092   0.1168   0.1174   0.1218   0.1338
  0.1340   0.1365   0.1387   0.1463   0.1514   0.1517   0.1532   0.1574
  0.1600   0.1649   0.1698   0.1726   0.1782   0.1827   0.1883   0.1927
  0.2014   0.2032   0.2059   0.2095   0.2167   0.2179   0.2284   0.2492
  0.2500   0.2572   0.2655   0.2658   0.2780   0.2788   0.2825   0.2945
  0.2966   0.3013   0.3027   0.3062   0.3079   0.3137   0.3199   0.3268
  0.3277   0.3378   0.3388   0.3459   0.3476   0.3542   0.3561   0.3691
  0.3940   0.4076   0.4164   0.4176   0.4182   0.4361   0.4500   0.4529
  0.4803   0.4836   0.4887   0.4988   0.5013   0.5291   0.5436   0.5704
  0.5831   0.5984   0.5997   0.6129   0.6180   0.6203   0.6267   0.6404
  0.6548   0.6720   0.6809   0.6863   0.6940   0.7052   0.7085   0.7104
  0.7218   0.7277   0.7366   0.7496   0.7712   0.7730   0.7865   0.8128
  0.8396   0.8912   0.8926   0.9148   0.9181   0.9401   0.9409   0.9469
  0.9652   0.9842   0.9954   1.0205   1.0503   1.0610   1.0633   1.0677
  1.0712   1.1131   1.1342   1.1476   1.1561   1.1874   1.1879   1.2181
  1.2270   1.2343   1.2412   1.2522   1.2549   1.2820   1.2916   1.3161
  1.3259   1.3464   1.3547   1.3713   1.3845   1.4000   1.4050   1.4685
  1.4819   1.4846   1.5507   1.5625   1.5699   1.5734   1.5949   1.6025
  1.6180   1.6197   1.6389   1.6456   1.6526   1.6639   1.6969   1.7184
  1.7249   1.7467   1.7493   1.7709   1.7872   1.7942   1.8196   1.8330
  1.8500   1.8621   1.8661   1.8869   1.8937   1.8989   1.9057   1.9186
  1.9268   1.9657   2.0319   2.0523   2.0859   2.1099   2.1480   2.1585
  2.2017   2.2252   2.2446   2.2483   2.2624   2.3124   2.3203   2.3596
  2.3640   2.4335   2.4456   2.4714   2.4871   2.5107   2.5306   2.5489
  2.5660   2.5766   2.5987   2.6314   2.6433   2.6568   2.6716   2.6984
  2.7047   2.7455   2.7794   2.8215   2.8334   2.8475   2.8810   2.9082
  2.9191   2.9344   2.9565   2.9629   2.9674   2.9770   3.0116   3.0289
  3.0762   3.0972   3.1024   3.1427   3.1524   3.1879   3.1958   3.2052
  3.2305   3.2509   3.3225   3.3394   3.3647   3.3677   3.3933   3.4973
  3.5195   3.5268   3.5451   3.5815   3.7195   3.7565   3.8031   3.8305
  3.8345   3.8440   3.9267   3.9507   3.9979   4.0861   4.1745   4.2050
  4.2823   4.2845   4.3758   4.8200   5.0382   5.0553   5.1049   5.1328
  5.2440   5.2824   5.3850   5.4947   5.5345   5.7569   5.7838   5.8501
 23.5754  23.7824  23.8087  23.9391  23.9583  23.9750  23.9950  24.1071
 24.1435  49.9094  49.9634  50.0597  50.1105
 --------------------------------------------------------------
 
          Ground-State Mulliken Net Atomic Charges

     Atom                 Charge (a.u.)    Spin (a.u.)
  --------------------------------------------------------
      1 C                    -0.902439       0.104224
      2 C                     0.317912       0.052319
      3 C                     0.320695       0.052584
      4 C                    -0.904967       0.104219
      5 C                     0.644462       0.086207
      6 C                     0.646081       0.086397
      7 O                    -0.533567       0.239680
      8 O                    -0.533361       0.239762
      9 C                    -0.475066       0.003312
     10 C                    -0.476412       0.003357
     11 O                    -0.217107       0.008628
     12 O                    -0.217067       0.008614
     13 C                    -0.077612       0.001323
     14 H                     0.159585       0.003417
     15 H                     0.178661      -0.001481
     16 H                     0.160580       0.003415
     17 H                     0.178513      -0.001479
     18 H                     0.159398       0.003386
     19 H                     0.160865       0.003442
     20 H                     0.202200      -0.000246
     21 H                     0.208645      -0.001077
  --------------------------------------------------------
  Sum of atomic charges =    -1.000000
  Sum of spin   charges =     1.000000

 -----------------------------------------------------------------
                    Cartesian Multipole Moments
 -----------------------------------------------------------------
    Charge (ESU x 10^10)
                -4.8032
    Dipole Moment (Debye)
         X       5.6105      Y      -3.0146      Z       1.2571
       Tot       6.4920
    Quadrupole Moments (Debye-Ang)
        XX     -77.6161     XY       5.3135     YY    -127.1320
        XZ      -3.2299     YZ      -1.8379     ZZ     -78.0105
    Octopole Moments (Debye-Ang^2)
       XXX     196.3802    XXY     -53.7453    XYY     143.4390
       YYY    -233.8519    XXZ      14.1578    XYZ       1.3225
       YYZ       7.3398    XZZ      78.3030    YZZ     -47.8860
       ZZZ      13.8918
    Hexadecapole Moments (Debye-Ang^3)
      XXXX   -1926.0119   XXXY     134.7555   XXYY    -724.7260
      XYYY     261.8591   YYYY   -1861.3868   XXXZ     -51.5559
      XXYZ      -8.0284   XYYZ     -14.0268   YYYZ     -34.0191
      XXZZ    -379.2970   XYZZ      45.4977   YYZZ    -250.1664
      XZZZ     -26.7050   YZZZ     -21.3425   ZZZZ    -113.5562
 -----------------------------------------------------------------
 Total job time:  34.80s(wall), 195.25s(cpu) 
 Tue Jun 11 17:30:47 2024

        *************************************************************
        *                                                           *
        *  Thank you very much for using Q-Chem.  Have a nice day.  *
        *                                                           *
        *************************************************************


