
Running Job 1 of 1 220-SM12.in
qchem 220-SM12.in_673449.0 /expanse/lustre/scratch/selhajj/temp_project/qcscratch/28446372/qchem673449/ 0
/cm/shared/apps/spack/cpu/opt/spack/linux-centos8-zen2/gcc-10.2.0/qchem-5.4-akfmr7b3t57bfs6qan3padb2wnb2i7cl/exe/qcprog.exe_s 220-SM12.in_673449.0 /expanse/lustre/scratch/selhajj/temp_project/qcscratch/28446372/qchem673449/
                  Welcome to Q-Chem
     A Quantum Leap Into The Future Of Chemistry


 Q-Chem 5.4, Q-Chem, Inc., Pleasanton, CA (2021)

 License issued to: University of California, San Diego (site)

 E. Epifanovsky,  A. T. B. Gilbert,  Xintian Feng,  Joonho Lee,  Yuezhi Mao,  
 N. Mardirossian,  P. Pokhilko,  A. White,  M. Wormit,  M. P. Coons,  
 A. L. Dempwolff,  Zhengting Gan,  D. Hait,  P. R. Horn,  L. D. Jacobson,  
 I. Kaliman,  J. Kussmann,  A. W. Lange,  Ka Un Lao,  D. S. Levine,  Jie Liu,  
 S. C. McKenzie,  A. F. Morrison,  K. Nanda,  F. Plasser,  D. R. Rehn,  
 M. L. Vidal,  Zhi-Qiang You,  Ying Zhu,  B. Alam,  B. Albrecht,  
 A. Aldossary,  E. Alguire,  J. H. Andersen,  D. Barton,  K. Begam,  A. Behn,  
 Y. A. Bernard,  E. J. Berquist,  H. Burton,  A. Carreras,  K. Carter-Fenk,  
 R. Chakraborty,  A. D. Chien,  K. D. Closser,  V. Cofer-Shabica,  
 S. Dasgupta,  Jia Deng,  M. de Wergifosse,  M. Diedenhofen,  Hainam Do,  
 S. Ehlert,  Po-Tung Fang,  S. Fatehi,  Qingguo Feng,  J. Gayvert,  
 Qinghui Ge,  G. Gidofalvi,  M. Goldey,  J. Gomes,  C. Gonzalez-Espinoza,  
 S. Gulania,  A. Gunina,  M. W. D. Hanson-Heine,  P. H. P. Harbach,  
 A. W. Hauser,  M. F. Herbst,  M. Hernandez Vera,  M. Hodecker,  
 Z. C. Holden,  S. Houck,  Xunkun Huang,  Kerwin Hui,  B. C. Huynh,  
 M. Ivanov,  Hyunjun Ji,  Hanjie Jiang,  B. Kaduk,  S. Kaehler,  
 K. Khistyaev,  Jaehoon Kim,  P. Klunzinger,  Z. Koczor-Benda,  
 Joong Hoon Koh,  D. Kosenkov,  L. Koulias,  T. Kowalczyk,  C. M. Krauter,  
 K. Kue,  A. Kunitsa,  T. Kus,  A. Landau,  K. V. Lawler,  D. Lefrancois,  
 S. Lehtola,  Rain Li,  Yi-Pei Li,  Jiashu Liang,  M. Liebenthal,  
 Hung-Hsuan Lin,  You-Sheng Lin,  Fenglai Liu,  Kuan-Yu Liu,  
 M. Loipersberger,  A. Luenser,  A. Manjanath,  P. Manohar,  E. Mansoor,  
 S. F. Manzer,  Shan-Ping Mao,  A. V. Marenich,  T. Markovich,  S. Mason,  
 S. A. Maurer,  P. F. McLaughlin,  M. F. S. J. Menger,  J.-M. Mewes,  
 S. A. Mewes,  P. Morgante,  J. W. Mullinax,  T. S. Nguyen-Beck,  
 K. J. Oosterbaan,  G. Paran,  Alexander C. Paul,  Suranjan K. Paul,  
 F. Pavosevic,  Zheng Pei,  S. Prager,  E. I. Proynov,  E. Ramos,  B. Rana,  
 A. E. Rask,  A. Rettig,  R. M. Richard,  F. Rob,  E. Rossomme,  T. Scheele,  
 M. Scheurer,  M. Schneider,  N. Sergueev,  S. M. Sharada,  W. Skomorowski,  
 D. W. Small,  C. J. Stein,  Yu-Chuan Su,  E. J. Sundstrom,  Zhen Tao,  
 J. Thirman,  T. Tsuchimochi,  N. M. Tubman,  S. P. Veccham,  O. Vydrov,  
 J. Wenzel,  J. Witte,  A. Yamada,  Kun Yao,  S. Yeganeh,  S. R. Yost,  
 A. Zech,  Igor Ying Zhang,  Xing Zhang,  Yu Zhang,  D. Zuev,  
 A. Aspuru-Guzik,  A. T. Bell,  N. A. Besley,  K. B. Bravaya,  B. R. Brooks,  
 D. Casanova,  Jeng-Da Chai,  S. Coriani,  C. J. Cramer,  
 A. E. DePrince, III,  R. A. DiStasio Jr.,  A. Dreuw,  B. D. Dunietz,  
 T. R. Furlani,  W. A. Goddard III,  S. Grimme,  S. Hammes-Schiffer,  
 T. Head-Gordon,  W. J. Hehre,  Chao-Ping Hsu,  T.-C. Jagau,  Yousung Jung,  
 A. Klamt,  Jing Kong,  D. S. Lambrecht,  WanZhen Liang,  N. J. Mayhall,  
 C. W. McCurdy,  J. B. Neaton,  C. Ochsenfeld,  J. A. Parkhill,  R. Peverati,  
 V. A. Rassolov,  Yihan Shao,  L. V. Slipchenko,  T. Stauch,  R. P. Steele,  
 J. E. Subotnik,  A. J. W. Thom,  A. Tkatchenko,  D. G. Truhlar,  
 T. Van Voorhis,  T. A. Wesolowski,  K. B. Whaley,  H. L. Woodcock III,  
 P. M. Zimmerman,  S. Faraji,  P. M. W. Gill,  M. Head-Gordon,  
 J. M. Herbert,  A. I. Krylov

 Contributors to earlier versions of Q-Chem not listed above: 
 R. D. Adamson,  B. Austin,  R. Baer,  J. Baker,  G. J. O. Beran,  
 K. Brandhorst,  S. T. Brown,  E. F. C. Byrd,  A. K. Chakraborty,  
 G. K. L. Chan,  Chun-Min Chang,  Yunqing Chen,  C.-L. Cheng,  
 Siu Hung Chien,  D. M. Chipman,  D. L. Crittenden,  H. Dachsel,  
 R. J. Doerksen,  A. D. Dutoi,  R. G. Edgar,  J. Fosso-Tande,  
 L. Fusti-Molnar,  D. Ghosh,  A. Ghysels,  A. Golubeva-Zadorozhnaya,  
 J. Gonthier,  M. S. Gordon,  S. R. Gwaltney,  G. Hawkins,  J. E. Herr,  
 A. Heyden,  S. Hirata,  E. G. Hohenstein,  G. Kedziora,  F. J. Keil,  
 C. Kelley,  Jihan Kim,  R. A. King,  R. Z. Khaliullin,  P. P. Korambath,  
 W. Kurlancheek,  A. Laurent,  A. M. Lee,  M. S. Lee,  S. V. Levchenko,  
 Ching Yeh Lin,  D. Liotard,  E. Livshits,  R. C. Lochan,  I. Lotan,  
 L. A. Martinez-Martinez,  P. E. Maslen,  N. Nair,  D. P. O'Neill,  
 D. Neuhauser,  E. Neuscamman,  C. M. Oana,  R. Olivares-Amaya,  R. Olson,  
 T. M. Perrine,  B. Peters,  P. A. Pieniazek,  A. Prociuk,  Y. M. Rhee,  
 J. Ritchie,  M. A. Rohrdanz,  E. Rosta,  N. J. Russ,  H. F. Schaefer III,  
 M. W. Schmidt,  N. E. Schultz,  S. Sharma,  N. Shenvi,  C. D. Sherrill,  
 A. C. Simmonett,  A. Sodt,  T. Stein,  D. Stuck,  K. S. Thanthiriwatte,  
 V. Vanovschi,  L. Vogt,  Tao Wang,  A. Warshel,  M. A. Watson,  
 C. F. Williams,  Q. Wu,  X. Xu,  Jun Yang,  W. Zhang,  Yan Zhao

 Please cite Q-Chem as follows:
 Y. Shao et al., Mol. Phys. 113, 184-215 (2015)
 DOI: 10.1080/00268976.2014.952696

 Q-Chem 5.4.0 for Intel X86 EM64T Linux

 Parts of Q-Chem use Armadillo 9.800.1 (Horizon Scraper).
 http://arma.sourceforge.net/

 Q-Chem begins on Sat Feb  3 12:51:44 2024  

 Host: 
0

     Scratch files written to /expanse/lustre/scratch/selhajj/temp_project/qcscratch/28446372/qchem673449//
 May1621 |scratch|qcdevops|jenkins|workspace|build_RNUM    
 Processing $rem in /cm/shared/apps/spack/cpu/opt/spack/linux-centos8-zen2/gcc-10.2.0/qchem-5.4-akfmr7b3t57bfs6qan3padb2wnb2i7cl/config/preferences:
 Processing $rem in /home/selhajj/.qchemrc:
 Symmetry turned off for PCM/SM12/SMD calculation
 Method-specific promolecule density matrix will be built for SM12 calculation

 Checking the input file for inconsistencies... 	...done.

--------------------------------------------------------------
User input:
--------------------------------------------------------------
$molecule
0 1
C                  4.9907540000     -2.6335900000      0.0698850000
C                  5.7052320000     -1.6995910000     -0.6653780000
C                  5.0685610000     -0.6749410000     -1.3677000000
C                  3.5981980000     -2.5332190000      0.1244280000
C                  2.9424430000     -1.5009570000     -0.5683670000
C                  3.6844640000     -0.5793110000     -1.3133100000
C                  2.8382390000     -3.5396560000      0.9245320000
C                  1.3502850000     -3.4132090000      0.9480940000
C                  0.6912460000     -2.3822230000      0.2565070000
C                  1.4548680000     -1.3670120000     -0.5299910000
C                  0.6095530000     -4.3486750000      1.6750610000
C                 -0.7038380000     -2.2971490000      0.2945150000
C                 -1.4427020000     -3.2238430000      1.0178020000
O                  3.4086930000     -4.4229950000      1.5375910000
O                  0.8861270000     -0.4650270000     -1.1184520000
H                  5.4859540000     -3.4437250000      0.5901150000
H                 -2.5243240000     -3.1808640000      1.0406750000
H                  3.1579320000      0.2016440000     -1.8473330000
H                  1.1241470000     -5.1512380000      2.1881560000
H                 -1.1912450000     -1.5008720000     -0.2538310000
C                 -0.7723060000     -4.2353320000      1.7077230000
S                  7.5057010000     -1.8213810000     -0.7324010000
S                 -1.7328770000     -5.4381670000      2.6518890000
O                 -0.9518770000     -6.6679870000      2.7131530000
O                 -3.0995460000     -5.3925000000      2.1414820000
N                 -1.7559150000     -4.7691720000      4.2016570000
H                 -1.2694670000     -5.3689150000      4.8603150000
H                 -2.7081370000     -4.5730760000      4.4927370000
O                  7.8563980000     -3.2195810000     -0.5128090000
O                  7.9440390000     -1.0695860000     -1.9041690000
N                  7.9930790000     -0.9515720000      0.6299200000
H                  5.6541270000      0.0206830000     -1.9554890000
H                  8.5673280000     -0.1589480000      0.3617580000
H                  8.4625960000     -1.5574430000      1.2952350000
$end

$rem
BASIS  =  6-311++G(d,p)
GUI  =  2
JOB_TYPE  =  SP
METHOD  =  B3LYP
SCF_CONVERGENCE  = 8
SOLVENT_METHOD = sm12
$end

$smx
solvent dimethylformamide
charges CM5
$end





--------------------------------------------------------------
 ----------------------------------------------------------------
             Standard Nuclear Orientation (Angstroms)
    I     Atom           X                Y                Z
 ----------------------------------------------------------------
    1      C       4.9907540000    -2.6335900000     0.0698850000
    2      C       5.7052320000    -1.6995910000    -0.6653780000
    3      C       5.0685610000    -0.6749410000    -1.3677000000
    4      C       3.5981980000    -2.5332190000     0.1244280000
    5      C       2.9424430000    -1.5009570000    -0.5683670000
    6      C       3.6844640000    -0.5793110000    -1.3133100000
    7      C       2.8382390000    -3.5396560000     0.9245320000
    8      C       1.3502850000    -3.4132090000     0.9480940000
    9      C       0.6912460000    -2.3822230000     0.2565070000
   10      C       1.4548680000    -1.3670120000    -0.5299910000
   11      C       0.6095530000    -4.3486750000     1.6750610000
   12      C      -0.7038380000    -2.2971490000     0.2945150000
   13      C      -1.4427020000    -3.2238430000     1.0178020000
   14      O       3.4086930000    -4.4229950000     1.5375910000
   15      O       0.8861270000    -0.4650270000    -1.1184520000
   16      H       5.4859540000    -3.4437250000     0.5901150000
   17      H      -2.5243240000    -3.1808640000     1.0406750000
   18      H       3.1579320000     0.2016440000    -1.8473330000
   19      H       1.1241470000    -5.1512380000     2.1881560000
   20      H      -1.1912450000    -1.5008720000    -0.2538310000
   21      C      -0.7723060000    -4.2353320000     1.7077230000
   22      S       7.5057010000    -1.8213810000    -0.7324010000
   23      S      -1.7328770000    -5.4381670000     2.6518890000
   24      O      -0.9518770000    -6.6679870000     2.7131530000
   25      O      -3.0995460000    -5.3925000000     2.1414820000
   26      N      -1.7559150000    -4.7691720000     4.2016570000
   27      H      -1.2694670000    -5.3689150000     4.8603150000
   28      H      -2.7081370000    -4.5730760000     4.4927370000
   29      O       7.8563980000    -3.2195810000    -0.5128090000
   30      O       7.9440390000    -1.0695860000    -1.9041690000
   31      N       7.9930790000    -0.9515720000     0.6299200000
   32      H       5.6541270000     0.0206830000    -1.9554890000
   33      H       8.5673280000    -0.1589480000     0.3617580000
   34      H       8.4625960000    -1.5574430000     1.2952350000
 ----------------------------------------------------------------
 Nuclear Repulsion Energy =        2289.33344620 hartrees
 There are       94 alpha and       94 beta electrons
 Requested basis set is 6-311++G(d,p)
 There are 208 shells and 614 basis functions

 Total QAlloc Memory Limit   8000 MB
 Mega-Array Size       188 MB
 MEM_STATIC part       192 MB
 A cutoff of  1.0D-11 yielded  14083 shell pairs
 There are    128072 function pairs (    136981 Cartesian)
 Smallest overlap matrix eigenvalue = 5.15E-08

 Q-Chem warning in module stvman/mkSTV.C, line 323:

 Overlap eigenvalue is smaller than square root of threshold
 Use THRESH >= 12 to get rid of this warning

 Linear dependence detected in AO basis
 Tighter screening thresholds may be required for diffuse basis sets
 Use S2THRESH > 14 and THRESH = 14 in case of SCF convergence issues
 Number of orthogonalized atomic orbitals = 606
 Maximum deviation from orthogonality = 1.507E-10

 Scale SEOQF with 1.000000e-02/1.000000e-02/1.000000e-01

 Standard Electronic Orientation quadrupole field applied
 Nucleus-field energy     =    -0.0000000290 hartrees
 ================ Generating on-the-fly Promolecule Density  ================
Attempting to make child job directory: /expanse/lustre/scratch/selhajj/temp_project/qcscratch/28446372/qchem673449//Frg1/
Attempting to make child job directory: /expanse/lustre/scratch/selhajj/temp_project/qcscratch/28446372/qchem673449//Frg2/
Attempting to make child job directory: /expanse/lustre/scratch/selhajj/temp_project/qcscratch/28446372/qchem673449//Frg3/
Attempting to make child job directory: /expanse/lustre/scratch/selhajj/temp_project/qcscratch/28446372/qchem673449//Frg4/
Attempting to make child job directory: /expanse/lustre/scratch/selhajj/temp_project/qcscratch/28446372/qchem673449//Frg5/
Creating input file /expanse/lustre/scratch/selhajj/temp_project/qcscratch/28446372/qchem673449/Frg1.input
using default PutDataFrgm: nothing
calling putenv with: QCSCRATCH=/expanse/lustre/scratch/selhajj/temp_project/qcscratch/28446372/qchem673449/ 
Spawning Job For Fragment 0
Done Job For Fragment 0
calling putenv with: QCSCRATCH=/expanse/lustre/scratch/selhajj/temp_project/qcscratch/28446372 
calling putenv with: QCTHREADS=8 
Creating input file /expanse/lustre/scratch/selhajj/temp_project/qcscratch/28446372/qchem673449/Frg2.input
using default PutDataFrgm: nothing
calling putenv with: QCSCRATCH=/expanse/lustre/scratch/selhajj/temp_project/qcscratch/28446372/qchem673449/ 
Spawning Job For Fragment 1
Done Job For Fragment 1
calling putenv with: QCSCRATCH=/expanse/lustre/scratch/selhajj/temp_project/qcscratch/28446372 
calling putenv with: QCTHREADS=8 
Creating input file /expanse/lustre/scratch/selhajj/temp_project/qcscratch/28446372/qchem673449/Frg3.input
using default PutDataFrgm: nothing
calling putenv with: QCSCRATCH=/expanse/lustre/scratch/selhajj/temp_project/qcscratch/28446372/qchem673449/ 
Spawning Job For Fragment 2
Done Job For Fragment 2
calling putenv with: QCSCRATCH=/expanse/lustre/scratch/selhajj/temp_project/qcscratch/28446372 
calling putenv with: QCTHREADS=8 
Creating input file /expanse/lustre/scratch/selhajj/temp_project/qcscratch/28446372/qchem673449/Frg4.input
using default PutDataFrgm: nothing
calling putenv with: QCSCRATCH=/expanse/lustre/scratch/selhajj/temp_project/qcscratch/28446372/qchem673449/ 
Spawning Job For Fragment 3
Done Job For Fragment 3
calling putenv with: QCSCRATCH=/expanse/lustre/scratch/selhajj/temp_project/qcscratch/28446372 
calling putenv with: QCTHREADS=8 
Creating input file /expanse/lustre/scratch/selhajj/temp_project/qcscratch/28446372/qchem673449/Frg5.input
using default PutDataFrgm: nothing
calling putenv with: QCSCRATCH=/expanse/lustre/scratch/selhajj/temp_project/qcscratch/28446372/qchem673449/ 
Spawning Job For Fragment 4
Done Job For Fragment 4
calling putenv with: QCSCRATCH=/expanse/lustre/scratch/selhajj/temp_project/qcscratch/28446372 
calling putenv with: QCTHREADS=8 
 Time for running child jobs:  CPU 0.01 s  wall 12.32 s
 ============= Method Specific Promolecule Density Constructed =============
 Guess from superposition of atomic densities
 Warning:  Energy on first SCF cycle will be non-variational
 SAD guess density has 188.000000 electrons

 -----------------------------------------------------------------------
  General SCF calculation program by
  Eric Jon Sundstrom, Paul Horn, Yuezhi Mao, Dmitri Zuev, Alec White,
  David Stuck, Shaama M.S., Shane Yost, Joonho Lee, David Small,
  Daniel Levine, Susi Lehtola, Hugh Burton, Evgeny Epifanovsky,
  Bang C. Huynh
 -----------------------------------------------------------------------
 Exchange:     0.2000 Hartree-Fock + 0.0800 Slater + 0.7200 B88
 Correlation:  0.1900 VWN1RPA + 0.8100 LYP
 Using SG-1 standard quadrature grid
 using 8 threads for integral computing
 -------------------------------------------------------
 OpenMP Integral computing Module                
 Release: version 1.0, May 2013, Q-Chem Inc. Pittsburgh 
 -------------------------------------------------------
 
 SM12 calculation using CM5 charges
 Citation of the SM12 model:
 Marenich, A.V.; Cramer, C.J.; Truhlar, D.G.
 J. Chem. Theory Comput. 2013, 9, 609-612.
 iSolventCode=          91
 Solvent: dimethylformamide                                               
 
Hirshfeld: reading atomic densities from disk.
warning:  vdwdata pointer should have been initialzed before dftman

 Charges (in A.U.) from CM5PAC (Nov. 11, 2011)
 -----------------------------------------------
 Center     Atomic      CM5         Hirshfeld
 Number     Number      Charge      Charge
 -----------------------------------------------
    1          6       -0.046996   -0.000734
    2          6        0.008261   -0.000407
    3          6       -0.053385   -0.003059
    4          6       -0.001646   -0.000170
    5          6       -0.001566    0.000132
    6          6       -0.051913   -0.000591
    7          6        0.041226    0.007239
    8          6       -0.001503   -0.000027
    9          6       -0.001669    0.000028
   10          6        0.041145    0.007275
   11          6       -0.046867   -0.000604
   12          6       -0.051984   -0.000662
   13          6       -0.053274   -0.002948
   14          8       -0.066894   -0.017450
   15          8       -0.066983   -0.017465
   16          1        0.070838    0.005633
   17          1        0.064540    0.003483
   18          1        0.066342    0.005412
   19          1        0.070863    0.005660
   20          1        0.066329    0.005397
   21          6        0.008225   -0.000444
   22         16        0.155658    0.044641
   23         16        0.155299    0.044274
   24          8       -0.065610   -0.018008
   25          8       -0.066374   -0.018185
   26          7       -0.448175   -0.019003
   27          1        0.198193    0.005917
   28          1        0.198365    0.005925
   29          8       -0.065507   -0.017903
   30          8       -0.066374   -0.018186
   31          7       -0.448058   -0.018900
   32          1        0.064509    0.003453
   33          1        0.198434    0.005995
   34          1        0.198225    0.005953
 -----------------------------------------------

 Dipole moment (in Debye)
 -----------------------------------------------
                 X        Y        Z     Total
 -----------------------------------------------
 CM5          0.1221   0.3789   0.6699   0.7793
 Hirshfeld    0.0135   0.0800   0.0532   0.0971
 -----------------------------------------------

 A restricted SCF calculation will be
 performed using DIIS
 SCF converges when DIIS error is below 1.0e-08
 ---------------------------------------
  Cycle       Energy         DIIS error
 ---------------------------------------
Hirshfeld: reading atomic densities from disk.

 Charges (in A.U.) from CM5PAC (Nov. 11, 2011)
 -----------------------------------------------
 Center     Atomic      CM5         Hirshfeld
 Number     Number      Charge      Charge
 -----------------------------------------------
    1          6       -0.142679   -0.096417
    2          6        0.012656    0.003987
    3          6       -0.139530   -0.089204
    4          6       -0.008803   -0.007327
    5          6       -0.010862   -0.009165
    6          6       -0.138420   -0.087098
    7          6        0.412626    0.378639
    8          6       -0.008738   -0.007262
    9          6       -0.010863   -0.009165
   10          6        0.411529    0.377660
   11          6       -0.142590   -0.096328
   12          6       -0.138501   -0.087179
   13          6       -0.139524   -0.089197
   14          8       -0.500921   -0.451477
   15          8       -0.502322   -0.452804
   16          1        0.169185    0.103980
   17          1        0.175477    0.114420
   18          1        0.173812    0.112883
   19          1        0.169218    0.104016
   20          1        0.173795    0.112863
   21          6        0.012536    0.003867
   22         16        1.300327    1.189309
   23         16        1.300112    1.189088
   24          8       -0.646072   -0.598469
   25          8       -0.644436   -0.596247
   26          7       -0.779366   -0.350195
   27          1        0.384254    0.191978
   28          1        0.384348    0.191907
   29          8       -0.646002   -0.598398
   30          8       -0.644489   -0.596301
   31          7       -0.779322   -0.350164
   32          1        0.175469    0.114413
   33          1        0.384387    0.191947
   34          1        0.384270    0.191998
 -----------------------------------------------

 Dipole moment (in Debye)
 -----------------------------------------------
                 X        Y        Z     Total
 -----------------------------------------------
 CM5         -0.1499   5.9619   5.9269   8.4080
 Hirshfeld   -0.2585   5.6630   5.3102   7.7675
 -----------------------------------------------

    1   -1903.4220552178      2.86e-02  
Hirshfeld: reading atomic densities from disk.

 Charges (in A.U.) from CM5PAC (Nov. 11, 2011)
 -----------------------------------------------
 Center     Atomic      CM5         Hirshfeld
 Number     Number      Charge      Charge
 -----------------------------------------------
    1          6        0.025484    0.071746
    2          6       -0.191018   -0.199687
    3          6        0.044391    0.094718
    4          6       -0.063367   -0.061891
    5          6       -0.045995   -0.044298
    6          6        0.067091    0.118412
    7          6       -0.270918   -0.304904
    8          6       -0.063331   -0.061855
    9          6       -0.046149   -0.044452
   10          6       -0.268060   -0.301929
   11          6        0.025599    0.071861
   12          6        0.067012    0.118334
   13          6        0.044502    0.094829
   14          8        0.242272    0.291716
   15          8        0.260508    0.310025
   16          1        0.068008    0.002804
   17          1        0.070135    0.009078
   18          1        0.069265    0.008336
   19          1        0.068061    0.002858
   20          1        0.069233    0.008302
   21          6       -0.190991   -0.199660
   22         16       -0.548274   -0.659291
   23         16       -0.548462   -0.659487
   24          8        0.202342    0.249945
   25          8        0.197947    0.246137
   26          7       -0.436557   -0.007386
   27          1        0.279487    0.087211
   28          1        0.279359    0.086919
   29          8        0.202586    0.250189
   30          8        0.197925    0.246114
   31          7       -0.436466   -0.007308
   32          1        0.070099    0.009043
   33          1        0.279481    0.087041
   34          1        0.279530    0.087258
 -----------------------------------------------

 Dipole moment (in Debye)
 -----------------------------------------------
                 X        Y        Z     Total
 -----------------------------------------------
 CM5         -0.4662   1.5419   0.3219   1.6427
 Hirshfeld   -0.5748   1.2430  -0.2948   1.4009
 -----------------------------------------------

    2   -1896.2811087947      4.42e-03  
Hirshfeld: reading atomic densities from disk.

 Charges (in A.U.) from CM5PAC (Nov. 11, 2011)
 -----------------------------------------------
 Center     Atomic      CM5         Hirshfeld
 Number     Number      Charge      Charge
 -----------------------------------------------
    1          6       -0.028225    0.018037
    2          6        0.082937    0.074269
    3          6       -0.040402    0.009925
    4          6        0.030672    0.032148
    5          6        0.025755    0.027453
    6          6       -0.055467   -0.004145
    7          6        0.217135    0.183148
    8          6        0.030744    0.032220
    9          6        0.025720    0.027417
   10          6        0.217924    0.184054
   11          6       -0.028103    0.018159
   12          6       -0.055547   -0.004225
   13          6       -0.040376    0.009951
   14          8       -0.396512   -0.347068
   15          8       -0.403198   -0.353680
   16          1        0.096974    0.031769
   17          1        0.100150    0.039093
   18          1        0.099468    0.038538
   19          1        0.097021    0.031819
   20          1        0.099439    0.038507
   21          6        0.082798    0.074129
   22         16        0.640406    0.529389
   23         16        0.640158    0.529133
   24          8       -0.436787   -0.389185
   25          8       -0.436585   -0.388396
   26          7       -0.516789   -0.087617
   27          1        0.310706    0.118430
   28          1        0.309994    0.117553
   29          8       -0.436724   -0.389120
   30          8       -0.436606   -0.388418
   31          7       -0.516726   -0.087568
   32          1        0.100127    0.039071
   33          1        0.310045    0.117605
   34          1        0.310731    0.118459
 -----------------------------------------------

 Dipole moment (in Debye)
 -----------------------------------------------
                 X        Y        Z     Total
 -----------------------------------------------
 CM5         -0.2145   5.5927   5.3449   7.7390
 Hirshfeld   -0.3231   5.2938   4.7282   7.1052
 -----------------------------------------------

    3   -1894.9297128951      7.89e-03  
Hirshfeld: reading atomic densities from disk.

 Charges (in A.U.) from CM5PAC (Nov. 11, 2011)
 -----------------------------------------------
 Center     Atomic      CM5         Hirshfeld
 Number     Number      Charge      Charge
 -----------------------------------------------
    1          6       -0.069828   -0.023565
    2          6       -0.031969   -0.040638
    3          6       -0.061925   -0.011599
    4          6       -0.019093   -0.017617
    5          6       -0.009466   -0.007768
    6          6       -0.053780   -0.002458
    7          6        0.171682    0.137695
    8          6       -0.019030   -0.017554
    9          6       -0.009528   -0.007831
   10          6        0.173142    0.139273
   11          6       -0.069714   -0.023452
   12          6       -0.053868   -0.002546
   13          6       -0.061880   -0.011553
   14          8       -0.241854   -0.192411
   15          8       -0.234363   -0.184845
   16          1        0.123678    0.058474
   17          1        0.126109    0.065052
   18          1        0.123873    0.062944
   19          1        0.123721    0.058519
   20          1        0.123849    0.062918
   21          6       -0.032041   -0.040709
   22         16        0.657060    0.546043
   23         16        0.656834    0.545809
   24          8       -0.375459   -0.327856
   25          8       -0.375974   -0.327784
   26          7       -0.641089   -0.211917
   27          1        0.337055    0.144779
   28          1        0.336860    0.144419
   29          8       -0.375321   -0.327718
   30          8       -0.376030   -0.327842
   31          7       -0.641025   -0.211867
   32          1        0.126087    0.065031
   33          1        0.336921    0.144481
   34          1        0.337081    0.144809
 -----------------------------------------------

 Dipole moment (in Debye)
 -----------------------------------------------
                 X        Y        Z     Total
 -----------------------------------------------
 CM5         -0.5677   5.0281   3.7810   6.3166
 Hirshfeld   -0.6763   4.7292   3.1643   5.7302
 -----------------------------------------------

    4   -1896.9116735638      1.16e-03  
Hirshfeld: reading atomic densities from disk.

 Charges (in A.U.) from CM5PAC (Nov. 11, 2011)
 -----------------------------------------------
 Center     Atomic      CM5         Hirshfeld
 Number     Number      Charge      Charge
 -----------------------------------------------
    1          6       -0.057413   -0.011151
    2          6       -0.012655   -0.021323
    3          6       -0.056125   -0.005798
    4          6       -0.006886   -0.005410
    5          6       -0.005912   -0.004214
    6          6       -0.057214   -0.005892
    7          6        0.186815    0.152829
    8          6       -0.006828   -0.005352
    9          6       -0.005959   -0.004262
   10          6        0.188752    0.154882
   11          6       -0.057301   -0.011038
   12          6       -0.057296   -0.005974
   13          6       -0.056089   -0.005762
   14          8       -0.297181   -0.247737
   15          8       -0.297444   -0.247926
   16          1        0.123203    0.057999
   17          1        0.125638    0.064581
   18          1        0.125093    0.064164
   19          1        0.123247    0.058045
   20          1        0.125068    0.064137
   21          6       -0.012759   -0.021428
   22         16        0.622355    0.511338
   23         16        0.622128    0.511103
   24          8       -0.374317   -0.326714
   25          8       -0.374896   -0.326707
   26          7       -0.604605   -0.175434
   27          1        0.331919    0.139643
   28          1        0.331718    0.139277
   29          8       -0.374219   -0.326616
   30          8       -0.374923   -0.326734
   31          7       -0.604544   -0.175386
   32          1        0.125615    0.064559
   33          1        0.331778    0.139338
   34          1        0.331943    0.139671
 -----------------------------------------------

 Dipole moment (in Debye)
 -----------------------------------------------
                 X        Y        Z     Total
 -----------------------------------------------
 CM5         -0.3705   4.9696   4.2553   6.5530
 Hirshfeld   -0.4792   4.6707   3.6386   5.9400
 -----------------------------------------------

    5   -1896.9703458268      4.32e-04  
Hirshfeld: reading atomic densities from disk.

 Charges (in A.U.) from CM5PAC (Nov. 11, 2011)
 -----------------------------------------------
 Center     Atomic      CM5         Hirshfeld
 Number     Number      Charge      Charge
 -----------------------------------------------
    1          6       -0.059257   -0.012994
    2          6       -0.003664   -0.012332
    3          6       -0.056952   -0.006626
    4          6       -0.008473   -0.006997
    5          6       -0.004452   -0.002754
    6          6       -0.057419   -0.006098
    7          6        0.176429    0.142442
    8          6       -0.008412   -0.006936
    9          6       -0.004504   -0.002806
   10          6        0.177504    0.143635
   11          6       -0.059144   -0.012882
   12          6       -0.057504   -0.006182
   13          6       -0.056915   -0.006588
   14          8       -0.280445   -0.231001
   15          8       -0.276943   -0.227425
   16          1        0.120705    0.055501
   17          1        0.123418    0.062361
   18          1        0.122231    0.061302
   19          1        0.120749    0.055546
   20          1        0.122206    0.061275
   21          6       -0.003759   -0.012427
   22         16        0.635740    0.524723
   23         16        0.635512    0.524487
   24          8       -0.384541   -0.336938
   25          8       -0.384742   -0.336553
   26          7       -0.602251   -0.173079
   27          1        0.331011    0.138735
   28          1        0.330749    0.138308
   29          8       -0.384424   -0.336821
   30          8       -0.384786   -0.336597
   31          7       -0.602189   -0.173032
   32          1        0.123396    0.062340
   33          1        0.330808    0.138368
   34          1        0.331035    0.138763
 -----------------------------------------------

 Dipole moment (in Debye)
 -----------------------------------------------
                 X        Y        Z     Total
 -----------------------------------------------
 CM5         -0.4205   5.1269   4.2877   6.6967
 Hirshfeld   -0.5291   4.8280   3.6710   6.0882
 -----------------------------------------------

    6   -1896.9749793178      1.47e-04  
Hirshfeld: reading atomic densities from disk.

 Charges (in A.U.) from CM5PAC (Nov. 11, 2011)
 -----------------------------------------------
 Center     Atomic      CM5         Hirshfeld
 Number     Number      Charge      Charge
 -----------------------------------------------
    1          6       -0.059270   -0.013008
    2          6       -0.007654   -0.016323
    3          6       -0.057192   -0.006866
    4          6       -0.006338   -0.004862
    5          6       -0.002154   -0.000457
    6          6       -0.056388   -0.005066
    7          6        0.182752    0.148765
    8          6       -0.006277   -0.004801
    9          6       -0.002207   -0.000509
   10          6        0.184547    0.150678
   11          6       -0.059157   -0.012895
   12          6       -0.056472   -0.005150
   13          6       -0.057155   -0.006828
   14          8       -0.287159   -0.237716
   15          8       -0.284883   -0.235365
   16          1        0.120315    0.055110
   17          1        0.123042    0.061985
   18          1        0.121706    0.060776
   19          1        0.120358    0.055156
   20          1        0.121681    0.060749
   21          6       -0.007749   -0.016418
   22         16        0.634769    0.523752
   23         16        0.634539    0.523514
   24          8       -0.381844   -0.334242
   25          8       -0.382307   -0.334117
   26          7       -0.606415   -0.177244
   27          1        0.331374    0.139098
   28          1        0.331107    0.138667
   29          8       -0.381734   -0.334131
   30          8       -0.382344   -0.334156
   31          7       -0.606353   -0.177195
   32          1        0.123020    0.061964
   33          1        0.331167    0.138727
   34          1        0.331399    0.139127
 -----------------------------------------------

 Dipole moment (in Debye)
 -----------------------------------------------
                 X        Y        Z     Total
 -----------------------------------------------
 CM5         -0.4282   5.0838   4.2202   6.6210
 Hirshfeld   -0.5368   4.7849   3.6035   6.0140
 -----------------------------------------------

    7   -1896.9755000165      5.85e-05  
Hirshfeld: reading atomic densities from disk.

 Charges (in A.U.) from CM5PAC (Nov. 11, 2011)
 -----------------------------------------------
 Center     Atomic      CM5         Hirshfeld
 Number     Number      Charge      Charge
 -----------------------------------------------
    1          6       -0.058507   -0.012244
    2          6       -0.006740   -0.015409
    3          6       -0.056352   -0.006025
    4          6       -0.007589   -0.006113
    5          6       -0.004109   -0.002411
    6          6       -0.056482   -0.005160
    7          6        0.181985    0.147998
    8          6       -0.007528   -0.006052
    9          6       -0.004160   -0.002463
   10          6        0.183474    0.149605
   11          6       -0.058394   -0.012131
   12          6       -0.056566   -0.005244
   13          6       -0.056314   -0.005987
   14          8       -0.286301   -0.236858
   15          8       -0.283971   -0.234453
   16          1        0.120530    0.055326
   17          1        0.123200    0.062143
   18          1        0.121986    0.061056
   19          1        0.120574    0.055372
   20          1        0.121960    0.061029
   21          6       -0.006837   -0.015505
   22         16        0.635298    0.524281
   23         16        0.635069    0.524045
   24          8       -0.382367   -0.334765
   25          8       -0.382726   -0.334537
   26          7       -0.605451   -0.176279
   27          1        0.331177    0.138901
   28          1        0.330915    0.138474
   29          8       -0.382257   -0.334654
   30          8       -0.382764   -0.334576
   31          7       -0.605389   -0.176231
   32          1        0.123178    0.062122
   33          1        0.330974    0.138534
   34          1        0.331202    0.138930
 -----------------------------------------------

 Dipole moment (in Debye)
 -----------------------------------------------
                 X        Y        Z     Total
 -----------------------------------------------
 CM5         -0.4205   5.0805   4.2378   6.6292
 Hirshfeld   -0.5291   4.7816   3.6211   6.0212
 -----------------------------------------------

    8   -1896.9757831352      1.44e-05  
Hirshfeld: reading atomic densities from disk.

 Charges (in A.U.) from CM5PAC (Nov. 11, 2011)
 -----------------------------------------------
 Center     Atomic      CM5         Hirshfeld
 Number     Number      Charge      Charge
 -----------------------------------------------
    1          6       -0.058876   -0.012614
    2          6       -0.007042   -0.015710
    3          6       -0.056825   -0.006498
    4          6       -0.007122   -0.005646
    5          6       -0.003343   -0.001645
    6          6       -0.056609   -0.005287
    7          6        0.181890    0.147903
    8          6       -0.007061   -0.005585
    9          6       -0.003395   -0.001697
   10          6        0.183471    0.149602
   11          6       -0.058763   -0.012500
   12          6       -0.056693   -0.005371
   13          6       -0.056787   -0.006460
   14          8       -0.286329   -0.236885
   15          8       -0.283877   -0.234359
   16          1        0.120563    0.055358
   17          1        0.123257    0.062200
   18          1        0.122000    0.061070
   19          1        0.120607    0.055404
   20          1        0.121975    0.061043
   21          6       -0.007138   -0.015806
   22         16        0.635162    0.524145
   23         16        0.634933    0.523908
   24          8       -0.382376   -0.334774
   25          8       -0.382775   -0.334585
   26          7       -0.605383   -0.176211
   27          1        0.331215    0.138939
   28          1        0.330952    0.138512
   29          8       -0.382265   -0.334662
   30          8       -0.382813   -0.334624
   31          7       -0.605321   -0.176163
   32          1        0.123235    0.062179
   33          1        0.331011    0.138572
   34          1        0.331240    0.138968
 -----------------------------------------------

 Dipole moment (in Debye)
 -----------------------------------------------
                 X        Y        Z     Total
 -----------------------------------------------
 CM5         -0.4233   5.0868   4.2369   6.6337
 Hirshfeld   -0.5319   4.7879   3.6202   6.0260
 -----------------------------------------------

    9   -1896.9757476706      4.74e-06  
Hirshfeld: reading atomic densities from disk.

 Charges (in A.U.) from CM5PAC (Nov. 11, 2011)
 -----------------------------------------------
 Center     Atomic      CM5         Hirshfeld
 Number     Number      Charge      Charge
 -----------------------------------------------
    1          6       -0.058832   -0.012569
    2          6       -0.006839   -0.015508
    3          6       -0.056694   -0.006367
    4          6       -0.007210   -0.005734
    5          6       -0.003460   -0.001763
    6          6       -0.056582   -0.005260
    7          6        0.181856    0.147869
    8          6       -0.007149   -0.005674
    9          6       -0.003512   -0.001814
   10          6        0.183451    0.149582
   11          6       -0.058718   -0.012456
   12          6       -0.056666   -0.005344
   13          6       -0.056657   -0.006330
   14          8       -0.286332   -0.236888
   15          8       -0.283955   -0.234437
   16          1        0.120551    0.055347
   17          1        0.123235    0.062178
   18          1        0.121990    0.061061
   19          1        0.120595    0.055392
   20          1        0.121965    0.061033
   21          6       -0.006935   -0.015604
   22         16        0.635170    0.524153
   23         16        0.634941    0.523916
   24          8       -0.382385   -0.334782
   25          8       -0.382767   -0.334577
   26          7       -0.605519   -0.176347
   27          1        0.331235    0.138959
   28          1        0.330973    0.138532
   29          8       -0.382275   -0.334671
   30          8       -0.382804   -0.334616
   31          7       -0.605457   -0.176299
   32          1        0.123213    0.062157
   33          1        0.331032    0.138592
   34          1        0.331260    0.138988
 -----------------------------------------------

 Dipole moment (in Debye)
 -----------------------------------------------
                 X        Y        Z     Total
 -----------------------------------------------
 CM5         -0.4232   5.0858   4.2359   6.6323
 Hirshfeld   -0.5318   4.7869   3.6192   6.0246
 -----------------------------------------------

   10   -1896.9757469209      1.32e-06  
Hirshfeld: reading atomic densities from disk.

 Charges (in A.U.) from CM5PAC (Nov. 11, 2011)
 -----------------------------------------------
 Center     Atomic      CM5         Hirshfeld
 Number     Number      Charge      Charge
 -----------------------------------------------
    1          6       -0.058815   -0.012553
    2          6       -0.006926   -0.015595
    3          6       -0.056720   -0.006393
    4          6       -0.007197   -0.005721
    5          6       -0.003463   -0.001765
    6          6       -0.056586   -0.005264
    7          6        0.181914    0.147927
    8          6       -0.007136   -0.005660
    9          6       -0.003514   -0.001817
   10          6        0.183479    0.149610
   11          6       -0.058702   -0.012440
   12          6       -0.056670   -0.005349
   13          6       -0.056682   -0.006355
   14          8       -0.286352   -0.236909
   15          8       -0.283926   -0.234408
   16          1        0.120554    0.055349
   17          1        0.123241    0.062184
   18          1        0.121992    0.061063
   19          1        0.120598    0.055395
   20          1        0.121967    0.061036
   21          6       -0.007022   -0.015691
   22         16        0.635175    0.524158
   23         16        0.634946    0.523921
   24          8       -0.382386   -0.334783
   25          8       -0.382777   -0.334588
   26          7       -0.605451   -0.176280
   27          1        0.331221    0.138945
   28          1        0.330958    0.138518
   29          8       -0.382275   -0.334672
   30          8       -0.382815   -0.334627
   31          7       -0.605390   -0.176232
   32          1        0.123219    0.062163
   33          1        0.331017    0.138578
   34          1        0.331246    0.138974
 -----------------------------------------------

 Dipole moment (in Debye)
 -----------------------------------------------
                 X        Y        Z     Total
 -----------------------------------------------
 CM5         -0.4231   5.0860   4.2364   6.6328
 Hirshfeld   -0.5317   4.7871   3.6198   6.0251
 -----------------------------------------------

   11   -1896.9757481949      6.01e-07  
Hirshfeld: reading atomic densities from disk.

 Charges (in A.U.) from CM5PAC (Nov. 11, 2011)
 -----------------------------------------------
 Center     Atomic      CM5         Hirshfeld
 Number     Number      Charge      Charge
 -----------------------------------------------
    1          6       -0.058822   -0.012560
    2          6       -0.006914   -0.015582
    3          6       -0.056719   -0.006392
    4          6       -0.007200   -0.005724
    5          6       -0.003454   -0.001757
    6          6       -0.056587   -0.005265
    7          6        0.181894    0.147908
    8          6       -0.007139   -0.005663
    9          6       -0.003506   -0.001808
   10          6        0.183483    0.149614
   11          6       -0.058709   -0.012446
   12          6       -0.056671   -0.005349
   13          6       -0.056681   -0.006355
   14          8       -0.286340   -0.236897
   15          8       -0.283943   -0.234426
   16          1        0.120554    0.055350
   17          1        0.123241    0.062184
   18          1        0.121992    0.061063
   19          1        0.120598    0.055396
   20          1        0.121967    0.061036
   21          6       -0.007010   -0.015678
   22         16        0.635171    0.524154
   23         16        0.634942    0.523917
   24          8       -0.382385   -0.334783
   25          8       -0.382770   -0.334581
   26          7       -0.605456   -0.176284
   27          1        0.331220    0.138944
   28          1        0.330958    0.138517
   29          8       -0.382275   -0.334671
   30          8       -0.382808   -0.334620
   31          7       -0.605394   -0.176236
   32          1        0.123219    0.062163
   33          1        0.331017    0.138577
   34          1        0.331245    0.138973
 -----------------------------------------------

 Dipole moment (in Debye)
 -----------------------------------------------
                 X        Y        Z     Total
 -----------------------------------------------
 CM5         -0.4231   5.0859   4.2364   6.6327
 Hirshfeld   -0.5317   4.7870   3.6197   6.0250
 -----------------------------------------------

   12   -1896.9757474597      1.26e-07  
Hirshfeld: reading atomic densities from disk.

 Charges (in A.U.) from CM5PAC (Nov. 11, 2011)
 -----------------------------------------------
 Center     Atomic      CM5         Hirshfeld
 Number     Number      Charge      Charge
 -----------------------------------------------
    1          6       -0.058818   -0.012556
    2          6       -0.006914   -0.015583
    3          6       -0.056717   -0.006390
    4          6       -0.007197   -0.005721
    5          6       -0.003457   -0.001760
    6          6       -0.056587   -0.005265
    7          6        0.181901    0.147914
    8          6       -0.007137   -0.005661
    9          6       -0.003509   -0.001811
   10          6        0.183476    0.149607
   11          6       -0.058705   -0.012443
   12          6       -0.056671   -0.005349
   13          6       -0.056680   -0.006353
   14          8       -0.286352   -0.236908
   15          8       -0.283935   -0.234417
   16          1        0.120554    0.055350
   17          1        0.123241    0.062184
   18          1        0.121992    0.061063
   19          1        0.120598    0.055395
   20          1        0.121967    0.061035
   21          6       -0.007010   -0.015679
   22         16        0.635169    0.524151
   23         16        0.634939    0.523915
   24          8       -0.382383   -0.334780
   25          8       -0.382772   -0.334583
   26          7       -0.605458   -0.176286
   27          1        0.331221    0.138945
   28          1        0.330958    0.138518
   29          8       -0.382272   -0.334669
   30          8       -0.382810   -0.334622
   31          7       -0.605396   -0.176238
   32          1        0.123219    0.062163
   33          1        0.331018    0.138578
   34          1        0.331246    0.138974
 -----------------------------------------------

 Dipole moment (in Debye)
 -----------------------------------------------
                 X        Y        Z     Total
 -----------------------------------------------
 CM5         -0.4232   5.0860   4.2363   6.6327
 Hirshfeld   -0.5318   4.7871   3.6196   6.0250
 -----------------------------------------------

   13   -1896.9757476961      5.88e-08  
Hirshfeld: reading atomic densities from disk.

 Charges (in A.U.) from CM5PAC (Nov. 11, 2011)
 -----------------------------------------------
 Center     Atomic      CM5         Hirshfeld
 Number     Number      Charge      Charge
 -----------------------------------------------
    1          6       -0.058818   -0.012556
    2          6       -0.006915   -0.015584
    3          6       -0.056717   -0.006390
    4          6       -0.007198   -0.005722
    5          6       -0.003457   -0.001760
    6          6       -0.056586   -0.005264
    7          6        0.181900    0.147913
    8          6       -0.007137   -0.005661
    9          6       -0.003509   -0.001812
   10          6        0.183479    0.149610
   11          6       -0.058705   -0.012442
   12          6       -0.056670   -0.005349
   13          6       -0.056679   -0.006352
   14          8       -0.286348   -0.236904
   15          8       -0.283938   -0.234420
   16          1        0.120554    0.055350
   17          1        0.123241    0.062184
   18          1        0.121992    0.061063
   19          1        0.120598    0.055395
   20          1        0.121967    0.061035
   21          6       -0.007011   -0.015680
   22         16        0.635168    0.524151
   23         16        0.634939    0.523914
   24          8       -0.382384   -0.334781
   25          8       -0.382772   -0.334582
   26          7       -0.605457   -0.176286
   27          1        0.331221    0.138945
   28          1        0.330958    0.138518
   29          8       -0.382273   -0.334670
   30          8       -0.382810   -0.334621
   31          7       -0.605395   -0.176238
   32          1        0.123219    0.062163
   33          1        0.331018    0.138578
   34          1        0.331246    0.138974
 -----------------------------------------------

 Dipole moment (in Debye)
 -----------------------------------------------
                 X        Y        Z     Total
 -----------------------------------------------
 CM5         -0.4231   5.0860   4.2363   6.6327
 Hirshfeld   -0.5318   4.7871   3.6197   6.0250
 -----------------------------------------------

   14   -1896.9757477000      2.34e-08  
   15   -1896.9757476965      8.53e-09  Convergence criterion met
 ---------------------------------------
 SCF time:   CPU 8333.61s  wall 1058.00s 
(1)  E-EN(liq) elect-nuc energy of solute              -1896.975747697 a.u.
(2)  G-P(liq) polarization free energy of solvation           -13.0488 kcal/mol
(3)  G-ENP(liq) elect-nuc-pol free energy of system    -1896.996542254 a.u.
(4)  G-CDS(liq) cavity-dispersion-solvent structure 
     free energy                                              -14.5633 kcal/mol
(5)  G-P-CDS(liq) = G-P(liq) + G-CDS(liq) = (2) + (4)         -27.6121 kcal/mol
(6)  G-S(liq) free energy of system = (1) + (5)        -1897.019750315 a.u.
 SCF   energy in the final basis set =    -1897.0197503148
 Total energy in the final basis set =    -1897.0197503148
 
 --------------------------------------------------------------
 
                    Orbital Energies (a.u.)
 --------------------------------------------------------------
 
 Alpha MOs
 -- Occupied --
-89.0824 -89.0823 -19.1422 -19.1415 -19.1343 -19.1342 -19.1342 -19.1341
-14.3474 -14.3473 -10.2945 -10.2943 -10.2394 -10.2394 -10.2260 -10.2259
-10.2254 -10.2254 -10.2197 -10.2197 -10.2189 -10.2189 -10.2127 -10.2127
 -8.1439  -8.1439  -6.1068  -6.1067  -6.1063  -6.1062  -6.1048  -6.1048
 -1.1400  -1.1399  -1.0780  -1.0761  -1.0324  -1.0323  -0.9180  -0.9168
 -0.9122  -0.9040  -0.8381  -0.8041  -0.7997  -0.7944  -0.7242  -0.7001
 -0.6972  -0.6510  -0.6482  -0.6271  -0.6030  -0.5777  -0.5738  -0.5380
 -0.5372  -0.5353  -0.5343  -0.5216  -0.5166  -0.5164  -0.5032  -0.4757
 -0.4737  -0.4694  -0.4692  -0.4661  -0.4654  -0.4587  -0.4585  -0.4362
 -0.4308  -0.4212  -0.4135  -0.3953  -0.3899  -0.3875  -0.3735  -0.3732
 -0.3460  -0.3459  -0.3365  -0.3353  -0.3313  -0.3312  -0.3200  -0.3193
 -0.2984  -0.2971  -0.2956  -0.2884  -0.2866  -0.2854
 -- Virtual --
 -0.1324  -0.0924  -0.0649  -0.0446  -0.0039  -0.0013   0.0030   0.0130
  0.0194   0.0230   0.0232   0.0355   0.0384   0.0415   0.0470   0.0476
  0.0500   0.0564   0.0587   0.0607   0.0613   0.0629   0.0650   0.0702
  0.0716   0.0776   0.0799   0.0820   0.0833   0.0835   0.0930   0.0947
  0.0958   0.0978   0.1017   0.1064   0.1069   0.1125   0.1139   0.1178
  0.1197   0.1244   0.1283   0.1296   0.1331   0.1332   0.1363   0.1374
  0.1446   0.1482   0.1546   0.1577   0.1604   0.1607   0.1617   0.1676
  0.1683   0.1732   0.1772   0.1788   0.1864   0.1885   0.1911   0.1920
  0.1959   0.1978   0.1980   0.2004   0.2081   0.2140   0.2149   0.2159
  0.2162   0.2197   0.2208   0.2261   0.2306   0.2359   0.2387   0.2421
  0.2439   0.2501   0.2512   0.2536   0.2554   0.2587   0.2632   0.2660
  0.2665   0.2687   0.2753   0.2808   0.2826   0.2866   0.2948   0.2963
  0.3011   0.3029   0.3035   0.3055   0.3067   0.3082   0.3088   0.3138
  0.3170   0.3184   0.3200   0.3224   0.3351   0.3370   0.3403   0.3488
  0.3499   0.3514   0.3528   0.3540   0.3552   0.3627   0.3647   0.3660
  0.3745   0.3789   0.3850   0.3876   0.3927   0.3937   0.3989   0.4054
  0.4100   0.4149   0.4153   0.4243   0.4255   0.4286   0.4404   0.4438
  0.4505   0.4602   0.4674   0.4737   0.4752   0.4820   0.4826   0.5048
  0.5276   0.5297   0.5333   0.5360   0.5414   0.5458   0.5558   0.5593
  0.5677   0.5713   0.5768   0.5896   0.5911   0.6037   0.6131   0.6257
  0.6267   0.6324   0.6329   0.6361   0.6386   0.6432   0.6449   0.6478
  0.6580   0.6594   0.6686   0.6708   0.6784   0.6954   0.7051   0.7118
  0.7169   0.7249   0.7277   0.7320   0.7384   0.7474   0.7527   0.7591
  0.7686   0.7907   0.7951   0.8097   0.8169   0.8254   0.8298   0.8311
  0.8354   0.8468   0.8501   0.8562   0.8592   0.8688   0.8710   0.8745
  0.8829   0.8900   0.9002   0.9004   0.9135   0.9148   0.9226   0.9261
  0.9343   0.9400   0.9455   0.9559   0.9604   0.9698   0.9791   0.9809
  0.9851   0.9872   0.9932   1.0085   1.0118   1.0213   1.0335   1.0354
  1.0416   1.0448   1.0492   1.0639   1.0688   1.0862   1.0888   1.1001
  1.1039   1.1221   1.1260   1.1292   1.1417   1.1472   1.1650   1.1690
  1.1767   1.1794   1.1833   1.1891   1.1983   1.2020   1.2074   1.2075
  1.2142   1.2193   1.2330   1.2376   1.2415   1.2432   1.2442   1.2529
  1.2720   1.2778   1.2810   1.2837   1.2962   1.3177   1.3244   1.3370
  1.3380   1.3514   1.4071   1.4436   1.4502   1.4677   1.4681   1.4741
  1.4813   1.4913   1.4948   1.5039   1.5211   1.5364   1.5382   1.5713
  1.5766   1.5874   1.5902   1.6060   1.6147   1.6262   1.6445   1.6476
  1.6622   1.6668   1.6854   1.6882   1.6949   1.7103   1.7152   1.7296
  1.7311   1.7324   1.7385   1.7496   1.7627   1.7745   1.7797   1.8127
  1.8207   1.8537   1.8589   1.8733   1.8781   1.8864   1.8910   1.8941
  1.9009   1.9058   1.9133   1.9151   1.9199   1.9340   1.9433   1.9503
  1.9574   1.9692   1.9780   1.9832   2.0042   2.0143   2.0267   2.0355
  2.0385   2.0452   2.0476   2.0569   2.0629   2.1009   2.1112   2.1471
  2.1572   2.1588   2.1636   2.1967   2.2282   2.2377   2.2885   2.3122
  2.3283   2.3409   2.3482   2.3676   2.3732   2.4398   2.4414   2.4510
  2.4544   2.4565   2.4919   2.5287   2.5410   2.5440   2.5619   2.5884
  2.5924   2.6185   2.6198   2.6294   2.6401   2.6641   2.6663   2.6793
  2.7152   2.7165   2.7227   2.7333   2.7406   2.7448   2.7461   2.7548
  2.7618   2.7669   2.7724   2.7816   2.7869   2.8047   2.8104   2.8111
  2.8192   2.8343   2.8399   2.8435   2.8499   2.8520   2.8551   2.8638
  2.8675   2.8768   2.8838   2.8978   2.9102   2.9227   2.9278   2.9292
  2.9345   2.9432   2.9434   2.9623   2.9895   2.9941   2.9990   3.0250
  3.0320   3.0482   3.0761   3.0807   3.0843   3.0858   3.1036   3.1045
  3.1189   3.1300   3.1931   3.2129   3.2300   3.2371   3.2405   3.2955
  3.3236   3.3471   3.3541   3.3545   3.4074   3.4305   3.4868   3.4880
  3.5193   3.5366   3.5392   3.5572   3.5684   3.5787   3.5793   3.5867
  3.6606   3.7421   3.7656   3.7908   3.8179   3.8505   3.9356   3.9371
  4.0469   4.0701   4.1619   4.1966   4.2127   4.2469   4.2739   4.2764
  4.4377   4.6976   4.6978   4.7233   4.8191   4.8347   5.0051   5.0055
  5.0327   5.0364   5.0369   5.0447   5.0790   5.0845   5.0991   5.0993
  5.1510   5.1532   5.2335   5.2590   5.2892   5.2899   5.7190   5.8027
  8.1752   8.1762  17.3438  17.3447  17.3915  17.3983  17.5385  17.5431
 23.4759  23.5950  23.8527  23.8909  23.8991  23.9173  23.9254  23.9355
 24.0092  24.0411  24.0673  24.0674  24.1475  24.1480  35.5276  35.5291
 49.8609  49.8691  49.9045  49.9069  50.0226  50.0714 189.2840 189.2846
 --------------------------------------------------------------
 
          Ground-State Mulliken Net Atomic Charges

     Atom                 Charge (a.u.)
  ----------------------------------------
      1 C                    -0.280712
      2 C                    -0.566900
      3 C                     0.006748
      4 C                    -0.176004
      5 C                     0.587451
      6 C                     0.416804
      7 C                    -1.129562
      8 C                    -0.170496
      9 C                     0.585226
     10 C                    -0.708949
     11 C                    -0.279001
     12 C                     0.415973
     13 C                     0.007658
     14 O                    -0.269614
     15 O                    -0.230735
     16 H                     0.219543
     17 H                     0.326621
     18 H                     0.251497
     19 H                     0.219716
     20 H                     0.251391
     21 C                    -0.575738
     22 S                     0.322359
     23 S                     0.316578
     24 O                    -0.292081
     25 O                    -0.266900
     26 N                    -0.143710
     27 H                     0.382102
     28 H                     0.389464
     29 O                    -0.292547
     30 O                    -0.268643
     31 N                    -0.145417
     32 H                     0.326454
     33 H                     0.389405
     34 H                     0.382022
  ----------------------------------------
  Sum of atomic charges =     0.000000

 -----------------------------------------------------------------
                    Cartesian Multipole Moments
 -----------------------------------------------------------------
    Charge (ESU x 10^10)
                 0.0000
    Dipole Moment (Debye)
         X      -0.5344      Y       5.5198      Z       4.4420
       Tot       7.1052
    Quadrupole Moments (Debye-Ang)
        XX    -156.3038     XY      21.5583     YY    -199.7848
        XZ      14.0084     YZ      -8.6242     ZZ    -136.8587
    Octopole Moments (Debye-Ang^2)
       XXX   -1102.5925    XXY     672.9840    XYY    -438.5143
       YYY    1699.1161    XXZ     134.6841    XYZ      -7.5784
       YYZ     -98.2982    XZZ    -452.0361    YZZ     358.9416
       ZZZ    -132.4216
    Hexadecapole Moments (Debye-Ang^3)
      XXXX  -16739.3537   XXXY    2833.0368   XXYY   -5699.4453
      XYYY    1588.6570   YYYY  -13366.8226   XXXZ    3104.7101
      XXYZ     274.6293   XYYZ     319.0241   YYYZ    2203.4048
      XXZZ   -3411.7182   XYZZ     767.1289   YYZZ   -1833.9278
      XZZZ     918.7607   YZZZ    1203.8340   ZZZZ   -1982.5378
 -----------------------------------------------------------------
 Total job time:  1073.70s(wall), 8341.85s(cpu) 
 Sat Feb  3 13:09:37 2024

        *************************************************************
        *                                                           *
        *  Thank you very much for using Q-Chem.  Have a nice day.  *
        *                                                           *
        *************************************************************


