 Entering Gaussian System, Link 0=g16
 Input=246-an-PCM.com
 Output=246-an-PCM.log
 Initial command:
 /sysapps/ubuntu-applications/gaussian/Gaussian/AVX2/g16/l1.exe "/scratch/selhajj1/4304551/Gau-2987287.inp" -scrdir="/scratch/selhajj1/4304551/"
 Entering Link 1 = /sysapps/ubuntu-applications/gaussian/Gaussian/AVX2/g16/l1.exe PID=   2987294.
  
 Copyright (c) 1988,1990,1992,1993,1995,1998,2003,2009,2016,
            Gaussian, Inc.  All Rights Reserved.
  
 This is part of the Gaussian(R) 16 program.  It is based on
 the Gaussian(R) 09 system (copyright 2009, Gaussian, Inc.),
 the Gaussian(R) 03 system (copyright 2003, Gaussian, Inc.),
 the Gaussian(R) 98 system (copyright 1998, Gaussian, Inc.),
 the Gaussian(R) 94 system (copyright 1995, Gaussian, Inc.),
 the Gaussian 92(TM) system (copyright 1992, Gaussian, Inc.),
 the Gaussian 90(TM) system (copyright 1990, Gaussian, Inc.),
 the Gaussian 88(TM) system (copyright 1988, Gaussian, Inc.),
 the Gaussian 86(TM) system (copyright 1986, Carnegie Mellon
 University), and the Gaussian 82(TM) system (copyright 1983,
 Carnegie Mellon University). Gaussian is a federally registered
 trademark of Gaussian, Inc.
  
 This software contains proprietary and confidential information,
 including trade secrets, belonging to Gaussian, Inc.
  
 This software is provided under written license and may be
 used, copied, transmitted, or stored only in accord with that
 written license.
  
 The following legend is applicable only to US Government
 contracts under FAR:
  
                    RESTRICTED RIGHTS LEGEND
  
 Use, reproduction and disclosure by the US Government is
 subject to restrictions as set forth in subparagraphs (a)
 and (c) of the Commercial Computer Software - Restricted
 Rights clause in FAR 52.227-19.
  
 Gaussian, Inc.
 340 Quinnipiac St., Bldg. 40, Wallingford CT 06492
  
  
 ---------------------------------------------------------------
 Warning -- This program may not be used in any manner that
 competes with the business of Gaussian, Inc. or will provide
 assistance to any competitor of Gaussian, Inc.  The licensee
 of this program is prohibited from giving any competitor of
 Gaussian, Inc. access to this program.  By using this program,
 the user acknowledges that Gaussian, Inc. is engaged in the
 business of creating and licensing software in the field of
 computational chemistry and represents and warrants to the
 licensee that it is not a competitor of Gaussian, Inc. and that
 it will not use this program in any manner prohibited above.
 ---------------------------------------------------------------
  

 Cite this work as:
 Gaussian 16, Revision A.03,
 M. J. Frisch, G. W. Trucks, H. B. Schlegel, G. E. Scuseria, 
 M. A. Robb, J. R. Cheeseman, G. Scalmani, V. Barone, 
 G. A. Petersson, H. Nakatsuji, X. Li, M. Caricato, A. V. Marenich, 
 J. Bloino, B. G. Janesko, R. Gomperts, B. Mennucci, H. P. Hratchian, 
 J. V. Ortiz, A. F. Izmaylov, J. L. Sonnenberg, D. Williams-Young, 
 F. Ding, F. Lipparini, F. Egidi, J. Goings, B. Peng, A. Petrone, 
 T. Henderson, D. Ranasinghe, V. G. Zakrzewski, J. Gao, N. Rega, 
 G. Zheng, W. Liang, M. Hada, M. Ehara, K. Toyota, R. Fukuda, 
 J. Hasegawa, M. Ishida, T. Nakajima, Y. Honda, O. Kitao, H. Nakai, 
 T. Vreven, K. Throssell, J. A. Montgomery, Jr., J. E. Peralta, 
 F. Ogliaro, M. J. Bearpark, J. J. Heyd, E. N. Brothers, K. N. Kudin, 
 V. N. Staroverov, T. A. Keith, R. Kobayashi, J. Normand, 
 K. Raghavachari, A. P. Rendell, J. C. Burant, S. S. Iyengar, 
 J. Tomasi, M. Cossi, J. M. Millam, M. Klene, C. Adamo, R. Cammi, 
 J. W. Ochterski, R. L. Martin, K. Morokuma, O. Farkas, 
 J. B. Foresman, and D. J. Fox, Gaussian, Inc., Wallingford CT, 2016.
 
 ******************************************
 Gaussian 16:  ES64L-G16RevA.03 25-Dec-2016
                21-Jan-2024 
 ******************************************
 %chk=246-an-PCM.chk
 %nproc=8
 Will use up to    8 processors via shared memory.
 %mem=30GB
 ----------------------------------------------------------------
 #P UB3LYP/6-311++G(d,p) SCRF=(PCM,Solvent=n,n-DiMethylFormamide)
 ----------------------------------------------------------------
 1/38=1,172=1/1;
 2/12=2,17=6,18=5,40=1/2;
 3/5=4,6=6,7=1111,11=2,25=1,30=1,70=2201,72=148,74=-5,116=2/1,2,3;
 4//1;
 5/5=2,38=5,53=148/2;
 6/7=2,8=2,9=2,10=2,28=1/1;
 99/5=1,9=1/99;
 Leave Link    1 at Sun Jan 21 08:45:59 2024, MaxMem=  4026531840 cpu:               0.4 elap:               0.1
 (Enter /sysapps/ubuntu-applications/gaussian/Gaussian/AVX2/g16/l101.exe)
 -------
 Reduced
 -------
 Symbolic Z-matrix:
 Charge = -2 Multiplicity = 1
 C                    -2.78884  -0.87035  -0.98103 
 C                    -1.44122  -0.41727  -0.46281 
 C                    -0.28944  -1.1237   -0.76972 
 C                     0.99812  -0.7331   -0.34004 
 C                     2.16661  -1.54102  -0.70297 
 O                     2.07377  -2.61358  -1.4055 
 C                     3.39793  -1.03011  -0.19972 
 C                     3.50685   0.13071   0.57606 
 C                     2.40037   0.94618   0.95179 
 O                     2.51001   2.01657   1.65519 
 C                     1.11001   0.45853   0.4548 
 C                    -0.07336   1.17098   0.7498 
 C                    -1.32774   0.77795   0.31181 
 C                    -2.56228   1.56733   0.68948 
 H                    -2.70076  -1.81563  -1.52466 
 H                    -3.51869  -1.01677  -0.17788 
 H                    -3.24502  -0.13651  -1.66893 
 H                    -0.3425   -2.02464  -1.37487 
 H                     4.29359  -1.60221  -0.44222 
 H                     4.48768   0.45835   0.92092 
 H                     0.04109   2.06393   1.3583 
 H                    -3.26107   0.98426   1.31521 
 H                    -2.29418   2.46664   1.25181 
 H                    -3.14091   1.88347  -0.18483 
 
 ITRead=  0  0  0  0  0  0  0  0  0  0  0  0  0  0  0  0  0  0  0  0
 ITRead=  0  0  0  0
 MicOpt= -1 -1 -1 -1 -1 -1 -1 -1 -1 -1 -1 -1 -1 -1 -1 -1 -1 -1 -1 -1
 MicOpt= -1 -1 -1 -1
 NAtoms=     24 NQM=       24 NQMF=       0 NMMI=      0 NMMIF=      0
                NMic=       0 NMicF=      0.
                    Isotopes and Nuclear Properties:
 (Nuclear quadrupole moments (NQMom) in fm**2, nuclear magnetic moments (NMagM)
  in nuclear magnetons)

  Atom         1           2           3           4           5           6           7           8           9          10
 IAtWgt=          12          12          12          12          12          16          12          12          12          16
 AtmWgt=  12.0000000  12.0000000  12.0000000  12.0000000  12.0000000  15.9949146  12.0000000  12.0000000  12.0000000  15.9949146
 NucSpn=           0           0           0           0           0           0           0           0           0           0
 AtZEff=  -0.0000000  -0.0000000  -0.0000000  -0.0000000  -0.0000000  -0.0000000  -0.0000000  -0.0000000  -0.0000000  -0.0000000
 NQMom=    0.0000000   0.0000000   0.0000000   0.0000000   0.0000000   0.0000000   0.0000000   0.0000000   0.0000000   0.0000000
 NMagM=    0.0000000   0.0000000   0.0000000   0.0000000   0.0000000   0.0000000   0.0000000   0.0000000   0.0000000   0.0000000
 AtZNuc=   6.0000000   6.0000000   6.0000000   6.0000000   6.0000000   8.0000000   6.0000000   6.0000000   6.0000000   8.0000000

  Atom        11          12          13          14          15          16          17          18          19          20
 IAtWgt=          12          12          12          12           1           1           1           1           1           1
 AtmWgt=  12.0000000  12.0000000  12.0000000  12.0000000   1.0078250   1.0078250   1.0078250   1.0078250   1.0078250   1.0078250
 NucSpn=           0           0           0           0           1           1           1           1           1           1
 AtZEff=  -0.0000000  -0.0000000  -0.0000000  -0.0000000  -0.0000000  -0.0000000  -0.0000000  -0.0000000  -0.0000000  -0.0000000
 NQMom=    0.0000000   0.0000000   0.0000000   0.0000000   0.0000000   0.0000000   0.0000000   0.0000000   0.0000000   0.0000000
 NMagM=    0.0000000   0.0000000   0.0000000   0.0000000   2.7928460   2.7928460   2.7928460   2.7928460   2.7928460   2.7928460
 AtZNuc=   6.0000000   6.0000000   6.0000000   6.0000000   1.0000000   1.0000000   1.0000000   1.0000000   1.0000000   1.0000000

  Atom        21          22          23          24
 IAtWgt=           1           1           1           1
 AtmWgt=   1.0078250   1.0078250   1.0078250   1.0078250
 NucSpn=           1           1           1           1
 AtZEff=  -0.0000000  -0.0000000  -0.0000000  -0.0000000
 NQMom=    0.0000000   0.0000000   0.0000000   0.0000000
 NMagM=    2.7928460   2.7928460   2.7928460   2.7928460
 AtZNuc=   1.0000000   1.0000000   1.0000000   1.0000000
 Leave Link  101 at Sun Jan 21 08:45:59 2024, MaxMem=  4026531840 cpu:               0.8 elap:               0.2
 (Enter /sysapps/ubuntu-applications/gaussian/Gaussian/AVX2/g16/l202.exe)
                          Input orientation:                          
 ---------------------------------------------------------------------
 Center     Atomic      Atomic             Coordinates (Angstroms)
 Number     Number       Type             X           Y           Z
 ---------------------------------------------------------------------
      1          6           0       -2.788840   -0.870350   -0.981030
      2          6           0       -1.441221   -0.417274   -0.462809
      3          6           0       -0.289443   -1.123697   -0.769715
      4          6           0        0.998118   -0.733097   -0.340044
      5          6           0        2.166607   -1.541015   -0.702972
      6          8           0        2.073766   -2.613582   -1.405496
      7          6           0        3.397932   -1.030111   -0.199717
      8          6           0        3.506852    0.130706    0.576056
      9          6           0        2.400371    0.946177    0.951788
     10          8           0        2.510008    2.016566    1.655188
     11          6           0        1.110013    0.458532    0.454795
     12          6           0       -0.073359    1.170978    0.749804
     13          6           0       -1.327744    0.777948    0.311814
     14          6           0       -2.562284    1.567331    0.689481
     15          1           0       -2.700758   -1.815634   -1.524658
     16          1           0       -3.518687   -1.016770   -0.177880
     17          1           0       -3.245024   -0.136506   -1.668925
     18          1           0       -0.342504   -2.024640   -1.374869
     19          1           0        4.293590   -1.602210   -0.442221
     20          1           0        4.487681    0.458349    0.920924
     21          1           0        0.041085    2.063935    1.358300
     22          1           0       -3.261073    0.984257    1.315209
     23          1           0       -2.294180    2.466637    1.251807
     24          1           0       -3.140910    1.883469   -0.184832
 ---------------------------------------------------------------------
                    Distance matrix (angstroms):
                    1          2          3          4          5
     1  C    0.000000
     2  C    1.513244   0.000000
     3  C    2.521076   1.385575   0.000000
     4  C    3.843274   2.462761   1.412444   0.000000
     5  C    5.008349   3.786409   2.492146   1.466225   0.000000
     6  O    5.183046   4.250595   2.865088   2.414214   1.285519
     7  C    6.237958   4.884894   3.732344   2.422192   1.424939
     8  C    6.562192   5.085563   4.218588   2.806981   2.495360
     9  C    5.827818   4.314848   3.805660   2.540690   2.996498
    10  O    6.584962   5.101147   4.855752   3.718522   4.281965
    11  C    4.362176   2.849180   2.441588   1.436756   2.540670
    12  C    3.812695   2.421574   2.760646   2.441584   3.805642
    13  C    2.554043   1.428801   2.421575   2.849177   4.314843
    14  C    2.963819   2.554058   3.812701   4.362150   5.827791
    15  H    1.094007   2.160872   2.619763   4.031982   4.943867
    16  H    1.095064   2.180928   3.284771   4.528608   5.733509
    17  H    1.104459   2.187979   3.243237   4.486212   5.673752
    18  H    2.733506   2.150037   1.086612   2.129839   2.642154
    19  H    7.140501   5.855984   4.619569   3.409682   2.143780
    20  H    7.637449   6.150879   5.308676   3.897003   3.467258
    21  H    4.700103   3.416148   3.846907   3.409351   4.665013
    22  H    2.989195   2.904737   4.197733   4.881585   6.317417
    23  H    4.045458   3.461848   4.582141   4.859168   6.307223
    24  H    2.888149   2.873958   4.185212   4.899190   6.337610
                    6          7          8          9         10
     6  O    0.000000
     7  C    2.390544   0.000000
     8  C    3.675786   1.400423   0.000000
     9  C    4.281979   2.495357   1.424945   0.000000
    10  O    5.567438   3.675775   2.390542   1.285506   0.000000
    11  C    3.718519   2.806959   2.422191   1.466228   2.414208
    12  C    4.855755   4.218559   3.732327   2.492122   2.865052
    13  C    5.101166   5.085544   4.884881   3.786385   4.250549
    14  C    6.584977   6.562130   6.237882   5.008251   5.182909
    15  H    4.842210   6.290194   6.836348   6.307290   7.207583
    16  H    5.944105   6.916666   7.158444   6.337551   6.993313
    17  H    5.873230   6.861921   7.120335   6.317501   6.986118
    18  H    2.487198   4.044865   4.823812   4.665024   5.800812
    19  H    2.622669   1.090096   2.158435   3.467249   4.547068
    20  H    4.547084   2.158449   1.090096   2.143780   2.622666
    21  H    5.800821   4.823791   4.044851   2.642133   2.487160
    22  H    6.986214   7.120044   6.861465   5.673224   5.872531
    23  H    7.207554   6.836250   6.290086   4.943745   4.842056
    24  H    6.993306   7.158605   6.916926   5.733779   5.944431
                   11         12         13         14         15
    11  C    0.000000
    12  C    1.412437   0.000000
    13  C    2.462748   1.385565   0.000000
    14  C    3.843212   2.521008   1.513224   0.000000
    15  H    4.859222   4.582167   3.461859   4.045496   0.000000
    16  H    4.899149   4.185346   2.874203   2.888702   1.766636
    17  H    4.881660   4.197526   2.904396   2.988524   1.771019
    18  H    3.409343   3.846901   3.416152   4.700130   2.372231
    19  H    3.896981   5.308648   6.150863   7.637391   7.080828
    20  H    3.409680   4.619546   5.855965   7.140407   7.926255
    21  H    2.129847   1.086617   2.150021   2.733398   5.556996
    22  H    4.485877   3.242849   2.187950   1.104453   4.027181
    23  H    4.031903   2.619692   2.160846   1.094003   5.119757
    24  H    4.528787   3.284974   2.180918   1.095068   3.958817
                   16         17         18         19         20
    16  H    0.000000
    17  H    1.752989   0.000000
    18  H    3.540724   3.475074   0.000000
    19  H    7.838641   7.777133   4.747804   0.000000
    20  H    8.214942   8.176546   5.896320   2.478253   0.000000
    21  H    4.952027   4.980416   4.932930   5.896295   4.747781
    22  H    2.509938   3.187699   4.980766   8.176265   7.776582
    23  H    3.959488   4.026305   5.556981   7.926157   7.080702
    24  H    2.924748   2.508719   4.951826   8.215108   7.838945
                   21         22         23         24
    21  H    0.000000
    22  H    3.474451   0.000000
    23  H    2.372124   1.770975   0.000000
    24  H    3.541033   1.753039   1.766626   0.000000
 Stoichiometry    C12H10O2(2-)
 Framework group  C1[X(C12H10O2)]
 Deg. of freedom    66
 Full point group                 C1      NOp   1
 Largest Abelian subgroup         C1      NOp   1
 Largest concise Abelian subgroup C1      NOp   1
                         Standard orientation:                         
 ---------------------------------------------------------------------
 Center     Atomic      Atomic             Coordinates (Angstroms)
 Number     Number       Type             X           Y           Z
 ---------------------------------------------------------------------
      1          6           0       -3.295417   -1.481779   -0.019202
      2          6           0       -1.991508   -0.714365    0.009154
      3          6           0       -0.776490   -1.380339    0.004032
      4          6           0        0.471231   -0.718393   -0.000331
      5          6           0        1.712864   -1.498239    0.001161
      6          8           0        1.721365   -2.783696    0.010448
      7          6           0        2.893355   -0.700187   -0.000843
      8          6           0        2.893345    0.700234    0.000970
      9          6           0        1.712828    1.498258   -0.001176
     10          8           0        1.721286    2.783702   -0.010500
     11          6           0        0.471222    0.718364    0.000252
     12          6           0       -0.776499    1.380295   -0.004123
     13          6           0       -1.991505    0.714319   -0.009208
     14          6           0       -3.295354    1.481790    0.019291
     15          1           0       -3.115613   -2.559691    0.032063
     16          1           0       -3.955876   -1.216084    0.812882
     17          1           0       -3.878885   -1.288853   -0.936903
     18          1           0       -0.745481   -2.466481   -0.003568
     19          1           0        3.840919   -1.239079    0.004342
     20          1           0        3.840891    1.239160   -0.004104
     21          1           0       -0.745517    2.466444    0.003470
     22          1           0       -3.878316    1.289560    0.937453
     23          1           0       -3.115532    2.559654   -0.032791
     24          1           0       -3.956246    1.215575   -0.812289
 ---------------------------------------------------------------------
 Rotational constants (GHZ):           1.0648604           0.5905109           0.3816504
 Leave Link  202 at Sun Jan 21 08:46:00 2024, MaxMem=  4026531840 cpu:               0.2 elap:               0.1
 (Enter /sysapps/ubuntu-applications/gaussian/Gaussian/AVX2/g16/l301.exe)
 Standard basis: 6-311++G(d,p) (5D, 7F)
 Ernie: Thresh=  0.10000D-02 Tol=  0.10000D-05 Strict=F.
 There are   392 symmetry adapted cartesian basis functions of A   symmetry.
 There are   378 symmetry adapted basis functions of A   symmetry.
   378 basis functions,   594 primitive gaussians,   392 cartesian basis functions
    50 alpha electrons       50 beta electrons
       nuclear repulsion energy       815.1739149576 Hartrees.
 IExCor=  402 DFT=T Ex+Corr=B3LYP ExCW=0 ScaHFX=  0.200000
 ScaDFX=  0.800000  0.720000  1.000000  0.810000 ScalE2=  1.000000  1.000000
 IRadAn=      5 IRanWt=     -1 IRanGd=            0 ICorTp=0 IEmpDi=  4
 NAtoms=   24 NActive=   24 NUniq=   24 SFac= 1.00D+00 NAtFMM=   60 NAOKFM=F Big=F
 Integral buffers will be    131072 words long.
 Raffenetti 2 integral format.
 Two-electron integral symmetry is turned on.
 ------------------------------------------------------------------------------
 Polarizable Continuum Model (PCM)
 =================================
 Model                : PCM.
 Atomic radii         : UFF (Universal Force Field).
 Polarization charges : Total charges.
 Charge compensation  : None.
 Solution method      : On-the-fly selection.
 Cavity type          : Scaled VdW (van der Waals Surface) (Alpha=1.100).
 Cavity algorithm     : GePol (No added spheres)
                        Default sphere list used, NSphG=   24.
                        Lebedev-Laikov grids with approx.  5.0 points / Ang**2.
                        Smoothing algorithm: York/Karplus (Gamma=1.0000).
                        Polarization charges: spherical gaussians, with
                                              point-specific exponents (IZeta= 3).
                        Self-potential: point-specific (ISelfS= 7).
                        Self-field    : sphere-specific E.n sum rule (ISelfD= 2).
 Solvent              : n,n-DiMethylFormamide, Eps=  37.219000 Eps(inf)=   2.046330
 ------------------------------------------------------------------------------
 GePol: Number of generator spheres                  =      24
 GePol: Total number of spheres                      =      24
 GePol: Number of exposed spheres                    =      24 (100.00%)
 GePol: Number of points                             =    1893
 GePol: Average weight of points                     =       0.13
 GePol: Minimum weight of points                     =   0.22D-09
 GePol: Maximum weight of points                     =    0.20577
 GePol: Number of points with low weight             =      89
 GePol: Fraction of low-weight points (<1% of avg)   =       4.70%
 GePol: Cavity surface area                          =    252.706 Ang**2
 GePol: Cavity volume                                =    266.815 Ang**3
 Leave Link  301 at Sun Jan 21 08:46:00 2024, MaxMem=  4026531840 cpu:               0.6 elap:               0.1
 (Enter /sysapps/ubuntu-applications/gaussian/Gaussian/AVX2/g16/l302.exe)
 NPDir=0 NMtPBC=     1 NCelOv=     1 NCel=       1 NClECP=     1 NCelD=      1
         NCelK=      1 NCelE2=     1 NClLst=     1 CellRange=     0.0.
 One-electron integrals computed using PRISM.
 One-electron integral symmetry used in STVInt
 NBasis=   378 RedAO= T EigKep=  1.04D-06  NBF=   378
 NBsUse=   375 1.00D-06 EigRej=  8.50D-07 NBFU=   375
 Precomputing XC quadrature grid using
 IXCGrd= 4 IRadAn=           5 IRanWt=          -1 IRanGd=           0 AccXCQ= 0.00D+00.
 Generated NRdTot=       0 NPtTot=           0 NUsed=           0 NTot=          32
 NSgBfM=   392   392   392   392   392 MxSgAt=    24 MxSgA2=    24.
 Leave Link  302 at Sun Jan 21 08:46:01 2024, MaxMem=  4026531840 cpu:               5.5 elap:               1.0
 (Enter /sysapps/ubuntu-applications/gaussian/Gaussian/AVX2/g16/l303.exe)
 DipDrv:  MaxL=1.
 Leave Link  303 at Sun Jan 21 08:46:01 2024, MaxMem=  4026531840 cpu:               0.7 elap:               0.2
 (Enter /sysapps/ubuntu-applications/gaussian/Gaussian/AVX2/g16/l401.exe)
 ExpMin= 3.60D-02 ExpMax= 8.59D+03 ExpMxC= 1.30D+03 IAcc=3 IRadAn=         5 AccDes= 0.00D+00
 Harris functional with IExCor=  402 and IRadAn=       5 diagonalized for initial guess.
 HarFok:  IExCor=  402 AccDes= 0.00D+00 IRadAn=         5 IDoV= 1 UseB2=F ITyADJ=14
 ICtDFT=  3500011 ScaDFX=  1.000000  1.000000  1.000000  1.000000
 FoFCou: FMM=F IPFlag=           0 FMFlag=      100000 FMFlg1=           0
         NFxFlg=           0 DoJE=T BraDBF=F KetDBF=T FulRan=T
         wScrn=  0.000000 ICntrl=       500 IOpCl=  0 I1Cent=   200000004 NGrid=           0
         NMat0=    1 NMatS0=      1 NMatT0=    0 NMatD0=    1 NMtDS0=    0 NMtDT0=    0
 Petite list used in FoFCou.
 Harris En= -614.427333383248    
 JPrj=0 DoOrth=F DoCkMO=F.
 Initial guess <Sx>= 0.0000 <Sy>= 0.0000 <Sz>= 0.0000 <S**2>=-0.0000 S=-0.0000
 Leave Link  401 at Sun Jan 21 08:46:03 2024, MaxMem=  4026531840 cpu:              11.2 elap:               2.3
 (Enter /sysapps/ubuntu-applications/gaussian/Gaussian/AVX2/g16/l502.exe)
 Integral symmetry usage will be decided dynamically.
 UHF open shell SCF:
 Using DIIS extrapolation, IDIIS=  1040.
 NGot=  4026531840 LenX=  4026217596 LenY=  4026063491
 Requested convergence on RMS density matrix=1.00D-08 within 128 cycles.
 Requested convergence on MAX density matrix=1.00D-06.
 Requested convergence on             energy=1.00D-06.
 No special actions if energy rises.
 Fock matrices will be formed incrementally for  20 cycles.

 Cycle   1  Pass 1  IDiag  1:
 FoFJK:  IHMeth= 1 ICntrl=       0 DoSepK=F KAlg= 0 I1Cent=           0 FoldK=F
 IRaf= 890000000 NMat=       1 IRICut=       1 DoRegI=T DoRafI=F ISym2E= 0 IDoP0=0 IntGTp=1.
 FoFCou: FMM=F IPFlag=           0 FMFlag=      100000 FMFlg1=           0
         NFxFlg=           0 DoJE=F BraDBF=F KetDBF=F FulRan=T
         wScrn=  0.000000 ICntrl=         0 IOpCl=  1 I1Cent=           0 NGrid=           0
         NMat0=    1 NMatS0=      1 NMatT0=    0 NMatD0=    1 NMtDS0=    0 NMtDT0=    0
 Symmetry not used in FoFCou.
 Inv3:  Mode=1 IEnd=    10750347.
 Iteration    1 A*A^-1 deviation from unit magnitude is 2.89D-15 for   1529.
 Iteration    1 A*A^-1 deviation from orthogonality  is 2.00D-15 for   1736   1383.
 Iteration    1 A^-1*A deviation from unit magnitude is 3.00D-15 for    545.
 Iteration    1 A^-1*A deviation from orthogonality  is 1.16D-14 for   1093   1037.
 E= -613.614856228447    
 DIIS: error= 4.87D-02 at cycle   1 NSaved=   1.
 NSaved= 1 IEnMin= 1 EnMin= -613.614856228447     IErMin= 1 ErrMin= 4.87D-02
 ErrMax= 4.87D-02  0.00D+00 EMaxC= 1.00D-01 BMatC= 2.38D+00 BMatP= 2.38D+00
 IDIUse=3 WtCom= 5.13D-01 WtEn= 4.87D-01
 Coeff-Com:  0.100D+01
 Coeff-En:   0.100D+01
 Coeff:      0.100D+01
 Gap=     0.073 Goal=   None    Shift=    0.000
 Gap=     0.073 Goal=   None    Shift=    0.000
 GapD=    0.073 DampG=0.500 DampE=0.500 DampFc=0.2500 IDamp=-1.
 Damping current iteration by 2.50D-01
 RMSDP=1.50D+00 MaxDP=1.15D+02              OVMax= 9.90D-01

 Cycle   2  Pass 1  IDiag  1:
 RMSU=  3.32D-01    CP:  3.00D+00
 E= -613.760955879025     Delta-E=       -0.146099650578 Rises=F Damp=T
 DIIS: error= 2.21D-02 at cycle   2 NSaved=   2.
 NSaved= 2 IEnMin= 2 EnMin= -613.760955879025     IErMin= 2 ErrMin= 2.21D-02
 ErrMax= 2.21D-02  0.00D+00 EMaxC= 1.00D-01 BMatC= 4.20D-01 BMatP= 2.38D+00
 IDIUse=3 WtCom= 7.79D-01 WtEn= 2.21D-01
 Coeff-Com: -0.421D+00 0.142D+01
 Coeff-En:   0.827D-01 0.917D+00
 Coeff:     -0.310D+00 0.131D+01
 Gap=     0.016 Goal=   None    Shift=    0.000
 Gap=     0.016 Goal=   None    Shift=    0.000
 RMSDP=3.84D-01 MaxDP=2.99D+01 DE=-1.46D-01 OVMax= 8.94D-01

 Cycle   3  Pass 1  IDiag  1:
 RMSU=  1.09D-02    CP:  7.95D-01 -2.50D-03
 E= -614.029747542767     Delta-E=       -0.268791663742 Rises=F Damp=F
 DIIS: error= 2.85D-02 at cycle   3 NSaved=   3.
 NSaved= 3 IEnMin= 3 EnMin= -614.029747542767     IErMin= 2 ErrMin= 2.21D-02
 ErrMax= 2.85D-02  0.00D+00 EMaxC= 1.00D-01 BMatC= 5.92D-01 BMatP= 4.20D-01
 IDIUse=2 WtCom= 0.00D+00 WtEn= 1.00D+00
 Coeff-En:   0.000D+00 0.000D+00 0.100D+01
 Coeff:      0.000D+00 0.000D+00 0.100D+01
 Gap=     0.064 Goal=   None    Shift=    0.000
 Gap=     0.064 Goal=   None    Shift=    0.000
 RMSDP=1.59D-01 MaxDP=1.98D+01 DE=-2.69D-01 OVMax= 4.18D-01

 Cycle   4  Pass 1  IDiag  1:
 RMSU=  1.19D-01    CP:  2.09D+00  1.69D-01  2.12D+00
 E= -613.459489332231     Delta-E=        0.570258210536 Rises=F Damp=F
 DIIS: error= 6.29D-02 at cycle   4 NSaved=   4.
 NSaved= 4 IEnMin= 3 EnMin= -614.029747542767     IErMin= 2 ErrMin= 2.21D-02
 ErrMax= 6.29D-02  0.00D+00 EMaxC= 1.00D-01 BMatC= 3.24D+00 BMatP= 4.20D-01
 IDIUse=2 WtCom= 0.00D+00 WtEn= 1.00D+00
 Coeff-En:   0.000D+00 0.000D+00 0.795D+00 0.205D+00
 Coeff:      0.000D+00 0.000D+00 0.795D+00 0.205D+00
 Gap=     0.075 Goal=   None    Shift=    0.000
 Gap=     0.075 Goal=   None    Shift=    0.000
 RMSDP=1.45D-01 MaxDP=1.88D+01 DE= 5.70D-01 OVMax= 2.84D-01

 Cycle   5  Pass 1  IDiag  1:
 RMSU=  1.03D-02    CP:  7.68D-01  2.43D-02  1.05D+00  1.47D-01
 E= -614.115178770343     Delta-E=       -0.655689438113 Rises=F Damp=F
 DIIS: error= 1.65D-02 at cycle   5 NSaved=   5.
 NSaved= 5 IEnMin= 5 EnMin= -614.115178770343     IErMin= 5 ErrMin= 1.65D-02
 ErrMax= 1.65D-02  0.00D+00 EMaxC= 1.00D-01 BMatC= 2.19D-01 BMatP= 4.20D-01
 IDIUse=3 WtCom= 8.35D-01 WtEn= 1.65D-01
 Coeff-Com: -0.623D-01 0.136D+00 0.355D+00-0.265D-01 0.599D+00
 Coeff-En:   0.000D+00 0.000D+00 0.300D+00 0.000D+00 0.700D+00
 Coeff:     -0.520D-01 0.113D+00 0.346D+00-0.221D-01 0.615D+00
 Gap=     0.103 Goal=   None    Shift=    0.000
 Gap=     0.103 Goal=   None    Shift=    0.000
 RMSDP=1.37D-02 MaxDP=1.64D+00 DE=-6.56D-01 OVMax= 6.47D-02

 Cycle   6  Pass 1  IDiag  1:
 RMSU=  1.42D-03    CP:  6.64D-01  9.86D-03  8.75D-01  6.09D-02  7.75D-01
 E= -614.159980003222     Delta-E=       -0.044801232879 Rises=F Damp=F
 DIIS: error= 2.73D-03 at cycle   6 NSaved=   6.
 NSaved= 6 IEnMin= 6 EnMin= -614.159980003222     IErMin= 6 ErrMin= 2.73D-03
 ErrMax= 2.73D-03  0.00D+00 EMaxC= 1.00D-01 BMatC= 6.02D-03 BMatP= 2.19D-01
 IDIUse=3 WtCom= 9.73D-01 WtEn= 2.73D-02
 Coeff-Com: -0.314D-01 0.520D-01 0.165D+00-0.311D-01 0.391D+00 0.455D+00
 Coeff-En:   0.000D+00 0.000D+00 0.000D+00 0.000D+00 0.000D+00 0.100D+01
 Coeff:     -0.306D-01 0.506D-01 0.160D+00-0.302D-01 0.380D+00 0.470D+00
 Gap=     0.103 Goal=   None    Shift=    0.000
 Gap=     0.103 Goal=   None    Shift=    0.000
 RMSDP=1.08D-03 MaxDP=9.74D-02 DE=-4.48D-02 OVMax= 2.48D-02

 Cycle   7  Pass 1  IDiag  1:
 RMSU=  6.62D-04    CP:  6.59D-01  1.07D-02  8.70D-01  6.67D-02  8.01D-01
                    CP:  1.01D+00
 E= -614.161466815061     Delta-E=       -0.001486811839 Rises=F Damp=F
 DIIS: error= 8.12D-04 at cycle   7 NSaved=   7.
 NSaved= 7 IEnMin= 7 EnMin= -614.161466815061     IErMin= 7 ErrMin= 8.12D-04
 ErrMax= 8.12D-04  0.00D+00 EMaxC= 1.00D-01 BMatC= 3.71D-04 BMatP= 6.02D-03
 IDIUse=3 WtCom= 9.92D-01 WtEn= 8.12D-03
 Coeff-Com: -0.983D-02 0.131D-01 0.386D-01-0.130D-01 0.118D+00 0.253D+00
 Coeff-Com:  0.601D+00
 Coeff-En:   0.000D+00 0.000D+00 0.000D+00 0.000D+00 0.000D+00 0.000D+00
 Coeff-En:   0.100D+01
 Coeff:     -0.975D-02 0.130D-01 0.382D-01-0.129D-01 0.117D+00 0.251D+00
 Coeff:      0.604D+00
 Gap=     0.102 Goal=   None    Shift=    0.000
 Gap=     0.102 Goal=   None    Shift=    0.000
 RMSDP=6.69D-04 MaxDP=8.09D-02 DE=-1.49D-03 OVMax= 6.56D-03

 Cycle   8  Pass 1  IDiag  1:
 RMSU=  2.43D-04    CP:  6.51D-01  1.04D-02  8.60D-01  6.49D-02  8.06D-01
                    CP:  1.09D+00  9.30D-01
 E= -614.161557445870     Delta-E=       -0.000090630809 Rises=F Damp=F
 DIIS: error= 1.89D-04 at cycle   8 NSaved=   8.
 NSaved= 8 IEnMin= 8 EnMin= -614.161557445870     IErMin= 8 ErrMin= 1.89D-04
 ErrMax= 1.89D-04  0.00D+00 EMaxC= 1.00D-01 BMatC= 5.02D-05 BMatP= 3.71D-04
 IDIUse=3 WtCom= 9.98D-01 WtEn= 1.89D-03
 Coeff-Com:  0.603D-03-0.160D-02-0.353D-02 0.551D-03-0.595D-02 0.535D-01
 Coeff-Com:  0.322D+00 0.635D+00
 Coeff-En:   0.000D+00 0.000D+00 0.000D+00 0.000D+00 0.000D+00 0.000D+00
 Coeff-En:   0.790D-01 0.921D+00
 Coeff:      0.602D-03-0.160D-02-0.353D-02 0.550D-03-0.594D-02 0.534D-01
 Coeff:      0.321D+00 0.635D+00
 Gap=     0.102 Goal=   None    Shift=    0.000
 Gap=     0.102 Goal=   None    Shift=    0.000
 RMSDP=2.21D-04 MaxDP=2.18D-02 DE=-9.06D-05 OVMax= 1.16D-03

 Cycle   9  Pass 1  IDiag  1:
 RMSU=  6.67D-05    CP:  6.50D-01  1.01D-02  8.55D-01  6.37D-02  8.03D-01
                    CP:  1.12D+00  1.02D+00  9.07D-01
 E= -614.161570205607     Delta-E=       -0.000012759736 Rises=F Damp=F
 DIIS: error= 4.29D-05 at cycle   9 NSaved=   9.
 NSaved= 9 IEnMin= 9 EnMin= -614.161570205607     IErMin= 9 ErrMin= 4.29D-05
 ErrMax= 4.29D-05  0.00D+00 EMaxC= 1.00D-01 BMatC= 2.08D-06 BMatP= 5.02D-05
 IDIUse=1 WtCom= 1.00D+00 WtEn= 0.00D+00
 Coeff-Com:  0.747D-03-0.134D-02-0.237D-02 0.451D-03-0.457D-02 0.228D-01
 Coeff-Com:  0.148D+00 0.307D+00 0.529D+00
 Coeff:      0.747D-03-0.134D-02-0.237D-02 0.451D-03-0.457D-02 0.228D-01
 Coeff:      0.148D+00 0.307D+00 0.529D+00
 Gap=     0.102 Goal=   None    Shift=    0.000
 Gap=     0.102 Goal=   None    Shift=    0.000
 RMSDP=3.92D-05 MaxDP=4.61D-03 DE=-1.28D-05 OVMax= 2.94D-04

 Cycle  10  Pass 1  IDiag  1:
 RMSU=  9.81D-06    CP:  6.50D-01  1.01D-02  8.54D-01  6.35D-02  8.03D-01
                    CP:  1.12D+00  1.02D+00  9.52D-01  1.01D+00
 E= -614.161570621131     Delta-E=       -0.000000415525 Rises=F Damp=F
 DIIS: error= 2.38D-05 at cycle  10 NSaved=  10.
 NSaved=10 IEnMin=10 EnMin= -614.161570621131     IErMin=10 ErrMin= 2.38D-05
 ErrMax= 2.38D-05  0.00D+00 EMaxC= 1.00D-01 BMatC= 3.78D-07 BMatP= 2.08D-06
 IDIUse=1 WtCom= 1.00D+00 WtEn= 0.00D+00
 Coeff-Com:  0.307D-03-0.362D-03-0.602D-03 0.140D-04-0.888D-03 0.503D-02
 Coeff-Com:  0.302D-01 0.542D-01 0.298D+00 0.614D+00
 Coeff:      0.307D-03-0.362D-03-0.602D-03 0.140D-04-0.888D-03 0.503D-02
 Coeff:      0.302D-01 0.542D-01 0.298D+00 0.614D+00
 Gap=     0.102 Goal=   None    Shift=    0.000
 Gap=     0.102 Goal=   None    Shift=    0.000
 RMSDP=2.37D-05 MaxDP=1.59D-03 DE=-4.16D-07 OVMax= 1.46D-04

 Cycle  11  Pass 1  IDiag  1:
 RMSU=  4.86D-06    CP:  6.50D-01  1.01D-02  8.54D-01  6.33D-02  8.03D-01
                    CP:  1.12D+00  1.02D+00  9.59D-01  1.10D+00  1.17D+00
 E= -614.161570720573     Delta-E=       -0.000000099441 Rises=F Damp=F
 DIIS: error= 7.02D-06 at cycle  11 NSaved=  11.
 NSaved=11 IEnMin=11 EnMin= -614.161570720573     IErMin=11 ErrMin= 7.02D-06
 ErrMax= 7.02D-06  0.00D+00 EMaxC= 1.00D-01 BMatC= 3.78D-08 BMatP= 3.78D-07
 IDIUse=1 WtCom= 1.00D+00 WtEn= 0.00D+00
 Coeff-Com:  0.151D-03-0.172D-03-0.136D-03-0.321D-04-0.756D-04 0.158D-02
 Coeff-Com:  0.815D-02 0.935D-02 0.129D+00 0.340D+00 0.512D+00
 Coeff:      0.151D-03-0.172D-03-0.136D-03-0.321D-04-0.756D-04 0.158D-02
 Coeff:      0.815D-02 0.935D-02 0.129D+00 0.340D+00 0.512D+00
 Gap=     0.102 Goal=   None    Shift=    0.000
 Gap=     0.102 Goal=   None    Shift=    0.000
 RMSDP=7.70D-06 MaxDP=8.41D-04 DE=-9.94D-08 OVMax= 3.86D-05

 Cycle  12  Pass 1  IDiag  1:
 RMSU=  1.51D-06    CP:  6.50D-01  1.01D-02  8.53D-01  6.33D-02  8.03D-01
                    CP:  1.12D+00  1.02D+00  9.61D-01  1.11D+00  1.29D+00
                    CP:  1.01D+00
 E= -614.161570729384     Delta-E=       -0.000000008811 Rises=F Damp=F
 DIIS: error= 1.82D-06 at cycle  12 NSaved=  12.
 NSaved=12 IEnMin=12 EnMin= -614.161570729384     IErMin=12 ErrMin= 1.82D-06
 ErrMax= 1.82D-06  0.00D+00 EMaxC= 1.00D-01 BMatC= 3.90D-09 BMatP= 3.78D-08
 IDIUse=1 WtCom= 1.00D+00 WtEn= 0.00D+00
 Coeff-Com:  0.246D-04-0.309D-04 0.449D-04-0.224D-04 0.120D-03-0.247D-04
 Coeff-Com: -0.722D-03-0.508D-02 0.794D-02 0.485D-01 0.251D+00 0.699D+00
 Coeff:      0.246D-04-0.309D-04 0.449D-04-0.224D-04 0.120D-03-0.247D-04
 Coeff:     -0.722D-03-0.508D-02 0.794D-02 0.485D-01 0.251D+00 0.699D+00
 Gap=     0.102 Goal=   None    Shift=    0.000
 Gap=     0.102 Goal=   None    Shift=    0.000
 RMSDP=4.87D-06 MaxDP=5.08D-04 DE=-8.81D-09 OVMax= 1.10D-05

 Cycle  13  Pass 1  IDiag  1:
 RMSU=  6.43D-07    CP:  6.50D-01  1.01D-02  8.53D-01  6.32D-02  8.03D-01
                    CP:  1.12D+00  1.02D+00  9.64D-01  1.12D+00  1.33D+00
                    CP:  1.06D+00  1.11D+00
 E= -614.161570730470     Delta-E=       -0.000000001086 Rises=F Damp=F
 DIIS: error= 2.78D-07 at cycle  13 NSaved=  13.
 NSaved=13 IEnMin=13 EnMin= -614.161570730470     IErMin=13 ErrMin= 2.78D-07
 ErrMax= 2.78D-07  0.00D+00 EMaxC= 1.00D-01 BMatC= 9.37D-11 BMatP= 3.90D-09
 IDIUse=1 WtCom= 1.00D+00 WtEn= 0.00D+00
 Coeff-Com: -0.116D-05-0.152D-05 0.199D-04-0.385D-05 0.297D-04-0.572D-04
 Coeff-Com: -0.402D-03-0.150D-02-0.568D-02-0.861D-02 0.296D-01 0.162D+00
 Coeff-Com:  0.825D+00
 Coeff:     -0.116D-05-0.152D-05 0.199D-04-0.385D-05 0.297D-04-0.572D-04
 Coeff:     -0.402D-03-0.150D-02-0.568D-02-0.861D-02 0.296D-01 0.162D+00
 Coeff:      0.825D+00
 Gap=     0.102 Goal=   None    Shift=    0.000
 Gap=     0.102 Goal=   None    Shift=    0.000
 RMSDP=1.22D-06 MaxDP=1.16D-04 DE=-1.09D-09 OVMax= 1.93D-06

 Cycle  14  Pass 1  IDiag  1:
 RMSU=  1.72D-07    CP:  6.50D-01  1.01D-02  8.53D-01  6.32D-02  8.03D-01
                    CP:  1.12D+00  1.02D+00  9.65D-01  1.12D+00  1.34D+00
                    CP:  1.11D+00  1.15D+00  1.08D+00
 E= -614.161570730502     Delta-E=       -0.000000000032 Rises=F Damp=F
 DIIS: error= 7.33D-08 at cycle  14 NSaved=  14.
 NSaved=14 IEnMin=14 EnMin= -614.161570730502     IErMin=14 ErrMin= 7.33D-08
 ErrMax= 7.33D-08  0.00D+00 EMaxC= 1.00D-01 BMatC= 3.48D-12 BMatP= 9.37D-11
 IDIUse=1 WtCom= 1.00D+00 WtEn= 0.00D+00
 Coeff-Com: -0.108D-05 0.114D-05 0.301D-05-0.429D-06 0.237D-05-0.200D-04
 Coeff-Com: -0.850D-04-0.245D-03-0.158D-02-0.304D-02-0.670D-03 0.160D-01
 Coeff-Com:  0.202D+00 0.787D+00
 Coeff:     -0.108D-05 0.114D-05 0.301D-05-0.429D-06 0.237D-05-0.200D-04
 Coeff:     -0.850D-04-0.245D-03-0.158D-02-0.304D-02-0.670D-03 0.160D-01
 Coeff:      0.202D+00 0.787D+00
 Gap=     0.102 Goal=   None    Shift=    0.000
 Gap=     0.102 Goal=   None    Shift=    0.000
 RMSDP=2.14D-07 MaxDP=3.15D-05 DE=-3.24D-11 OVMax= 9.25D-07

 Cycle  15  Pass 1  IDiag  1:
 RMSU=  7.78D-08    CP:  6.50D-01  1.01D-02  8.53D-01  6.32D-02  8.03D-01
                    CP:  1.12D+00  1.02D+00  9.65D-01  1.12D+00  1.34D+00
                    CP:  1.11D+00  1.17D+00  1.15D+00  9.62D-01
 E= -614.161570730496     Delta-E=        0.000000000007 Rises=F Damp=F
 DIIS: error= 1.13D-07 at cycle  15 NSaved=  15.
 NSaved=15 IEnMin=14 EnMin= -614.161570730502     IErMin=14 ErrMin= 7.33D-08
 ErrMax= 1.13D-07  0.00D+00 EMaxC= 1.00D-01 BMatC= 5.66D-12 BMatP= 3.48D-12
 IDIUse=1 WtCom= 1.00D+00 WtEn= 0.00D+00
 Coeff-Com: -0.592D-06 0.979D-06-0.640D-06 0.251D-06-0.259D-05-0.830D-05
 Coeff-Com: -0.736D-05 0.274D-04-0.375D-03-0.934D-03-0.457D-02-0.101D-01
 Coeff-Com:  0.387D-01 0.592D+00 0.386D+00
 Coeff:     -0.592D-06 0.979D-06-0.640D-06 0.251D-06-0.259D-05-0.830D-05
 Coeff:     -0.736D-05 0.274D-04-0.375D-03-0.934D-03-0.457D-02-0.101D-01
 Coeff:      0.387D-01 0.592D+00 0.386D+00
 Gap=     0.102 Goal=   None    Shift=    0.000
 Gap=     0.102 Goal=   None    Shift=    0.000
 RMSDP=6.51D-08 MaxDP=1.06D-05 DE= 6.59D-12 OVMax= 5.76D-07

 Cycle  16  Pass 1  IDiag  1:
 RMSU=  1.42D-08    CP:  6.50D-01  1.01D-02  8.53D-01  6.32D-02  8.03D-01
                    CP:  1.12D+00  1.02D+00  9.65D-01  1.12D+00  1.34D+00
                    CP:  1.11D+00  1.17D+00  1.16D+00  1.08D+00  4.53D-01
 E= -614.161570730502     Delta-E=       -0.000000000007 Rises=F Damp=F
 DIIS: error= 1.16D-08 at cycle  16 NSaved=  16.
 NSaved=16 IEnMin=16 EnMin= -614.161570730502     IErMin=16 ErrMin= 1.16D-08
 ErrMax= 1.16D-08  0.00D+00 EMaxC= 1.00D-01 BMatC= 1.32D-13 BMatP= 3.48D-12
 IDIUse=1 WtCom= 1.00D+00 WtEn= 0.00D+00
 Coeff-Com: -0.460D-07 0.783D-07-0.521D-06 0.162D-06-0.107D-05-0.244D-05
 Coeff-Com:  0.435D-05 0.304D-04 0.258D-04 0.101D-03-0.121D-02-0.332D-02
 Coeff-Com: -0.180D-02 0.105D+00 0.101D+00 0.800D+00
 Coeff:     -0.460D-07 0.783D-07-0.521D-06 0.162D-06-0.107D-05-0.244D-05
 Coeff:      0.435D-05 0.304D-04 0.258D-04 0.101D-03-0.121D-02-0.332D-02
 Coeff:     -0.180D-02 0.105D+00 0.101D+00 0.800D+00
 Gap=     0.102 Goal=   None    Shift=    0.000
 Gap=     0.102 Goal=   None    Shift=    0.000
 RMSDP=1.26D-08 MaxDP=1.27D-06 DE=-6.71D-12 OVMax= 1.10D-07

 Cycle  17  Pass 1  IDiag  1:
 RMSU=  2.93D-09    CP:  6.50D-01  1.01D-02  8.53D-01  6.32D-02  8.03D-01
                    CP:  1.12D+00  1.02D+00  9.65D-01  1.12D+00  1.34D+00
                    CP:  1.11D+00  1.17D+00  1.17D+00  1.10D+00  4.98D-01
                    CP:  1.06D+00
 E= -614.161570730502     Delta-E=        0.000000000000 Rises=F Damp=F
 DIIS: error= 3.02D-09 at cycle  17 NSaved=  17.
 NSaved=17 IEnMin=16 EnMin= -614.161570730502     IErMin=17 ErrMin= 3.02D-09
 ErrMax= 3.02D-09  0.00D+00 EMaxC= 1.00D-01 BMatC= 1.33D-14 BMatP= 1.32D-13
 IDIUse=1 WtCom= 1.00D+00 WtEn= 0.00D+00
 Coeff-Com: -0.190D-08 0.157D-07-0.197D-06 0.487D-07-0.281D-06-0.108D-05
 Coeff-Com:  0.138D-05 0.106D-04 0.418D-04 0.139D-03-0.243D-03-0.886D-03
 Coeff-Com: -0.531D-02-0.911D-02 0.107D-01 0.412D+00 0.592D+00
 Coeff:     -0.190D-08 0.157D-07-0.197D-06 0.487D-07-0.281D-06-0.108D-05
 Coeff:      0.138D-05 0.106D-04 0.418D-04 0.139D-03-0.243D-03-0.886D-03
 Coeff:     -0.531D-02-0.911D-02 0.107D-01 0.412D+00 0.592D+00
 Gap=     0.102 Goal=   None    Shift=    0.000
 Gap=     0.102 Goal=   None    Shift=    0.000
 RMSDP=4.15D-09 MaxDP=4.24D-07 DE= 2.27D-13 OVMax= 2.18D-08

 Error on total polarization charges =  0.03144
 SCF Done:  E(UB3LYP) =  -614.161570731     A.U. after   17 cycles
            NFock= 17  Conv=0.41D-08     -V/T= 2.0044
 <Sx>= 0.0000 <Sy>= 0.0000 <Sz>= 0.0000 <S**2>=-0.0000 S=-0.0000
 <L.S>=  0.00000000000    
 KE= 6.114630055740D+02 PE=-3.093107847917D+03 EE= 1.052309356655D+03
 Annihilation of the first spin contaminant:
 S**2 before annihilation    -0.0000,   after     0.0000
 Leave Link  502 at Sun Jan 21 08:47:52 2024, MaxMem=  4026531840 cpu:             860.3 elap:             109.1
 (Enter /sysapps/ubuntu-applications/gaussian/Gaussian/AVX2/g16/l601.exe)
 Copying SCF densities to generalized density rwf, IOpCl= 1 IROHF=0.

 **********************************************************************

            Population analysis using the SCF density.

 **********************************************************************

 Orbital symmetries:
 Alpha Orbitals:
       Occupied  (A) (A) (A) (A) (A) (A) (A) (A) (A) (A) (A) (A)
                 (A) (A) (A) (A) (A) (A) (A) (A) (A) (A) (A) (A)
                 (A) (A) (A) (A) (A) (A) (A) (A) (A) (A) (A) (A)
                 (A) (A) (A) (A) (A) (A) (A) (A) (A) (A) (A) (A)
                 (A) (A)
       Virtual   (A) (A) (A) (A) (A) (A) (A) (A) (A) (A) (A) (A)
                 (A) (A) (A) (A) (A) (A) (A) (A) (A) (A) (A) (A)
                 (A) (A) (A) (A) (A) (A) (A) (A) (A) (A) (A) (A)
                 (A) (A) (A) (A) (A) (A) (A) (A) (A) (A) (A) (A)
                 (A) (A) (A) (A) (A) (A) (A) (A) (A) (A) (A) (A)
                 (A) (A) (A) (A) (A) (A) (A) (A) (A) (A) (A) (A)
                 (A) (A) (A) (A) (A) (A) (A) (A) (A) (A) (A) (A)
                 (A) (A) (A) (A) (A) (A) (A) (A) (A) (A) (A) (A)
                 (A) (A) (A) (A) (A) (A) (A) (A) (A) (A) (A) (A)
                 (A) (A) (A) (A) (A) (A) (A) (A) (A) (A) (A) (A)
                 (A) (A) (A) (A) (A) (A) (A) (A) (A) (A) (A) (A)
                 (A) (A) (A) (A) (A) (A) (A) (A) (A) (A) (A) (A)
                 (A) (A) (A) (A) (A) (A) (A) (A) (A) (A) (A) (A)
                 (A) (A) (A) (A) (A) (A) (A) (A) (A) (A) (A) (A)
                 (A) (A) (A) (A) (A) (A) (A) (A) (A) (A) (A) (A)
                 (A) (A) (A) (A) (A) (A) (A) (A) (A) (A) (A) (A)
                 (A) (A) (A) (A) (A) (A) (A) (A) (A) (A) (A) (A)
                 (A) (A) (A) (A) (A) (A) (A) (A) (A) (A) (A) (A)
                 (A) (A) (A) (A) (A) (A) (A) (A) (A) (A) (A) (A)
                 (A) (A) (A) (A) (A) (A) (A) (A) (A) (A) (A) (A)
                 (A) (A) (A) (A) (A) (A) (A) (A) (A) (A) (A) (A)
                 (A) (A) (A) (A) (A) (A) (A) (A) (A) (A) (A) (A)
                 (A) (A) (A) (A) (A) (A) (A) (A) (A) (A) (A) (A)
                 (A) (A) (A) (A) (A) (A) (A) (A) (A) (A) (A) (A)
                 (A) (A) (A) (A) (A) (A) (A) (A) (A) (A) (A) (A)
                 (A) (A) (A) (A) (A) (A) (A) (A) (A) (A) (A) (A)
                 (A) (A) (A) (A) (A) (A) (A) (A) (A) (A) (A) (A)
                 (A)
 Beta  Orbitals:
       Occupied  (A) (A) (A) (A) (A) (A) (A) (A) (A) (A) (A) (A)
                 (A) (A) (A) (A) (A) (A) (A) (A) (A) (A) (A) (A)
                 (A) (A) (A) (A) (A) (A) (A) (A) (A) (A) (A) (A)
                 (A) (A) (A) (A) (A) (A) (A) (A) (A) (A) (A) (A)
                 (A) (A)
       Virtual   (A) (A) (A) (A) (A) (A) (A) (A) (A) (A) (A) (A)
                 (A) (A) (A) (A) (A) (A) (A) (A) (A) (A) (A) (A)
                 (A) (A) (A) (A) (A) (A) (A) (A) (A) (A) (A) (A)
                 (A) (A) (A) (A) (A) (A) (A) (A) (A) (A) (A) (A)
                 (A) (A) (A) (A) (A) (A) (A) (A) (A) (A) (A) (A)
                 (A) (A) (A) (A) (A) (A) (A) (A) (A) (A) (A) (A)
                 (A) (A) (A) (A) (A) (A) (A) (A) (A) (A) (A) (A)
                 (A) (A) (A) (A) (A) (A) (A) (A) (A) (A) (A) (A)
                 (A) (A) (A) (A) (A) (A) (A) (A) (A) (A) (A) (A)
                 (A) (A) (A) (A) (A) (A) (A) (A) (A) (A) (A) (A)
                 (A) (A) (A) (A) (A) (A) (A) (A) (A) (A) (A) (A)
                 (A) (A) (A) (A) (A) (A) (A) (A) (A) (A) (A) (A)
                 (A) (A) (A) (A) (A) (A) (A) (A) (A) (A) (A) (A)
                 (A) (A) (A) (A) (A) (A) (A) (A) (A) (A) (A) (A)
                 (A) (A) (A) (A) (A) (A) (A) (A) (A) (A) (A) (A)
                 (A) (A) (A) (A) (A) (A) (A) (A) (A) (A) (A) (A)
                 (A) (A) (A) (A) (A) (A) (A) (A) (A) (A) (A) (A)
                 (A) (A) (A) (A) (A) (A) (A) (A) (A) (A) (A) (A)
                 (A) (A) (A) (A) (A) (A) (A) (A) (A) (A) (A) (A)
                 (A) (A) (A) (A) (A) (A) (A) (A) (A) (A) (A) (A)
                 (A) (A) (A) (A) (A) (A) (A) (A) (A) (A) (A) (A)
                 (A) (A) (A) (A) (A) (A) (A) (A) (A) (A) (A) (A)
                 (A) (A) (A) (A) (A) (A) (A) (A) (A) (A) (A) (A)
                 (A) (A) (A) (A) (A) (A) (A) (A) (A) (A) (A) (A)
                 (A) (A) (A) (A) (A) (A) (A) (A) (A) (A) (A) (A)
                 (A) (A) (A) (A) (A) (A) (A) (A) (A) (A) (A) (A)
                 (A) (A) (A) (A) (A) (A) (A) (A) (A) (A) (A) (A)
                 (A)
 The electronic state is 1-A.
 Alpha  occ. eigenvalues --  -19.01072 -19.01071 -10.16335 -10.16334 -10.15360
 Alpha  occ. eigenvalues --  -10.15322 -10.15297 -10.15293 -10.13802 -10.13801
 Alpha  occ. eigenvalues --  -10.13065 -10.13024 -10.11279 -10.11228  -0.92923
 Alpha  occ. eigenvalues --   -0.92611  -0.82976  -0.76817  -0.73915  -0.72311
 Alpha  occ. eigenvalues --   -0.67966  -0.65137  -0.62222  -0.57242  -0.55443
 Alpha  occ. eigenvalues --   -0.51908  -0.45878  -0.45354  -0.43494  -0.41678
 Alpha  occ. eigenvalues --   -0.40328  -0.39932  -0.38896  -0.38430  -0.37034
 Alpha  occ. eigenvalues --   -0.36269  -0.36063  -0.35413  -0.34709  -0.33594
 Alpha  occ. eigenvalues --   -0.31252  -0.30590  -0.29908  -0.29778  -0.22064
 Alpha  occ. eigenvalues --   -0.21793  -0.20436  -0.19241  -0.18810  -0.10388
 Alpha virt. eigenvalues --   -0.00140  -0.00089   0.01010   0.01460   0.01675
 Alpha virt. eigenvalues --    0.02794   0.03034   0.03778   0.04488   0.05109
 Alpha virt. eigenvalues --    0.05788   0.06094   0.06369   0.07229   0.07711
 Alpha virt. eigenvalues --    0.07987   0.08694   0.09214   0.09442   0.10824
 Alpha virt. eigenvalues --    0.11291   0.11324   0.11861   0.11968   0.12434
 Alpha virt. eigenvalues --    0.12761   0.12932   0.13047   0.13720   0.13826
 Alpha virt. eigenvalues --    0.13889   0.14306   0.15079   0.16175   0.16240
 Alpha virt. eigenvalues --    0.16452   0.16828   0.16951   0.17750   0.17921
 Alpha virt. eigenvalues --    0.18378   0.18905   0.19229   0.19264   0.20479
 Alpha virt. eigenvalues --    0.20574   0.21085   0.21439   0.22275   0.23049
 Alpha virt. eigenvalues --    0.23717   0.24422   0.24527   0.25256   0.26154
 Alpha virt. eigenvalues --    0.26476   0.27068   0.27080   0.27246   0.28115
 Alpha virt. eigenvalues --    0.28140   0.29190   0.29315   0.30152   0.30304
 Alpha virt. eigenvalues --    0.30782   0.31493   0.32096   0.32181   0.32310
 Alpha virt. eigenvalues --    0.33673   0.33881   0.34310   0.34498   0.34697
 Alpha virt. eigenvalues --    0.35741   0.36073   0.36409   0.37649   0.39632
 Alpha virt. eigenvalues --    0.39996   0.40338   0.41892   0.42068   0.44242
 Alpha virt. eigenvalues --    0.45157   0.45967   0.47089   0.47863   0.48318
 Alpha virt. eigenvalues --    0.50716   0.51581   0.55418   0.56908   0.57919
 Alpha virt. eigenvalues --    0.57955   0.58469   0.58642   0.59116   0.60867
 Alpha virt. eigenvalues --    0.61407   0.62303   0.62951   0.63810   0.64876
 Alpha virt. eigenvalues --    0.65269   0.65407   0.66167   0.67106   0.67772
 Alpha virt. eigenvalues --    0.68284   0.69214   0.69311   0.69862   0.71067
 Alpha virt. eigenvalues --    0.71652   0.72337   0.72549   0.75102   0.75276
 Alpha virt. eigenvalues --    0.77830   0.77870   0.78243   0.79070   0.80471
 Alpha virt. eigenvalues --    0.80955   0.84122   0.84377   0.88068   0.88081
 Alpha virt. eigenvalues --    0.91201   0.92395   0.93887   0.94407   0.94426
 Alpha virt. eigenvalues --    0.95509   0.96723   0.97779   0.98126   0.98205
 Alpha virt. eigenvalues --    1.01173   1.02631   1.03003   1.04401   1.04999
 Alpha virt. eigenvalues --    1.05521   1.07202   1.07312   1.10107   1.10774
 Alpha virt. eigenvalues --    1.13785   1.14129   1.15018   1.17620   1.18889
 Alpha virt. eigenvalues --    1.19358   1.20665   1.25014   1.26082   1.28669
 Alpha virt. eigenvalues --    1.29757   1.30436   1.32665   1.34197   1.35843
 Alpha virt. eigenvalues --    1.36696   1.37939   1.39700   1.41751   1.47414
 Alpha virt. eigenvalues --    1.47613   1.48342   1.51736   1.53619   1.54016
 Alpha virt. eigenvalues --    1.55711   1.56401   1.57437   1.58052   1.58788
 Alpha virt. eigenvalues --    1.59956   1.61416   1.63304   1.63718   1.64420
 Alpha virt. eigenvalues --    1.65018   1.69001   1.69870   1.71323   1.71374
 Alpha virt. eigenvalues --    1.72361   1.73555   1.77282   1.79143   1.80553
 Alpha virt. eigenvalues --    1.81945   1.82001   1.82341   1.83368   1.86486
 Alpha virt. eigenvalues --    1.87402   1.88221   1.90552   1.92582   1.93416
 Alpha virt. eigenvalues --    1.98130   1.98331   1.99319   2.00124   2.02170
 Alpha virt. eigenvalues --    2.03382   2.03751   2.05603   2.07290   2.07758
 Alpha virt. eigenvalues --    2.10170   2.13330   2.15895   2.16476   2.18895
 Alpha virt. eigenvalues --    2.22504   2.23187   2.25010   2.29834   2.30130
 Alpha virt. eigenvalues --    2.31086   2.32483   2.33263   2.33979   2.39856
 Alpha virt. eigenvalues --    2.43876   2.45826   2.47256   2.49189   2.49609
 Alpha virt. eigenvalues --    2.53225   2.54277   2.56398   2.59904   2.61843
 Alpha virt. eigenvalues --    2.63727   2.65395   2.66496   2.68027   2.68987
 Alpha virt. eigenvalues --    2.69576   2.73153   2.73355   2.74916   2.77066
 Alpha virt. eigenvalues --    2.78973   2.79782   2.81358   2.81501   2.83193
 Alpha virt. eigenvalues --    2.84261   2.85260   2.87384   2.92157   2.93422
 Alpha virt. eigenvalues --    2.94402   2.97660   2.97761   2.98516   3.00530
 Alpha virt. eigenvalues --    3.01424   3.01994   3.04229   3.10352   3.12107
 Alpha virt. eigenvalues --    3.14666   3.18031   3.20288   3.21767   3.24871
 Alpha virt. eigenvalues --    3.27271   3.30510   3.36454   3.36643   3.38931
 Alpha virt. eigenvalues --    3.40331   3.42478   3.46815   3.54244   3.55605
 Alpha virt. eigenvalues --    3.57242   3.63210   3.68469   3.69215   3.75257
 Alpha virt. eigenvalues --    3.75723   3.81689   3.83222   3.84674   3.88740
 Alpha virt. eigenvalues --    3.89212   4.11025   4.20881   4.24552   4.26127
 Alpha virt. eigenvalues --    4.34326   4.38645   4.45726   4.82387   4.89838
 Alpha virt. eigenvalues --    5.13792   5.15505   5.29730   5.32158   5.78536
 Alpha virt. eigenvalues --    5.86953  23.57994  23.83331  23.92117  23.96241
 Alpha virt. eigenvalues --   23.98712  23.99130  24.00155  24.02711  24.04929
 Alpha virt. eigenvalues --   24.14451  24.17808  24.19609  50.09381  50.14058
  Beta  occ. eigenvalues --  -19.01072 -19.01071 -10.16335 -10.16334 -10.15360
  Beta  occ. eigenvalues --  -10.15322 -10.15297 -10.15293 -10.13802 -10.13801
  Beta  occ. eigenvalues --  -10.13065 -10.13024 -10.11279 -10.11228  -0.92923
  Beta  occ. eigenvalues --   -0.92611  -0.82976  -0.76817  -0.73915  -0.72311
  Beta  occ. eigenvalues --   -0.67966  -0.65137  -0.62222  -0.57242  -0.55443
  Beta  occ. eigenvalues --   -0.51908  -0.45878  -0.45354  -0.43494  -0.41678
  Beta  occ. eigenvalues --   -0.40328  -0.39932  -0.38896  -0.38430  -0.37034
  Beta  occ. eigenvalues --   -0.36269  -0.36063  -0.35413  -0.34709  -0.33594
  Beta  occ. eigenvalues --   -0.31252  -0.30590  -0.29908  -0.29778  -0.22064
  Beta  occ. eigenvalues --   -0.21793  -0.20436  -0.19241  -0.18810  -0.10388
  Beta virt. eigenvalues --   -0.00140  -0.00089   0.01010   0.01460   0.01675
  Beta virt. eigenvalues --    0.02794   0.03034   0.03778   0.04488   0.05109
  Beta virt. eigenvalues --    0.05788   0.06094   0.06369   0.07229   0.07711
  Beta virt. eigenvalues --    0.07987   0.08694   0.09214   0.09442   0.10824
  Beta virt. eigenvalues --    0.11291   0.11324   0.11861   0.11968   0.12434
  Beta virt. eigenvalues --    0.12761   0.12932   0.13047   0.13720   0.13826
  Beta virt. eigenvalues --    0.13889   0.14306   0.15079   0.16175   0.16240
  Beta virt. eigenvalues --    0.16452   0.16828   0.16951   0.17750   0.17921
  Beta virt. eigenvalues --    0.18378   0.18905   0.19229   0.19264   0.20479
  Beta virt. eigenvalues --    0.20574   0.21085   0.21439   0.22275   0.23049
  Beta virt. eigenvalues --    0.23717   0.24422   0.24527   0.25256   0.26154
  Beta virt. eigenvalues --    0.26476   0.27068   0.27080   0.27246   0.28115
  Beta virt. eigenvalues --    0.28140   0.29190   0.29315   0.30152   0.30304
  Beta virt. eigenvalues --    0.30782   0.31493   0.32096   0.32181   0.32310
  Beta virt. eigenvalues --    0.33673   0.33881   0.34310   0.34498   0.34697
  Beta virt. eigenvalues --    0.35741   0.36073   0.36409   0.37649   0.39632
  Beta virt. eigenvalues --    0.39996   0.40338   0.41892   0.42068   0.44242
  Beta virt. eigenvalues --    0.45157   0.45967   0.47089   0.47863   0.48318
  Beta virt. eigenvalues --    0.50716   0.51581   0.55418   0.56908   0.57919
  Beta virt. eigenvalues --    0.57955   0.58469   0.58642   0.59116   0.60867
  Beta virt. eigenvalues --    0.61407   0.62303   0.62951   0.63810   0.64876
  Beta virt. eigenvalues --    0.65269   0.65407   0.66167   0.67106   0.67772
  Beta virt. eigenvalues --    0.68284   0.69214   0.69311   0.69862   0.71067
  Beta virt. eigenvalues --    0.71652   0.72337   0.72549   0.75102   0.75276
  Beta virt. eigenvalues --    0.77830   0.77870   0.78243   0.79070   0.80471
  Beta virt. eigenvalues --    0.80955   0.84122   0.84377   0.88068   0.88081
  Beta virt. eigenvalues --    0.91201   0.92395   0.93887   0.94407   0.94426
  Beta virt. eigenvalues --    0.95509   0.96723   0.97779   0.98126   0.98205
  Beta virt. eigenvalues --    1.01173   1.02631   1.03003   1.04401   1.04999
  Beta virt. eigenvalues --    1.05521   1.07202   1.07312   1.10107   1.10774
  Beta virt. eigenvalues --    1.13785   1.14129   1.15018   1.17620   1.18889
  Beta virt. eigenvalues --    1.19358   1.20665   1.25014   1.26082   1.28669
  Beta virt. eigenvalues --    1.29757   1.30436   1.32665   1.34197   1.35843
  Beta virt. eigenvalues --    1.36696   1.37939   1.39700   1.41751   1.47414
  Beta virt. eigenvalues --    1.47613   1.48342   1.51736   1.53619   1.54016
  Beta virt. eigenvalues --    1.55711   1.56401   1.57437   1.58052   1.58788
  Beta virt. eigenvalues --    1.59956   1.61416   1.63304   1.63718   1.64420
  Beta virt. eigenvalues --    1.65018   1.69001   1.69870   1.71323   1.71374
  Beta virt. eigenvalues --    1.72361   1.73555   1.77282   1.79143   1.80553
  Beta virt. eigenvalues --    1.81945   1.82001   1.82341   1.83368   1.86486
  Beta virt. eigenvalues --    1.87402   1.88221   1.90552   1.92582   1.93416
  Beta virt. eigenvalues --    1.98130   1.98331   1.99319   2.00124   2.02170
  Beta virt. eigenvalues --    2.03382   2.03751   2.05603   2.07290   2.07758
  Beta virt. eigenvalues --    2.10170   2.13330   2.15895   2.16476   2.18895
  Beta virt. eigenvalues --    2.22504   2.23187   2.25010   2.29834   2.30130
  Beta virt. eigenvalues --    2.31086   2.32483   2.33263   2.33979   2.39856
  Beta virt. eigenvalues --    2.43876   2.45826   2.47256   2.49189   2.49609
  Beta virt. eigenvalues --    2.53225   2.54277   2.56398   2.59904   2.61843
  Beta virt. eigenvalues --    2.63727   2.65395   2.66496   2.68027   2.68987
  Beta virt. eigenvalues --    2.69576   2.73153   2.73355   2.74916   2.77066
  Beta virt. eigenvalues --    2.78973   2.79782   2.81358   2.81501   2.83193
  Beta virt. eigenvalues --    2.84261   2.85260   2.87384   2.92157   2.93422
  Beta virt. eigenvalues --    2.94402   2.97660   2.97761   2.98516   3.00530
  Beta virt. eigenvalues --    3.01424   3.01994   3.04229   3.10352   3.12107
  Beta virt. eigenvalues --    3.14666   3.18031   3.20288   3.21767   3.24871
  Beta virt. eigenvalues --    3.27271   3.30510   3.36454   3.36643   3.38931
  Beta virt. eigenvalues --    3.40331   3.42478   3.46815   3.54244   3.55605
  Beta virt. eigenvalues --    3.57242   3.63210   3.68469   3.69215   3.75257
  Beta virt. eigenvalues --    3.75723   3.81689   3.83222   3.84674   3.88740
  Beta virt. eigenvalues --    3.89212   4.11025   4.20881   4.24552   4.26127
  Beta virt. eigenvalues --    4.34326   4.38645   4.45726   4.82387   4.89838
  Beta virt. eigenvalues --    5.13792   5.15505   5.29730   5.32158   5.78536
  Beta virt. eigenvalues --    5.86953  23.57994  23.83331  23.92117  23.96241
  Beta virt. eigenvalues --   23.98712  23.99130  24.00155  24.02711  24.04929
  Beta virt. eigenvalues --   24.14451  24.17808  24.19609  50.09381  50.14058
          Condensed to atoms (all electrons):
               1          2          3          4          5          6
     1  C    6.380271  -0.785640   0.375634  -0.083110   0.042954   0.004251
     2  C   -0.785640   8.786494  -1.019039  -0.358015   0.617408   0.142880
     3  C    0.375634  -1.019039  10.835461  -2.363519  -0.745270   0.200886
     4  C   -0.083110  -0.358015  -2.363519  22.289112  -6.258059  -0.316537
     5  C    0.042954   0.617408  -0.745270  -6.258059  11.017170   0.463507
     6  O    0.004251   0.142880   0.200886  -0.316537   0.463507   8.765281
     7  C    0.036299   0.323787   0.076428  -2.620346   0.474279  -0.266673
     8  C   -0.034333  -0.087144  -0.310843  -0.373420   0.282709  -0.000366
     9  C   -0.049916   0.314320   0.211813  -0.025507   0.357797   0.006147
    10  O   -0.001655  -0.014660  -0.019802  -0.246441   0.006151  -0.000199
    11  C   -0.294447  -1.443172  -2.923645   0.672757  -0.025347  -0.246435
    12  C    0.340306  -1.547490   3.216071  -2.925603   0.211970  -0.019813
    13  C   -0.250611   0.863608  -1.550402  -1.441500   0.314244  -0.014661
    14  C   -0.252117  -0.249984   0.339284  -0.294386  -0.049975  -0.001656
    15  H    0.440623  -0.051747   0.034187  -0.025813   0.029771   0.002921
    16  H    0.373501  -0.014034  -0.028919  -0.002395  -0.003456  -0.000065
    17  H    0.336840   0.037630  -0.055600   0.003961  -0.005995  -0.000246
    18  H   -0.039197  -0.117820   0.221526   0.145673  -0.029853  -0.005258
    19  H    0.000675   0.002732  -0.008377   0.008835  -0.108298  -0.003299
    20  H   -0.000492  -0.000096  -0.008085   0.029073   0.005020   0.000485
    21  H   -0.000544   0.035762  -0.023440   0.133796  -0.002447   0.000793
    22  H    0.014261   0.015369  -0.011647   0.008973   0.001603   0.000024
    23  H   -0.013110  -0.037748  -0.017501  -0.025218   0.001656  -0.000064
    24  H    0.007614   0.019312  -0.005206   0.001143   0.000774   0.000027
               7          8          9         10         11         12
     1  C    0.036299  -0.034333  -0.049916  -0.001655  -0.294447   0.340306
     2  C    0.323787  -0.087144   0.314320  -0.014660  -1.443172  -1.547490
     3  C    0.076428  -0.310843   0.211813  -0.019802  -2.923645   3.216071
     4  C   -2.620346  -0.373420  -0.025507  -0.246441   0.672757  -2.925603
     5  C    0.474279   0.282709   0.357797   0.006151  -0.025347   0.211970
     6  O   -0.266673  -0.000366   0.006147  -0.000199  -0.246435  -0.019813
     7  C    8.662219  -0.521630   0.283121  -0.000376  -0.373066  -0.311913
     8  C   -0.521630   8.661633   0.473880  -0.266648  -2.621049   0.078092
     9  C    0.283121   0.473880  11.017255   0.463461  -6.257851  -0.745682
    10  O   -0.000376  -0.266648   0.463461   8.765265  -0.316495   0.200875
    11  C   -0.373066  -2.621049  -6.257851  -0.316495  22.282522  -2.357968
    12  C   -0.311913   0.078092  -0.745682   0.200875  -2.357968  10.831727
    13  C   -0.086775   0.323418   0.617838   0.142856  -0.357613  -1.021748
    14  C   -0.034388   0.036375   0.042934   0.004252  -0.081846   0.374223
    15  H    0.007396  -0.001748   0.001662  -0.000064  -0.025231  -0.017490
    16  H   -0.001097   0.000572   0.000769   0.000027   0.001156  -0.005261
    17  H   -0.001724   0.000652   0.001601   0.000024   0.008943  -0.011677
    18  H   -0.014263   0.015702  -0.002466   0.000793   0.133764  -0.023491
    19  H    0.418301  -0.031530   0.005025   0.000484   0.029061  -0.008089
    20  H   -0.031530   0.418264  -0.108290  -0.003297   0.008828  -0.008364
    21  H    0.015709  -0.014268  -0.029867  -0.005257   0.145449   0.221696
    22  H    0.000654  -0.001728  -0.006001  -0.000247   0.003985  -0.055522
    23  H   -0.001745   0.007391   0.029769   0.002920  -0.025781   0.034236
    24  H    0.000570  -0.001093  -0.003446  -0.000065  -0.002486  -0.028922
              13         14         15         16         17         18
     1  C   -0.250611  -0.252117   0.440623   0.373501   0.336840  -0.039197
     2  C    0.863608  -0.249984  -0.051747  -0.014034   0.037630  -0.117820
     3  C   -1.550402   0.339284   0.034187  -0.028919  -0.055600   0.221526
     4  C   -1.441500  -0.294386  -0.025813  -0.002395   0.003961   0.145673
     5  C    0.314244  -0.049975   0.029771  -0.003456  -0.005995  -0.029853
     6  O   -0.014661  -0.001656   0.002921  -0.000065  -0.000246  -0.005258
     7  C   -0.086775  -0.034388   0.007396  -0.001097  -0.001724  -0.014263
     8  C    0.323418   0.036375  -0.001748   0.000572   0.000652   0.015702
     9  C    0.617838   0.042934   0.001662   0.000769   0.001601  -0.002466
    10  O    0.142856   0.004252  -0.000064   0.000027   0.000024   0.000793
    11  C   -0.357613  -0.081846  -0.025231   0.001156   0.008943   0.133764
    12  C   -1.021748   0.374223  -0.017490  -0.005261  -0.011677  -0.023491
    13  C    8.789527  -0.784925  -0.037703   0.019105   0.015584   0.035756
    14  C   -0.784925   6.379783  -0.013096   0.007639   0.014237  -0.000531
    15  H   -0.037703  -0.013096   0.535879  -0.019163  -0.015820  -0.001465
    16  H    0.019105   0.007639  -0.019163   0.601573  -0.073876  -0.000146
    17  H    0.015584   0.014237  -0.015820  -0.073876   0.591747  -0.000598
    18  H    0.035756  -0.000531  -0.001465  -0.000146  -0.000598   0.571804
    19  H   -0.000092  -0.000492   0.000036   0.000002   0.000011  -0.001813
    20  H    0.002736   0.000676  -0.000021  -0.000005  -0.000002   0.000457
    21  H   -0.117873  -0.039199  -0.000019   0.000262  -0.000347   0.002703
    22  H    0.037817   0.336690  -0.000290   0.003013  -0.000023  -0.000347
    23  H   -0.051797   0.440669   0.000501  -0.000198  -0.000291  -0.000019
    24  H   -0.014286   0.373586  -0.000197  -0.001853   0.003027   0.000262
              19         20         21         22         23         24
     1  C    0.000675  -0.000492  -0.000544   0.014261  -0.013110   0.007614
     2  C    0.002732  -0.000096   0.035762   0.015369  -0.037748   0.019312
     3  C   -0.008377  -0.008085  -0.023440  -0.011647  -0.017501  -0.005206
     4  C    0.008835   0.029073   0.133796   0.008973  -0.025218   0.001143
     5  C   -0.108298   0.005020  -0.002447   0.001603   0.001656   0.000774
     6  O   -0.003299   0.000485   0.000793   0.000024  -0.000064   0.000027
     7  C    0.418301  -0.031530   0.015709   0.000654  -0.001745   0.000570
     8  C   -0.031530   0.418264  -0.014268  -0.001728   0.007391  -0.001093
     9  C    0.005025  -0.108290  -0.029867  -0.006001   0.029769  -0.003446
    10  O    0.000484  -0.003297  -0.005257  -0.000247   0.002920  -0.000065
    11  C    0.029061   0.008828   0.145449   0.003985  -0.025781  -0.002486
    12  C   -0.008089  -0.008364   0.221696  -0.055522   0.034236  -0.028922
    13  C   -0.000092   0.002736  -0.117873   0.037817  -0.051797  -0.014286
    14  C   -0.000492   0.000676  -0.039199   0.336690   0.440669   0.373586
    15  H    0.000036  -0.000021  -0.000019  -0.000290   0.000501  -0.000197
    16  H    0.000002  -0.000005   0.000262   0.003013  -0.000198  -0.001853
    17  H    0.000011  -0.000002  -0.000347  -0.000023  -0.000291   0.003027
    18  H   -0.001813   0.000457   0.002703  -0.000347  -0.000019   0.000262
    19  H    0.611368  -0.032108   0.000457  -0.000002  -0.000021  -0.000005
    20  H   -0.032108   0.611374  -0.001814   0.000011   0.000036   0.000002
    21  H    0.000457  -0.001814   0.571820  -0.000595  -0.001466  -0.000143
    22  H   -0.000002   0.000011  -0.000595   0.591706  -0.015848  -0.073854
    23  H   -0.000021   0.000036  -0.001466  -0.015848   0.535895  -0.019166
    24  H   -0.000005   0.000002  -0.000143  -0.073854  -0.019166   0.601616
          Atomic-Atomic Spin Densities.
               1          2          3          4          5          6
     1  C    0.000000   0.000000  -0.000000   0.000000  -0.000000   0.000000
     2  C    0.000000   0.000000   0.000000  -0.000000   0.000000   0.000000
     3  C   -0.000000   0.000000  -0.000000   0.000000  -0.000000  -0.000000
     4  C    0.000000  -0.000000   0.000000  -0.000000  -0.000000   0.000000
     5  C   -0.000000   0.000000  -0.000000  -0.000000   0.000000  -0.000000
     6  O    0.000000   0.000000  -0.000000   0.000000  -0.000000  -0.000000
     7  C    0.000000   0.000000  -0.000000   0.000000   0.000000  -0.000000
     8  C    0.000000  -0.000000   0.000000   0.000000  -0.000000   0.000000
     9  C   -0.000000   0.000000  -0.000000  -0.000000   0.000000  -0.000000
    10  O    0.000000  -0.000000  -0.000000   0.000000  -0.000000   0.000000
    11  C   -0.000000  -0.000000   0.000000  -0.000000  -0.000000   0.000000
    12  C   -0.000000   0.000000  -0.000000   0.000000  -0.000000  -0.000000
    13  C   -0.000000   0.000000   0.000000  -0.000000   0.000000  -0.000000
    14  C    0.000000  -0.000000  -0.000000   0.000000  -0.000000  -0.000000
    15  H    0.000000   0.000000  -0.000000  -0.000000   0.000000   0.000000
    16  H   -0.000000  -0.000000   0.000000  -0.000000  -0.000000  -0.000000
    17  H   -0.000000  -0.000000   0.000000  -0.000000  -0.000000   0.000000
    18  H   -0.000000  -0.000000   0.000000   0.000000  -0.000000  -0.000000
    19  H   -0.000000  -0.000000   0.000000  -0.000000   0.000000  -0.000000
    20  H    0.000000  -0.000000   0.000000  -0.000000  -0.000000  -0.000000
    21  H   -0.000000  -0.000000   0.000000  -0.000000  -0.000000  -0.000000
    22  H   -0.000000   0.000000   0.000000  -0.000000  -0.000000  -0.000000
    23  H    0.000000   0.000000  -0.000000  -0.000000   0.000000   0.000000
    24  H   -0.000000  -0.000000   0.000000  -0.000000  -0.000000  -0.000000
               7          8          9         10         11         12
     1  C    0.000000   0.000000  -0.000000   0.000000  -0.000000  -0.000000
     2  C    0.000000  -0.000000   0.000000  -0.000000  -0.000000   0.000000
     3  C   -0.000000   0.000000  -0.000000  -0.000000   0.000000  -0.000000
     4  C    0.000000   0.000000  -0.000000   0.000000  -0.000000   0.000000
     5  C    0.000000  -0.000000   0.000000  -0.000000  -0.000000  -0.000000
     6  O   -0.000000   0.000000  -0.000000   0.000000   0.000000  -0.000000
     7  C   -0.000000   0.000000  -0.000000   0.000000   0.000000  -0.000000
     8  C    0.000000  -0.000000  -0.000000  -0.000000   0.000000  -0.000000
     9  C   -0.000000  -0.000000  -0.000000   0.000000   0.000000  -0.000000
    10  O    0.000000  -0.000000   0.000000  -0.000000   0.000000  -0.000000
    11  C    0.000000   0.000000   0.000000   0.000000  -0.000000   0.000000
    12  C   -0.000000  -0.000000  -0.000000  -0.000000   0.000000  -0.000000
    13  C    0.000000  -0.000000   0.000000   0.000000  -0.000000   0.000000
    14  C   -0.000000   0.000000   0.000000   0.000000   0.000000  -0.000000
    15  H    0.000000   0.000000   0.000000   0.000000  -0.000000  -0.000000
    16  H    0.000000  -0.000000  -0.000000  -0.000000  -0.000000   0.000000
    17  H    0.000000  -0.000000  -0.000000  -0.000000  -0.000000   0.000000
    18  H   -0.000000  -0.000000   0.000000  -0.000000   0.000000   0.000000
    19  H   -0.000000   0.000000   0.000000  -0.000000  -0.000000   0.000000
    20  H    0.000000  -0.000000   0.000000   0.000000  -0.000000   0.000000
    21  H   -0.000000  -0.000000  -0.000000  -0.000000  -0.000000   0.000000
    22  H   -0.000000   0.000000   0.000000   0.000000  -0.000000   0.000000
    23  H    0.000000  -0.000000   0.000000  -0.000000  -0.000000  -0.000000
    24  H   -0.000000   0.000000   0.000000   0.000000  -0.000000   0.000000
              13         14         15         16         17         18
     1  C   -0.000000   0.000000   0.000000  -0.000000  -0.000000  -0.000000
     2  C    0.000000  -0.000000   0.000000  -0.000000  -0.000000  -0.000000
     3  C    0.000000  -0.000000  -0.000000   0.000000   0.000000   0.000000
     4  C   -0.000000   0.000000  -0.000000  -0.000000  -0.000000   0.000000
     5  C    0.000000  -0.000000   0.000000  -0.000000  -0.000000  -0.000000
     6  O   -0.000000  -0.000000   0.000000  -0.000000   0.000000  -0.000000
     7  C    0.000000  -0.000000   0.000000   0.000000   0.000000  -0.000000
     8  C   -0.000000   0.000000   0.000000  -0.000000  -0.000000  -0.000000
     9  C    0.000000   0.000000   0.000000  -0.000000  -0.000000   0.000000
    10  O    0.000000   0.000000   0.000000  -0.000000  -0.000000  -0.000000
    11  C   -0.000000   0.000000  -0.000000  -0.000000  -0.000000   0.000000
    12  C    0.000000  -0.000000  -0.000000   0.000000   0.000000   0.000000
    13  C    0.000000   0.000000   0.000000  -0.000000   0.000000   0.000000
    14  C    0.000000   0.000000   0.000000   0.000000  -0.000000  -0.000000
    15  H    0.000000   0.000000   0.000000  -0.000000  -0.000000  -0.000000
    16  H   -0.000000   0.000000  -0.000000  -0.000000   0.000000   0.000000
    17  H    0.000000  -0.000000  -0.000000   0.000000  -0.000000   0.000000
    18  H    0.000000  -0.000000  -0.000000   0.000000   0.000000   0.000000
    19  H   -0.000000  -0.000000  -0.000000   0.000000   0.000000   0.000000
    20  H   -0.000000   0.000000  -0.000000   0.000000  -0.000000  -0.000000
    21  H   -0.000000  -0.000000  -0.000000   0.000000   0.000000   0.000000
    22  H   -0.000000  -0.000000  -0.000000  -0.000000   0.000000   0.000000
    23  H    0.000000   0.000000   0.000000  -0.000000  -0.000000  -0.000000
    24  H   -0.000000  -0.000000  -0.000000   0.000000   0.000000   0.000000
              19         20         21         22         23         24
     1  C   -0.000000   0.000000  -0.000000  -0.000000   0.000000  -0.000000
     2  C   -0.000000  -0.000000  -0.000000   0.000000   0.000000  -0.000000
     3  C    0.000000   0.000000   0.000000   0.000000  -0.000000   0.000000
     4  C   -0.000000  -0.000000  -0.000000  -0.000000  -0.000000  -0.000000
     5  C    0.000000  -0.000000  -0.000000  -0.000000   0.000000  -0.000000
     6  O   -0.000000  -0.000000  -0.000000  -0.000000   0.000000  -0.000000
     7  C   -0.000000   0.000000  -0.000000  -0.000000   0.000000  -0.000000
     8  C    0.000000  -0.000000  -0.000000   0.000000  -0.000000   0.000000
     9  C    0.000000   0.000000  -0.000000   0.000000   0.000000   0.000000
    10  O   -0.000000   0.000000  -0.000000   0.000000  -0.000000   0.000000
    11  C   -0.000000  -0.000000  -0.000000  -0.000000  -0.000000  -0.000000
    12  C    0.000000   0.000000   0.000000   0.000000  -0.000000   0.000000
    13  C   -0.000000  -0.000000  -0.000000  -0.000000   0.000000  -0.000000
    14  C   -0.000000   0.000000  -0.000000  -0.000000   0.000000  -0.000000
    15  H   -0.000000  -0.000000  -0.000000  -0.000000   0.000000  -0.000000
    16  H    0.000000   0.000000   0.000000  -0.000000  -0.000000   0.000000
    17  H    0.000000  -0.000000   0.000000   0.000000  -0.000000   0.000000
    18  H    0.000000  -0.000000   0.000000   0.000000  -0.000000   0.000000
    19  H   -0.000000   0.000000  -0.000000  -0.000000   0.000000  -0.000000
    20  H    0.000000   0.000000   0.000000   0.000000  -0.000000   0.000000
    21  H   -0.000000   0.000000  -0.000000   0.000000  -0.000000   0.000000
    22  H   -0.000000   0.000000   0.000000  -0.000000  -0.000000  -0.000000
    23  H    0.000000  -0.000000  -0.000000  -0.000000   0.000000  -0.000000
    24  H   -0.000000   0.000000   0.000000  -0.000000  -0.000000  -0.000000
 Mulliken charges and spin densities:
               1          2
     1  C   -0.548058  -0.000000
     2  C    0.567289   0.000000
     3  C   -0.419995  -0.000000
     4  C    0.066542  -0.000000
     5  C   -0.598311   0.000000
     6  O   -0.711929   0.000000
     7  C   -0.033236   0.000000
     8  C   -0.032887  -0.000000
     9  C   -0.598367   0.000000
    10  O   -0.711905   0.000000
    11  C    0.065965   0.000000
    12  C   -0.420163  -0.000000
    13  C    0.567497   0.000000
    14  C   -0.547754   0.000000
    15  H    0.156890   0.000000
    16  H    0.142849  -0.000000
    17  H    0.151944  -0.000000
    18  H    0.108826  -0.000000
    19  H    0.117141  -0.000000
    20  H    0.117144   0.000000
    21  H    0.108834  -0.000000
    22  H    0.151998   0.000000
    23  H    0.156899   0.000000
    24  H    0.142787   0.000000
 Sum of Mulliken charges =  -2.00000   0.00000
 Mulliken charges and spin densities with hydrogens summed into heavy atoms:
               1          2
     1  C   -0.096374  -0.000000
     2  C    0.567289   0.000000
     3  C   -0.311169  -0.000000
     4  C    0.066542  -0.000000
     5  C   -0.598311   0.000000
     6  O   -0.711929   0.000000
     7  C    0.083905   0.000000
     8  C    0.084257  -0.000000
     9  C   -0.598367   0.000000
    10  O   -0.711905   0.000000
    11  C    0.065965   0.000000
    12  C   -0.311329  -0.000000
    13  C    0.567497   0.000000
    14  C   -0.096070   0.000000
 Electronic spatial extent (au):  <R**2>=           2909.4317
 Charge=             -2.0000 electrons
 Dipole moment (field-independent basis, Debye):
    X=            -15.5095    Y=              0.0003    Z=              0.0004  Tot=             15.5095
 Quadrupole moment (field-independent basis, Debye-Ang):
   XX=           -121.3615   YY=           -151.6472   ZZ=            -93.8871
   XY=              0.0010   XZ=             -0.0001   YZ=              0.3089
 Traceless Quadrupole moment (field-independent basis, Debye-Ang):
   XX=              0.9371   YY=            -29.3486   ZZ=             28.4115
   XY=              0.0010   XZ=             -0.0001   YZ=              0.3089
 Octapole moment (field-independent basis, Debye-Ang**2):
  XXX=            -88.5807  YYY=              0.0022  ZZZ=              0.0019  XYY=           -119.4743
  XXY=              0.0040  XXZ=              0.0013  XZZ=            -12.1412  YZZ=              0.0009
  YYZ=              0.0010  XYZ=              0.1469
 Hexadecapole moment (field-independent basis, Debye-Ang**3):
 XXXX=          -2831.0011 YYYY=          -2001.1072 ZZZZ=           -134.3084 XXXY=              0.0106
 XXXZ=              0.0077 YYYX=              0.0108 YYYZ=              1.7810 ZZZX=             -0.0087
 ZZZY=              0.6095 XXYY=           -904.0254 XXZZ=           -489.3063 YYZZ=           -280.3170
 XXYZ=              0.9938 YYXZ=              0.0041 ZZXY=             -0.0015
 N-N= 8.151739149576D+02 E-N=-3.093107847855D+03  KE= 6.114630055740D+02
                          Isotropic Fermi Contact Couplings
        Atom                 a.u.       MegaHertz       Gauss      10(-4) cm-1
     1  C(13)              0.00000       0.00000       0.00000       0.00000
     2  C(13)              0.00000       0.00000       0.00000       0.00000
     3  C(13)             -0.00000      -0.00000      -0.00000      -0.00000
     4  C(13)              0.00000       0.00000       0.00000       0.00000
     5  C(13)              0.00000       0.00000       0.00000       0.00000
     6  O(17)             -0.00000       0.00000       0.00000       0.00000
     7  C(13)             -0.00000      -0.00000      -0.00000      -0.00000
     8  C(13)             -0.00000      -0.00000      -0.00000      -0.00000
     9  C(13)              0.00000       0.00000       0.00000       0.00000
    10  O(17)              0.00000      -0.00000      -0.00000      -0.00000
    11  C(13)              0.00000       0.00000       0.00000       0.00000
    12  C(13)              0.00000       0.00000       0.00000       0.00000
    13  C(13)              0.00000       0.00000       0.00000       0.00000
    14  C(13)              0.00000       0.00000       0.00000       0.00000
    15  H(1)              -0.00000      -0.00000      -0.00000      -0.00000
    16  H(1)              -0.00000      -0.00000      -0.00000      -0.00000
    17  H(1)              -0.00000      -0.00000      -0.00000      -0.00000
    18  H(1)              -0.00000      -0.00000      -0.00000      -0.00000
    19  H(1)               0.00000       0.00000       0.00000       0.00000
    20  H(1)               0.00000       0.00000       0.00000       0.00000
    21  H(1)              -0.00000      -0.00000      -0.00000      -0.00000
    22  H(1)              -0.00000      -0.00000      -0.00000      -0.00000
    23  H(1)              -0.00000      -0.00000      -0.00000      -0.00000
    24  H(1)              -0.00000      -0.00000      -0.00000      -0.00000
 --------------------------------------------------------
       Center         ----  Spin Dipole Couplings  ----
                      3XX-RR        3YY-RR        3ZZ-RR
 --------------------------------------------------------
     1   Atom        0.000000     -0.000000      0.000000
     2   Atom       -0.000000      0.000000      0.000000
     3   Atom       -0.000000      0.000000     -0.000000
     4   Atom        0.000000     -0.000000      0.000000
     5   Atom       -0.000000      0.000000     -0.000000
     6   Atom       -0.000000      0.000000      0.000000
     7   Atom       -0.000000      0.000000      0.000000
     8   Atom       -0.000000      0.000000      0.000000
     9   Atom        0.000000     -0.000000      0.000000
    10   Atom        0.000000     -0.000000     -0.000000
    11   Atom        0.000000     -0.000000     -0.000000
    12   Atom       -0.000000      0.000000      0.000000
    13   Atom       -0.000000      0.000000      0.000000
    14   Atom       -0.000000      0.000000      0.000000
    15   Atom       -0.000000     -0.000000      0.000000
    16   Atom       -0.000000      0.000000      0.000000
    17   Atom       -0.000000      0.000000     -0.000000
    18   Atom       -0.000000      0.000000     -0.000000
    19   Atom        0.000000      0.000000     -0.000000
    20   Atom        0.000000      0.000000     -0.000000
    21   Atom       -0.000000      0.000000     -0.000000
    22   Atom       -0.000000      0.000000      0.000000
    23   Atom        0.000000     -0.000000      0.000000
    24   Atom       -0.000000      0.000000      0.000000
 --------------------------------------------------------
                        XY            XZ            YZ
 --------------------------------------------------------
     1   Atom        0.000000     -0.000000      0.000000
     2   Atom        0.000000      0.000000     -0.000000
     3   Atom       -0.000000     -0.000000      0.000000
     4   Atom       -0.000000      0.000000      0.000000
     5   Atom       -0.000000     -0.000000      0.000000
     6   Atom        0.000000      0.000000     -0.000000
     7   Atom       -0.000000      0.000000     -0.000000
     8   Atom       -0.000000     -0.000000     -0.000000
     9   Atom       -0.000000      0.000000      0.000000
    10   Atom       -0.000000     -0.000000     -0.000000
    11   Atom        0.000000     -0.000000     -0.000000
    12   Atom        0.000000      0.000000     -0.000000
    13   Atom       -0.000000     -0.000000      0.000000
    14   Atom       -0.000000      0.000000     -0.000000
    15   Atom       -0.000000     -0.000000     -0.000000
    16   Atom       -0.000000     -0.000000      0.000000
    17   Atom       -0.000000      0.000000     -0.000000
    18   Atom       -0.000000     -0.000000     -0.000000
    19   Atom       -0.000000      0.000000     -0.000000
    20   Atom        0.000000      0.000000      0.000000
    21   Atom        0.000000     -0.000000      0.000000
    22   Atom        0.000000     -0.000000     -0.000000
    23   Atom        0.000000      0.000000      0.000000
    24   Atom        0.000000     -0.000000      0.000000
 --------------------------------------------------------


 ---------------------------------------------------------------------------------
              Anisotropic Spin Dipole Couplings in Principal Axis System
 ---------------------------------------------------------------------------------

       Atom             a.u.   MegaHertz   Gauss  10(-4) cm-1        Axes

              Baa    -0.0000    -0.000    -0.000    -0.000 -0.4707  0.6686 -0.5757
     1 C(13)  Bbb     0.0000     0.000     0.000     0.000  0.6665  0.6970  0.2646
              Bcc     0.0000     0.000     0.000     0.000 -0.5782  0.2591  0.7737
 
              Baa    -0.0000    -0.000    -0.000    -0.000  0.8743 -0.4359 -0.2133
     2 C(13)  Bbb     0.0000     0.000     0.000     0.000  0.0907 -0.2851  0.9542
              Bcc     0.0000     0.000     0.000     0.000  0.4768  0.8536  0.2098
 
              Baa    -0.0000    -0.000    -0.000    -0.000  0.9084  0.3480  0.2317
     3 C(13)  Bbb    -0.0000    -0.000    -0.000    -0.000 -0.1771 -0.1818  0.9673
              Bcc     0.0000     0.000     0.000     0.000 -0.3787  0.9197  0.1035
 
              Baa    -0.0000    -0.000    -0.000    -0.000  0.3145  0.9483 -0.0428
     4 C(13)  Bbb     0.0000     0.000     0.000     0.000 -0.0642  0.0662  0.9957
              Bcc     0.0000     0.000     0.000     0.000  0.9471 -0.3104  0.0818
 
              Baa    -0.0000    -0.000    -0.000    -0.000  0.6445 -0.0683  0.7615
     5 C(13)  Bbb    -0.0000    -0.000    -0.000    -0.000  0.7443  0.2840 -0.6045
              Bcc     0.0000     0.000     0.000     0.000 -0.1750  0.9564  0.2338
 
              Baa    -0.0000     0.000     0.000     0.000  0.8324 -0.5454 -0.0980
     6 O(17)  Bbb     0.0000    -0.000    -0.000    -0.000  0.0772 -0.0611  0.9951
              Bcc     0.0000    -0.000    -0.000    -0.000  0.5488  0.8359  0.0087
 
              Baa    -0.0000    -0.000    -0.000    -0.000  0.9753  0.0381 -0.2177
     7 C(13)  Bbb     0.0000     0.000     0.000     0.000  0.2037  0.2263  0.9525
              Bcc     0.0000     0.000     0.000     0.000 -0.0856  0.9733 -0.2130
 
              Baa    -0.0000    -0.000    -0.000    -0.000  0.9792  0.0519  0.1961
     8 C(13)  Bbb     0.0000     0.000     0.000     0.000 -0.1993  0.0660  0.9777
              Bcc     0.0000     0.000     0.000     0.000 -0.0378  0.9965 -0.0750
 
              Baa    -0.0000    -0.000    -0.000    -0.000  0.4509  0.8765 -0.1687
     9 C(13)  Bbb     0.0000     0.000     0.000     0.000  0.7301 -0.4709 -0.4951
              Bcc     0.0000     0.000     0.000     0.000  0.5134 -0.1001  0.8523
 
              Baa    -0.0000     0.000     0.000     0.000  0.6214  0.7607  0.1878
    10 O(17)  Bbb    -0.0000     0.000     0.000     0.000 -0.0597 -0.1931  0.9794
              Bcc     0.0000    -0.000    -0.000    -0.000  0.7813 -0.6197 -0.0746
 
              Baa    -0.0000    -0.000    -0.000    -0.000  0.2476  0.0122  0.9688
    11 C(13)  Bbb    -0.0000    -0.000    -0.000    -0.000 -0.1938  0.9803  0.0372
              Bcc     0.0000     0.000     0.000     0.000  0.9493  0.1969 -0.2451
 
              Baa    -0.0000    -0.000    -0.000    -0.000  0.8559 -0.5138 -0.0594
    12 C(13)  Bbb     0.0000     0.000     0.000     0.000  0.1059  0.0618  0.9925
              Bcc     0.0000     0.000     0.000     0.000  0.5062  0.8557 -0.1073
 
              Baa    -0.0000    -0.000    -0.000    -0.000  0.9202  0.3770  0.1054
    13 C(13)  Bbb     0.0000     0.000     0.000     0.000 -0.3602  0.9209 -0.1491
              Bcc     0.0000     0.000     0.000     0.000 -0.1533  0.0993  0.9832
 
              Baa    -0.0000    -0.000    -0.000    -0.000  0.9684  0.1946 -0.1562
    14 C(13)  Bbb     0.0000     0.000     0.000     0.000 -0.1041  0.8839  0.4559
              Bcc     0.0000     0.000     0.000     0.000  0.2268 -0.4253  0.8762
 
              Baa    -0.0000    -0.000    -0.000    -0.000  0.5626  0.7663  0.3103
    15 H(1)   Bbb     0.0000     0.000     0.000     0.000  0.7499 -0.3149 -0.5818
              Bcc     0.0000     0.000     0.000     0.000  0.3481 -0.5600  0.7518
 
              Baa    -0.0000    -0.000    -0.000    -0.000  0.9476  0.3049  0.0956
    16 H(1)   Bbb     0.0000     0.000     0.000     0.000 -0.2630  0.9141 -0.3085
              Bcc     0.0000     0.000     0.000     0.000 -0.1814  0.2672  0.9464
 
              Baa    -0.0000    -0.000    -0.000    -0.000  0.7598 -0.0400 -0.6489
    17 H(1)   Bbb    -0.0000    -0.000    -0.000    -0.000  0.4559  0.7443  0.4879
              Bcc     0.0000     0.000     0.000     0.000 -0.4635  0.6666 -0.5838
 
              Baa    -0.0000    -0.000    -0.000    -0.000  0.1993  0.0481  0.9788
    18 H(1)   Bbb    -0.0000    -0.000    -0.000    -0.000  0.9689  0.1402 -0.2042
              Bcc     0.0000     0.000     0.000     0.000 -0.1470  0.9890 -0.0187
 
              Baa    -0.0000    -0.000    -0.000    -0.000  0.0738  0.1325  0.9884
    19 H(1)   Bbb    -0.0000    -0.000    -0.000    -0.000  0.5606  0.8142 -0.1510
              Bcc     0.0000     0.000     0.000     0.000  0.8248 -0.5653  0.0142
 
              Baa    -0.0000    -0.000    -0.000    -0.000 -0.0173 -0.0091  0.9998
    20 H(1)   Bbb    -0.0000    -0.000    -0.000    -0.000 -0.5392  0.8422 -0.0016
              Bcc     0.0000     0.000     0.000     0.000  0.8420  0.5391  0.0195
 
              Baa    -0.0000    -0.000    -0.000    -0.000  0.9779 -0.0757  0.1950
    21 H(1)   Bbb    -0.0000    -0.000    -0.000    -0.000 -0.1948  0.0103  0.9808
              Bcc     0.0000     0.000     0.000     0.000  0.0762  0.9971  0.0047
 
              Baa    -0.0000    -0.000    -0.000    -0.000  0.8970 -0.4390  0.0507
    22 H(1)   Bbb    -0.0000    -0.000    -0.000    -0.000  0.2360  0.5728  0.7850
              Bcc     0.0000     0.000     0.000     0.000  0.3737  0.6922 -0.6174
 
              Baa    -0.0000    -0.000    -0.000    -0.000 -0.5543  0.8323  0.0009
    23 H(1)   Bbb    -0.0000    -0.000    -0.000    -0.000 -0.1946 -0.1307  0.9721
              Bcc     0.0000     0.000     0.000     0.000  0.8092  0.5387  0.2345
 
              Baa    -0.0000    -0.000    -0.000    -0.000  0.8475 -0.4891  0.2062
    24 H(1)   Bbb     0.0000     0.000     0.000     0.000  0.5043  0.6209 -0.6001
              Bcc     0.0000     0.000     0.000     0.000  0.1655  0.6126  0.7729
 

 ---------------------------------------------------------------------------------

 No NMR shielding tensors so no spin-rotation constants.
 Leave Link  601 at Sun Jan 21 08:47:53 2024, MaxMem=  4026531840 cpu:               5.0 elap:               0.9
 (Enter /sysapps/ubuntu-applications/gaussian/Gaussian/AVX2/g16/l9999.exe)
 1\1\GINC-ACIDSCN027\SP\UB3LYP\6-311++G(d,p)\C12H10O2(2-)\SELHAJJ1\21-J
 an-2024\0\\#P UB3LYP/6-311++G(d,p) SCRF=(PCM,Solvent=n,n-DiMethylForma
 mide)\\Reduced\\-2,1\C,0,-2.78884,-0.87035,-0.98103\C,0,-1.441221,-0.4
 17274,-0.462809\C,0,-0.289443,-1.123697,-0.769715\C,0,0.998118,-0.7330
 97,-0.340044\C,0,2.166607,-1.541015,-0.702972\O,0,2.073766,-2.613582,-
 1.405496\C,0,3.397932,-1.030111,-0.199717\C,0,3.506852,0.130706,0.5760
 56\C,0,2.400371,0.946177,0.951788\O,0,2.510008,2.016566,1.655188\C,0,1
 .110013,0.458532,0.454795\C,0,-0.073359,1.170978,0.749804\C,0,-1.32774
 4,0.777948,0.311814\C,0,-2.562284,1.567331,0.689481\H,0,-2.700758,-1.8
 15634,-1.524658\H,0,-3.518687,-1.01677,-0.17788\H,0,-3.245024,-0.13650
 6,-1.668925\H,0,-0.342504,-2.02464,-1.374869\H,0,4.29359,-1.60221,-0.4
 42221\H,0,4.487681,0.458349,0.920924\H,0,0.041085,2.063935,1.3583\H,0,
 -3.261073,0.984257,1.315209\H,0,-2.29418,2.466637,1.251807\H,0,-3.1409
 1,1.883469,-0.184832\\Version=ES64L-G16RevA.03\State=1-A\HF=-614.16157
 07\S2=0.\S2-1=0.\S2A=0.\RMSD=4.146e-09\Dipole=-6.0419879,0.7870227,-0.
 3290427\Quadrupole=0.8311151,-8.9793879,8.1482727,-0.1989913,-2.941171
 1,-19.4653577\PG=C01 [X(C12H10O2)]\\@


 ... FOR AFTERWARDS A MAN FINDS PLEASURE IN HIS PAINS,
 WHEN HE HAS SUFFERED LONG AND WANDERED FAR.

                                    -- HOMER
 Job cpu time:       0 days  0 hours 14 minutes 45.5 seconds.
 Elapsed time:       0 days  0 hours  1 minutes 54.0 seconds.
 File lengths (MBytes):  RWF=    201 Int=      0 D2E=      0 Chk=     12 Scr=      1
 Normal termination of Gaussian 16 at Sun Jan 21 08:47:53 2024.
