 Entering Gaussian System, Link 0=g16
 Input=254-rad.com
 Output=254-rad.log
 Initial command:
 /sysapps/ubuntu-applications/gaussian/Gaussian/AVX2/g16/l1.exe "/scratch/selhajj1/4407509/Gau-585771.inp" -scrdir="/scratch/selhajj1/4407509/"
 Entering Link 1 = /sysapps/ubuntu-applications/gaussian/Gaussian/AVX2/g16/l1.exe PID=    585773.
  
 Copyright (c) 1988,1990,1992,1993,1995,1998,2003,2009,2016,
            Gaussian, Inc.  All Rights Reserved.
  
 This is part of the Gaussian(R) 16 program.  It is based on
 the Gaussian(R) 09 system (copyright 2009, Gaussian, Inc.),
 the Gaussian(R) 03 system (copyright 2003, Gaussian, Inc.),
 the Gaussian(R) 98 system (copyright 1998, Gaussian, Inc.),
 the Gaussian(R) 94 system (copyright 1995, Gaussian, Inc.),
 the Gaussian 92(TM) system (copyright 1992, Gaussian, Inc.),
 the Gaussian 90(TM) system (copyright 1990, Gaussian, Inc.),
 the Gaussian 88(TM) system (copyright 1988, Gaussian, Inc.),
 the Gaussian 86(TM) system (copyright 1986, Carnegie Mellon
 University), and the Gaussian 82(TM) system (copyright 1983,
 Carnegie Mellon University). Gaussian is a federally registered
 trademark of Gaussian, Inc.
  
 This software contains proprietary and confidential information,
 including trade secrets, belonging to Gaussian, Inc.
  
 This software is provided under written license and may be
 used, copied, transmitted, or stored only in accord with that
 written license.
  
 The following legend is applicable only to US Government
 contracts under FAR:
  
                    RESTRICTED RIGHTS LEGEND
  
 Use, reproduction and disclosure by the US Government is
 subject to restrictions as set forth in subparagraphs (a)
 and (c) of the Commercial Computer Software - Restricted
 Rights clause in FAR 52.227-19.
  
 Gaussian, Inc.
 340 Quinnipiac St., Bldg. 40, Wallingford CT 06492
  
  
 ---------------------------------------------------------------
 Warning -- This program may not be used in any manner that
 competes with the business of Gaussian, Inc. or will provide
 assistance to any competitor of Gaussian, Inc.  The licensee
 of this program is prohibited from giving any competitor of
 Gaussian, Inc. access to this program.  By using this program,
 the user acknowledges that Gaussian, Inc. is engaged in the
 business of creating and licensing software in the field of
 computational chemistry and represents and warrants to the
 licensee that it is not a competitor of Gaussian, Inc. and that
 it will not use this program in any manner prohibited above.
 ---------------------------------------------------------------
  

 Cite this work as:
 Gaussian 16, Revision A.03,
 M. J. Frisch, G. W. Trucks, H. B. Schlegel, G. E. Scuseria, 
 M. A. Robb, J. R. Cheeseman, G. Scalmani, V. Barone, 
 G. A. Petersson, H. Nakatsuji, X. Li, M. Caricato, A. V. Marenich, 
 J. Bloino, B. G. Janesko, R. Gomperts, B. Mennucci, H. P. Hratchian, 
 J. V. Ortiz, A. F. Izmaylov, J. L. Sonnenberg, D. Williams-Young, 
 F. Ding, F. Lipparini, F. Egidi, J. Goings, B. Peng, A. Petrone, 
 T. Henderson, D. Ranasinghe, V. G. Zakrzewski, J. Gao, N. Rega, 
 G. Zheng, W. Liang, M. Hada, M. Ehara, K. Toyota, R. Fukuda, 
 J. Hasegawa, M. Ishida, T. Nakajima, Y. Honda, O. Kitao, H. Nakai, 
 T. Vreven, K. Throssell, J. A. Montgomery, Jr., J. E. Peralta, 
 F. Ogliaro, M. J. Bearpark, J. J. Heyd, E. N. Brothers, K. N. Kudin, 
 V. N. Staroverov, T. A. Keith, R. Kobayashi, J. Normand, 
 K. Raghavachari, A. P. Rendell, J. C. Burant, S. S. Iyengar, 
 J. Tomasi, M. Cossi, J. M. Millam, M. Klene, C. Adamo, R. Cammi, 
 J. W. Ochterski, R. L. Martin, K. Morokuma, O. Farkas, 
 J. B. Foresman, and D. J. Fox, Gaussian, Inc., Wallingford CT, 2016.
 
 ******************************************
 Gaussian 16:  ES64L-G16RevA.03 25-Dec-2016
                11-Feb-2024 
 ******************************************
 %chk=254-rad.chk
 %nproc=8
 Will use up to    8 processors via shared memory.
 %mem=30GB
 ----------------------------------------------------------------------
 #P UB3LYP/6-311++G(d,p) nosym opt freq SCRF=(PCM,Solvent=n,n-DiMethylF
 ormamide)
 ----------------------------------------------------------------------
 1/18=20,19=15,26=3,38=1/1,3;
 2/9=110,12=2,15=1,17=6,18=5,40=1/2;
 3/5=4,6=6,7=1111,11=2,25=1,30=1,70=2201,71=1,72=148,74=-5,116=2/1,2,3;
 4//1;
 5/5=2,38=5,53=148/2;
 6/7=2,8=2,9=2,10=2,28=1/1;
 7/30=1/1,2,3,16;
 1/18=20,19=15,26=3/3(2);
 2/9=110,15=1/2;
 99//99;
 2/9=110,15=1/2;
 3/5=4,6=6,7=1111,11=2,25=1,30=1,70=2205,71=1,72=148,74=-5,116=2/1,2,3;
 4/5=5,16=3,69=1/1;
 5/5=2,38=5,53=148/2;
 7/30=1/1,2,3,16;
 1/18=20,19=15,26=3/3(-5);
 2/9=110,15=1/2;
 6/7=2,8=2,9=2,10=2,19=2,28=1/1;
 99/9=1/99;
 Leave Link    1 at Sun Feb 11 00:57:25 2024, MaxMem=  4026531840 cpu:               2.6 elap:               0.5
 (Enter /sysapps/ubuntu-applications/gaussian/Gaussian/AVX2/g16/l101.exe)
 -------
 Radical
 -------
 Symbolic Z-matrix:
 Charge = -1 Multiplicity = 2
 C                    -1.83915   1.72511  -0.79864 
 C                    -2.5619    0.87934  -1.61361 
 C                    -2.07002  -0.41183  -1.90221 
 C                    -0.61139   1.32007  -0.24613 
 C                    -0.11833   0.02486  -0.53604 
 C                    -0.86727  -0.82478  -1.36884 
 C                     0.13337   2.24528   0.61853 
 C                     1.39332   1.76048   1.15094 
 C                     1.87143   0.4852    0.87259 
 C                     1.15856  -0.44206   0.01717 
 O                    -0.31754   3.3954    0.8707 
 O                     1.59989  -1.59391  -0.24632 
 C                     2.15341   2.71861   2.03868 
 C                     3.18455  -0.01743   1.4285 
 C                     4.36371   0.15652   0.45095 
 C                     5.68355  -0.40177   0.99408 
 C                     6.8629   -0.24387   0.02739 
 C                     8.18307  -0.80936   0.56396 
 C                     9.36156  -0.6524   -0.40391 
 C                     10.68079  -1.22112   0.13126 
 C                     11.8587  -1.0648   -0.83703 
 C                     13.17802  -1.63422  -0.30301 
 C                     14.34839  -1.47356  -1.2781 
 Cl                   -2.97193  -1.51824  -2.94173 
 Cl                   -4.09791   1.43825  -2.28182 
 H                    -2.20066   2.71865  -0.56584 
 H                    -0.4731   -1.81092  -1.57929 
 H                     1.6642    3.69237   2.01316 
 H                     3.19492   2.83483   1.72134 
 H                     2.17101   2.37674   3.08144 
 H                     3.0763   -1.08611   1.63749 
 H                     3.42068   0.48505   2.37189 
 H                     4.48714   1.22042   0.21175 
 H                     4.1084   -0.35027  -0.485 
 H                     5.55078  -1.4656    1.23054 
 H                     5.92735   0.0937    1.9443 
 H                     6.99596   0.81995  -0.21043 
 H                     6.61727  -0.73764  -0.92161 
 H                     8.04967  -1.87322   0.8006 
 H                     8.42832  -0.31646   1.51426 
 H                     9.49611   0.41146  -0.63987 
 H                     9.11554  -1.14389  -1.35426 
 H                     10.54599  -2.28499   0.36691 
 H                     10.92712  -0.72966   1.08181 
 H                     11.99494  -0.00105  -1.07299 
 H                     11.61323  -1.556    -1.78788 
 H                     13.04264  -2.69713  -0.06788 
 H                     13.42439  -1.1431    0.64652 
 H                     14.14616  -1.98391  -2.22536 
 H                     15.27345  -1.88948  -0.86778 
 H                     14.5309  -0.41831  -1.50582 
 
 ITRead=  0  0  0  0  0  0  0  0  0  0  0  0  0  0  0  0  0  0  0  0
 ITRead=  0  0  0  0  0  0  0  0  0  0  0  0  0  0  0  0  0  0  0  0
 ITRead=  0  0  0  0  0  0  0  0  0  0  0
 MicOpt= -1 -1 -1 -1 -1 -1 -1 -1 -1 -1 -1 -1 -1 -1 -1 -1 -1 -1 -1 -1
 MicOpt= -1 -1 -1 -1 -1 -1 -1 -1 -1 -1 -1 -1 -1 -1 -1 -1 -1 -1 -1 -1
 MicOpt= -1 -1 -1 -1 -1 -1 -1 -1 -1 -1 -1
 NAtoms=     51 NQM=       51 NQMF=       0 NMMI=      0 NMMIF=      0
                NMic=       0 NMicF=      0.
                    Isotopes and Nuclear Properties:
 (Nuclear quadrupole moments (NQMom) in fm**2, nuclear magnetic moments (NMagM)
  in nuclear magnetons)

  Atom         1           2           3           4           5           6           7           8           9          10
 IAtWgt=          12          12          12          12          12          12          12          12          12          12
 AtmWgt=  12.0000000  12.0000000  12.0000000  12.0000000  12.0000000  12.0000000  12.0000000  12.0000000  12.0000000  12.0000000
 NucSpn=           0           0           0           0           0           0           0           0           0           0
 AtZEff=  -0.0000000  -0.0000000  -0.0000000  -0.0000000  -0.0000000  -0.0000000  -0.0000000  -0.0000000  -0.0000000  -0.0000000
 NQMom=    0.0000000   0.0000000   0.0000000   0.0000000   0.0000000   0.0000000   0.0000000   0.0000000   0.0000000   0.0000000
 NMagM=    0.0000000   0.0000000   0.0000000   0.0000000   0.0000000   0.0000000   0.0000000   0.0000000   0.0000000   0.0000000
 AtZNuc=   6.0000000   6.0000000   6.0000000   6.0000000   6.0000000   6.0000000   6.0000000   6.0000000   6.0000000   6.0000000

  Atom        11          12          13          14          15          16          17          18          19          20
 IAtWgt=          16          16          12          12          12          12          12          12          12          12
 AtmWgt=  15.9949146  15.9949146  12.0000000  12.0000000  12.0000000  12.0000000  12.0000000  12.0000000  12.0000000  12.0000000
 NucSpn=           0           0           0           0           0           0           0           0           0           0
 AtZEff=  -0.0000000  -0.0000000  -0.0000000  -0.0000000  -0.0000000  -0.0000000  -0.0000000  -0.0000000  -0.0000000  -0.0000000
 NQMom=    0.0000000   0.0000000   0.0000000   0.0000000   0.0000000   0.0000000   0.0000000   0.0000000   0.0000000   0.0000000
 NMagM=    0.0000000   0.0000000   0.0000000   0.0000000   0.0000000   0.0000000   0.0000000   0.0000000   0.0000000   0.0000000
 AtZNuc=   8.0000000   8.0000000   6.0000000   6.0000000   6.0000000   6.0000000   6.0000000   6.0000000   6.0000000   6.0000000

  Atom        21          22          23          24          25          26          27          28          29          30
 IAtWgt=          12          12          12          35          35           1           1           1           1           1
 AtmWgt=  12.0000000  12.0000000  12.0000000  34.9688527  34.9688527   1.0078250   1.0078250   1.0078250   1.0078250   1.0078250
 NucSpn=           0           0           0           3           3           1           1           1           1           1
 AtZEff=  -0.0000000  -0.0000000  -0.0000000  -0.0000000  -0.0000000  -0.0000000  -0.0000000  -0.0000000  -0.0000000  -0.0000000
 NQMom=    0.0000000   0.0000000   0.0000000  -8.1650000  -8.1650000   0.0000000   0.0000000   0.0000000   0.0000000   0.0000000
 NMagM=    0.0000000   0.0000000   0.0000000   0.8218740   0.8218740   2.7928460   2.7928460   2.7928460   2.7928460   2.7928460
 AtZNuc=   6.0000000   6.0000000   6.0000000  17.0000000  17.0000000   1.0000000   1.0000000   1.0000000   1.0000000   1.0000000

  Atom        31          32          33          34          35          36          37          38          39          40
 IAtWgt=           1           1           1           1           1           1           1           1           1           1
 AtmWgt=   1.0078250   1.0078250   1.0078250   1.0078250   1.0078250   1.0078250   1.0078250   1.0078250   1.0078250   1.0078250
 NucSpn=           1           1           1           1           1           1           1           1           1           1
 AtZEff=  -0.0000000  -0.0000000  -0.0000000  -0.0000000  -0.0000000  -0.0000000  -0.0000000  -0.0000000  -0.0000000  -0.0000000
 NQMom=    0.0000000   0.0000000   0.0000000   0.0000000   0.0000000   0.0000000   0.0000000   0.0000000   0.0000000   0.0000000
 NMagM=    2.7928460   2.7928460   2.7928460   2.7928460   2.7928460   2.7928460   2.7928460   2.7928460   2.7928460   2.7928460
 AtZNuc=   1.0000000   1.0000000   1.0000000   1.0000000   1.0000000   1.0000000   1.0000000   1.0000000   1.0000000   1.0000000

  Atom        41          42          43          44          45          46          47          48          49          50
 IAtWgt=           1           1           1           1           1           1           1           1           1           1
 AtmWgt=   1.0078250   1.0078250   1.0078250   1.0078250   1.0078250   1.0078250   1.0078250   1.0078250   1.0078250   1.0078250
 NucSpn=           1           1           1           1           1           1           1           1           1           1
 AtZEff=  -0.0000000  -0.0000000  -0.0000000  -0.0000000  -0.0000000  -0.0000000  -0.0000000  -0.0000000  -0.0000000  -0.0000000
 NQMom=    0.0000000   0.0000000   0.0000000   0.0000000   0.0000000   0.0000000   0.0000000   0.0000000   0.0000000   0.0000000
 NMagM=    2.7928460   2.7928460   2.7928460   2.7928460   2.7928460   2.7928460   2.7928460   2.7928460   2.7928460   2.7928460
 AtZNuc=   1.0000000   1.0000000   1.0000000   1.0000000   1.0000000   1.0000000   1.0000000   1.0000000   1.0000000   1.0000000

  Atom        51
 IAtWgt=           1
 AtmWgt=   1.0078250
 NucSpn=           1
 AtZEff=  -0.0000000
 NQMom=    0.0000000
 NMagM=    2.7928460
 AtZNuc=   1.0000000
 Leave Link  101 at Sun Feb 11 00:57:26 2024, MaxMem=  4026531840 cpu:               3.9 elap:               0.6
 (Enter /sysapps/ubuntu-applications/gaussian/Gaussian/AVX2/g16/l103.exe)

 GradGradGradGradGradGradGradGradGradGradGradGradGradGradGradGradGradGrad
 Berny optimization.
 Initialization pass.
                           ----------------------------
                           !    Initial Parameters    !
                           ! (Angstroms and Degrees)  !
 --------------------------                            --------------------------
 ! Name  Definition              Value          Derivative Info.                !
 --------------------------------------------------------------------------------
 ! R1    R(1,2)                  1.3791         estimate D2E/DX2                !
 ! R2    R(1,4)                  1.406          estimate D2E/DX2                !
 ! R3    R(1,26)                 1.0826         estimate D2E/DX2                !
 ! R4    R(2,3)                  1.4115         estimate D2E/DX2                !
 ! R5    R(2,25)                 1.7658         estimate D2E/DX2                !
 ! R6    R(3,6)                  1.379          estimate D2E/DX2                !
 ! R7    R(3,24)                 1.7658         estimate D2E/DX2                !
 ! R8    R(4,5)                  1.4159         estimate D2E/DX2                !
 ! R9    R(4,7)                  1.4691         estimate D2E/DX2                !
 ! R10   R(5,6)                  1.4058         estimate D2E/DX2                !
 ! R11   R(5,10)                 1.4678         estimate D2E/DX2                !
 ! R12   R(6,27)                 1.0827         estimate D2E/DX2                !
 ! R13   R(7,8)                  1.4512         estimate D2E/DX2                !
 ! R14   R(7,11)                 1.2608         estimate D2E/DX2                !
 ! R15   R(8,9)                  1.3901         estimate D2E/DX2                !
 ! R16   R(8,13)                 1.5112         estimate D2E/DX2                !
 ! R17   R(9,10)                 1.4491         estimate D2E/DX2                !
 ! R18   R(9,14)                 1.5119         estimate D2E/DX2                !
 ! R19   R(10,12)                1.2613         estimate D2E/DX2                !
 ! R20   R(13,28)                1.09           estimate D2E/DX2                !
 ! R21   R(13,29)                1.095          estimate D2E/DX2                !
 ! R22   R(13,30)                1.0975         estimate D2E/DX2                !
 ! R23   R(14,15)                1.5415         estimate D2E/DX2                !
 ! R24   R(14,31)                1.0943         estimate D2E/DX2                !
 ! R25   R(14,32)                1.0946         estimate D2E/DX2                !
 ! R26   R(15,16)                1.5325         estimate D2E/DX2                !
 ! R27   R(15,33)                1.0974         estimate D2E/DX2                !
 ! R28   R(15,34)                1.0945         estimate D2E/DX2                !
 ! R29   R(16,17)                1.5331         estimate D2E/DX2                !
 ! R30   R(16,35)                1.0979         estimate D2E/DX2                !
 ! R31   R(16,36)                1.099          estimate D2E/DX2                !
 ! R32   R(17,18)                1.5331         estimate D2E/DX2                !
 ! R33   R(17,37)                1.0982         estimate D2E/DX2                !
 ! R34   R(17,38)                1.0976         estimate D2E/DX2                !
 ! R35   R(18,19)                1.533          estimate D2E/DX2                !
 ! R36   R(18,39)                1.098          estimate D2E/DX2                !
 ! R37   R(18,40)                1.0983         estimate D2E/DX2                !
 ! R38   R(19,20)                1.5331         estimate D2E/DX2                !
 ! R39   R(19,41)                1.098          estimate D2E/DX2                !
 ! R40   R(19,42)                1.0978         estimate D2E/DX2                !
 ! R41   R(20,21)                1.5328         estimate D2E/DX2                !
 ! R42   R(20,43)                1.098          estimate D2E/DX2                !
 ! R43   R(20,44)                1.0981         estimate D2E/DX2                !
 ! R44   R(21,22)                1.533          estimate D2E/DX2                !
 ! R45   R(21,45)                1.0981         estimate D2E/DX2                !
 ! R46   R(21,46)                1.098          estimate D2E/DX2                !
 ! R47   R(22,23)                1.5318         estimate D2E/DX2                !
 ! R48   R(22,47)                1.097          estimate D2E/DX2                !
 ! R49   R(22,48)                1.097          estimate D2E/DX2                !
 ! R50   R(23,49)                1.0948         estimate D2E/DX2                !
 ! R51   R(23,50)                1.0941         estimate D2E/DX2                !
 ! R52   R(23,51)                1.0949         estimate D2E/DX2                !
 ! A1    A(2,1,4)              120.8777         estimate D2E/DX2                !
 ! A2    A(2,1,26)             120.9913         estimate D2E/DX2                !
 ! A3    A(4,1,26)             118.131          estimate D2E/DX2                !
 ! A4    A(1,2,3)              119.9468         estimate D2E/DX2                !
 ! A5    A(1,2,25)             119.0373         estimate D2E/DX2                !
 ! A6    A(3,2,25)             121.0158         estimate D2E/DX2                !
 ! A7    A(2,3,6)              119.9193         estimate D2E/DX2                !
 ! A8    A(2,3,24)             121.0325         estimate D2E/DX2                !
 ! A9    A(6,3,24)             119.0482         estimate D2E/DX2                !
 ! A10   A(1,4,5)              119.1548         estimate D2E/DX2                !
 ! A11   A(1,4,7)              119.5084         estimate D2E/DX2                !
 ! A12   A(5,4,7)              121.3368         estimate D2E/DX2                !
 ! A13   A(4,5,6)              119.251          estimate D2E/DX2                !
 ! A14   A(4,5,10)             121.1153         estimate D2E/DX2                !
 ! A15   A(6,5,10)             119.6337         estimate D2E/DX2                !
 ! A16   A(3,6,5)              120.8505         estimate D2E/DX2                !
 ! A17   A(3,6,27)             121.0053         estimate D2E/DX2                !
 ! A18   A(5,6,27)             118.1442         estimate D2E/DX2                !
 ! A19   A(4,7,8)              116.4669         estimate D2E/DX2                !
 ! A20   A(4,7,11)             120.723          estimate D2E/DX2                !
 ! A21   A(8,7,11)             122.8102         estimate D2E/DX2                !
 ! A22   A(7,8,9)              122.1151         estimate D2E/DX2                !
 ! A23   A(7,8,13)             116.1288         estimate D2E/DX2                !
 ! A24   A(9,8,13)             121.7537         estimate D2E/DX2                !
 ! A25   A(8,9,10)             122.4153         estimate D2E/DX2                !
 ! A26   A(8,9,14)             122.0101         estimate D2E/DX2                !
 ! A27   A(10,9,14)            115.5682         estimate D2E/DX2                !
 ! A28   A(5,10,9)             116.5447         estimate D2E/DX2                !
 ! A29   A(5,10,12)            121.0736         estimate D2E/DX2                !
 ! A30   A(9,10,12)            122.3817         estimate D2E/DX2                !
 ! A31   A(8,13,28)            109.0801         estimate D2E/DX2                !
 ! A32   A(8,13,29)            112.0518         estimate D2E/DX2                !
 ! A33   A(8,13,30)            111.6355         estimate D2E/DX2                !
 ! A34   A(28,13,29)           108.9824         estimate D2E/DX2                !
 ! A35   A(28,13,30)           107.9216         estimate D2E/DX2                !
 ! A36   A(29,13,30)           107.0481         estimate D2E/DX2                !
 ! A37   A(9,14,15)            113.1832         estimate D2E/DX2                !
 ! A38   A(9,14,31)            107.9969         estimate D2E/DX2                !
 ! A39   A(9,14,32)            110.5867         estimate D2E/DX2                !
 ! A40   A(15,14,31)           107.8774         estimate D2E/DX2                !
 ! A41   A(15,14,32)           109.2518         estimate D2E/DX2                !
 ! A42   A(31,14,32)           107.7604         estimate D2E/DX2                !
 ! A43   A(14,15,16)           113.1366         estimate D2E/DX2                !
 ! A44   A(14,15,33)           109.4907         estimate D2E/DX2                !
 ! A45   A(14,15,34)           108.1554         estimate D2E/DX2                !
 ! A46   A(16,15,33)           109.4836         estimate D2E/DX2                !
 ! A47   A(16,15,34)           109.5885         estimate D2E/DX2                !
 ! A48   A(33,15,34)           106.7816         estimate D2E/DX2                !
 ! A49   A(15,16,17)           113.6732         estimate D2E/DX2                !
 ! A50   A(15,16,35)           108.9766         estimate D2E/DX2                !
 ! A51   A(15,16,36)           109.4655         estimate D2E/DX2                !
 ! A52   A(17,16,35)           109.1866         estimate D2E/DX2                !
 ! A53   A(17,16,36)           109.1536         estimate D2E/DX2                !
 ! A54   A(35,16,36)           106.1087         estimate D2E/DX2                !
 ! A55   A(16,17,18)           113.8122         estimate D2E/DX2                !
 ! A56   A(16,17,37)           109.2409         estimate D2E/DX2                !
 ! A57   A(16,17,38)           109.0688         estimate D2E/DX2                !
 ! A58   A(18,17,37)           109.1938         estimate D2E/DX2                !
 ! A59   A(18,17,38)           109.2295         estimate D2E/DX2                !
 ! A60   A(37,17,38)           106.002          estimate D2E/DX2                !
 ! A61   A(17,18,19)           113.7794         estimate D2E/DX2                !
 ! A62   A(17,18,39)           109.1593         estimate D2E/DX2                !
 ! A63   A(17,18,40)           109.2432         estimate D2E/DX2                !
 ! A64   A(19,18,39)           109.1877         estimate D2E/DX2                !
 ! A65   A(19,18,40)           109.1876         estimate D2E/DX2                !
 ! A66   A(39,18,40)           105.9913         estimate D2E/DX2                !
 ! A67   A(18,19,20)           113.7742         estimate D2E/DX2                !
 ! A68   A(18,19,41)           109.2132         estimate D2E/DX2                !
 ! A69   A(18,19,42)           109.1726         estimate D2E/DX2                !
 ! A70   A(20,19,41)           109.2086         estimate D2E/DX2                !
 ! A71   A(20,19,42)           109.2048         estimate D2E/DX2                !
 ! A72   A(41,19,42)           105.9743         estimate D2E/DX2                !
 ! A73   A(19,20,21)           113.7615         estimate D2E/DX2                !
 ! A74   A(19,20,43)           109.1917         estimate D2E/DX2                !
 ! A75   A(19,20,44)           109.2197         estimate D2E/DX2                !
 ! A76   A(21,20,43)           109.1929         estimate D2E/DX2                !
 ! A77   A(21,20,44)           109.1968         estimate D2E/DX2                !
 ! A78   A(43,20,44)           105.987          estimate D2E/DX2                !
 ! A79   A(20,21,22)           113.7921         estimate D2E/DX2                !
 ! A80   A(20,21,45)           109.2617         estimate D2E/DX2                !
 ! A81   A(20,21,46)           109.2458         estimate D2E/DX2                !
 ! A82   A(22,21,45)           109.142          estimate D2E/DX2                !
 ! A83   A(22,21,46)           109.1411         estimate D2E/DX2                !
 ! A84   A(45,21,46)           105.9629         estimate D2E/DX2                !
 ! A85   A(21,22,23)           113.3817         estimate D2E/DX2                !
 ! A86   A(21,22,47)           109.1695         estimate D2E/DX2                !
 ! A87   A(21,22,48)           109.1783         estimate D2E/DX2                !
 ! A88   A(23,22,47)           109.4121         estimate D2E/DX2                !
 ! A89   A(23,22,48)           109.416          estimate D2E/DX2                !
 ! A90   A(47,22,48)           106.0193         estimate D2E/DX2                !
 ! A91   A(22,23,49)           111.1462         estimate D2E/DX2                !
 ! A92   A(22,23,50)           111.5555         estimate D2E/DX2                !
 ! A93   A(22,23,51)           111.1527         estimate D2E/DX2                !
 ! A94   A(49,23,50)           107.6644         estimate D2E/DX2                !
 ! A95   A(49,23,51)           107.4642         estimate D2E/DX2                !
 ! A96   A(50,23,51)           107.6651         estimate D2E/DX2                !
 ! D1    D(4,1,2,3)             -0.0012         estimate D2E/DX2                !
 ! D2    D(4,1,2,25)          -179.9835         estimate D2E/DX2                !
 ! D3    D(26,1,2,3)          -179.9732         estimate D2E/DX2                !
 ! D4    D(26,1,2,25)            0.0445         estimate D2E/DX2                !
 ! D5    D(2,1,4,5)              0.0084         estimate D2E/DX2                !
 ! D6    D(2,1,4,7)           -179.9776         estimate D2E/DX2                !
 ! D7    D(26,1,4,5)           179.9812         estimate D2E/DX2                !
 ! D8    D(26,1,4,7)            -0.0048         estimate D2E/DX2                !
 ! D9    D(1,2,3,6)             -0.0211         estimate D2E/DX2                !
 ! D10   D(1,2,3,24)           179.9848         estimate D2E/DX2                !
 ! D11   D(25,2,3,6)           179.9608         estimate D2E/DX2                !
 ! D12   D(25,2,3,24)           -0.0333         estimate D2E/DX2                !
 ! D13   D(2,3,6,5)              0.0362         estimate D2E/DX2                !
 ! D14   D(2,3,6,27)          -179.9455         estimate D2E/DX2                !
 ! D15   D(24,3,6,5)          -179.9696         estimate D2E/DX2                !
 ! D16   D(24,3,6,27)            0.0487         estimate D2E/DX2                !
 ! D17   D(1,4,5,6)              0.0063         estimate D2E/DX2                !
 ! D18   D(1,4,5,10)           179.9721         estimate D2E/DX2                !
 ! D19   D(7,4,5,6)            179.992          estimate D2E/DX2                !
 ! D20   D(7,4,5,10)            -0.0422         estimate D2E/DX2                !
 ! D21   D(1,4,7,8)           -179.8828         estimate D2E/DX2                !
 ! D22   D(1,4,7,11)             0.0943         estimate D2E/DX2                !
 ! D23   D(5,4,7,8)              0.1315         estimate D2E/DX2                !
 ! D24   D(5,4,7,11)          -179.8914         estimate D2E/DX2                !
 ! D25   D(4,5,6,3)             -0.0287         estimate D2E/DX2                !
 ! D26   D(4,5,6,27)           179.9535         estimate D2E/DX2                !
 ! D27   D(10,5,6,3)          -179.9951         estimate D2E/DX2                !
 ! D28   D(10,5,6,27)           -0.0129         estimate D2E/DX2                !
 ! D29   D(4,5,10,9)             0.3561         estimate D2E/DX2                !
 ! D30   D(4,5,10,12)         -179.6874         estimate D2E/DX2                !
 ! D31   D(6,5,10,9)          -179.6782         estimate D2E/DX2                !
 ! D32   D(6,5,10,12)            0.2783         estimate D2E/DX2                !
 ! D33   D(4,7,8,9)             -0.5808         estimate D2E/DX2                !
 ! D34   D(4,7,8,13)           179.9658         estimate D2E/DX2                !
 ! D35   D(11,7,8,9)           179.4426         estimate D2E/DX2                !
 ! D36   D(11,7,8,13)           -0.0108         estimate D2E/DX2                !
 ! D37   D(7,8,9,10)             0.9536         estimate D2E/DX2                !
 ! D38   D(7,8,9,14)           179.9957         estimate D2E/DX2                !
 ! D39   D(13,8,9,10)         -179.6236         estimate D2E/DX2                !
 ! D40   D(13,8,9,14)           -0.5815         estimate D2E/DX2                !
 ! D41   D(7,8,13,28)           -7.7989         estimate D2E/DX2                !
 ! D42   D(7,8,13,29)         -128.5605         estimate D2E/DX2                !
 ! D43   D(7,8,13,30)          111.376          estimate D2E/DX2                !
 ! D44   D(9,8,13,28)          172.7456         estimate D2E/DX2                !
 ! D45   D(9,8,13,29)           51.984          estimate D2E/DX2                !
 ! D46   D(9,8,13,30)          -68.0795         estimate D2E/DX2                !
 ! D47   D(8,9,10,5)            -0.8111         estimate D2E/DX2                !
 ! D48   D(8,9,10,12)          179.233          estimate D2E/DX2                !
 ! D49   D(14,9,10,5)         -179.9107         estimate D2E/DX2                !
 ! D50   D(14,9,10,12)           0.1334         estimate D2E/DX2                !
 ! D51   D(8,9,14,15)          -95.7336         estimate D2E/DX2                !
 ! D52   D(8,9,14,31)          144.9095         estimate D2E/DX2                !
 ! D53   D(8,9,14,32)           27.2233         estimate D2E/DX2                !
 ! D54   D(10,9,14,15)          83.37           estimate D2E/DX2                !
 ! D55   D(10,9,14,31)         -35.9869         estimate D2E/DX2                !
 ! D56   D(10,9,14,32)        -153.6731         estimate D2E/DX2                !
 ! D57   D(9,14,15,16)        -177.8029         estimate D2E/DX2                !
 ! D58   D(9,14,15,33)          59.7859         estimate D2E/DX2                !
 ! D59   D(9,14,15,34)         -56.2151         estimate D2E/DX2                !
 ! D60   D(31,14,15,16)        -58.3773         estimate D2E/DX2                !
 ! D61   D(31,14,15,33)        179.2115         estimate D2E/DX2                !
 ! D62   D(31,14,15,34)         63.2105         estimate D2E/DX2                !
 ! D63   D(32,14,15,16)         58.5044         estimate D2E/DX2                !
 ! D64   D(32,14,15,33)        -63.9068         estimate D2E/DX2                !
 ! D65   D(32,14,15,34)       -179.9078         estimate D2E/DX2                !
 ! D66   D(14,15,16,17)        179.6009         estimate D2E/DX2                !
 ! D67   D(14,15,16,35)         57.5804         estimate D2E/DX2                !
 ! D68   D(14,15,16,36)        -58.0607         estimate D2E/DX2                !
 ! D69   D(33,15,16,17)        -57.984          estimate D2E/DX2                !
 ! D70   D(33,15,16,35)        179.9956         estimate D2E/DX2                !
 ! D71   D(33,15,16,36)         64.3545         estimate D2E/DX2                !
 ! D72   D(34,15,16,17)         58.8225         estimate D2E/DX2                !
 ! D73   D(34,15,16,35)        -63.198          estimate D2E/DX2                !
 ! D74   D(34,15,16,36)       -178.8391         estimate D2E/DX2                !
 ! D75   D(15,16,17,18)       -179.6322         estimate D2E/DX2                !
 ! D76   D(15,16,17,37)         58.0476         estimate D2E/DX2                !
 ! D77   D(15,16,17,38)        -57.3936         estimate D2E/DX2                !
 ! D78   D(35,16,17,18)        -57.7281         estimate D2E/DX2                !
 ! D79   D(35,16,17,37)        179.9517         estimate D2E/DX2                !
 ! D80   D(35,16,17,38)         64.5105         estimate D2E/DX2                !
 ! D81   D(36,16,17,18)         57.8573         estimate D2E/DX2                !
 ! D82   D(36,16,17,37)        -64.4628         estimate D2E/DX2                !
 ! D83   D(36,16,17,38)       -179.904          estimate D2E/DX2                !
 ! D84   D(16,17,18,19)        179.939          estimate D2E/DX2                !
 ! D85   D(16,17,18,39)         57.7099         estimate D2E/DX2                !
 ! D86   D(16,17,18,40)        -57.7699         estimate D2E/DX2                !
 ! D87   D(37,17,18,19)        -57.7149         estimate D2E/DX2                !
 ! D88   D(37,17,18,39)       -179.9441         estimate D2E/DX2                !
 ! D89   D(37,17,18,40)         64.5762         estimate D2E/DX2                !
 ! D90   D(38,17,18,19)         57.789          estimate D2E/DX2                !
 ! D91   D(38,17,18,39)        -64.4401         estimate D2E/DX2                !
 ! D92   D(38,17,18,40)       -179.9198         estimate D2E/DX2                !
 ! D93   D(17,18,19,20)       -179.8517         estimate D2E/DX2                !
 ! D94   D(17,18,19,41)         57.8559         estimate D2E/DX2                !
 ! D95   D(17,18,19,42)        -57.5942         estimate D2E/DX2                !
 ! D96   D(39,18,19,20)        -57.6382         estimate D2E/DX2                !
 ! D97   D(39,18,19,41)       -179.9306         estimate D2E/DX2                !
 ! D98   D(39,18,19,42)         64.6193         estimate D2E/DX2                !
 ! D99   D(40,18,19,20)         57.8265         estimate D2E/DX2                !
 ! D100  D(40,18,19,41)        -64.4659         estimate D2E/DX2                !
 ! D101  D(40,18,19,42)       -179.916          estimate D2E/DX2                !
 ! D102  D(18,19,20,21)        179.9645         estimate D2E/DX2                !
 ! D103  D(18,19,20,43)         57.7171         estimate D2E/DX2                !
 ! D104  D(18,19,20,44)        -57.7623         estimate D2E/DX2                !
 ! D105  D(41,19,20,21)        -57.7406         estimate D2E/DX2                !
 ! D106  D(41,19,20,43)       -179.9879         estimate D2E/DX2                !
 ! D107  D(41,19,20,44)         64.5326         estimate D2E/DX2                !
 ! D108  D(42,19,20,21)         57.7249         estimate D2E/DX2                !
 ! D109  D(42,19,20,43)        -64.5225         estimate D2E/DX2                !
 ! D110  D(42,19,20,44)        179.998          estimate D2E/DX2                !
 ! D111  D(19,20,21,22)       -179.9565         estimate D2E/DX2                !
 ! D112  D(19,20,21,45)         57.7889         estimate D2E/DX2                !
 ! D113  D(19,20,21,46)        -57.7149         estimate D2E/DX2                !
 ! D114  D(43,20,21,22)        -57.7098         estimate D2E/DX2                !
 ! D115  D(43,20,21,45)       -179.9643         estimate D2E/DX2                !
 ! D116  D(43,20,21,46)         64.5319         estimate D2E/DX2                !
 ! D117  D(44,20,21,22)         57.7577         estimate D2E/DX2                !
 ! D118  D(44,20,21,45)        -64.4969         estimate D2E/DX2                !
 ! D119  D(44,20,21,46)        179.9993         estimate D2E/DX2                !
 ! D120  D(20,21,22,23)        179.9768         estimate D2E/DX2                !
 ! D121  D(20,21,22,47)         57.724          estimate D2E/DX2                !
 ! D122  D(20,21,22,48)        -57.7589         estimate D2E/DX2                !
 ! D123  D(45,21,22,23)        -57.7027         estimate D2E/DX2                !
 ! D124  D(45,21,22,47)       -179.9555         estimate D2E/DX2                !
 ! D125  D(45,21,22,48)         64.5616         estimate D2E/DX2                !
 ! D126  D(46,21,22,23)         57.6774         estimate D2E/DX2                !
 ! D127  D(46,21,22,47)        -64.5754         estimate D2E/DX2                !
 ! D128  D(46,21,22,48)        179.9417         estimate D2E/DX2                !
 ! D129  D(21,22,23,49)        -59.8184         estimate D2E/DX2                !
 ! D130  D(21,22,23,50)       -179.9913         estimate D2E/DX2                !
 ! D131  D(21,22,23,51)         59.8306         estimate D2E/DX2                !
 ! D132  D(47,22,23,49)         62.2995         estimate D2E/DX2                !
 ! D133  D(47,22,23,50)        -57.8734         estimate D2E/DX2                !
 ! D134  D(47,22,23,51)       -178.0515         estimate D2E/DX2                !
 ! D135  D(48,22,23,49)        178.0494         estimate D2E/DX2                !
 ! D136  D(48,22,23,50)         57.8766         estimate D2E/DX2                !
 ! D137  D(48,22,23,51)        -62.3016         estimate D2E/DX2                !
 --------------------------------------------------------------------------------
 Trust Radius=3.00D-01 FncErr=1.00D-07 GrdErr=1.00D-06 EigMax=2.50D+02 EigMin=1.00D-04
 Number of steps in this run=    295 maximum allowed number of steps=    306.
 GradGradGradGradGradGradGradGradGradGradGradGradGradGradGradGradGradGrad

 Leave Link  103 at Sun Feb 11 00:57:26 2024, MaxMem=  4026531840 cpu:               0.4 elap:               0.1
 (Enter /sysapps/ubuntu-applications/gaussian/Gaussian/AVX2/g16/l202.exe)
 Symmetry turned off by external request.
 Stoichiometry    C21H26Cl2O2(1-,2)
 Framework group  C1[X(C21H26Cl2O2)]
 Deg. of freedom   147
 Full point group                 C1      NOp   1
                          Input orientation:                          
 ---------------------------------------------------------------------
 Center     Atomic      Atomic             Coordinates (Angstroms)
 Number     Number       Type             X           Y           Z
 ---------------------------------------------------------------------
      1          6           0       -1.839149    1.725106   -0.798638
      2          6           0       -2.561897    0.879339   -1.613610
      3          6           0       -2.070020   -0.411832   -1.902210
      4          6           0       -0.611392    1.320070   -0.246134
      5          6           0       -0.118330    0.024863   -0.536042
      6          6           0       -0.867267   -0.824775   -1.368837
      7          6           0        0.133367    2.245275    0.618530
      8          6           0        1.393324    1.760480    1.150937
      9          6           0        1.871433    0.485201    0.872593
     10          6           0        1.158564   -0.442061    0.017168
     11          8           0       -0.317542    3.395404    0.870696
     12          8           0        1.599887   -1.593907   -0.246320
     13          6           0        2.153409    2.718608    2.038684
     14          6           0        3.184548   -0.017428    1.428496
     15          6           0        4.363707    0.156517    0.450947
     16          6           0        5.683549   -0.401766    0.994080
     17          6           0        6.862897   -0.243865    0.027391
     18          6           0        8.183067   -0.809364    0.563956
     19          6           0        9.361556   -0.652397   -0.403911
     20          6           0       10.680795   -1.221123    0.131260
     21          6           0       11.858699   -1.064799   -0.837028
     22          6           0       13.178016   -1.634215   -0.303008
     23          6           0       14.348389   -1.473556   -1.278098
     24         17           0       -2.971925   -1.518238   -2.941729
     25         17           0       -4.097911    1.438245   -2.281821
     26          1           0       -2.200656    2.718654   -0.565842
     27          1           0       -0.473097   -1.810921   -1.579294
     28          1           0        1.664202    3.692366    2.013159
     29          1           0        3.194920    2.834834    1.721336
     30          1           0        2.171010    2.376737    3.081436
     31          1           0        3.076297   -1.086105    1.637486
     32          1           0        3.420681    0.485049    2.371889
     33          1           0        4.487145    1.220415    0.211749
     34          1           0        4.108403   -0.350272   -0.485004
     35          1           0        5.550783   -1.465601    1.230535
     36          1           0        5.927350    0.093695    1.944300
     37          1           0        6.995960    0.819948   -0.210426
     38          1           0        6.617274   -0.737640   -0.921607
     39          1           0        8.049673   -1.873215    0.800597
     40          1           0        8.428324   -0.316462    1.514260
     41          1           0        9.496111    0.411463   -0.639868
     42          1           0        9.115540   -1.143885   -1.354257
     43          1           0       10.545994   -2.284993    0.366913
     44          1           0       10.927120   -0.729659    1.081814
     45          1           0       11.994936   -0.001049   -1.072991
     46          1           0       11.613228   -1.556004   -1.787882
     47          1           0       13.042637   -2.697127   -0.067875
     48          1           0       13.424394   -1.143095    0.646523
     49          1           0       14.146165   -1.983905   -2.225360
     50          1           0       15.273454   -1.889476   -0.867780
     51          1           0       14.530896   -0.418305   -1.505823
 ---------------------------------------------------------------------
 Rotational constants (GHZ):           0.3946276           0.0423139           0.0396478
 Leave Link  202 at Sun Feb 11 00:57:26 2024, MaxMem=  4026531840 cpu:               0.4 elap:               0.1
 (Enter /sysapps/ubuntu-applications/gaussian/Gaussian/AVX2/g16/l301.exe)
 Standard basis: 6-311++G(d,p) (5D, 7F)
 Ernie: Thresh=  0.10000D-02 Tol=  0.10000D-05 Strict=F.
   748 basis functions,  1168 primitive gaussians,   773 cartesian basis functions
   102 alpha electrons      101 beta electrons
       nuclear repulsion energy      2226.5327095042 Hartrees.
 IExCor=  402 DFT=T Ex+Corr=B3LYP ExCW=0 ScaHFX=  0.200000
 ScaDFX=  0.800000  0.720000  1.000000  0.810000 ScalE2=  1.000000  1.000000
 IRadAn=      5 IRanWt=     -1 IRanGd=            0 ICorTp=0 IEmpDi=  4
 NAtoms=   51 NActive=   51 NUniq=   51 SFac= 1.00D+00 NAtFMM=   60 NAOKFM=F Big=F
 Integral buffers will be    131072 words long.
 Raffenetti 2 integral format.
 Two-electron integral symmetry is turned off.
 ------------------------------------------------------------------------------
 Polarizable Continuum Model (PCM)
 =================================
 Model                : PCM.
 Atomic radii         : UFF (Universal Force Field).
 Polarization charges : Total charges.
 Charge compensation  : None.
 Solution method      : On-the-fly selection.
 Cavity type          : Scaled VdW (van der Waals Surface) (Alpha=1.100).
 Cavity algorithm     : GePol (No added spheres)
                        Default sphere list used, NSphG=   51.
                        Lebedev-Laikov grids with approx.  5.0 points / Ang**2.
                        Smoothing algorithm: York/Karplus (Gamma=1.0000).
                        Polarization charges: spherical gaussians, with
                                              point-specific exponents (IZeta= 3).
                        Self-potential: point-specific (ISelfS= 7).
                        Self-field    : sphere-specific E.n sum rule (ISelfD= 2).
 1st derivatives      : Analytical E(r).r(x)/FMM algorithm (CHGder, D1EAlg=3).
                        Cavity 1st derivative terms included.
 Solvent              : n,n-DiMethylFormamide, Eps=  37.219000 Eps(inf)=   2.046330
 ------------------------------------------------------------------------------
 GePol: Number of generator spheres                  =      51
 GePol: Total number of spheres                      =      51
 GePol: Number of exposed spheres                    =      51 (100.00%)
 GePol: Number of points                             =    3627
 GePol: Average weight of points                     =       0.14
 GePol: Minimum weight of points                     =   0.13D-10
 GePol: Maximum weight of points                     =    0.21616
 GePol: Number of points with low weight             =     260
 GePol: Fraction of low-weight points (<1% of avg)   =       7.17%
 GePol: Cavity surface area                          =    500.558 Ang**2
 GePol: Cavity volume                                =    538.608 Ang**3
 Leave Link  301 at Sun Feb 11 00:57:26 2024, MaxMem=  4026531840 cpu:               1.4 elap:               0.2
 (Enter /sysapps/ubuntu-applications/gaussian/Gaussian/AVX2/g16/l302.exe)
 NPDir=0 NMtPBC=     1 NCelOv=     1 NCel=       1 NClECP=     1 NCelD=      1
         NCelK=      1 NCelE2=     1 NClLst=     1 CellRange=     0.0.
 One-electron integrals computed using PRISM.
 NBasis=   748 RedAO= T EigKep=  1.38D-06  NBF=   748
 NBsUse=   741 1.00D-06 EigRej=  9.20D-07 NBFU=   741
 Precomputing XC quadrature grid using
 IXCGrd= 4 IRadAn=           5 IRanWt=          -1 IRanGd=           0 AccXCQ= 0.00D+00.
 Generated NRdTot=       0 NPtTot=           0 NUsed=           0 NTot=          32
 NSgBfM=   692   692   692   692   692 MxSgAt=    51 MxSgA2=    51.
 Leave Link  302 at Sun Feb 11 00:57:30 2024, MaxMem=  4026531840 cpu:              25.3 elap:               3.5
 (Enter /sysapps/ubuntu-applications/gaussian/Gaussian/AVX2/g16/l303.exe)
 DipDrv:  MaxL=1.
 Leave Link  303 at Sun Feb 11 00:57:31 2024, MaxMem=  4026531840 cpu:               3.8 elap:               0.7
 (Enter /sysapps/ubuntu-applications/gaussian/Gaussian/AVX2/g16/l401.exe)
 ExpMin= 3.60D-02 ExpMax= 1.06D+05 ExpMxC= 3.62D+03 IAcc=3 IRadAn=         5 AccDes= 0.00D+00
 Harris functional with IExCor=  402 and IRadAn=       5 diagonalized for initial guess.
 HarFok:  IExCor=  402 AccDes= 0.00D+00 IRadAn=         5 IDoV= 1 UseB2=F ITyADJ=14
 ICtDFT=  3500011 ScaDFX=  1.000000  1.000000  1.000000  1.000000
 FoFCou: FMM=F IPFlag=           0 FMFlag=      100000 FMFlg1=           0
         NFxFlg=           0 DoJE=T BraDBF=F KetDBF=T FulRan=T
         wScrn=  0.000000 ICntrl=       500 IOpCl=  0 I1Cent=   200000004 NGrid=           0
         NMat0=    1 NMatS0=      1 NMatT0=    0 NMatD0=    1 NMtDS0=    0 NMtDT0=    0
 Symmetry not used in FoFCou.
 Harris En= -1887.29762348398    
 JPrj=0 DoOrth=F DoCkMO=F.
 Initial guess <Sx>= 0.0000 <Sy>= 0.0000 <Sz>= 0.5000 <S**2>= 0.7500 S= 0.5000
 Leave Link  401 at Sun Feb 11 00:57:53 2024, MaxMem=  4026531840 cpu:             154.6 elap:              21.1
 (Enter /sysapps/ubuntu-applications/gaussian/Gaussian/AVX2/g16/l502.exe)
 Two-electron integral symmetry not used.
 UHF open shell SCF:
 Using DIIS extrapolation, IDIIS=  1040.
 NGot=  4026531840 LenX=  4025324980 LenY=  4024726678
 Requested convergence on RMS density matrix=1.00D-08 within 128 cycles.
 Requested convergence on MAX density matrix=1.00D-06.
 Requested convergence on             energy=1.00D-06.
 No special actions if energy rises.
 Fock matrices will be formed incrementally for  20 cycles.

 Cycle   1  Pass 1  IDiag  1:
 FoFJK:  IHMeth= 1 ICntrl=       0 DoSepK=F KAlg= 0 I1Cent=           0 FoldK=F
 IRaf= 690000000 NMat=       1 IRICut=       1 DoRegI=T DoRafI=F ISym2E= 0 IDoP0=0 IntGTp=1.
 FoFCou: FMM=F IPFlag=           0 FMFlag=      100000 FMFlg1=           0
         NFxFlg=           0 DoJE=F BraDBF=F KetDBF=F FulRan=T
         wScrn=  0.000000 ICntrl=         0 IOpCl=  1 I1Cent=           0 NGrid=           0
         NMat0=    1 NMatS0=      1 NMatT0=    0 NMatD0=    1 NMtDS0=    0 NMtDT0=    0
 Symmetry not used in FoFCou.
 Inv3:  Mode=1 IEnd=    39465387.
 Iteration    1 A*A^-1 deviation from unit magnitude is 2.66D-15 for    372.
 Iteration    1 A*A^-1 deviation from orthogonality  is 1.78D-15 for   2227     67.
 Iteration    1 A^-1*A deviation from unit magnitude is 3.11D-15 for   3260.
 Iteration    1 A^-1*A deviation from orthogonality  is 2.55D-15 for   2531   1100.
 E= -1886.34872461550    
 DIIS: error= 3.16D-02 at cycle   1 NSaved=   1.
 NSaved= 1 IEnMin= 1 EnMin= -1886.34872461550     IErMin= 1 ErrMin= 3.16D-02
 ErrMax= 3.16D-02  0.00D+00 EMaxC= 1.00D-01 BMatC= 3.81D+00 BMatP= 3.81D+00
 IDIUse=3 WtCom= 6.84D-01 WtEn= 3.16D-01
 Coeff-Com:  0.100D+01
 Coeff-En:   0.100D+01
 Coeff:      0.100D+01
 Gap=     0.075 Goal=   None    Shift=    0.000
 Gap=     0.308 Goal=   None    Shift=    0.000
 GapD=    0.075 DampG=0.500 DampE=0.500 DampFc=0.2500 IDamp=-1.
 Damping current iteration by 2.50D-01
 RMSDP=4.90D-02 MaxDP=6.64D+00              OVMax= 9.57D-01

 Cycle   2  Pass 1  IDiag  1:
 RMSU=  1.22D-02    CP:  1.03D+00
 E= -1886.63937237329     Delta-E=       -0.290647757792 Rises=F Damp=T
 DIIS: error= 1.62D-02 at cycle   2 NSaved=   2.
 NSaved= 2 IEnMin= 2 EnMin= -1886.63937237329     IErMin= 2 ErrMin= 1.62D-02
 ErrMax= 1.62D-02  0.00D+00 EMaxC= 1.00D-01 BMatC= 8.82D-01 BMatP= 3.81D+00
 IDIUse=3 WtCom= 8.38D-01 WtEn= 1.62D-01
 Coeff-Com: -0.660D+00 0.166D+01
 Coeff-En:   0.000D+00 0.100D+01
 Coeff:     -0.553D+00 0.155D+01
 Gap=    -0.147 Goal=   None    Shift=    0.000
 Gap=     0.276 Goal=   None    Shift=    0.000
 RMSDP=1.49D-02 MaxDP=1.75D+00 DE=-2.91D-01 OVMax= 8.96D-01

 Cycle   3  Pass 1  IDiag  1:
 RMSU=  9.83D-03    CP:  9.39D-01  1.53D-01
 E= -1887.08314203099     Delta-E=       -0.443769657705 Rises=F Damp=F
 DIIS: error= 1.70D-02 at cycle   3 NSaved=   3.
 NSaved= 3 IEnMin= 3 EnMin= -1887.08314203099     IErMin= 2 ErrMin= 1.62D-02
 ErrMax= 1.70D-02  0.00D+00 EMaxC= 1.00D-01 BMatC= 6.01D-01 BMatP= 8.82D-01
 IDIUse=3 WtCom= 8.30D-01 WtEn= 1.70D-01
 Coeff-Com: -0.466D+00 0.104D+01 0.425D+00
 Coeff-En:   0.000D+00 0.000D+00 0.100D+01
 Coeff:     -0.387D+00 0.865D+00 0.522D+00
 Gap=     0.092 Goal=   None    Shift=    0.000
 Gap=     0.157 Goal=   None    Shift=    0.000
 RMSDP=5.66D-03 MaxDP=6.13D-01 DE=-4.44D-01 OVMax= 1.99D-01

 Cycle   4  Pass 1  IDiag  1:
 RMSU=  3.70D-03    CP:  8.93D-01  1.86D-01  6.32D-01
 E= -1887.19482861075     Delta-E=       -0.111686579758 Rises=F Damp=F
 DIIS: error= 6.10D-03 at cycle   4 NSaved=   4.
 NSaved= 4 IEnMin= 4 EnMin= -1887.19482861075     IErMin= 4 ErrMin= 6.10D-03
 ErrMax= 6.10D-03  0.00D+00 EMaxC= 1.00D-01 BMatC= 1.29D-01 BMatP= 6.01D-01
 IDIUse=3 WtCom= 9.39D-01 WtEn= 6.10D-02
 Coeff-Com: -0.121D+00 0.220D+00 0.322D+00 0.579D+00
 Coeff-En:   0.000D+00 0.000D+00 0.197D+00 0.803D+00
 Coeff:     -0.114D+00 0.207D+00 0.314D+00 0.593D+00
 Gap=     0.104 Goal=   None    Shift=    0.000
 Gap=     0.143 Goal=   None    Shift=    0.000
 RMSDP=2.71D-03 MaxDP=2.51D-01 DE=-1.12D-01 OVMax= 4.40D-02

 Cycle   5  Pass 1  IDiag  1:
 RMSU=  1.32D-03    CP:  8.63D-01  1.79D-01  7.72D-01  6.58D-01
 E= -1887.22346551301     Delta-E=       -0.028636902254 Rises=F Damp=F
 DIIS: error= 1.22D-03 at cycle   5 NSaved=   5.
 NSaved= 5 IEnMin= 5 EnMin= -1887.22346551301     IErMin= 5 ErrMin= 1.22D-03
 ErrMax= 1.22D-03  0.00D+00 EMaxC= 1.00D-01 BMatC= 4.86D-03 BMatP= 1.29D-01
 IDIUse=3 WtCom= 9.88D-01 WtEn= 1.22D-02
 Coeff-Com: -0.420D-01 0.665D-01 0.120D+00 0.281D+00 0.575D+00
 Coeff-En:   0.000D+00 0.000D+00 0.000D+00 0.000D+00 0.100D+01
 Coeff:     -0.415D-01 0.657D-01 0.118D+00 0.278D+00 0.580D+00
 Gap=     0.106 Goal=   None    Shift=    0.000
 Gap=     0.142 Goal=   None    Shift=    0.000
 RMSDP=4.66D-04 MaxDP=4.24D-02 DE=-2.86D-02 OVMax= 9.70D-03

 Cycle   6  Pass 1  IDiag  1:
 RMSU=  3.65D-04    CP:  8.67D-01  1.75D-01  7.58D-01  6.92D-01  9.23D-01
 E= -1887.22456815560     Delta-E=       -0.001102642596 Rises=F Damp=F
 DIIS: error= 4.62D-04 at cycle   6 NSaved=   6.
 NSaved= 6 IEnMin= 6 EnMin= -1887.22456815560     IErMin= 6 ErrMin= 4.62D-04
 ErrMax= 4.62D-04  0.00D+00 EMaxC= 1.00D-01 BMatC= 3.67D-04 BMatP= 4.86D-03
 IDIUse=3 WtCom= 9.95D-01 WtEn= 4.62D-03
 Coeff-Com: -0.881D-03-0.153D-02 0.121D-01 0.437D-01 0.225D+00 0.721D+00
 Coeff-En:   0.000D+00 0.000D+00 0.000D+00 0.000D+00 0.000D+00 0.100D+01
 Coeff:     -0.877D-03-0.153D-02 0.120D-01 0.435D-01 0.224D+00 0.722D+00
 Gap=     0.107 Goal=   None    Shift=    0.000
 Gap=     0.142 Goal=   None    Shift=    0.000
 RMSDP=2.97D-04 MaxDP=3.48D-02 DE=-1.10D-03 OVMax= 6.91D-03

 Cycle   7  Pass 1  IDiag  1:
 RMSU=  1.82D-04    CP:  8.62D-01  1.76D-01  7.56D-01  7.03D-01  9.66D-01
                    CP:  9.47D-01
 E= -1887.22467528092     Delta-E=       -0.000107125315 Rises=F Damp=F
 DIIS: error= 2.73D-04 at cycle   7 NSaved=   7.
 NSaved= 7 IEnMin= 7 EnMin= -1887.22467528092     IErMin= 7 ErrMin= 2.73D-04
 ErrMax= 2.73D-04  0.00D+00 EMaxC= 1.00D-01 BMatC= 1.45D-04 BMatP= 3.67D-04
 IDIUse=3 WtCom= 9.97D-01 WtEn= 2.73D-03
 Coeff-Com:  0.424D-02-0.757D-02-0.638D-02-0.124D-01 0.471D-01 0.412D+00
 Coeff-Com:  0.563D+00
 Coeff-En:   0.000D+00 0.000D+00 0.000D+00 0.000D+00 0.000D+00 0.000D+00
 Coeff-En:   0.100D+01
 Coeff:      0.423D-02-0.755D-02-0.637D-02-0.124D-01 0.470D-01 0.411D+00
 Coeff:      0.564D+00
 Gap=     0.108 Goal=   None    Shift=    0.000
 Gap=     0.142 Goal=   None    Shift=    0.000
 RMSDP=9.59D-05 MaxDP=1.52D-02 DE=-1.07D-04 OVMax= 2.61D-03

 Cycle   8  Pass 1  IDiag  1:
 RMSU=  5.43D-05    CP:  8.63D-01  1.74D-01  7.53D-01  6.97D-01  9.52D-01
                    CP:  1.06D+00  8.04D-01
 E= -1887.22471605175     Delta-E=       -0.000040770831 Rises=F Damp=F
 DIIS: error= 2.08D-04 at cycle   8 NSaved=   8.
 NSaved= 8 IEnMin= 8 EnMin= -1887.22471605175     IErMin= 8 ErrMin= 2.08D-04
 ErrMax= 2.08D-04  0.00D+00 EMaxC= 1.00D-01 BMatC= 4.33D-05 BMatP= 1.45D-04
 IDIUse=3 WtCom= 9.98D-01 WtEn= 2.08D-03
 Coeff-Com:  0.288D-02-0.367D-02-0.536D-02-0.208D-01-0.451D-01 0.684D-02
 Coeff-Com:  0.353D+00 0.712D+00
 Coeff-En:   0.000D+00 0.000D+00 0.000D+00 0.000D+00 0.000D+00 0.000D+00
 Coeff-En:   0.000D+00 0.100D+01
 Coeff:      0.287D-02-0.367D-02-0.535D-02-0.207D-01-0.450D-01 0.683D-02
 Coeff:      0.352D+00 0.713D+00
 Gap=     0.108 Goal=   None    Shift=    0.000
 Gap=     0.142 Goal=   None    Shift=    0.000
 RMSDP=5.11D-05 MaxDP=4.78D-03 DE=-4.08D-05 OVMax= 2.07D-03

 Cycle   9  Pass 1  IDiag  1:
 RMSU=  3.25D-05    CP:  8.63D-01  1.73D-01  7.52D-01  6.97D-01  9.46D-01
                    CP:  1.08D+00  9.37D-01  1.19D+00
 E= -1887.22473006837     Delta-E=       -0.000014016626 Rises=F Damp=F
 DIIS: error= 5.19D-05 at cycle   9 NSaved=   9.
 NSaved= 9 IEnMin= 9 EnMin= -1887.22473006837     IErMin= 9 ErrMin= 5.19D-05
 ErrMax= 5.19D-05  0.00D+00 EMaxC= 1.00D-01 BMatC= 8.72D-06 BMatP= 4.33D-05
 IDIUse=1 WtCom= 1.00D+00 WtEn= 0.00D+00
 Coeff-Com:  0.341D-03 0.145D-03-0.526D-03-0.745D-02-0.327D-01-0.113D+00
 Coeff-Com:  0.335D-01 0.392D+00 0.728D+00
 Coeff:      0.341D-03 0.145D-03-0.526D-03-0.745D-02-0.327D-01-0.113D+00
 Coeff:      0.335D-01 0.392D+00 0.728D+00
 Gap=     0.108 Goal=   None    Shift=    0.000
 Gap=     0.142 Goal=   None    Shift=    0.000
 RMSDP=2.63D-05 MaxDP=3.09D-03 DE=-1.40D-05 OVMax= 9.72D-04

 Cycle  10  Pass 1  IDiag  1:
 RMSU=  1.71D-05    CP:  8.63D-01  1.73D-01  7.53D-01  6.94D-01  9.50D-01
                    CP:  1.06D+00  9.72D-01  1.21D+00  8.04D-01
 E= -1887.22473343512     Delta-E=       -0.000003366745 Rises=F Damp=F
 DIIS: error= 2.30D-05 at cycle  10 NSaved=  10.
 NSaved=10 IEnMin=10 EnMin= -1887.22473343512     IErMin=10 ErrMin= 2.30D-05
 ErrMax= 2.30D-05  0.00D+00 EMaxC= 1.00D-01 BMatC= 1.40D-06 BMatP= 8.72D-06
 IDIUse=1 WtCom= 1.00D+00 WtEn= 0.00D+00
 Coeff-Com: -0.363D-03 0.752D-03 0.504D-03-0.533D-03-0.930D-02-0.598D-01
 Coeff-Com: -0.354D-01 0.848D-01 0.364D+00 0.655D+00
 Coeff:     -0.363D-03 0.752D-03 0.504D-03-0.533D-03-0.930D-02-0.598D-01
 Coeff:     -0.354D-01 0.848D-01 0.364D+00 0.655D+00
 Gap=     0.108 Goal=   None    Shift=    0.000
 Gap=     0.142 Goal=   None    Shift=    0.000
 RMSDP=1.02D-05 MaxDP=1.20D-03 DE=-3.37D-06 OVMax= 3.06D-04

 Cycle  11  Pass 1  IDiag  1:
 RMSU=  9.21D-06    CP:  8.63D-01  1.73D-01  7.53D-01  6.93D-01  9.49D-01
                    CP:  1.06D+00  9.70D-01  1.20D+00  8.54D-01  1.07D+00
 E= -1887.22473381924     Delta-E=       -0.000000384121 Rises=F Damp=F
 DIIS: error= 1.55D-05 at cycle  11 NSaved=  11.
 NSaved=11 IEnMin=11 EnMin= -1887.22473381924     IErMin=11 ErrMin= 1.55D-05
 ErrMax= 1.55D-05  0.00D+00 EMaxC= 1.00D-01 BMatC= 4.05D-07 BMatP= 1.40D-06
 IDIUse=1 WtCom= 1.00D+00 WtEn= 0.00D+00
 Coeff-Com: -0.263D-03 0.371D-03 0.341D-03 0.112D-02 0.572D-03-0.130D-01
 Coeff-Com: -0.243D-01-0.292D-01 0.698D-01 0.402D+00 0.593D+00
 Coeff:     -0.263D-03 0.371D-03 0.341D-03 0.112D-02 0.572D-03-0.130D-01
 Coeff:     -0.243D-01-0.292D-01 0.698D-01 0.402D+00 0.593D+00
 Gap=     0.108 Goal=   None    Shift=    0.000
 Gap=     0.142 Goal=   None    Shift=    0.000
 RMSDP=5.15D-06 MaxDP=4.53D-04 DE=-3.84D-07 OVMax= 2.19D-04

 Cycle  12  Pass 1  IDiag  1:
 RMSU=  2.22D-06    CP:  8.63D-01  1.73D-01  7.53D-01  6.94D-01  9.49D-01
                    CP:  1.06D+00  9.79D-01  1.20D+00  8.82D-01  1.15D+00
                    CP:  8.60D-01
 E= -1887.22473393208     Delta-E=       -0.000000112839 Rises=F Damp=F
 DIIS: error= 5.05D-06 at cycle  12 NSaved=  12.
 NSaved=12 IEnMin=12 EnMin= -1887.22473393208     IErMin=12 ErrMin= 5.05D-06
 ErrMax= 5.05D-06  0.00D+00 EMaxC= 1.00D-01 BMatC= 5.14D-08 BMatP= 4.05D-07
 IDIUse=1 WtCom= 1.00D+00 WtEn= 0.00D+00
 Coeff-Com: -0.102D-03 0.124D-03 0.111D-03 0.607D-03 0.127D-02 0.765D-04
 Coeff-Com: -0.697D-02-0.270D-01-0.713D-02 0.138D+00 0.320D+00 0.581D+00
 Coeff:     -0.102D-03 0.124D-03 0.111D-03 0.607D-03 0.127D-02 0.765D-04
 Coeff:     -0.697D-02-0.270D-01-0.713D-02 0.138D+00 0.320D+00 0.581D+00
 Gap=     0.108 Goal=   None    Shift=    0.000
 Gap=     0.142 Goal=   None    Shift=    0.000
 RMSDP=2.42D-06 MaxDP=2.29D-04 DE=-1.13D-07 OVMax= 4.47D-05

 Cycle  13  Pass 1  IDiag  1:
 RMSU=  1.10D-06    CP:  8.63D-01  1.73D-01  7.53D-01  6.94D-01  9.49D-01
                    CP:  1.06D+00  9.73D-01  1.19D+00  8.78D-01  1.16D+00
                    CP:  8.27D-01  7.02D-01
 E= -1887.22473394272     Delta-E=       -0.000000010640 Rises=F Damp=F
 DIIS: error= 2.15D-06 at cycle  13 NSaved=  13.
 NSaved=13 IEnMin=13 EnMin= -1887.22473394272     IErMin=13 ErrMin= 2.15D-06
 ErrMax= 2.15D-06  0.00D+00 EMaxC= 1.00D-01 BMatC= 1.40D-08 BMatP= 5.14D-08
 IDIUse=1 WtCom= 1.00D+00 WtEn= 0.00D+00
 Coeff-Com:  0.139D-04-0.325D-04-0.972D-05 0.104D-03 0.659D-03 0.310D-02
 Coeff-Com:  0.167D-02-0.114D-01-0.215D-01-0.125D-01 0.490D-01 0.364D+00
 Coeff-Com:  0.627D+00
 Coeff:      0.139D-04-0.325D-04-0.972D-05 0.104D-03 0.659D-03 0.310D-02
 Coeff:      0.167D-02-0.114D-01-0.215D-01-0.125D-01 0.490D-01 0.364D+00
 Coeff:      0.627D+00
 Gap=     0.108 Goal=   None    Shift=    0.000
 Gap=     0.142 Goal=   None    Shift=    0.000
 RMSDP=1.04D-06 MaxDP=1.10D-04 DE=-1.06D-08 OVMax= 2.68D-05

 Cycle  14  Pass 1  IDiag  1:
 RMSU=  4.51D-07    CP:  8.63D-01  1.73D-01  7.53D-01  6.94D-01  9.50D-01
                    CP:  1.06D+00  9.74D-01  1.19D+00  8.74D-01  1.17D+00
                    CP:  8.71D-01  8.30D-01  9.78D-01
 E= -1887.22473394632     Delta-E=       -0.000000003601 Rises=F Damp=F
 DIIS: error= 7.72D-07 at cycle  14 NSaved=  14.
 NSaved=14 IEnMin=14 EnMin= -1887.22473394632     IErMin=14 ErrMin= 7.72D-07
 ErrMax= 7.72D-07  0.00D+00 EMaxC= 1.00D-01 BMatC= 1.45D-09 BMatP= 1.40D-08
 IDIUse=1 WtCom= 1.00D+00 WtEn= 0.00D+00
 Coeff-Com:  0.214D-04-0.333D-04-0.127D-04-0.270D-04 0.172D-03 0.134D-02
 Coeff-Com:  0.168D-02-0.216D-02-0.842D-02-0.224D-01-0.180D-01 0.917D-01
 Coeff-Com:  0.308D+00 0.648D+00
 Coeff:      0.214D-04-0.333D-04-0.127D-04-0.270D-04 0.172D-03 0.134D-02
 Coeff:      0.168D-02-0.216D-02-0.842D-02-0.224D-01-0.180D-01 0.917D-01
 Coeff:      0.308D+00 0.648D+00
 Gap=     0.108 Goal=   None    Shift=    0.000
 Gap=     0.142 Goal=   None    Shift=    0.000
 RMSDP=2.58D-07 MaxDP=2.73D-05 DE=-3.60D-09 OVMax= 9.45D-06

 Cycle  15  Pass 1  IDiag  1:
 RMSU=  1.35D-07    CP:  8.63D-01  1.73D-01  7.53D-01  6.94D-01  9.50D-01
                    CP:  1.06D+00  9.75D-01  1.19D+00  8.77D-01  1.16D+00
                    CP:  8.62D-01  8.61D-01  1.07D+00  1.08D+00
 E= -1887.22473394673     Delta-E=       -0.000000000405 Rises=F Damp=F
 DIIS: error= 3.09D-07 at cycle  15 NSaved=  15.
 NSaved=15 IEnMin=15 EnMin= -1887.22473394673     IErMin=15 ErrMin= 3.09D-07
 ErrMax= 3.09D-07  0.00D+00 EMaxC= 1.00D-01 BMatC= 2.80D-10 BMatP= 1.45D-09
 IDIUse=1 WtCom= 1.00D+00 WtEn= 0.00D+00
 Coeff-Com:  0.741D-05-0.921D-05 0.114D-05-0.270D-04-0.195D-04 0.364D-04
 Coeff-Com:  0.503D-03 0.124D-02 0.495D-03-0.906D-02-0.199D-01-0.371D-01
 Coeff-Com:  0.351D-01 0.331D+00 0.698D+00
 Coeff:      0.741D-05-0.921D-05 0.114D-05-0.270D-04-0.195D-04 0.364D-04
 Coeff:      0.503D-03 0.124D-02 0.495D-03-0.906D-02-0.199D-01-0.371D-01
 Coeff:      0.351D-01 0.331D+00 0.698D+00
 Gap=     0.108 Goal=   None    Shift=    0.000
 Gap=     0.142 Goal=   None    Shift=    0.000
 RMSDP=1.88D-07 MaxDP=1.88D-05 DE=-4.05D-10 OVMax= 5.37D-06

 Cycle  16  Pass 1  IDiag  1:
 RMSU=  9.49D-08    CP:  8.63D-01  1.73D-01  7.53D-01  6.94D-01  9.50D-01
                    CP:  1.06D+00  9.75D-01  1.19D+00  8.76D-01  1.16D+00
                    CP:  8.63D-01  8.68D-01  1.09D+00  1.11D+00  1.08D+00
 E= -1887.22473394679     Delta-E=       -0.000000000065 Rises=F Damp=F
 DIIS: error= 1.32D-07 at cycle  16 NSaved=  16.
 NSaved=16 IEnMin=16 EnMin= -1887.22473394679     IErMin=16 ErrMin= 1.32D-07
 ErrMax= 1.32D-07  0.00D+00 EMaxC= 1.00D-01 BMatC= 3.16D-11 BMatP= 2.80D-10
 IDIUse=1 WtCom= 1.00D+00 WtEn= 0.00D+00
 Coeff-Com: -0.155D-05 0.282D-05 0.135D-05-0.400D-05-0.229D-04-0.147D-03
 Coeff-Com: -0.426D-04 0.618D-03 0.120D-02 0.531D-03-0.185D-02-0.272D-01
 Coeff-Com: -0.275D-01-0.111D-01 0.217D+00 0.849D+00
 Coeff:     -0.155D-05 0.282D-05 0.135D-05-0.400D-05-0.229D-04-0.147D-03
 Coeff:     -0.426D-04 0.618D-03 0.120D-02 0.531D-03-0.185D-02-0.272D-01
 Coeff:     -0.275D-01-0.111D-01 0.217D+00 0.849D+00
 Gap=     0.108 Goal=   None    Shift=    0.000
 Gap=     0.142 Goal=   None    Shift=    0.000
 RMSDP=6.07D-08 MaxDP=5.94D-06 DE=-6.46D-11 OVMax= 3.22D-06

 Cycle  17  Pass 1  IDiag  1:
 RMSU=  3.11D-08    CP:  8.63D-01  1.73D-01  7.53D-01  6.94D-01  9.50D-01
                    CP:  1.06D+00  9.75D-01  1.19D+00  8.76D-01  1.16D+00
                    CP:  8.62D-01  8.63D-01  1.12D+00  1.13D+00  1.18D+00
                    CP:  1.11D+00
 E= -1887.22473394686     Delta-E=       -0.000000000069 Rises=F Damp=F
 DIIS: error= 1.05D-07 at cycle  17 NSaved=  17.
 NSaved=17 IEnMin=17 EnMin= -1887.22473394686     IErMin=17 ErrMin= 1.05D-07
 ErrMax= 1.05D-07  0.00D+00 EMaxC= 1.00D-01 BMatC= 1.12D-11 BMatP= 3.16D-11
 IDIUse=1 WtCom= 1.00D+00 WtEn= 0.00D+00
 Coeff-Com: -0.163D-05 0.224D-05-0.260D-06 0.117D-05-0.897D-05-0.754D-04
 Coeff-Com: -0.652D-04 0.940D-04 0.507D-03 0.139D-02 0.215D-02-0.922D-02
 Coeff-Com: -0.169D-01-0.568D-01 0.141D-01 0.438D+00 0.627D+00
 Coeff:     -0.163D-05 0.224D-05-0.260D-06 0.117D-05-0.897D-05-0.754D-04
 Coeff:     -0.652D-04 0.940D-04 0.507D-03 0.139D-02 0.215D-02-0.922D-02
 Coeff:     -0.169D-01-0.568D-01 0.141D-01 0.438D+00 0.627D+00
 Gap=     0.108 Goal=   None    Shift=    0.000
 Gap=     0.142 Goal=   None    Shift=    0.000
 RMSDP=2.19D-08 MaxDP=2.09D-06 DE=-6.87D-11 OVMax= 1.67D-06

 Cycle  18  Pass 1  IDiag  1:
 RMSU=  1.56D-08    CP:  8.63D-01  1.73D-01  7.53D-01  6.94D-01  9.50D-01
                    CP:  1.06D+00  9.75D-01  1.19D+00  8.76D-01  1.16D+00
                    CP:  8.61D-01  8.62D-01  1.12D+00  1.14D+00  1.23D+00
                    CP:  1.17D+00  8.98D-01
 E= -1887.22473394682     Delta-E=        0.000000000037 Rises=F Damp=F
 DIIS: error= 5.73D-08 at cycle  18 NSaved=  18.
 NSaved=18 IEnMin=17 EnMin= -1887.22473394686     IErMin=18 ErrMin= 5.73D-08
 ErrMax= 5.73D-08  0.00D+00 EMaxC= 1.00D-01 BMatC= 2.68D-12 BMatP= 1.12D-11
 IDIUse=1 WtCom= 1.00D+00 WtEn= 0.00D+00
 Coeff-Com: -0.315D-06 0.312D-06-0.770D-06 0.122D-05 0.647D-06 0.142D-05
 Coeff-Com: -0.198D-05-0.186D-03-0.958D-04 0.412D-03 0.184D-02 0.475D-02
 Coeff-Com:  0.226D-02-0.248D-01-0.699D-01-0.107D+00 0.272D+00 0.920D+00
 Coeff:     -0.315D-06 0.312D-06-0.770D-06 0.122D-05 0.647D-06 0.142D-05
 Coeff:     -0.198D-05-0.186D-03-0.958D-04 0.412D-03 0.184D-02 0.475D-02
 Coeff:      0.226D-02-0.248D-01-0.699D-01-0.107D+00 0.272D+00 0.920D+00
 Gap=     0.108 Goal=   None    Shift=    0.000
 Gap=     0.142 Goal=   None    Shift=    0.000
 RMSDP=1.83D-08 MaxDP=2.22D-06 DE= 3.73D-11 OVMax= 1.50D-06

 Cycle  19  Pass 1  IDiag  1:
 RMSU=  1.03D-08    CP:  8.63D-01  1.73D-01  7.53D-01  6.94D-01  9.50D-01
                    CP:  1.06D+00  9.75D-01  1.19D+00  8.76D-01  1.16D+00
                    CP:  8.62D-01  8.59D-01  1.12D+00  1.14D+00  1.27D+00
                    CP:  1.19D+00  1.07D+00  1.13D+00
 E= -1887.22473394687     Delta-E=       -0.000000000048 Rises=F Damp=F
 DIIS: error= 3.25D-08 at cycle  19 NSaved=  19.
 NSaved=19 IEnMin=19 EnMin= -1887.22473394687     IErMin=19 ErrMin= 3.25D-08
 ErrMax= 3.25D-08  0.00D+00 EMaxC= 1.00D-01 BMatC= 1.08D-12 BMatP= 2.68D-12
 IDIUse=1 WtCom= 1.00D+00 WtEn= 0.00D+00
 Coeff-Com:  0.190D-06-0.269D-06-0.221D-06 0.409D-06 0.227D-05 0.144D-04
 Coeff-Com:  0.169D-04-0.133D-03-0.134D-03-0.141D-03 0.561D-03 0.462D-02
 Coeff-Com:  0.511D-02-0.261D-03-0.430D-01-0.166D+00-0.212D-01 0.511D+00
 Coeff-Com:  0.709D+00
 Coeff:      0.190D-06-0.269D-06-0.221D-06 0.409D-06 0.227D-05 0.144D-04
 Coeff:      0.169D-04-0.133D-03-0.134D-03-0.141D-03 0.561D-03 0.462D-02
 Coeff:      0.511D-02-0.261D-03-0.430D-01-0.166D+00-0.212D-01 0.511D+00
 Coeff:      0.709D+00
 Gap=     0.108 Goal=   None    Shift=    0.000
 Gap=     0.142 Goal=   None    Shift=    0.000
 RMSDP=7.18D-09 MaxDP=5.69D-07 DE=-4.77D-11 OVMax= 7.93D-07

 Error on total polarization charges =  0.02920
 SCF Done:  E(UB3LYP) =  -1887.22473395     A.U. after   19 cycles
            NFock= 19  Conv=0.72D-08     -V/T= 2.0035
 <Sx>= 0.0000 <Sy>= 0.0000 <Sz>= 0.5000 <S**2>= 0.7590 S= 0.5045
 <L.S>=  0.00000000000    
 KE= 1.880631449576D+03 PE=-8.910990058167D+03 EE= 2.916601165139D+03
 Annihilation of the first spin contaminant:
 S**2 before annihilation     0.7590,   after     0.7500
 Leave Link  502 at Sun Feb 11 01:22:44 2024, MaxMem=  4026531840 cpu:           11369.3 elap:            1491.9
 (Enter /sysapps/ubuntu-applications/gaussian/Gaussian/AVX2/g16/l601.exe)
 Copying SCF densities to generalized density rwf, IOpCl= 1 IROHF=0.

 **********************************************************************

            Population analysis using the SCF density.

 **********************************************************************

 Alpha  occ. eigenvalues -- -101.56190-101.56186 -19.07671 -19.07602 -10.24755
 Alpha  occ. eigenvalues --  -10.24707 -10.22228 -10.22132 -10.18748 -10.18744
 Alpha  occ. eigenvalues --  -10.18181 -10.18128 -10.17157 -10.16800 -10.16078
 Alpha  occ. eigenvalues --  -10.15832 -10.15812 -10.15795 -10.15775 -10.15745
 Alpha  occ. eigenvalues --  -10.15729 -10.15705 -10.15692 -10.15452 -10.15326
 Alpha  occ. eigenvalues --   -9.47638  -9.47634  -7.24095  -7.24091  -7.23132
 Alpha  occ. eigenvalues --   -7.23129  -7.23082  -7.23079  -1.00279  -0.99987
 Alpha  occ. eigenvalues --   -0.91441  -0.86068  -0.84833  -0.81866  -0.80858
 Alpha  occ. eigenvalues --   -0.79209  -0.76881  -0.75726  -0.74828  -0.73580
 Alpha  occ. eigenvalues --   -0.70768  -0.68134  -0.66099  -0.64673  -0.62104
 Alpha  occ. eigenvalues --   -0.60528  -0.58413  -0.57601  -0.57182  -0.56969
 Alpha  occ. eigenvalues --   -0.55536  -0.51974  -0.49243  -0.48806  -0.48289
 Alpha  occ. eigenvalues --   -0.47049  -0.46083  -0.44395  -0.44254  -0.43748
 Alpha  occ. eigenvalues --   -0.43236  -0.43024  -0.42339  -0.41912  -0.41528
 Alpha  occ. eigenvalues --   -0.41237  -0.40767  -0.39987  -0.39478  -0.38698
 Alpha  occ. eigenvalues --   -0.38619  -0.38350  -0.37679  -0.37452  -0.36372
 Alpha  occ. eigenvalues --   -0.35989  -0.35476  -0.35215  -0.34935  -0.33842
 Alpha  occ. eigenvalues --   -0.33579  -0.33395  -0.33279  -0.32561  -0.32506
 Alpha  occ. eigenvalues --   -0.32085  -0.32061  -0.31813  -0.31686  -0.31529
 Alpha  occ. eigenvalues --   -0.29895  -0.26576  -0.26306  -0.24812  -0.24076
 Alpha  occ. eigenvalues --   -0.23611  -0.15295
 Alpha virt. eigenvalues --   -0.04462  -0.02356  -0.01364  -0.00470  -0.00145
 Alpha virt. eigenvalues --    0.00528   0.00777   0.00827   0.01412   0.01587
 Alpha virt. eigenvalues --    0.02030   0.02471   0.02672   0.03116   0.03639
 Alpha virt. eigenvalues --    0.03763   0.04250   0.04348   0.04493   0.04567
 Alpha virt. eigenvalues --    0.05188   0.05459   0.05562   0.05730   0.05918
 Alpha virt. eigenvalues --    0.06260   0.06409   0.06590   0.06880   0.07138
 Alpha virt. eigenvalues --    0.07617   0.07925   0.08294   0.08595   0.08889
 Alpha virt. eigenvalues --    0.09177   0.09512   0.09730   0.09970   0.10157
 Alpha virt. eigenvalues --    0.10342   0.10533   0.10890   0.11046   0.11616
 Alpha virt. eigenvalues --    0.11954   0.12290   0.12470   0.12515   0.12737
 Alpha virt. eigenvalues --    0.12820   0.12883   0.13093   0.13165   0.13357
 Alpha virt. eigenvalues --    0.13506   0.13762   0.13882   0.14002   0.14105
 Alpha virt. eigenvalues --    0.14193   0.14583   0.14665   0.14792   0.15091
 Alpha virt. eigenvalues --    0.15276   0.15390   0.15588   0.15764   0.16015
 Alpha virt. eigenvalues --    0.16217   0.16543   0.16813   0.17018   0.17157
 Alpha virt. eigenvalues --    0.17245   0.17448   0.17686   0.17807   0.18231
 Alpha virt. eigenvalues --    0.18444   0.18670   0.18720   0.18969   0.19075
 Alpha virt. eigenvalues --    0.19240   0.19486   0.19661   0.19889   0.20251
 Alpha virt. eigenvalues --    0.20515   0.20539   0.20673   0.20858   0.21152
 Alpha virt. eigenvalues --    0.21263   0.21510   0.21595   0.21930   0.22246
 Alpha virt. eigenvalues --    0.22599   0.22973   0.23421   0.23548   0.23847
 Alpha virt. eigenvalues --    0.23986   0.24376   0.24479   0.24531   0.25026
 Alpha virt. eigenvalues --    0.25130   0.25297   0.25421   0.25667   0.25880
 Alpha virt. eigenvalues --    0.26072   0.26256   0.26474   0.26980   0.27248
 Alpha virt. eigenvalues --    0.27503   0.27692   0.28041   0.28404   0.28488
 Alpha virt. eigenvalues --    0.28757   0.29379   0.29651   0.30117   0.30758
 Alpha virt. eigenvalues --    0.30901   0.31124   0.31253   0.31533   0.31655
 Alpha virt. eigenvalues --    0.32184   0.32361   0.32489   0.32976   0.33070
 Alpha virt. eigenvalues --    0.33198   0.33528   0.33625   0.33856   0.33969
 Alpha virt. eigenvalues --    0.34464   0.34568   0.34947   0.35146   0.35534
 Alpha virt. eigenvalues --    0.35771   0.36072   0.36727   0.36829   0.37297
 Alpha virt. eigenvalues --    0.37943   0.38029   0.38268   0.39143   0.39302
 Alpha virt. eigenvalues --    0.39900   0.40445   0.41322   0.41439   0.41843
 Alpha virt. eigenvalues --    0.41989   0.42468   0.42769   0.43019   0.44349
 Alpha virt. eigenvalues --    0.44383   0.44947   0.45146   0.45507   0.46623
 Alpha virt. eigenvalues --    0.46768   0.47139   0.47233   0.47514   0.47823
 Alpha virt. eigenvalues --    0.48233   0.48449   0.49574   0.50220   0.50830
 Alpha virt. eigenvalues --    0.51932   0.52601   0.53198   0.54261   0.54437
 Alpha virt. eigenvalues --    0.54959   0.55504   0.56070   0.56548   0.56921
 Alpha virt. eigenvalues --    0.58202   0.59374   0.59508   0.59702   0.60037
 Alpha virt. eigenvalues --    0.60582   0.61463   0.61980   0.62458   0.62924
 Alpha virt. eigenvalues --    0.63343   0.64180   0.64828   0.65267   0.65724
 Alpha virt. eigenvalues --    0.65813   0.66034   0.66496   0.66927   0.67071
 Alpha virt. eigenvalues --    0.67160   0.67454   0.68248   0.68496   0.68536
 Alpha virt. eigenvalues --    0.69029   0.69064   0.69451   0.70016   0.70289
 Alpha virt. eigenvalues --    0.70609   0.71475   0.71640   0.71901   0.72079
 Alpha virt. eigenvalues --    0.72507   0.72820   0.73170   0.73304   0.73898
 Alpha virt. eigenvalues --    0.74212   0.74977   0.75210   0.75407   0.75818
 Alpha virt. eigenvalues --    0.76257   0.76343   0.76767   0.77425   0.77679
 Alpha virt. eigenvalues --    0.78109   0.78418   0.78586   0.78932   0.79370
 Alpha virt. eigenvalues --    0.79591   0.79880   0.80619   0.80859   0.81461
 Alpha virt. eigenvalues --    0.82165   0.82300   0.83138   0.84177   0.84635
 Alpha virt. eigenvalues --    0.84809   0.85593   0.85927   0.86340   0.87323
 Alpha virt. eigenvalues --    0.88310   0.89168   0.89636   0.90253   0.91662
 Alpha virt. eigenvalues --    0.92310   0.92513   0.93297   0.94344   0.94607
 Alpha virt. eigenvalues --    0.94788   0.95349   0.95595   0.96495   0.97944
 Alpha virt. eigenvalues --    0.98221   0.98794   0.99585   0.99696   1.00815
 Alpha virt. eigenvalues --    1.01785   1.01816   1.02733   1.02771   1.03857
 Alpha virt. eigenvalues --    1.04848   1.05287   1.05843   1.06145   1.06652
 Alpha virt. eigenvalues --    1.07615   1.07911   1.08948   1.09997   1.10781
 Alpha virt. eigenvalues --    1.11212   1.12632   1.13481   1.15399   1.17461
 Alpha virt. eigenvalues --    1.18306   1.20204   1.21434   1.22711   1.23566
 Alpha virt. eigenvalues --    1.24153   1.24211   1.25200   1.25492   1.25781
 Alpha virt. eigenvalues --    1.26309   1.26677   1.26923   1.27303   1.27496
 Alpha virt. eigenvalues --    1.28512   1.28644   1.28933   1.29466   1.30023
 Alpha virt. eigenvalues --    1.30267   1.31404   1.32880   1.33312   1.35938
 Alpha virt. eigenvalues --    1.36447   1.37955   1.39492   1.41751   1.43182
 Alpha virt. eigenvalues --    1.45521   1.46628   1.47800   1.48083   1.48423
 Alpha virt. eigenvalues --    1.49586   1.49957   1.50267   1.50863   1.52008
 Alpha virt. eigenvalues --    1.52801   1.54655   1.55480   1.55777   1.56428
 Alpha virt. eigenvalues --    1.56872   1.57536   1.57840   1.58430   1.59216
 Alpha virt. eigenvalues --    1.59964   1.60359   1.60919   1.61904   1.62133
 Alpha virt. eigenvalues --    1.62553   1.62915   1.63551   1.64635   1.65458
 Alpha virt. eigenvalues --    1.66024   1.66808   1.67336   1.67376   1.67792
 Alpha virt. eigenvalues --    1.68026   1.68459   1.68923   1.69383   1.70008
 Alpha virt. eigenvalues --    1.70183   1.70570   1.72001   1.72454   1.72508
 Alpha virt. eigenvalues --    1.73248   1.74062   1.74380   1.75271   1.75424
 Alpha virt. eigenvalues --    1.75710   1.75853   1.76947   1.78225   1.78289
 Alpha virt. eigenvalues --    1.80276   1.81380   1.82647   1.83315   1.83547
 Alpha virt. eigenvalues --    1.84746   1.85102   1.85492   1.86110   1.86828
 Alpha virt. eigenvalues --    1.87985   1.88072   1.88501   1.89957   1.90241
 Alpha virt. eigenvalues --    1.91070   1.91849   1.92673   1.93416   1.94522
 Alpha virt. eigenvalues --    1.95268   1.95447   1.96207   1.97094   1.99855
 Alpha virt. eigenvalues --    2.01491   2.02084   2.03224   2.04036   2.04877
 Alpha virt. eigenvalues --    2.06770   2.07267   2.08292   2.09028   2.10727
 Alpha virt. eigenvalues --    2.11692   2.12014   2.13297   2.15246   2.16149
 Alpha virt. eigenvalues --    2.16794   2.18119   2.18923   2.21507   2.22189
 Alpha virt. eigenvalues --    2.22696   2.23299   2.23900   2.24398   2.25000
 Alpha virt. eigenvalues --    2.25562   2.26882   2.27107   2.27994   2.28544
 Alpha virt. eigenvalues --    2.28745   2.29805   2.30860   2.31100   2.31836
 Alpha virt. eigenvalues --    2.32912   2.33798   2.34860   2.35594   2.36765
 Alpha virt. eigenvalues --    2.37958   2.38302   2.39499   2.41142   2.41413
 Alpha virt. eigenvalues --    2.42323   2.42810   2.44054   2.44907   2.45215
 Alpha virt. eigenvalues --    2.46554   2.47279   2.48057   2.48576   2.51499
 Alpha virt. eigenvalues --    2.51664   2.52576   2.52889   2.53522   2.54709
 Alpha virt. eigenvalues --    2.55845   2.56320   2.57304   2.57859   2.58773
 Alpha virt. eigenvalues --    2.59644   2.59854   2.60882   2.61274   2.61649
 Alpha virt. eigenvalues --    2.62717   2.63581   2.64199   2.64519   2.65100
 Alpha virt. eigenvalues --    2.65300   2.66267   2.66461   2.68312   2.69011
 Alpha virt. eigenvalues --    2.70126   2.71080   2.71487   2.71953   2.72417
 Alpha virt. eigenvalues --    2.73547   2.74953   2.75773   2.76235   2.76978
 Alpha virt. eigenvalues --    2.77936   2.78856   2.79516   2.80391   2.81675
 Alpha virt. eigenvalues --    2.81771   2.82461   2.83278   2.83795   2.84021
 Alpha virt. eigenvalues --    2.84742   2.85386   2.86670   2.88326   2.88625
 Alpha virt. eigenvalues --    2.89203   2.91219   2.91869   2.93203   2.94307
 Alpha virt. eigenvalues --    2.95087   2.95669   2.96105   2.97301   2.97410
 Alpha virt. eigenvalues --    2.97978   2.98426   2.98908   2.99290   3.02040
 Alpha virt. eigenvalues --    3.03534   3.04993   3.08101   3.09284   3.09907
 Alpha virt. eigenvalues --    3.10507   3.12749   3.13507   3.14826   3.17382
 Alpha virt. eigenvalues --    3.19688   3.20654   3.21266   3.23925   3.27582
 Alpha virt. eigenvalues --    3.29137   3.30812   3.31370   3.33214   3.35731
 Alpha virt. eigenvalues --    3.36339   3.37261   3.43371   3.46755   3.48542
 Alpha virt. eigenvalues --    3.50484   3.51486   3.52931   3.56450   3.57862
 Alpha virt. eigenvalues --    3.61029   3.72557   3.77325   3.77963   3.79190
 Alpha virt. eigenvalues --    3.79756   3.80914   3.81407   3.81657   3.82940
 Alpha virt. eigenvalues --    3.84167   3.85035   3.86127   3.86350   3.88010
 Alpha virt. eigenvalues --    3.90096   3.91086   3.92947   3.98167   4.05982
 Alpha virt. eigenvalues --    4.07407   4.10101   4.14147   4.19157   4.19440
 Alpha virt. eigenvalues --    4.25190   4.26861   4.29965   4.32183   4.37743
 Alpha virt. eigenvalues --    4.39101   4.41564   4.42859   4.82990   4.84862
 Alpha virt. eigenvalues --    5.08930   5.11857   5.28768   5.32142   5.76251
 Alpha virt. eigenvalues --    5.84502   9.76858   9.79862  23.46403  23.75671
 Alpha virt. eigenvalues --   23.87536  23.87902  23.89394  23.89650  23.90010
 Alpha virt. eigenvalues --   23.90291  23.91158  23.92217  23.92534  23.92930
 Alpha virt. eigenvalues --   23.93648  23.96255  23.97268  23.98533  24.00034
 Alpha virt. eigenvalues --   24.02157  24.08595  24.12120  24.14015  25.78448
 Alpha virt. eigenvalues --   25.87450  26.11087  26.20775  26.51281  26.81638
 Alpha virt. eigenvalues --   50.05896  50.10895 215.76083 215.79411
  Beta  occ. eigenvalues -- -101.56187-101.56184 -19.07045 -19.06989 -10.24708
  Beta  occ. eigenvalues --  -10.24661 -10.22063 -10.21969 -10.18752 -10.18747
  Beta  occ. eigenvalues --  -10.18108 -10.18054 -10.17037 -10.16681 -10.16078
  Beta  occ. eigenvalues --  -10.15832 -10.15812 -10.15795 -10.15774 -10.15744
  Beta  occ. eigenvalues --  -10.15722 -10.15706 -10.15693 -10.15452 -10.15337
  Beta  occ. eigenvalues --   -9.47635  -9.47632  -7.24096  -7.24092  -7.23123
  Beta  occ. eigenvalues --   -7.23119  -7.23081  -7.23078  -0.99203  -0.98889
  Beta  occ. eigenvalues --   -0.91355  -0.86025  -0.84555  -0.81670  -0.80805
  Beta  occ. eigenvalues --   -0.79150  -0.76806  -0.75560  -0.74669  -0.73455
  Beta  occ. eigenvalues --   -0.70579  -0.68015  -0.65623  -0.64432  -0.62051
[...]
 00000021,-0.00000006,-0.00000021,-0.00000013,0.00000005,0.00000031,0.0
 0000027,0.00000004,0.00000006,-0.00000003,0.00000031,-0.00000007,0.000
 00006,0.,-0.00000091,-0.00000026,0.00000022,0.00000118,0.00000122,0.00
 000071,0.00000059,-0.00000030,0.00000014,-0.00000115,0.00000017,-0.000
 00124,-0.00000287,0.00000036,0.00001138,0.00000667,-0.00000476,0.00000
 606,-0.00001464,0.00001160,0.00003085,-0.00005936,-0.00006037,0.000018
 55,-0.00000465,-0.00006522,-0.00021719,0.00000620,-0.00007847,-0.00077
 045,0.00093068,0.00004748,0.00245307,0.00043781,0.00132302,-0.00676655
 ,-0.01477424,-0.02736531,0.02525501,0.10421395,-0.00000013,-0.00000005
 ,0.00000003,0.00000036,-0.00000005,0.00000012,-0.00000007,-0.00000014,
 0.00000003,0.00000017,0.00000036,0.00000014,0.00000006,-0.00000026,-0.
 00000014,-0.00000011,0.00000003,0.00000007,0.00000137,-0.00000147,-0.0
 0000024,-0.00000140,-0.00000035,-0.00000118,0.00000056,-0.00000036,0.0
 0000292,-0.00000015,-0.00000112,-0.00000103,-0.00000089,0.00000195,0.0
 0000061,-0.00000120,0.00000111,0.00000085,0.00000007,0.00000004,0.0000
 0025,-0.00000386,0.00000174,-0.00000309,-0.00000370,-0.00000397,0.0000
 0867,-0.00001304,0.00000858,-0.00001881,-0.00001232,-0.00001864,0.0000
 3855,-0.00006861,0.00006132,-0.00004340,0.00000612,0.00018752,0.000451
 12,0.00094749,0.00004705,0.00041125,-0.00396540,-0.00552426,-0.0118677
 5,-0.04596821,-0.09581830,-0.23204832,-0.00303893,-0.00942929,-0.01883
 872,-0.00000004,0.00000003,0.00000001,-0.00000033,0.00000015,-0.000000
 09,0.00000001,0.00000004,-0.00000008,0.00000015,0.00000006,-0.00000014
 ,-0.00000015,0.00000016,-0.00000009,0.00000002,-0.00000023,-0.00000029
 ,0.,0.,0.00000034,0.00000019,-0.00000016,-0.00000028,0.,0.00000041,0.0
 0000056,-0.00000027,0.00000090,-0.00000054,0.00000031,0.00000006,-0.00
 000008,-0.00000014,-0.00000141,0.00000025,0.00000080,0.00000122,0.0000
 0231,-0.00000049,0.00000425,-0.00000201,-0.00000260,-0.00000005,-0.000
 00511,-0.00000064,-0.00000842,0.00000323,-0.00001104,0.00000281,0.0000
 0597,-0.00000857,0.00001531,-0.00003013,0.00019522,-0.00006021,0.00000
 240,-0.00004118,0.00000696,0.00003987,-0.00041414,0.00001687,0.0006586
 5,0.00038102,0.00033319,0.00030654,-0.00217139,0.00136191,-0.00019212,
 0.00117427,0.00164330,0.00549484,0.04982678,0.10597083,0.25584615,0.00
 000005,0.00000008,-0.00000006,-0.00000017,-0.00000008,0.00000012,-0.00
 000002,0.00000004,-0.00000023,0.00000013,-0.00000010,-0.00000018,-0.00
 000021,0.00000007,0.00000008,-0.00000003,-0.00000008,0.00000018,-0.000
 00016,0.00000011,0.00000007,0.00000019,0.00000009,0.00000011,-0.000000
 22,-0.00000012,-0.00000037,0.00000007,0.00000028,0.00000004,0.00000018
 ,-0.00000017,-0.00000003,0.00000029,-0.00000010,-0.00000004,0.,0.00000
 005,0.00000003,0.00000086,-0.00000026,0.00000045,0.00000081,0.00000039
 ,-0.00000191,0.00000284,-0.00000219,0.00000402,0.00000404,0.00000491,-
 0.00000890,0.00002731,-0.00001630,0.00001652,0.00000893,-0.00003452,-0
 .00012694,-0.00000281,-0.00012347,0.00015104,0.00188595,0.00044615,0.0
 0073345,0.00410910,0.01280525,0.02308442,-0.05533738,-0.02221052,-0.04
 242964,0.00000005,0.00000006,0.00000005,0.00000013,-0.00000004,0.00000
 001,-0.00000002,0.,0.,0.,0.,-0.00000002,0.,0.,0.,0.00000004,0.00000003
 ,0.00000004,0.,0.00000002,-0.00000005,-0.00000005,0.00000008,0.0000000
 5,-0.00000005,-0.00000011,-0.00000007,0.00000003,-0.00000011,0.0000000
 5,-0.00000024,-0.00000002,0.00000009,0.00000004,0.00000036,-0.00000007
 ,-0.00000009,-0.00000040,-0.00000028,-0.00000007,-0.00000053,-0.000000
 09,0.00000011,0.00000039,0.00000107,-0.00000066,0.00000149,0.00000069,
 0.00000136,-0.00000083,-0.00000031,0.00000191,-0.00000248,0.00000253,-
 0.00003007,0.00001178,-0.00001046,0.00000573,0.00000413,0.00000556,-0.
 00004639,-0.00005356,-0.00018719,-0.00007640,0.00002568,-0.00005692,-0
 .00012341,-0.00023443,-0.00045491,0.00108347,0.00000063,-0.00095626,-0
 .00366105,-0.00044509,0.00358112,0.05878558,-0.00000003,0.00000002,0.0
 0000007,0.00000003,-0.00000005,-0.00000001,-0.00000006,0.,-0.00000003,
 0.00000003,-0.00000018,-0.00000002,-0.00000010,0.00000021,-0.00000005,
 0.00000008,-0.00000003,0.00000009,0.00000010,0.00000003,-0.00000016,-0
 .00000010,-0.00000006,0.00000016,-0.00000003,0.00000019,-0.00000031,0.
 00000013,-0.00000033,0.00000013,0.,-0.00000001,0.00000026,-0.00000012,
 0.00000009,0.00000035,0.00000004,-0.00000002,0.,0.00000060,-0.00000029
 ,0.00000012,0.00000044,0.00000072,-0.00000139,0.00000145,-0.00000216,0
 .00000176,0.00000315,0.00000174,-0.00000742,0.00001156,-0.00000618,0.0
 0001404,0.00002829,-0.00000315,-0.00005826,0.00014248,0.00000587,0.000
 17736,0.00002852,0.00005383,-0.00017618,0.00104646,0.00190962,0.004665
 35,-0.02175255,-0.10209206,-0.10262135,0.00000005,0.00000007,0.0000000
 8,0.00000003,-0.00000002,0.00000006,0.00000004,0.00000001,-0.00000008,
 0.00000005,0.00000007,-0.00000010,0.00000004,-0.00000002,-0.00000007,-
 0.00000004,0.00000008,-0.00000012,-0.00000005,-0.00000002,0.00000013,-
 0.00000009,-0.00000009,0.,-0.00000008,0.00000007,0.00000019,-0.0000000
 2,-0.00000031,-0.00000009,0.00000020,0.00000026,0.00000026,-0.00000004
 ,0.00000004,-0.00000003,-0.00000020,0.00000016,0.00000025,-0.00000024,
 -0.00000065,-0.00000022,0.00000037,0.00000098,0.00000078,-0.00000039,0
 .00000031,-0.00000025,-0.00000054,-0.00000065,0.00000012,0.00000037,-0
 .00000262,-0.00000053,-0.00000213,0.00000667,0.00000169,-0.00000931,-0
 .00001514,0.00001177,-0.00005170,-0.00002704,0.00001359,-0.00001158,-0
 .00001816,-0.00004214,0.00024759,-0.00003545,-0.00003948,0.00069298,0.
 00060976,0.00007080,-0.00079257,0.00120044,0.00080343,0.02502466,0.106
 26192,-0.00000007,0.00000015,0.00000002,-0.00000003,-0.00000005,-0.000
 00002,-0.00000039,-0.00000016,-0.00000029,0.00000027,-0.00000058,-0.00
 000006,-0.00000070,0.00000066,-0.00000008,0.00000033,-0.00000011,0.000
 00022,-0.00000015,-0.00000017,0.00000003,0.00000014,0.00000007,0.00000
 004,-0.00000019,0.00000039,-0.00000114,0.00000089,-0.00000177,-0.00000
 022,0.00000032,0.00000022,0.00000025,-0.00000005,0.00000163,0.00000076
 ,-0.00000007,-0.00000007,0.00000014,0.00000231,-0.00000137,0.00000125,
 0.00000161,0.00000186,-0.00000523,0.00000645,-0.00000621,0.00000914,0.
 00000859,0.00000621,-0.00002484,0.00001356,-0.00002431,0.00003667,0.00
 006172,0.00005883,-0.00004392,0.00015087,0.00016545,0.00037995,-0.0012
 8358,0.00029018,0.00067901,-0.00354838,-0.00974621,-0.01931466,-0.0414
 2086,-0.10221689,-0.23779068,0.00000027,0.00000034,0.00000031,0.000000
 27,-0.00000009,0.00000013,-0.00000003,-0.00000002,-0.00000004,0.000000
 03,0.00000005,-0.00000007,0.00000002,-0.00000003,-0.00000006,0.0000001
 4,0.00000017,-0.00000015,-0.00000008,0.00000002,0.00000011,-0.00000005
 ,0.,-0.00000020,-0.00000015,0.00000007,0.00000020,-0.00000007,-0.00000
 037,0.,0.00000042,0.00000016,0.00000076,0.00000031,0.00000111,-0.00000
 063,-0.00000019,0.00000005,-0.00000028,-0.00000011,-0.00000164,0.00000
 055,0.00000040,0.00000119,0.00000236,0.00000168,0.00000460,-0.00000290
 ,0.00000097,-0.00000074,-0.00000667,-0.00000131,-0.00000917,0.00000274
 ,0.00002218,-0.00000521,0.00000573,0.00000389,0.00001759,-0.00003395,-
 0.00017287,0.00001576,0.00011085,0.00006847,-0.00004258,0.00003444,0.0
 0071449,-0.00012872,0.00057775,-0.00041355,0.00051568,0.00065909,0.003
 97369,0.00103684,-0.00179196,0.04288015,0.11304240,0.26107146,0.,-0.00
 000035,-0.00000024,0.00000060,0.00000002,0.00000043,0.00000086,0.00000
 012,0.00000056,-0.00000053,0.00000169,0.00000079,0.00000173,-0.0000018
 6,-0.00000017,-0.00000096,0.00000025,-0.00000038,0.00000256,-0.0000019
 5,-0.00000057,-0.00000256,-0.00000059,-0.00000224,0.00000111,-0.000001
 69,0.00000800,-0.00000217,0.00000189,-0.00000142,-0.00000224,0.0000026
 2,0.00000051,-0.00000199,-0.00000162,-0.00000012,0.00000029,0.00000003
 ,0.00000007,-0.00001160,0.00000620,-0.00000856,-0.00001073,-0.00001030
 ,0.00002802,-0.00003760,0.00003455,-0.00005480,-0.00005666,-0.00005581
 ,0.00013984,-0.00018396,0.00016921,-0.00026576,-0.00032588,-0.00026971
 ,0.00073214,-0.00089008,0.00102828,-0.00147933,-0.00249392,-0.00192110
 ,0.00552404,-0.02000344,0.00963390,-0.01115858,-0.22724989,0.08250441,
 -0.08430479,-0.00000068,-0.00000067,-0.00000062,-0.00000114,0.00000046
 ,-0.00000045,0.00000009,0.00000010,-0.00000006,0.00000019,0.,-0.000000
 08,-0.00000021,0.00000026,-0.00000001,-0.00000030,-0.00000067,-0.00000
 011,0.00000021,0.00000002,0.00000032,0.00000046,-0.00000034,-0.0000000
 7,0.00000023,0.00000063,0.00000049,0.00000002,0.00000220,-0.00000051,-
 0.00000008,-0.00000044,-0.00000177,-0.00000065,-0.00000512,0.00000130,
 0.00000094,0.00000212,0.00000487,0.00000121,0.00001036,-0.00000280,-0.
 00000227,-0.00000410,-0.00000965,-0.00000023,-0.00002184,0.00000394,0.
 00000767,0.00000947,0.00001800,0.00001585,0.00004563,-0.00000900,-0.00
 000116,-0.00002423,-0.00004374,-0.00001361,-0.00012899,0.00000988,0.00
 000628,0.00006235,0.00011883,0.00024367,0.00015100,0.00000565,0.000308
 75,-0.00018993,-0.00002584,0.00077440,-0.00060205,-0.00043896,0.001056
 17,0.00035655,0.00017732,-0.00481517,0.00157899,-0.00234981,0.24884079
 ,0.00000012,0.00000004,-0.00000002,-0.00000016,0.00000011,-0.00000026,
 -0.00000005,-0.00000004,0.00000002,-0.00000025,-0.00000028,0.00000017,
 0.,0.00000015,0.00000003,-0.00000002,-0.00000004,-0.00000005,-0.000000
 27,0.00000046,0.00000008,0.00000024,0.00000020,0.00000013,0.00000005,-
 0.00000013,-0.00000028,-0.00000004,0.00000045,0.00000010,0.00000029,-0
 .00000053,-0.00000014,0.00000028,-0.00000034,-0.00000009,-0.00000009,0
 .00000002,-0.00000004,0.00000022,-0.00000025,0.,0.00000045,0.00000163,
 0.00000031,-0.00000005,-0.00000037,0.00000074,-0.00000451,-0.00000863,
 -0.00000430,-0.00000654,0.00000063,0.00000308,-0.00003983,0.00001028,0
 .00002730,-0.00014452,0.00044310,0.00016777,-0.00041640,0.00050410,0.0
 0034055,-0.00493327,0.00069745,-0.00237343,0.08319638,-0.08455762,0.03
 852383,0.00000009,0.00000006,0.00000005,0.00000015,-0.00000007,0.00000
 008,-0.00000004,-0.00000003,0.00000005,-0.00000007,-0.00000002,0.00000
 004,0.00000002,-0.00000004,0.00000001,0.00000003,-0.00000003,-0.000000
 04,-0.00000002,0.,-0.00000006,-0.00000005,0.00000003,0.00000007,0.0000
 0003,-0.00000002,-0.00000011,-0.00000007,0.00000007,0.00000020,-0.0000
 0011,0.00000003,-0.00000006,0.00000019,0.00000012,-0.00000024,-0.00000
 005,-0.00000022,-0.00000025,0.00000074,-0.00000018,0.00000059,-0.00000
 020,0.,0.00000006,-0.00000201,-0.00000138,0.00000109,0.00000101,0.0000
 0020,-0.00000232,0.00000583,-0.00000525,0.00000627,0.00000262,-0.00000
 181,0.00000025,0.00007317,-0.00000588,-0.00006057,-0.00003438,-0.00001
 104,0.00001178,-0.00030450,0.00037226,-0.00011719,0.00021026,-0.000059
 36,0.00023590,0.00014613,0.00045970,-0.00055061,0.00029944,-0.00001480
 ,-0.00010780,-0.01357000,0.00604890,-0.00533105,-0.09105544,0.08737381
 ,-0.00000004,0.00000009,0.00000004,-0.00000018,-0.00000025,0.00000030,
 -0.00000014,0.00000020,-0.00000026,0.00000061,-0.00000036,-0.00000063,
 -0.00000069,0.00000066,-0.00000011,0.00000028,-0.00000013,0.00000033,-
 0.00000085,0.00000051,0.00000014,0.00000083,-0.00000010,0.00000126,-0.
 00000075,0.00000083,-0.00000363,0.00000100,-0.00000081,0.00000083,0.00
 000059,-0.00000082,-0.00000002,0.00000056,0.00000062,0.00000021,0.0000
 0004,0.00000018,-0.00000020,0.00000513,-0.00000301,0.00000398,0.000005
 42,0.00000569,-0.00001255,0.00001844,-0.00001625,0.00002509,0.00003156
 ,0.00002084,-0.00007122,0.00010399,-0.00008302,0.00012441,0.00024992,0
 .00014005,-0.00040162,0.00097675,-0.00040611,0.00086232,0.00237119,0.0
 0107790,-0.00284538,0.01933003,-0.00950118,0.00883646,-0.08577046,0.03
 886708,-0.08601750,0.00000009,0.00000009,0.00000012,0.00000024,-0.0000
 0009,0.00000005,0.00000004,0.,-0.00000005,0.00000003,0.00000005,-0.000
 00006,0.00000014,-0.00000010,-0.00000007,-0.00000002,0.00000027,0.0000
 0007,-0.00000005,-0.00000001,-0.00000004,-0.00000026,0.00000010,0.,-0.
 00000005,-0.00000018,-0.00000023,0.00000009,-0.00000118,0.00000017,0.0
 0000018,0.00000038,0.00000083,0.00000012,0.00000201,-0.00000040,-0.000
 00063,-0.00000106,-0.00000179,-0.00000089,-0.00000503,0.00000081,0.000
 00044,0.00000280,0.00000416,0.,0.00001008,-0.00000034,-0.00000240,-0.0
 0000571,-0.00000987,-0.00001625,-0.00001828,-0.00000171,-0.00000965,0.
 00001833,0.00001199,-0.00000878,0.00005446,0.00001150,-0.00008397,-0.0
 0005153,-0.00000341,-0.00012239,-0.00005893,-0.00012902,0.00022087,0.0
 0014932,0.00023839,-0.00088587,-0.00002077,0.00077556,-0.00082345,-0.0
 0029890,0.00096184,-0.02269283,0.01167078,-0.01061894,0.09102919,-0.04
 318934,0.09124105,0.00000004,0.00000010,-0.00000012,-0.00000011,-0.000
 00007,0.00000013,0.,0.00000003,-0.00000017,0.00000001,-0.00000004,0.00
 000007,-0.00000007,0.00000011,-0.00000011,0.00000002,-0.00000006,0.000
 00003,0.00000008,-0.00000027,0.00000006,-0.00000009,0.00000007,-0.0000
 0016,0.00000009,0.00000007,0.00000002,0.00000004,-0.00000054,0.0000000
 7,0.,0.00000034,-0.00000006,0.00000002,0.00000059,-0.00000012,-0.00000
 002,0.00000002,0.00000007,0.00000002,-0.00000015,0.,0.00000034,0.00000
 004,-0.00000006,0.00000061,-0.00000137,0.00000068,0.00000016,-0.000000
 97,-0.00000264,0.00001902,-0.00000426,0.00000494,0.00001801,0.00009196
 ,-0.00002263,-0.00002325,0.00010239,0.00012463,0.00154746,-0.00134368,
 -0.00019786,-0.00493772,-0.02553596,0.00450048,-0.05210137,-0.03625618
 ,0.00608806,0.00000003,0.00000003,0.00000004,0.00000003,0.,-0.00000003
 ,-0.00000004,-0.00000002,0.00000005,-0.00000002,-0.00000003,0.00000006
 ,-0.00000010,0.00000002,0.00000005,0.00000013,-0.00000005,0.00000009,0
 .00000002,0.00000006,-0.00000006,0.00000006,0.00000013,-0.00000007,-0.
 00000005,-0.00000010,-0.00000007,-0.00000023,0.00000032,0.,-0.00000004
 ,-0.00000008,0.,0.00000023,0.00000045,0.00000012,-0.00000008,-0.000000
 12,0.,-0.00000006,0.00000003,0.00000042,0.00000004,-0.00000001,-0.0000
 0008,0.00000118,-0.00000095,0.00000061,-0.00000108,-0.00000086,0.00000
 066,-0.00002947,0.00001438,-0.00000889,0.00000133,-0.00000240,0.000000
 66,0.00005322,0.00016724,-0.00009535,0.00000382,-0.00001107,-0.0000011
 0,-0.00015002,0.00058452,-0.00012521,-0.00007721,0.00003967,-0.0000426
 3,-0.00363185,-0.00051547,0.00354059,0.00103326,0.00063649,-0.00056442
 ,-0.00182452,-0.00618676,0.00127823,0.00484560,0.02657521,-0.00392717,
 0.05525255,-0.00000014,-0.00000003,-0.00000008,0.00000034,0.,0.0000001
 3,-0.00000001,-0.00000011,-0.00000002,0.00000012,0.00000040,0.00000022
 ,0.00000005,-0.00000027,-0.00000017,-0.00000007,0.00000006,-0.00000005
 ,0.00000089,-0.00000134,-0.00000009,-0.00000091,-0.00000016,-0.0000008
 0,0.00000081,-0.00000005,0.00000154,-0.00000016,-0.00000138,-0.0000005
 6,-0.00000064,0.00000170,0.00000006,-0.00000075,0.00000152,0.00000011,
 0.,-0.00000002,0.00000023,-0.00000243,0.00000090,-0.00000143,-0.000001
 83,-0.00000222,0.00000522,-0.00000690,0.00000553,-0.00000972,-0.000010
 60,-0.00001155,0.00002383,-0.00002710,0.00002466,-0.00004231,-0.000068
 32,-0.00004225,0.00010497,-0.00007022,0.00044262,-0.00018789,0.0004984
 4,0.00063297,-0.00017145,-0.00062762,-0.00357198,0.00093713,-0.0372260
 2,-0.28815236,0.04468454,-0.00000006,-0.00000002,-0.00000006,-0.000000
 31,0.00000016,-0.00000013,-0.00000004,0.,0.00000007,0.00000002,-0.0000
 0007,0.00000008,-0.00000018,0.00000013,0.00000003,0.00000011,-0.000000
 26,0.,0.00000010,0.00000004,-0.00000003,0.00000029,0.00000014,-0.00000
 020,0.,-0.00000001,0.00000011,-0.00000012,0.00000101,-0.00000010,0.,-0
 .00000029,-0.00000027,0.00000019,-0.00000027,-0.00000002,0.00000006,0.
 00000026,0.00000108,0.00000051,0.00000306,-0.00000043,-0.00000034,-0.0
 0000096,-0.00000147,-0.00000216,-0.00000406,0.00000244,0.00000047,0.00
 000112,0.00000451,-0.00000228,0.00000506,0.00000293,-0.00000273,-0.000
 00331,-0.00000845,0.00015573,-0.00005941,-0.00006227,-0.00000011,-0.00
 000916,0.00001525,-0.00060212,0.00029303,-0.00019932,-0.00003098,-0.00
 002644,-0.00000910,-0.00054575,0.00145878,0.00089152,-0.00013869,0.000
 71410,0.00050497,-0.00163120,-0.01389733,0.00235586,-0.00130450,-0.011
 24543,0.00163982,0.04164719,0.31344350,0.00000001,-0.00000002,0.000000
 09,-0.00000015,0.00000002,-0.00000008,-0.00000002,0.,0.00000003,-0.000
 00003,-0.00000009,-0.00000016,0.00000006,0.00000013,-0.00000004,0.0000
 0004,-0.00000003,0.,-0.00000043,0.00000056,0.00000008,0.00000045,0.000
 00012,0.00000040,-0.00000032,0.00000008,-0.00000073,0.,0.00000047,0.00
 000038,0.00000032,-0.00000071,-0.00000021,0.00000042,-0.00000053,-0.00
 000026,0.00000001,0.00000002,-0.00000012,0.00000099,-0.00000043,0.0000
 0075,0.00000064,0.00000105,-0.00000190,0.00000246,-0.00000274,0.000003
 57,0.00000317,0.00000482,-0.00000760,-0.00000288,-0.00000134,0.0000138
 3,-0.00000762,-0.00006012,-0.00001397,-0.00006732,-0.00012963,-0.00003
 447,-0.00117590,0.00006060,0.00043378,0.00362497,0.02177907,-0.0047848
 7,0.00616227,0.04402560,-0.05497722,0.00000003,0.00000001,0.,0.0000001
 4,-0.00000006,0.00000004,0.,0.,0.00000002,-0.00000004,-0.00000001,0.00
 000003,0.00000006,-0.00000005,0.00000004,-0.00000002,0.00000006,0.0000
 0007,0.,-0.00000001,-0.00000008,-0.00000007,0.,0.00000005,0.00000005,-
 0.00000003,-0.00000016,0.00000016,-0.00000029,0.00000020,-0.00000008,-
 0.00000005,0.00000003,0.00000010,0.00000022,-0.00000020,0.00000003,-0.
 00000019,-0.00000074,-0.00000017,-0.00000059,0.00000048,0.00000020,-0.
 00000010,0.00000068,0.00000140,0.00000283,-0.00000304,0.00000074,-0.00
 000063,-0.00000327,0.00002239,-0.00000529,0.00000683,-0.00000030,0.000
 00130,0.00000399,-0.00008891,-0.00006929,0.00004227,0.00000507,0.00000
 807,-0.00003825,0.00019379,-0.00045630,0.00026848,0.00005634,-0.000061
 79,0.00004294,0.00393524,0.00047456,-0.00208070,-0.00093754,0.00002104
 ,0.00060802,-0.00353417,-0.02752773,0.00606303,0.00235626,0.01241767,-
 0.00298287,-0.01055183,-0.05048023,0.05744083\\0.00000934,0.00001477,0
 .00001091,0.00000539,-0.00002825,-0.00000755,-0.00001286,0.00002848,0.
 00000227,-0.00001005,-0.00001523,-0.00001129,-0.00001630,0.00000905,-0
 .00000787,0.00001473,-0.00000733,0.00000365,0.00001228,0.00002690,0.00
 000890,-0.00000697,-0.00000865,0.00000589,-0.00000768,-0.00000016,-0.0
 0000498,0.00001983,-0.00001358,0.00000664,-0.00000221,-0.00001542,-0.0
 0000211,-0.00000437,0.00001074,0.00000142,0.00000264,0.00000161,0.0000
 0007,0.00000414,-0.00000047,0.00000221,0.00000222,0.,-0.00000478,-0.00
 000113,-0.00000011,0.00000191,0.00000078,-0.00000033,0.00000110,-0.000
 00089,0.00000033,-0.00000086,0.00000088,-0.00000066,0.00000116,-0.0000
 0081,0.00000060,-0.00000088,0.00000044,-0.00000042,0.00000124,0.000000
 04,0.00000057,-0.00000096,-0.00000043,0.00000003,0.00000065,0.00000046
 ,-0.00000190,-0.00000237,-0.00000199,0.00000468,-0.00000083,-0.0000027
 1,-0.00000103,-0.00000201,-0.00000258,0.00000200,-0.00000220,0.0000023
 5,-0.00000159,0.00000275,-0.00000089,-0.00000041,-0.00000036,-0.000001
 55,0.00000058,-0.00000196,-0.00000115,-0.00000052,0.00000229,0.0000002
 0,-0.00000377,-0.00000530,-0.00000231,0.00000119,0.00000300,0.00000081
 ,0.00000217,0.00000068,0.00000133,-0.00000104,-0.00000026,-0.00000076,
 -0.00000164,-0.00000059,-0.00000058,-0.00000002,0.00000055,0.00000020,
 0.00000007,-0.00000102,0.00000011,-0.00000074,-0.00000025,-0.00000012,
 -0.00000063,-0.00000005,0.,0.00000039,0.00000053,-0.00000007,0.0000001
 2,-0.00000046,-0.00000009,-0.00000069,-0.00000040,0.00000013,-0.000000
 44,0.00000026,0.00000013,0.00000054,0.00000064,-0.00000007,0.00000018,
 -0.00000032,-0.00000017,-0.00000055,-0.00000030,0.00000007,-0.00000039
 ,0.00000043,0.00000024,0.00000031,-0.00000005,-0.00000025,0.00000020,0
 .00000016,0.00000026,0.00000048,0.00000070\\\@


 DEMOCRATS BUY MOST OF THE BOOKS THAT HAVE BEEN
 BANNED; REPUBLICANS FORM CENSORSHIP COMMITTEES AND
 READ THEM AS A GROUP.
 Job cpu time:       1 days 16 hours 28 minutes 39.2 seconds.
 Elapsed time:       0 days  5 hours  5 minutes 52.3 seconds.
 File lengths (MBytes):  RWF=   5183 Int=      0 D2E=      0 Chk=     78 Scr=      1
 Normal termination of Gaussian 16 at Sun Feb 11 09:27:09 2024.
