
Running Job 1 of 1 286-COSMO.in
qchem 286-COSMO.in_3013391.0 /expanse/lustre/scratch/selhajj/temp_project/qcscratch/28916193/qchem3013391/ 0
/cm/shared/apps/spack/cpu/opt/spack/linux-centos8-zen2/gcc-10.2.0/qchem-5.4-akfmr7b3t57bfs6qan3padb2wnb2i7cl/exe/qcprog.exe_s 286-COSMO.in_3013391.0 /expanse/lustre/scratch/selhajj/temp_project/qcscratch/28916193/qchem3013391/
                  Welcome to Q-Chem
     A Quantum Leap Into The Future Of Chemistry


 Q-Chem 5.4, Q-Chem, Inc., Pleasanton, CA (2021)

 License issued to: University of California, San Diego (site)

 E. Epifanovsky,  A. T. B. Gilbert,  Xintian Feng,  Joonho Lee,  Yuezhi Mao,  
 N. Mardirossian,  P. Pokhilko,  A. White,  M. Wormit,  M. P. Coons,  
 A. L. Dempwolff,  Zhengting Gan,  D. Hait,  P. R. Horn,  L. D. Jacobson,  
 I. Kaliman,  J. Kussmann,  A. W. Lange,  Ka Un Lao,  D. S. Levine,  Jie Liu,  
 S. C. McKenzie,  A. F. Morrison,  K. Nanda,  F. Plasser,  D. R. Rehn,  
 M. L. Vidal,  Zhi-Qiang You,  Ying Zhu,  B. Alam,  B. Albrecht,  
 A. Aldossary,  E. Alguire,  J. H. Andersen,  D. Barton,  K. Begam,  A. Behn,  
 Y. A. Bernard,  E. J. Berquist,  H. Burton,  A. Carreras,  K. Carter-Fenk,  
 R. Chakraborty,  A. D. Chien,  K. D. Closser,  V. Cofer-Shabica,  
 S. Dasgupta,  Jia Deng,  M. de Wergifosse,  M. Diedenhofen,  Hainam Do,  
 S. Ehlert,  Po-Tung Fang,  S. Fatehi,  Qingguo Feng,  J. Gayvert,  
 Qinghui Ge,  G. Gidofalvi,  M. Goldey,  J. Gomes,  C. Gonzalez-Espinoza,  
 S. Gulania,  A. Gunina,  M. W. D. Hanson-Heine,  P. H. P. Harbach,  
 A. W. Hauser,  M. F. Herbst,  M. Hernandez Vera,  M. Hodecker,  
 Z. C. Holden,  S. Houck,  Xunkun Huang,  Kerwin Hui,  B. C. Huynh,  
 M. Ivanov,  Hyunjun Ji,  Hanjie Jiang,  B. Kaduk,  S. Kaehler,  
 K. Khistyaev,  Jaehoon Kim,  P. Klunzinger,  Z. Koczor-Benda,  
 Joong Hoon Koh,  D. Kosenkov,  L. Koulias,  T. Kowalczyk,  C. M. Krauter,  
 K. Kue,  A. Kunitsa,  T. Kus,  A. Landau,  K. V. Lawler,  D. Lefrancois,  
 S. Lehtola,  Rain Li,  Yi-Pei Li,  Jiashu Liang,  M. Liebenthal,  
 Hung-Hsuan Lin,  You-Sheng Lin,  Fenglai Liu,  Kuan-Yu Liu,  
 M. Loipersberger,  A. Luenser,  A. Manjanath,  P. Manohar,  E. Mansoor,  
 S. F. Manzer,  Shan-Ping Mao,  A. V. Marenich,  T. Markovich,  S. Mason,  
 S. A. Maurer,  P. F. McLaughlin,  M. F. S. J. Menger,  J.-M. Mewes,  
 S. A. Mewes,  P. Morgante,  J. W. Mullinax,  T. S. Nguyen-Beck,  
 K. J. Oosterbaan,  G. Paran,  Alexander C. Paul,  Suranjan K. Paul,  
 F. Pavosevic,  Zheng Pei,  S. Prager,  E. I. Proynov,  E. Ramos,  B. Rana,  
 A. E. Rask,  A. Rettig,  R. M. Richard,  F. Rob,  E. Rossomme,  T. Scheele,  
 M. Scheurer,  M. Schneider,  N. Sergueev,  S. M. Sharada,  W. Skomorowski,  
 D. W. Small,  C. J. Stein,  Yu-Chuan Su,  E. J. Sundstrom,  Zhen Tao,  
 J. Thirman,  T. Tsuchimochi,  N. M. Tubman,  S. P. Veccham,  O. Vydrov,  
 J. Wenzel,  J. Witte,  A. Yamada,  Kun Yao,  S. Yeganeh,  S. R. Yost,  
 A. Zech,  Igor Ying Zhang,  Xing Zhang,  Yu Zhang,  D. Zuev,  
 A. Aspuru-Guzik,  A. T. Bell,  N. A. Besley,  K. B. Bravaya,  B. R. Brooks,  
 D. Casanova,  Jeng-Da Chai,  S. Coriani,  C. J. Cramer,  
 A. E. DePrince, III,  R. A. DiStasio Jr.,  A. Dreuw,  B. D. Dunietz,  
 T. R. Furlani,  W. A. Goddard III,  S. Grimme,  S. Hammes-Schiffer,  
 T. Head-Gordon,  W. J. Hehre,  Chao-Ping Hsu,  T.-C. Jagau,  Yousung Jung,  
 A. Klamt,  Jing Kong,  D. S. Lambrecht,  WanZhen Liang,  N. J. Mayhall,  
 C. W. McCurdy,  J. B. Neaton,  C. Ochsenfeld,  J. A. Parkhill,  R. Peverati,  
 V. A. Rassolov,  Yihan Shao,  L. V. Slipchenko,  T. Stauch,  R. P. Steele,  
 J. E. Subotnik,  A. J. W. Thom,  A. Tkatchenko,  D. G. Truhlar,  
 T. Van Voorhis,  T. A. Wesolowski,  K. B. Whaley,  H. L. Woodcock III,  
 P. M. Zimmerman,  S. Faraji,  P. M. W. Gill,  M. Head-Gordon,  
 J. M. Herbert,  A. I. Krylov

 Contributors to earlier versions of Q-Chem not listed above: 
 R. D. Adamson,  B. Austin,  R. Baer,  J. Baker,  G. J. O. Beran,  
 K. Brandhorst,  S. T. Brown,  E. F. C. Byrd,  A. K. Chakraborty,  
 G. K. L. Chan,  Chun-Min Chang,  Yunqing Chen,  C.-L. Cheng,  
 Siu Hung Chien,  D. M. Chipman,  D. L. Crittenden,  H. Dachsel,  
 R. J. Doerksen,  A. D. Dutoi,  R. G. Edgar,  J. Fosso-Tande,  
 L. Fusti-Molnar,  D. Ghosh,  A. Ghysels,  A. Golubeva-Zadorozhnaya,  
 J. Gonthier,  M. S. Gordon,  S. R. Gwaltney,  G. Hawkins,  J. E. Herr,  
 A. Heyden,  S. Hirata,  E. G. Hohenstein,  G. Kedziora,  F. J. Keil,  
 C. Kelley,  Jihan Kim,  R. A. King,  R. Z. Khaliullin,  P. P. Korambath,  
 W. Kurlancheek,  A. Laurent,  A. M. Lee,  M. S. Lee,  S. V. Levchenko,  
 Ching Yeh Lin,  D. Liotard,  E. Livshits,  R. C. Lochan,  I. Lotan,  
 L. A. Martinez-Martinez,  P. E. Maslen,  N. Nair,  D. P. O'Neill,  
 D. Neuhauser,  E. Neuscamman,  C. M. Oana,  R. Olivares-Amaya,  R. Olson,  
 T. M. Perrine,  B. Peters,  P. A. Pieniazek,  A. Prociuk,  Y. M. Rhee,  
 J. Ritchie,  M. A. Rohrdanz,  E. Rosta,  N. J. Russ,  H. F. Schaefer III,  
 M. W. Schmidt,  N. E. Schultz,  S. Sharma,  N. Shenvi,  C. D. Sherrill,  
 A. C. Simmonett,  A. Sodt,  T. Stein,  D. Stuck,  K. S. Thanthiriwatte,  
 V. Vanovschi,  L. Vogt,  Tao Wang,  A. Warshel,  M. A. Watson,  
 C. F. Williams,  Q. Wu,  X. Xu,  Jun Yang,  W. Zhang,  Yan Zhao

 Please cite Q-Chem as follows:
 Y. Shao et al., Mol. Phys. 113, 184-215 (2015)
 DOI: 10.1080/00268976.2014.952696

 Q-Chem 5.4.0 for Intel X86 EM64T Linux

 Parts of Q-Chem use Armadillo 9.800.1 (Horizon Scraper).
 http://arma.sourceforge.net/

 Q-Chem begins on Sat Feb 24 17:43:27 2024  

 Host: 
0

     Scratch files written to /expanse/lustre/scratch/selhajj/temp_project/qcscratch/28916193/qchem3013391//
 May1621 |scratch|qcdevops|jenkins|workspace|build_RNUM    
 Processing $rem in /cm/shared/apps/spack/cpu/opt/spack/linux-centos8-zen2/gcc-10.2.0/qchem-5.4-akfmr7b3t57bfs6qan3padb2wnb2i7cl/config/preferences:
 Processing $rem in /home/selhajj/.qchemrc:

 Checking the input file for inconsistencies... 
 Q-Chem warning in module libgen/CheckREMs.C, line 172:

 Found a $solvent section, which is only used for PCM and Kirkwood-Onsager solvation models

	...done.

--------------------------------------------------------------
User input:
--------------------------------------------------------------
$molecule
0 1
C                 -0.2813380000      3.8277270000     -0.2049140000
C                 -1.5009200000      3.2198460000     -0.4864350000
C                 -1.5400720000      1.8765220000     -0.8646210000
C                  0.8997580000      3.0882560000     -0.3029590000
C                  0.8636270000      1.7366020000     -0.6829820000
C                 -0.3629890000      1.1367190000     -0.9624350000
C                  2.1997990000      3.7173910000     -0.0075430000
C                  3.4307270000      2.8850750000     -0.1329490000
C                  3.4206310000      1.5766590000     -0.4882910000
C                  2.1269150000      0.9294730000     -0.7915690000
O                  2.3341060000      4.8866400000      0.3359000000
O                  2.0753700000     -0.2466970000     -1.1235150000
H                 -0.2253940000      4.8681840000      0.0908860000
H                 -2.4196620000      3.7899910000     -0.4119590000
H                 -2.4912770000      1.4047620000     -1.0836670000
H                 -0.3754750000      0.0939320000     -1.2542270000
O                  4.5657480000      3.5464040000      0.1466590000
C                  4.6791100000      0.7656340000     -0.6178520000
C                  5.2488300000      0.7709920000     -2.0528590000
C                  6.5256330000     -0.0661040000     -2.1807230000
C                  7.1095400000     -0.0701350000     -3.5980000000
C                  8.3873180000     -0.9064920000     -3.7316810000
H                  4.2974540000      4.4540190000      0.3856990000
H                  4.4582660000     -0.2649000000     -0.3289120000
H                  5.4313590000      1.1592710000      0.0705050000
H                  5.4555290000      1.8044800000     -2.3532190000
H                  4.4877560000      0.3860090000     -2.7397860000
H                  6.3129610000     -1.0977860000     -1.8730840000
H                  7.2797360000      0.3134420000     -1.4791800000
H                  7.3193890000      0.9624430000     -3.9057270000
H                  6.3543780000     -0.4487840000     -4.2987050000
H                  8.1772250000     -1.9389630000     -3.4236830000
H                  9.1421400000     -0.5282620000     -3.0300210000
C                  8.9725800000     -0.9115720000     -5.1482150000
H                  9.1829830000      0.1208190000     -5.4571240000
H                  8.2182040000     -1.2898720000     -5.8505250000
C                 10.2503030000     -1.7475690000     -5.2840620000
C                 10.8273250000     -1.7464010000     -6.7027160000
H                 10.0403380000     -2.7792540000     -4.9763550000
H                 11.0045320000     -1.3696180000     -4.5830070000
H                 10.1088680000     -2.1519100000     -7.4222460000
H                 11.7366290000     -2.3507670000     -6.7656210000
H                 11.0802730000     -0.7315760000     -7.0260000000
$end
$rem
MAX_SCF_CYCLES=200
SCF_Guess=core
BASIS  =  6-311++G(d,p)
GUI  =  2
JOB_TYPE  =  SP
METHOD  =  B3LYP
THRESH = 14
SCF_CONVERGENCE = 8
SOLVENT_METHOD = COSMO
$end
$solvent
dielectric 37.219
opticaldielectric 1.43
$end




--------------------------------------------------------------
 ----------------------------------------------------------------
             Standard Nuclear Orientation (Angstroms)
    I     Atom           X                Y                Z
 ----------------------------------------------------------------
    1      C       5.2702037211    -0.1459900475    -0.9086624321
    2      C       5.9266460796     1.0793235562    -0.9706595340
    3      C       5.2970635307     2.2327533031    -0.4991698397
    4      C       3.9815406343    -0.2147403082    -0.3738364853
    5      C       3.3455873582     0.9438443697     0.1014912335
    6      C       4.0116781241     2.1663404165     0.0354086216
    7      C       3.2727753654    -1.5052705193    -0.3005450747
    8      C       1.8968470626    -1.5225084977     0.2740717434
    9      C       1.2661557470    -0.4198439633     0.7480777394
   10      C       1.9596283468     0.8836072296     0.6799668475
   11      O       3.7444471429    -2.5700127851    -0.6839304292
   12      O       1.4222389548     1.9032940529     1.0894449623
   13      H       5.7380009576    -1.0545808771    -1.2675587820
   14      H       6.9264079141     1.1372267859    -1.3851741280
   15      H       5.8101512429     3.1865038029    -0.5484707878
   16      H       3.5089845681     3.0511796235     0.4056274289
   17      O       1.3290122252    -2.7395163512     0.2903454082
   18      C      -0.1263166488    -0.4658250663     1.3113035927
   19      C      -1.2103565382    -0.1787796243     0.2500227114
   20      C      -2.6268615058    -0.2166011880     0.8325928980
   21      C      -3.7184351837     0.0620485980    -0.2068583663
   22      C      -5.1379700535     0.0256004259     0.3707855921
   23      H       1.9898000493    -3.3507811027    -0.0872809089
   24      H      -0.2032188153     0.2802642699     2.1060963206
   25      H      -0.3028575075    -1.4512138531     1.7500589566
   26      H      -1.1256316762    -0.9144827076    -0.5578143535
   27      H      -1.0227244536     0.8045632230    -0.1939877532
   28      H      -2.7028698992     0.5180031465     1.6442689903
   29      H      -2.8044909887    -1.1983293372     1.2903555979
   30      H      -3.6398091364    -0.6716247143    -1.0195644946
   31      H      -3.5392406547     1.0433540034    -0.6646369489
   32      H      -5.2162390198     0.7592158434     1.1836081993
   33      H      -5.3166297160    -0.9556164178     0.8295177262
   34      C      -6.2307286848     0.3039576065    -0.6672519033
   35      H      -6.1531363780    -0.4293869038    -1.4807078841
   36      H      -6.0527415847     1.2852542037    -1.1263934458
   37      C      -7.6510162959     0.2681879014    -0.0915565967
   38      C      -8.7355860572     0.5474127458    -1.1361985657
   39      H      -7.7292237157     1.0012860209     0.7205970740
   40      H      -7.8295519875    -0.7122486593     0.3667616478
   41      H      -8.6046680404     1.5360155382    -1.5877142604
   42      H      -9.7353201068     0.5146058397    -0.6940395419
   43      H      -8.7057076464    -0.1904286902    -1.9443212741
 ----------------------------------------------------------------
 Molecular Point Group                 C1    NOp =  1
 Largest Abelian Subgroup              C1    NOp =  1
 Nuclear Repulsion Energy =        1535.03065453 hartrees
 There are       77 alpha and       77 beta electrons
 Requested basis set is 6-311++G(d,p)
 There are 236 shells and 616 basis functions

 Total QAlloc Memory Limit   8000 MB
 Mega-Array Size       188 MB
 MEM_STATIC part       192 MB
 A cutoff of  1.0D-14 yielded  19665 shell pairs
 There are    133593 function pairs (    141932 Cartesian)
 Smallest overlap matrix eigenvalue = 2.51E-07
 Linear dependence detected in AO basis
 Tighter screening thresholds may be required for diffuse basis sets
 Use S2THRESH > 14 and THRESH = 14 in case of SCF convergence issues
 Number of orthogonalized atomic orbitals = 612
 Maximum deviation from orthogonality = 1.603E-10

 Scale SEOQF with 1.000000e-02/1.000000e-01/1.000000e-01

 Standard Electronic Orientation quadrupole field applied
 Nucleus-field energy     =     0.0000000225 hartrees
 Guess MOs from core Hamiltonian diagonalization

 -----------------------------------------------------------------------
  General SCF calculation program by
  Eric Jon Sundstrom, Paul Horn, Yuezhi Mao, Dmitri Zuev, Alec White,
  David Stuck, Shaama M.S., Shane Yost, Joonho Lee, David Small,
  Daniel Levine, Susi Lehtola, Hugh Burton, Evgeny Epifanovsky,
  Bang C. Huynh
 -----------------------------------------------------------------------
 Exchange:     0.2000 Hartree-Fock + 0.0800 Slater + 0.7200 B88
 Correlation:  0.1900 VWN1RPA + 0.8100 LYP
 Using SG-1 standard quadrature grid
 using 8 threads for integral computing
 -------------------------------------------------------
 OpenMP Integral computing Module                
 Release: version 1.0, May 2013, Q-Chem Inc. Pittsburgh 
 -------------------------------------------------------
 A restricted SCF calculation will be
 performed using DIIS
 SCF converges when DIIS error is below 1.0e-08
 ---------------------------------------
  Cycle       Energy         DIIS error
 ---------------------------------------
    1    -256.3970136645      8.66e-02  
    2    1065.4738093399      1.11e-01  
    3     213.4466164849      1.04e-01  
    4    -394.6629464454      7.52e-02  
    5    -670.2176141736      5.11e-02  
    6    -453.7563782245      6.41e-02  
    7    -831.6391248433      3.01e-02  
    8    -223.1585311736      7.72e-02  
    9    -385.4637337004      6.83e-02  
   10    -431.0705427706      6.46e-02  
   11    -468.4578804138      6.47e-02  
   12    -495.4049061687      6.17e-02  
   13    -501.3104007814      6.24e-02  
   14    -501.9672473914      6.24e-02  
   15    -502.1611408861      6.23e-02  
   16    -502.1513863911      6.22e-02  
   17    -610.2697381368      5.56e-02  
   18    -514.2666961158      6.06e-02  
   19    -699.5253295584      4.78e-02  
   20    -572.2760881085      6.14e-02  
   21    -481.1658161997      7.16e-02  
   22    -869.1854819819      2.01e-02  
   23    -259.6466993527      8.52e-02  
   24    -537.9603040734      5.72e-02  
   25    -655.6043638681      4.37e-02  
   26    -771.5792818381      3.26e-02  
   27    -910.7823574104      1.21e-02  
   28    -900.0635175933      1.51e-02  
   29    -923.0174973086      5.58e-03  
   30    -923.1920002852      5.84e-03  
   31    -924.6984191023      2.86e-03  
   32    -925.0486644712      1.23e-03  
   33    -925.1118600364      4.08e-04  
   34    -925.1181661220      1.97e-04  
   35    -925.1196717399      7.69e-05  
   36    -925.1198990805      3.36e-05  
   37    -925.1199399627      1.02e-05  
   38    -925.1199431862      6.22e-06  
   39    -925.1199449013      2.07e-06  
   40    -925.1199450719      8.78e-07  
   41    -925.1199451082      2.08e-07  
   42    -925.1199451096      1.26e-07  
   43    -925.1199451102      4.79e-08  
   44    -925.1199451103      1.66e-08  
   45    -925.1199451103      6.97e-09  Convergence criterion met
 ---------------------------------------
 SCF time:   CPU 5106.92s  wall 652.00s 
 SCF   energy in the final basis set =     -925.1199451103
 Total energy in the final basis set =     -925.1199451103
 Exchange:     0.2000 Hartree-Fock + 0.0800 Slater + 0.7200 B88
 Correlation:  0.1900 VWN1RPA + 0.8100 LYP
 Using SG-1 standard quadrature grid
 in get_qchem_info
 IBasis=      401111
 IBasis=      401111
 USING 1082 GRID
 MICHARGE=           0
 Set epsilon to    37.2190017700195     
==== cosmo data ====
outfile: 286-COSMO.out.cosmo.0
phsran:    0.00000D+00
ampran:    0.10000D-04
volume:   2453.8971580
area:   1207.8188387
routf:      0.8500000
rsolv [a.u]:      2.4566438
disex:     10.0000000
disex2:   4069.3701955
fepsi:      0.9602322
eps :    37.2190018
lcavity:     1
nppa:  1082
nspa:    92
nsph:    32
maxnps:  2636
natoms:    43
Atom   Radius [a.u.] nuc. charge
    1      3.7794520    6
    2      3.7794520    6
    3      3.7794520    6
    4      3.7794520    6
    5      3.7794520    6
    6      3.7794520    6
    7      3.7794520    6
    8      3.7794520    6
    9      3.7794520    6
   10      3.7794520    6
   11      3.2503287    8
   12      3.2503287    8
   13      2.4566438    1
   14      2.4566438    1
   15      2.4566438    1
   16      2.4566438    1
   17      3.2503287    8
   18      3.7794520    6
   19      3.7794520    6
   20      3.7794520    6
   21      3.7794520    6
   22      3.7794520    6
   23      2.4566438    1
   24      2.4566438    1
   25      2.4566438    1
   26      2.4566438    1
   27      2.4566438    1
   28      2.4566438    1
   29      2.4566438    1
   30      2.4566438    1
   31      2.4566438    1
   32      2.4566438    1
   33      2.4566438    1
   34      3.7794520    6
   35      2.4566438    1
   36      2.4566438    1
   37      3.7794520    6
   38      3.7794520    6
   39      2.4566438    1
   40      2.4566438    1
   41      2.4566438    1
   42      2.4566438    1
   43      2.4566438    1
=== end cosmo data ===
 number of segments:         1587
 f_epsilon=  0.960232245562971     
Ediel:   -0.0126436
 A restricted SCF calculation will be
 performed using Roothaan-Hall, DIIS
 SCF converges when DIIS error is below 1.0e-08
 ---------------------------------------
  Cycle       Energy         DIIS error
 ---------------------------------------
 number of segments:         1587
 f_epsilon=  0.960232245562971     
Ediel:   -0.0171992
    1    -925.1325886976      1.14e-04  Roothaan Step
 ---------------------------------------
  Cycle       Energy         DIIS error
 ---------------------------------------
 number of segments:         1587
 f_epsilon=  0.960232245562971     
Ediel:   -0.0142463
    1    -925.1333156040      1.56e-04  
 number of segments:         1587
 f_epsilon=  0.960232245562971     
Ediel:   -0.0162018
    2    -925.1299593360      3.48e-04  
 number of segments:         1587
 f_epsilon=  0.960232245562971     
Ediel:   -0.0162838
    3    -925.1342081153      1.66e-05  
 number of segments:         1587
 f_epsilon=  0.960232245562971     
Ediel:   -0.0162950
    4    -925.1342178875      8.01e-06  
 number of segments:         1587
 f_epsilon=  0.960232245562971     
Ediel:   -0.0163029
    5    -925.1342206851      1.56e-06  
 number of segments:         1587
 f_epsilon=  0.960232245562971     
Ediel:   -0.0163016
    6    -925.1342207618      9.92e-07  
 number of segments:         1587
 f_epsilon=  0.960232245562971     
Ediel:   -0.0163015
    7    -925.1342208049      2.64e-07  
 number of segments:         1587
 f_epsilon=  0.960232245562971     
Ediel:   -0.0163014
    8    -925.1342208072      1.01e-07  
 number of segments:         1587
 f_epsilon=  0.960232245562971     
Ediel:   -0.0163013
    9    -925.1342208076      2.49e-08  
   10    -925.1342208076      9.30e-09  Convergence criterion met
 ---------------------------------------
 SCF time:   CPU 1175.96s  wall 150.00s 
before final oc correction, ETot:      -925.1342208076
 number of outlayer segments:          601
SCF energy after oc correction:      -925.1342534067
 SCF   energy in the final basis set =     -925.1342534067
 Total energy in the final basis set =     -925.1342208076
 
 --------------------------------------------------------------
 
                    Orbital Energies (a.u.)
 --------------------------------------------------------------
 
 Alpha MOs
 -- Occupied --
-19.1781 -19.1501 -19.1303 -10.2941 -10.2817 -10.2672 -10.2103 -10.2091
-10.2035 -10.2002 -10.1981 -10.1965 -10.1963 -10.1750 -10.1660 -10.1598
-10.1587 -10.1579 -10.1570 -10.1566 -10.1521  -1.1084  -1.0677  -1.0641
 -0.8922  -0.8437  -0.8095  -0.7944  -0.7798  -0.7748  -0.7462  -0.7121
 -0.6886  -0.6607  -0.6493  -0.6227  -0.6047  -0.5928  -0.5752  -0.5735
 -0.5713  -0.5425  -0.5185  -0.4976  -0.4818  -0.4771  -0.4717  -0.4688
 -0.4621  -0.4518  -0.4484  -0.4377  -0.4290  -0.4255  -0.4212  -0.4192
 -0.4067  -0.4060  -0.3918  -0.3868  -0.3804  -0.3772  -0.3705  -0.3615
 -0.3563  -0.3556  -0.3335  -0.3334  -0.3223  -0.3214  -0.3175  -0.3092
 -0.3028  -0.2896  -0.2800  -0.2798  -0.2563
 -- Virtual --
 -0.1260  -0.0559  -0.0252  -0.0072  -0.0004   0.0045   0.0088   0.0110
  0.0158   0.0185   0.0234   0.0255   0.0272   0.0338   0.0372   0.0423
  0.0462   0.0466   0.0515   0.0551   0.0564   0.0623   0.0632   0.0662
  0.0688   0.0741   0.0785   0.0808   0.0818   0.0870   0.0898   0.0958
  0.0987   0.1034   0.1065   0.1102   0.1145   0.1155   0.1175   0.1200
  0.1228   0.1243   0.1266   0.1283   0.1304   0.1306   0.1322   0.1346
  0.1383   0.1396   0.1422   0.1437   0.1452   0.1463   0.1493   0.1545
  0.1561   0.1564   0.1578   0.1625   0.1648   0.1659   0.1690   0.1699
  0.1727   0.1734   0.1742   0.1798   0.1853   0.1861   0.1875   0.1900
  0.1926   0.1965   0.1978   0.2019   0.2040   0.2055   0.2086   0.2101
  0.2112   0.2136   0.2145   0.2184   0.2208   0.2256   0.2286   0.2326
  0.2334   0.2363   0.2397   0.2405   0.2443   0.2481   0.2492   0.2522
  0.2553   0.2572   0.2641   0.2695   0.2708   0.2756   0.2763   0.2815
  0.2857   0.2867   0.2891   0.2915   0.2954   0.2985   0.3009   0.3027
  0.3051   0.3120   0.3149   0.3177   0.3204   0.3245   0.3278   0.3293
  0.3328   0.3368   0.3381   0.3398   0.3433   0.3486   0.3504   0.3530
  0.3604   0.3628   0.3676   0.3720   0.3762   0.3768   0.3833   0.3848
  0.3906   0.4006   0.4103   0.4123   0.4179   0.4227   0.4267   0.4316
  0.4367   0.4465   0.4519   0.4557   0.4594   0.4622   0.4853   0.4905
  0.4957   0.5029   0.5149   0.5194   0.5288   0.5340   0.5366   0.5485
  0.5560   0.5614   0.5657   0.5748   0.5756   0.5862   0.5935   0.5962
  0.5992   0.6102   0.6133   0.6215   0.6289   0.6306   0.6355   0.6428
  0.6470   0.6518   0.6549   0.6568   0.6612   0.6660   0.6725   0.6735
  0.6787   0.6848   0.6914   0.6971   0.7010   0.7031   0.7046   0.7112
  0.7167   0.7217   0.7251   0.7251   0.7313   0.7356   0.7379   0.7444
  0.7497   0.7547   0.7625   0.7680   0.7705   0.7748   0.7804   0.7822
  0.7898   0.7923   0.7930   0.8028   0.8069   0.8168   0.8264   0.8294
  0.8447   0.8574   0.8648   0.8699   0.8728   0.8851   0.8924   0.9132
  0.9240   0.9287   0.9321   0.9389   0.9456   0.9525   0.9586   0.9644
  0.9825   0.9859   1.0045   1.0078   1.0183   1.0259   1.0306   1.0394
  1.0471   1.0509   1.0589   1.0656   1.0711   1.0731   1.0859   1.0951
  1.1034   1.1135   1.1163   1.1343   1.1473   1.1647   1.1768   1.1926
  1.1981   1.2177   1.2192   1.2331   1.2419   1.2513   1.2554   1.2597
  1.2614   1.2666   1.2772   1.2809   1.2858   1.2976   1.3111   1.3197
  1.3537   1.3562   1.3815   1.4219   1.4311   1.4447   1.4497   1.4687
  1.4738   1.4816   1.4851   1.4960   1.5033   1.5107   1.5166   1.5238
  1.5365   1.5573   1.5662   1.5724   1.5771   1.5868   1.5913   1.5969
  1.6003   1.6048   1.6169   1.6270   1.6274   1.6394   1.6453   1.6491
  1.6596   1.6620   1.6714   1.6723   1.6774   1.6792   1.6874   1.6960
  1.6996   1.7103   1.7266   1.7284   1.7313   1.7371   1.7412   1.7457
  1.7499   1.7541   1.7571   1.7584   1.7656   1.7749   1.7926   1.7979
  1.8165   1.8199   1.8473   1.8505   1.8574   1.8641   1.8755   1.8879
  1.8894   1.9026   1.9077   1.9183   1.9202   1.9265   1.9356   1.9467
  1.9486   1.9608   1.9678   1.9741   1.9943   2.0077   2.0257   2.0562
  2.0663   2.0746   2.0855   2.0897   2.0957   2.1185   2.1221   2.1261
  2.1347   2.1549   2.1789   2.1850   2.2002   2.2078   2.2226   2.2366
  2.2535   2.2596   2.2738   2.2820   2.2854   2.2875   2.3144   2.3436
  2.3461   2.3519   2.3593   2.3753   2.3890   2.4000   2.4188   2.4237
  2.4422   2.4486   2.4512   2.4727   2.4833   2.4874   2.5043   2.5302
  2.5381   2.5504   2.5542   2.5674   2.5853   2.5927   2.6026   2.6067
  2.6150   2.6231   2.6321   2.6365   2.6430   2.6494   2.6598   2.6681
  2.6725   2.6807   2.6980   2.7110   2.7217   2.7278   2.7375   2.7488
  2.7516   2.7536   2.7613   2.7670   2.7736   2.7747   2.7927   2.8071
  2.8110   2.8202   2.8224   2.8312   2.8398   2.8408   2.8461   2.8637
  2.8719   2.8776   2.8847   2.9128   2.9170   2.9274   2.9388   2.9464
  2.9597   2.9660   2.9760   2.9841   2.9907   3.0231   3.0317   3.0411
  3.0721   3.0801   3.0915   3.1020   3.1164   3.1579   3.1671   3.1689
  3.1812   3.2171   3.2318   3.2479   3.2777   3.3212   3.3408   3.3463
  3.3693   3.4019   3.4335   3.4478   3.4737   3.5062   3.5150   3.5255
  3.5454   3.5776   3.5816   3.6592   3.7767   3.7811   3.7880   3.7994
  3.8099   3.8191   3.8291   3.8429   3.8589   3.8649   3.8855   3.9124
  3.9294   4.0293   4.0582   4.0663   4.0898   4.1319   4.1605   4.1867
  4.1941   4.2353   4.2629   4.2883   4.3479   4.3990   4.4103   4.7431
  4.8345   4.9850   5.0508   5.0843   5.2395   5.2741   5.4999   5.6758
  5.7893   5.8012  23.5488  23.7078  23.8503  23.8818  23.8936  23.9002
 23.9065  23.9140  23.9199  23.9295  23.9403  23.9485  23.9632  23.9883
 24.0509  24.0794  24.1472  24.1695  49.9235  50.0189  50.0653
 --------------------------------------------------------------
 
          Ground-State Mulliken Net Atomic Charges

     Atom                 Charge (a.u.)
  ----------------------------------------
      1 C                     0.156018
      2 C                    -0.396455
      3 C                    -0.426758
      4 C                     0.530929
      5 C                    -0.144509
      6 C                     0.159298
      7 C                    -0.791336
      8 C                    -0.435214
      9 C                     1.891024
     10 C                    -0.753135
     11 O                    -0.332096
     12 O                    -0.297815
     13 H                     0.205791
     14 H                     0.230220
     15 H                     0.225868
     16 H                     0.205450
     17 O                    -0.238269
     18 C                    -0.393118
     19 C                    -0.726844
     20 C                    -0.126125
     21 C                     0.004435
     22 C                    -0.135052
     23 H                     0.324514
     24 H                     0.223994
     25 H                     0.238005
     26 H                     0.182546
     27 H                     0.184166
     28 H                     0.125824
     29 H                     0.123298
     30 H                     0.131931
     31 H                     0.132162
     32 H                     0.134572
     33 H                     0.134125
     34 C                    -0.351692
     35 H                     0.129352
     36 H                     0.129062
     37 C                    -0.263090
     38 C                    -0.706606
     39 H                     0.136219
     40 H                     0.136133
     41 H                     0.145472
     42 H                     0.152228
     43 H                     0.145478
  ----------------------------------------
  Sum of atomic charges =     0.000000

 -----------------------------------------------------------------
                    Cartesian Multipole Moments
 -----------------------------------------------------------------
    Charge (ESU x 10^10)
                -0.0000
    Dipole Moment (Debye)
         X       2.8002      Y       0.3612      Z      -1.2741
       Tot       3.0976
    Quadrupole Moments (Debye-Ang)
        XX    -103.5335     XY      12.0458     YY    -130.1349
        XZ      -5.8217     YZ      -4.3880     ZZ    -130.6770
    Octopole Moments (Debye-Ang^2)
       XXX     201.7820    XXY      72.5039    XYY      11.3872
       YYY      -1.9498    XXZ     -26.3977    XYZ     -18.0550
       YYZ      -5.7087    XZZ       5.1022    YZZ      -9.8154
       ZZZ       3.7637
    Hexadecapole Moments (Debye-Ang^3)
      XXXX  -14588.9784   XXXY     457.5316   XXYY   -2738.1189
      XYYY      96.0684   YYYY   -1419.1266   XXXZ    -385.8769
      XXYZ     -53.7137   XYYZ       1.2826   YYYZ     -16.2942
      XXZZ   -2736.2481   XYZZ     -16.3059   YYZZ    -366.6482
      XZZZ      -8.1672   YZZZ      12.7888   ZZZZ    -601.3761
 -----------------------------------------------------------------
 Total job time:  807.12s(wall), 6299.40s(cpu) 
 Sat Feb 24 17:56:54 2024

        *************************************************************
        *                                                           *
        *  Thank you very much for using Q-Chem.  Have a nice day.  *
        *                                                           *
        *************************************************************


