 Entering Gaussian System, Link 0=g16
 Input=104-rad.com
 Output=104-rad.log
 Initial command:
 /sysapps/ubuntu-applications/gaussian/Gaussian/AVX2/g16/l1.exe "/scratch/selhajj1/4219818/Gau-1445608.inp" -scrdir="/scratch/selhajj1/4219818/"
 Entering Link 1 = /sysapps/ubuntu-applications/gaussian/Gaussian/AVX2/g16/l1.exe PID=   1445629.
  
 Copyright (c) 1988,1990,1992,1993,1995,1998,2003,2009,2016,
            Gaussian, Inc.  All Rights Reserved.
  
 This is part of the Gaussian(R) 16 program.  It is based on
 the Gaussian(R) 09 system (copyright 2009, Gaussian, Inc.),
 the Gaussian(R) 03 system (copyright 2003, Gaussian, Inc.),
 the Gaussian(R) 98 system (copyright 1998, Gaussian, Inc.),
 the Gaussian(R) 94 system (copyright 1995, Gaussian, Inc.),
 the Gaussian 92(TM) system (copyright 1992, Gaussian, Inc.),
 the Gaussian 90(TM) system (copyright 1990, Gaussian, Inc.),
 the Gaussian 88(TM) system (copyright 1988, Gaussian, Inc.),
 the Gaussian 86(TM) system (copyright 1986, Carnegie Mellon
 University), and the Gaussian 82(TM) system (copyright 1983,
 Carnegie Mellon University). Gaussian is a federally registered
 trademark of Gaussian, Inc.
  
 This software contains proprietary and confidential information,
 including trade secrets, belonging to Gaussian, Inc.
  
 This software is provided under written license and may be
 used, copied, transmitted, or stored only in accord with that
 written license.
  
 The following legend is applicable only to US Government
 contracts under FAR:
  
                    RESTRICTED RIGHTS LEGEND
  
 Use, reproduction and disclosure by the US Government is
 subject to restrictions as set forth in subparagraphs (a)
 and (c) of the Commercial Computer Software - Restricted
 Rights clause in FAR 52.227-19.
  
 Gaussian, Inc.
 340 Quinnipiac St., Bldg. 40, Wallingford CT 06492
  
  
 ---------------------------------------------------------------
 Warning -- This program may not be used in any manner that
 competes with the business of Gaussian, Inc. or will provide
 assistance to any competitor of Gaussian, Inc.  The licensee
 of this program is prohibited from giving any competitor of
 Gaussian, Inc. access to this program.  By using this program,
 the user acknowledges that Gaussian, Inc. is engaged in the
 business of creating and licensing software in the field of
 computational chemistry and represents and warrants to the
 licensee that it is not a competitor of Gaussian, Inc. and that
 it will not use this program in any manner prohibited above.
 ---------------------------------------------------------------
  

 Cite this work as:
 Gaussian 16, Revision A.03,
 M. J. Frisch, G. W. Trucks, H. B. Schlegel, G. E. Scuseria, 
 M. A. Robb, J. R. Cheeseman, G. Scalmani, V. Barone, 
 G. A. Petersson, H. Nakatsuji, X. Li, M. Caricato, A. V. Marenich, 
 J. Bloino, B. G. Janesko, R. Gomperts, B. Mennucci, H. P. Hratchian, 
 J. V. Ortiz, A. F. Izmaylov, J. L. Sonnenberg, D. Williams-Young, 
 F. Ding, F. Lipparini, F. Egidi, J. Goings, B. Peng, A. Petrone, 
 T. Henderson, D. Ranasinghe, V. G. Zakrzewski, J. Gao, N. Rega, 
 G. Zheng, W. Liang, M. Hada, M. Ehara, K. Toyota, R. Fukuda, 
 J. Hasegawa, M. Ishida, T. Nakajima, Y. Honda, O. Kitao, H. Nakai, 
 T. Vreven, K. Throssell, J. A. Montgomery, Jr., J. E. Peralta, 
 F. Ogliaro, M. J. Bearpark, J. J. Heyd, E. N. Brothers, K. N. Kudin, 
 V. N. Staroverov, T. A. Keith, R. Kobayashi, J. Normand, 
 K. Raghavachari, A. P. Rendell, J. C. Burant, S. S. Iyengar, 
 J. Tomasi, M. Cossi, J. M. Millam, M. Klene, C. Adamo, R. Cammi, 
 J. W. Ochterski, R. L. Martin, K. Morokuma, O. Farkas, 
 J. B. Foresman, and D. J. Fox, Gaussian, Inc., Wallingford CT, 2016.
 
 ******************************************
 Gaussian 16:  ES64L-G16RevA.03 25-Dec-2016
                20-Dec-2023 
 ******************************************
 %chk=104-rad.chk
 %nproc=8
 Will use up to    8 processors via shared memory.
 %mem=30GB
 --------------------------------------
 #P UB3LYP/6-311++G(d,p) nosym opt freq
 --------------------------------------
 1/18=20,19=15,26=3,38=1/1,3;
 2/9=110,12=2,15=1,17=6,18=5,40=1/2;
 3/5=4,6=6,7=1111,11=2,25=1,30=1,71=1,74=-5,116=2/1,2,3;
 4//1;
 5/5=2,38=5/2;
 6/7=2,8=2,9=2,10=2,28=1/1;
 7/30=1/1,2,3,16;
 1/18=20,19=15,26=3/3(2);
 2/9=110,15=1/2;
 99//99;
 2/9=110,15=1/2;
 3/5=4,6=6,7=1111,11=2,25=1,30=1,71=1,74=-5,116=2/1,2,3;
 4/5=5,16=3,69=1/1;
 5/5=2,38=5/2;
 7/30=1/1,2,3,16;
 1/18=20,19=15,26=3/3(-5);
 2/9=110,15=1/2;
 6/7=2,8=2,9=2,10=2,19=2,28=1/1;
 99/9=1/99;
 Leave Link    1 at Wed Dec 20 01:21:58 2023, MaxMem=  4026531840 cpu:               1.6 elap:               0.3
 (Enter /sysapps/ubuntu-applications/gaussian/Gaussian/AVX2/g16/l101.exe)
 -------
 Radical
 -------
 Symbolic Z-matrix:
 Charge = -1 Multiplicity = 2
 C                    -2.33137  -2.31491   4.93889 
 C                    -1.23249  -3.22101   4.4622 
 C                    -1.04292  -3.31884   3.13578 
 C                    -1.84486  -2.59415   2.13827 
 C                    -2.91061  -1.71522   2.62552 
 C                    -3.16841  -1.55826   3.92717 
 O                    -2.57894  -2.163     6.13467 
 O                    -1.62615  -2.72321   0.94049 
 N                    -4.15287  -0.75077   4.47712 
 C                    -5.12515   0.11159   3.8367 
 C                    -6.52779  -0.37098   4.19332 
 C                    -4.90524   1.54502   4.3106 
 H                    -3.47107  -1.205     1.8543 
 H                    -4.1664   -0.78911   5.50143 
 H                    -5.02112   0.0907    2.74705 
 H                    -7.28883   0.26143   3.72446 
 H                    -6.69335  -0.35684   5.27654 
 H                    -6.68312  -1.39948   3.84921 
 H                    -5.62569   2.22496   3.84415 
 H                    -3.89788   1.88886   4.05105 
 H                    -5.01256   1.62877   5.398 
 C                    -0.3945   -3.9784    5.51374 
 C                    -1.29019  -4.91619   6.35121 
 C                     0.7021   -4.87445   4.88016 
 C                     0.33892  -2.98706   6.44241 
 H                    -0.27757  -3.94479   2.69243 
 H                    -2.01088  -4.37177   6.96817 
 H                    -0.68952  -5.52527   7.03735 
 H                    -1.85337  -5.60217   5.7076 
 H                     1.27954  -5.39842   5.65166 
 H                     1.41567  -4.28472   4.2928 
 H                     0.2691   -5.64265   4.22875 
 H                    -0.34728  -2.40185   7.06135 
 H                     0.94932  -2.28322   5.8645 
 H                     1.00796  -3.51522   7.13233 
 
 ITRead=  0  0  0  0  0  0  0  0  0  0  0  0  0  0  0  0  0  0  0  0
 ITRead=  0  0  0  0  0  0  0  0  0  0  0  0  0  0  0
 MicOpt= -1 -1 -1 -1 -1 -1 -1 -1 -1 -1 -1 -1 -1 -1 -1 -1 -1 -1 -1 -1
 MicOpt= -1 -1 -1 -1 -1 -1 -1 -1 -1 -1 -1 -1 -1 -1 -1
 NAtoms=     35 NQM=       35 NQMF=       0 NMMI=      0 NMMIF=      0
                NMic=       0 NMicF=      0.
                    Isotopes and Nuclear Properties:
 (Nuclear quadrupole moments (NQMom) in fm**2, nuclear magnetic moments (NMagM)
  in nuclear magnetons)

  Atom         1           2           3           4           5           6           7           8           9          10
 IAtWgt=          12          12          12          12          12          12          16          16          14          12
 AtmWgt=  12.0000000  12.0000000  12.0000000  12.0000000  12.0000000  12.0000000  15.9949146  15.9949146  14.0030740  12.0000000
 NucSpn=           0           0           0           0           0           0           0           0           2           0
 AtZEff=  -0.0000000  -0.0000000  -0.0000000  -0.0000000  -0.0000000  -0.0000000  -0.0000000  -0.0000000  -0.0000000  -0.0000000
 NQMom=    0.0000000   0.0000000   0.0000000   0.0000000   0.0000000   0.0000000   0.0000000   0.0000000   2.0440000   0.0000000
 NMagM=    0.0000000   0.0000000   0.0000000   0.0000000   0.0000000   0.0000000   0.0000000   0.0000000   0.4037610   0.0000000
 AtZNuc=   6.0000000   6.0000000   6.0000000   6.0000000   6.0000000   6.0000000   8.0000000   8.0000000   7.0000000   6.0000000

  Atom        11          12          13          14          15          16          17          18          19          20
 IAtWgt=          12          12           1           1           1           1           1           1           1           1
 AtmWgt=  12.0000000  12.0000000   1.0078250   1.0078250   1.0078250   1.0078250   1.0078250   1.0078250   1.0078250   1.0078250
 NucSpn=           0           0           1           1           1           1           1           1           1           1
 AtZEff=  -0.0000000  -0.0000000  -0.0000000  -0.0000000  -0.0000000  -0.0000000  -0.0000000  -0.0000000  -0.0000000  -0.0000000
 NQMom=    0.0000000   0.0000000   0.0000000   0.0000000   0.0000000   0.0000000   0.0000000   0.0000000   0.0000000   0.0000000
 NMagM=    0.0000000   0.0000000   2.7928460   2.7928460   2.7928460   2.7928460   2.7928460   2.7928460   2.7928460   2.7928460
 AtZNuc=   6.0000000   6.0000000   1.0000000   1.0000000   1.0000000   1.0000000   1.0000000   1.0000000   1.0000000   1.0000000

  Atom        21          22          23          24          25          26          27          28          29          30
 IAtWgt=           1          12          12          12          12           1           1           1           1           1
 AtmWgt=   1.0078250  12.0000000  12.0000000  12.0000000  12.0000000   1.0078250   1.0078250   1.0078250   1.0078250   1.0078250
 NucSpn=           1           0           0           0           0           1           1           1           1           1
 AtZEff=  -0.0000000  -0.0000000  -0.0000000  -0.0000000  -0.0000000  -0.0000000  -0.0000000  -0.0000000  -0.0000000  -0.0000000
 NQMom=    0.0000000   0.0000000   0.0000000   0.0000000   0.0000000   0.0000000   0.0000000   0.0000000   0.0000000   0.0000000
 NMagM=    2.7928460   0.0000000   0.0000000   0.0000000   0.0000000   2.7928460   2.7928460   2.7928460   2.7928460   2.7928460
 AtZNuc=   1.0000000   6.0000000   6.0000000   6.0000000   6.0000000   1.0000000   1.0000000   1.0000000   1.0000000   1.0000000

  Atom        31          32          33          34          35
 IAtWgt=           1           1           1           1           1
 AtmWgt=   1.0078250   1.0078250   1.0078250   1.0078250   1.0078250
 NucSpn=           1           1           1           1           1
 AtZEff=  -0.0000000  -0.0000000  -0.0000000  -0.0000000  -0.0000000
 NQMom=    0.0000000   0.0000000   0.0000000   0.0000000   0.0000000
 NMagM=    2.7928460   2.7928460   2.7928460   2.7928460   2.7928460
 AtZNuc=   1.0000000   1.0000000   1.0000000   1.0000000   1.0000000
 Leave Link  101 at Wed Dec 20 01:21:58 2023, MaxMem=  4026531840 cpu:               4.5 elap:               0.9
 (Enter /sysapps/ubuntu-applications/gaussian/Gaussian/AVX2/g16/l103.exe)

 GradGradGradGradGradGradGradGradGradGradGradGradGradGradGradGradGradGrad
 Berny optimization.
 Initialization pass.
                           ----------------------------
                           !    Initial Parameters    !
                           ! (Angstroms and Degrees)  !
 --------------------------                            --------------------------
 ! Name  Definition              Value          Derivative Info.                !
 --------------------------------------------------------------------------------
 ! R1    R(1,2)                  1.5019         estimate D2E/DX2                !
 ! R2    R(1,6)                  1.5155         estimate D2E/DX2                !
 ! R3    R(1,7)                  1.2306         estimate D2E/DX2                !
 ! R4    R(2,3)                  1.3435         estimate D2E/DX2                !
 ! R5    R(2,22)                 1.5432         estimate D2E/DX2                !
 ! R6    R(3,4)                  1.4708         estimate D2E/DX2                !
 ! R7    R(3,26)                 1.0836         estimate D2E/DX2                !
 ! R8    R(4,5)                  1.4648         estimate D2E/DX2                !
 ! R9    R(4,8)                  1.2244         estimate D2E/DX2                !
 ! R10   R(5,6)                  1.3362         estimate D2E/DX2                !
 ! R11   R(5,13)                 1.0813         estimate D2E/DX2                !
 ! R12   R(6,9)                  1.387          estimate D2E/DX2                !
 ! R13   R(9,10)                 1.4488         estimate D2E/DX2                !
 ! R14   R(9,14)                 1.0251         estimate D2E/DX2                !
 ! R15   R(10,11)                1.5256         estimate D2E/DX2                !
 ! R16   R(10,12)                1.5257         estimate D2E/DX2                !
 ! R17   R(10,15)                1.0948         estimate D2E/DX2                !
 ! R18   R(11,16)                1.095          estimate D2E/DX2                !
 ! R19   R(11,17)                1.0959         estimate D2E/DX2                !
 ! R20   R(11,18)                1.0956         estimate D2E/DX2                !
 ! R21   R(12,19)                1.095          estimate D2E/DX2                !
 ! R22   R(12,20)                1.0956         estimate D2E/DX2                !
 ! R23   R(12,21)                1.0959         estimate D2E/DX2                !
 ! R24   R(22,23)                1.5437         estimate D2E/DX2                !
 ! R25   R(22,24)                1.5514         estimate D2E/DX2                !
 ! R26   R(22,25)                1.5437         estimate D2E/DX2                !
 ! R27   R(23,27)                1.0938         estimate D2E/DX2                !
 ! R28   R(23,28)                1.0966         estimate D2E/DX2                !
 ! R29   R(23,29)                1.0963         estimate D2E/DX2                !
 ! R30   R(24,30)                1.0969         estimate D2E/DX2                !
 ! R31   R(24,31)                1.0963         estimate D2E/DX2                !
 ! R32   R(24,32)                1.0963         estimate D2E/DX2                !
 ! R33   R(25,33)                1.0938         estimate D2E/DX2                !
 ! R34   R(25,34)                1.0963         estimate D2E/DX2                !
 ! R35   R(25,35)                1.0966         estimate D2E/DX2                !
 ! A1    A(2,1,6)              119.5663         estimate D2E/DX2                !
 ! A2    A(2,1,7)              122.0115         estimate D2E/DX2                !
 ! A3    A(6,1,7)              118.4222         estimate D2E/DX2                !
 ! A4    A(1,2,3)              117.4212         estimate D2E/DX2                !
 ! A5    A(1,2,22)             118.4967         estimate D2E/DX2                !
 ! A6    A(3,2,22)             124.082          estimate D2E/DX2                !
 ! A7    A(2,3,4)              123.8335         estimate D2E/DX2                !
 ! A8    A(2,3,26)             123.0722         estimate D2E/DX2                !
 ! A9    A(4,3,26)             113.0943         estimate D2E/DX2                !
 ! A10   A(3,4,5)              117.8224         estimate D2E/DX2                !
 ! A11   A(3,4,8)              120.939          estimate D2E/DX2                !
 ! A12   A(5,4,8)              121.2386         estimate D2E/DX2                !
 ! A13   A(4,5,6)              122.3364         estimate D2E/DX2                !
 ! A14   A(4,5,13)             115.0232         estimate D2E/DX2                !
 ! A15   A(6,5,13)             122.6405         estimate D2E/DX2                !
 ! A16   A(1,6,5)              119.0201         estimate D2E/DX2                !
 ! A17   A(1,6,9)              114.7089         estimate D2E/DX2                !
 ! A18   A(5,6,9)              126.271          estimate D2E/DX2                !
 ! A19   A(6,9,10)             130.3603         estimate D2E/DX2                !
 ! A20   A(6,9,14)             112.5691         estimate D2E/DX2                !
 ! A21   A(10,9,14)            117.07           estimate D2E/DX2                !
 ! A22   A(9,10,11)            108.9892         estimate D2E/DX2                !
 ! A23   A(9,10,12)            108.9773         estimate D2E/DX2                !
 ! A24   A(9,10,15)            111.3964         estimate D2E/DX2                !
 ! A25   A(11,10,12)           110.9225         estimate D2E/DX2                !
 ! A26   A(11,10,15)           108.2995         estimate D2E/DX2                !
 ! A27   A(12,10,15)           108.2635         estimate D2E/DX2                !
 ! A28   A(10,11,16)           110.869          estimate D2E/DX2                !
 ! A29   A(10,11,17)           111.4612         estimate D2E/DX2                !
 ! A30   A(10,11,18)           110.7243         estimate D2E/DX2                !
 ! A31   A(16,11,17)           108.1069         estimate D2E/DX2                !
 ! A32   A(16,11,18)           108.0085         estimate D2E/DX2                !
 ! A33   A(17,11,18)           107.5264         estimate D2E/DX2                !
 ! A34   A(10,12,19)           110.8711         estimate D2E/DX2                !
 ! A35   A(10,12,20)           110.7202         estimate D2E/DX2                !
 ! A36   A(10,12,21)           111.4629         estimate D2E/DX2                !
 ! A37   A(19,12,20)           108.0091         estimate D2E/DX2                !
 ! A38   A(19,12,21)           108.1078         estimate D2E/DX2                !
 ! A39   A(20,12,21)           107.525          estimate D2E/DX2                !
 ! A40   A(2,22,23)            110.6545         estimate D2E/DX2                !
 ! A41   A(2,22,24)            112.8928         estimate D2E/DX2                !
 ! A42   A(2,22,25)            110.6538         estimate D2E/DX2                !
 ! A43   A(23,22,24)           106.3083         estimate D2E/DX2                !
 ! A44   A(23,22,25)           109.8412         estimate D2E/DX2                !
 ! A45   A(24,22,25)           106.3057         estimate D2E/DX2                !
 ! A46   A(22,23,27)           112.7011         estimate D2E/DX2                !
 ! A47   A(22,23,28)           111.0408         estimate D2E/DX2                !
 ! A48   A(22,23,29)           111.0804         estimate D2E/DX2                !
 ! A49   A(27,23,28)           106.5247         estimate D2E/DX2                !
 ! A50   A(27,23,29)           107.7035         estimate D2E/DX2                !
 ! A51   A(28,23,29)           107.5272         estimate D2E/DX2                !
 ! A52   A(22,24,30)           111.1468         estimate D2E/DX2                !
 ! A53   A(22,24,31)           111.603          estimate D2E/DX2                !
 ! A54   A(22,24,32)           111.6039         estimate D2E/DX2                !
 ! A55   A(30,24,31)           106.9256         estimate D2E/DX2                !
 ! A56   A(30,24,32)           106.9244         estimate D2E/DX2                !
 ! A57   A(31,24,32)           108.3999         estimate D2E/DX2                !
 ! A58   A(22,25,33)           112.7015         estimate D2E/DX2                !
 ! A59   A(22,25,34)           111.0805         estimate D2E/DX2                !
 ! A60   A(22,25,35)           111.0413         estimate D2E/DX2                !
 ! A61   A(33,25,34)           107.703          estimate D2E/DX2                !
 ! A62   A(33,25,35)           106.5243         estimate D2E/DX2                !
 ! A63   A(34,25,35)           107.5272         estimate D2E/DX2                !
 ! D1    D(6,1,2,3)             -0.0607         estimate D2E/DX2                !
 ! D2    D(6,1,2,22)           179.9359         estimate D2E/DX2                !
 ! D3    D(7,1,2,3)            179.9552         estimate D2E/DX2                !
 ! D4    D(7,1,2,22)            -0.0481         estimate D2E/DX2                !
 ! D5    D(2,1,6,5)              0.071          estimate D2E/DX2                !
 ! D6    D(2,1,6,9)           -179.9418         estimate D2E/DX2                !
 ! D7    D(7,1,6,5)           -179.9443         estimate D2E/DX2                !
 ! D8    D(7,1,6,9)              0.0428         estimate D2E/DX2                !
 ! D9    D(1,2,3,4)              0.007          estimate D2E/DX2                !
 ! D10   D(1,2,3,26)          -179.9951         estimate D2E/DX2                !
 ! D11   D(22,2,3,4)          -179.9894         estimate D2E/DX2                !
 ! D12   D(22,2,3,26)            0.0084         estimate D2E/DX2                !
 ! D13   D(1,2,22,23)           61.0152         estimate D2E/DX2                !
 ! D14   D(1,2,22,24)         -179.9767         estimate D2E/DX2                !
 ! D15   D(1,2,22,25)          -60.9726         estimate D2E/DX2                !
 ! D16   D(3,2,22,23)         -118.9883         estimate D2E/DX2                !
 ! D17   D(3,2,22,24)            0.0197         estimate D2E/DX2                !
 ! D18   D(3,2,22,25)          119.0238         estimate D2E/DX2                !
 ! D19   D(2,3,4,5)              0.0376         estimate D2E/DX2                !
 ! D20   D(2,3,4,8)           -179.977          estimate D2E/DX2                !
 ! D21   D(26,3,4,5)          -179.9605         estimate D2E/DX2                !
 ! D22   D(26,3,4,8)             0.0249         estimate D2E/DX2                !
 ! D23   D(3,4,5,6)             -0.027          estimate D2E/DX2                !
 ! D24   D(3,4,5,13)           179.9862         estimate D2E/DX2                !
 ! D25   D(8,4,5,6)            179.9877         estimate D2E/DX2                !
 ! D26   D(8,4,5,13)             0.0008         estimate D2E/DX2                !
 ! D27   D(4,5,6,1)             -0.026          estimate D2E/DX2                !
 ! D28   D(4,5,6,9)            179.9885         estimate D2E/DX2                !
 ! D29   D(13,5,6,1)           179.9599         estimate D2E/DX2                !
 ! D30   D(13,5,6,9)            -0.0257         estimate D2E/DX2                !
 ! D31   D(1,6,9,10)           179.652          estimate D2E/DX2                !
 ! D32   D(1,6,9,14)            -0.0587         estimate D2E/DX2                !
 ! D33   D(5,6,9,10)            -0.3619         estimate D2E/DX2                !
 ! D34   D(5,6,9,14)           179.9274         estimate D2E/DX2                !
 ! D35   D(6,9,10,11)          119.0988         estimate D2E/DX2                !
 ! D36   D(6,9,10,12)         -119.7231         estimate D2E/DX2                !
 ! D37   D(6,9,10,15)           -0.3383         estimate D2E/DX2                !
 ! D38   D(14,9,10,11)         -61.2013         estimate D2E/DX2                !
 ! D39   D(14,9,10,12)          59.9769         estimate D2E/DX2                !
 ! D40   D(14,9,10,15)         179.3617         estimate D2E/DX2                !
 ! D41   D(9,10,11,16)         179.9625         estimate D2E/DX2                !
 ! D42   D(9,10,11,17)          59.4805         estimate D2E/DX2                !
 ! D43   D(9,10,11,18)         -60.17           estimate D2E/DX2                !
 ! D44   D(12,10,11,16)         59.9793         estimate D2E/DX2                !
 ! D45   D(12,10,11,17)        -60.5028         estimate D2E/DX2                !
 ! D46   D(12,10,11,18)        179.8468         estimate D2E/DX2                !
 ! D47   D(15,10,11,16)        -58.694          estimate D2E/DX2                !
 ! D48   D(15,10,11,17)       -179.176          estimate D2E/DX2                !
 ! D49   D(15,10,11,18)         61.1735         estimate D2E/DX2                !
 ! D50   D(9,10,12,19)         179.9925         estimate D2E/DX2                !
 ! D51   D(9,10,12,20)          60.1254         estimate D2E/DX2                !
 ! D52   D(9,10,12,21)         -59.5217         estimate D2E/DX2                !
 ! D53   D(11,10,12,19)        -60.0172         estimate D2E/DX2                !
 ! D54   D(11,10,12,20)       -179.8843         estimate D2E/DX2                !
 ! D55   D(11,10,12,21)         60.4686         estimate D2E/DX2                !
 ! D56   D(15,10,12,19)         58.6778         estimate D2E/DX2                !
 ! D57   D(15,10,12,20)        -61.1893         estimate D2E/DX2                !
 ! D58   D(15,10,12,21)        179.1636         estimate D2E/DX2                !
 ! D59   D(2,22,23,27)         -65.801          estimate D2E/DX2                !
 ! D60   D(2,22,23,28)         174.7752         estimate D2E/DX2                !
 ! D61   D(2,22,23,29)          55.1647         estimate D2E/DX2                !
 ! D62   D(24,22,23,27)        171.2802         estimate D2E/DX2                !
 ! D63   D(24,22,23,28)         51.8565         estimate D2E/DX2                !
 ! D64   D(24,22,23,29)        -67.7541         estimate D2E/DX2                !
 ! D65   D(25,22,23,27)         56.6623         estimate D2E/DX2                !
 ! D66   D(25,22,23,28)        -62.7615         estimate D2E/DX2                !
 ! D67   D(25,22,23,29)        177.628          estimate D2E/DX2                !
 ! D68   D(2,22,24,30)         179.9936         estimate D2E/DX2                !
 ! D69   D(2,22,24,31)          60.725          estimate D2E/DX2                !
 ! D70   D(2,22,24,32)         -60.7388         estimate D2E/DX2                !
 ! D71   D(23,22,24,30)        -58.507          estimate D2E/DX2                !
 ! D72   D(23,22,24,31)       -177.7756         estimate D2E/DX2                !
 ! D73   D(23,22,24,32)         60.7606         estimate D2E/DX2                !
 ! D74   D(25,22,24,30)         58.4969         estimate D2E/DX2                !
 ! D75   D(25,22,24,31)        -60.7716         estimate D2E/DX2                !
 ! D76   D(25,22,24,32)        177.7646         estimate D2E/DX2                !
 ! D77   D(2,22,25,33)          65.8052         estimate D2E/DX2                !
 ! D78   D(2,22,25,34)         -55.1602         estimate D2E/DX2                !
 ! D79   D(2,22,25,35)        -174.7711         estimate D2E/DX2                !
 ! D80   D(23,22,25,33)        -56.6585         estimate D2E/DX2                !
 ! D81   D(23,22,25,34)       -177.624          estimate D2E/DX2                !
 ! D82   D(23,22,25,35)         62.7652         estimate D2E/DX2                !
 ! D83   D(24,22,25,33)       -171.2782         estimate D2E/DX2                !
 ! D84   D(24,22,25,34)         67.7564         estimate D2E/DX2                !
 ! D85   D(24,22,25,35)        -51.8544         estimate D2E/DX2                !
 --------------------------------------------------------------------------------
 Trust Radius=3.00D-01 FncErr=1.00D-07 GrdErr=1.00D-06 EigMax=2.50D+02 EigMin=1.00D-04
 Number of steps in this run=    193 maximum allowed number of steps=    210.
 GradGradGradGradGradGradGradGradGradGradGradGradGradGradGradGradGradGrad

 Leave Link  103 at Wed Dec 20 01:21:59 2023, MaxMem=  4026531840 cpu:               0.4 elap:               0.2
 (Enter /sysapps/ubuntu-applications/gaussian/Gaussian/AVX2/g16/l202.exe)
                          Input orientation:                          
 ---------------------------------------------------------------------
 Center     Atomic      Atomic             Coordinates (Angstroms)
 Number     Number       Type             X           Y           Z
 ---------------------------------------------------------------------
      1          6           0       -2.331370   -2.314910    4.938890
      2          6           0       -1.232490   -3.221010    4.462200
      3          6           0       -1.042920   -3.318840    3.135780
      4          6           0       -1.844860   -2.594150    2.138270
      5          6           0       -2.910610   -1.715220    2.625520
      6          6           0       -3.168410   -1.558260    3.927170
      7          8           0       -2.578940   -2.163000    6.134670
      8          8           0       -1.626150   -2.723210    0.940490
      9          7           0       -4.152870   -0.750770    4.477120
     10          6           0       -5.125150    0.111590    3.836700
     11          6           0       -6.527790   -0.370980    4.193320
     12          6           0       -4.905240    1.545020    4.310600
     13          1           0       -3.471070   -1.205000    1.854300
     14          1           0       -4.166400   -0.789110    5.501430
     15          1           0       -5.021120    0.090700    2.747050
     16          1           0       -7.288830    0.261430    3.724460
     17          1           0       -6.693350   -0.356840    5.276540
     18          1           0       -6.683120   -1.399480    3.849210
     19          1           0       -5.625690    2.224960    3.844150
     20          1           0       -3.897880    1.888860    4.051050
     21          1           0       -5.012560    1.628770    5.398000
     22          6           0       -0.394500   -3.978400    5.513740
     23          6           0       -1.290190   -4.916190    6.351210
     24          6           0        0.702100   -4.874450    4.880160
     25          6           0        0.338920   -2.987060    6.442410
     26          1           0       -0.277570   -3.944790    2.692430
     27          1           0       -2.010880   -4.371770    6.968170
     28          1           0       -0.689520   -5.525270    7.037350
     29          1           0       -1.853370   -5.602170    5.707600
     30          1           0        1.279540   -5.398420    5.651660
     31          1           0        1.415670   -4.284720    4.292800
     32          1           0        0.269100   -5.642650    4.228750
     33          1           0       -0.347280   -2.401850    7.061350
     34          1           0        0.949320   -2.283220    5.864500
     35          1           0        1.007960   -3.515220    7.132330
 ---------------------------------------------------------------------
                    Distance matrix (angstroms):
                    1          2          3          4          5
     1  C    0.000000
     2  C    1.501928   0.000000
     3  C    2.432937   1.343465   0.000000
     4  C    2.856246   2.483667   1.470819   0.000000
     5  C    2.459030   2.908072   2.514006   1.464839   0.000000
     6  C    1.515497   2.607447   2.871175   2.454591   1.336185
     7  O    1.230552   2.393631   3.562115   4.086071   3.553118
     8  O    4.080594   3.578437   2.348240   1.224405   2.346318
     9  N    2.444919   3.825040   4.250408   3.767649   2.429361
    10  C    3.861079   5.162390   5.378080   4.578864   3.115827
    11  C    4.684515   6.019566   6.316017   5.576338   4.165209
    12  C    4.681732   6.018897   6.320985   5.587278   4.176986
    13  H    3.470664   3.984555   3.465029   2.157530   1.081305
    14  H    2.451908   3.949932   4.663900   4.467501   3.271933
    15  H    4.222070   5.316284   5.253775   4.203292   2.780354
    16  H    5.717410   7.025020   7.223314   6.348791   4.927842
    17  H    4.793216   6.219937   6.729313   6.193719   4.814792
    18  H    4.578552   5.779541   6.000398   5.269090   3.978560
    19  H    5.715017   7.024299   7.227537   6.358343   4.937787
    20  H    4.573171   5.777899   6.009048   5.288761   3.999529
    21  H    4.790843   6.219728   6.734577   6.204290   4.825672
    22  C    2.617082   1.543244   2.551502   3.926002   4.449113
    23  C    3.137732   2.538764   3.598841   4.842354   5.172305
    24  C    3.969463   2.578991   2.916827   4.382321   5.302434
    25  C    3.137325   2.538758   3.599078   4.842406   5.171622
    26  H    3.452707   2.137245   1.083574   2.141896   3.450849
    27  H    2.907123   2.865314   4.090577   5.149313   5.169660
    28  H    4.172004   3.497975   4.496162   5.824711   6.238106
    29  H    3.409615   2.757977   3.533367   4.667802   5.072017
    30  H    4.801536   3.530754   4.006011   5.474460   6.346719
    31  H    4.282277   2.858833   2.883797   4.258061   5.300835
    32  H    4.282592   2.858953   2.883760   4.258202   5.301472
    33  H    2.906718   2.865345   4.090829   5.149412   5.169014
    34  H    3.408913   2.757932   3.533757   4.667859   5.070767
    35  H    4.171696   3.497967   4.496341   5.824739   6.237510
                    6          7          8          9         10
     6  C    0.000000
     7  O    2.363523   0.000000
     8  O    3.557518   5.310475   0.000000
     9  N    1.386956   2.686842   4.773111   0.000000
    10  C    2.573988   4.115533   5.354169   1.448838   0.000000
    11  C    3.572940   4.751167   6.335611   2.421782   1.525598
    12  C    3.576862   4.742185   6.350422   2.421661   1.525668
    13  H    2.124426   4.476073   2.558074   2.747792   2.898155
    14  H    2.016400   2.192851   5.567386   1.025117   2.121742
    15  H    2.746686   4.745458   4.765246   2.110704   1.094804
    16  H    4.508905   5.819797   6.980294   3.380132   2.171764
    17  H    3.960986   4.574601   7.076549   2.692265   2.179866
    18  H    3.519158   4.759263   5.982128   2.686496   2.170428
    19  H    4.511970   5.812346   6.993708   3.380062   2.171849
    20  H    3.525636   4.743274   6.008954   2.685927   2.170444
    21  H    3.965021   4.565382   7.090620   2.692452   2.179947
    22  C    4.008598   2.907406   4.899702   5.061375   6.474529
    23  C    4.547458   3.047593   5.847899   5.390536   6.805017
    24  C    5.185186   4.437452   5.056637   6.382626   7.739913
    25  C    4.546346   3.047570   5.848268   5.388834   6.800545
    26  H    3.946779   4.507782   2.525910   5.329618   6.423597
    27  H    4.301557   2.428184   6.260886   4.889283   6.293274
    28  H    5.617409   3.961010   6.774992   6.430041   7.854500
    29  H    4.610040   3.540725   5.573632   5.507982   6.844842
    30  H    6.124129   5.058568   6.147756   7.245086   8.641432
    31  H    5.346126   4.883758   4.788420   6.597834   7.894168
    32  H    5.346931   4.883833   4.788294   6.598939   7.897019
    33  H    4.300407   2.428187   6.261286   4.887415   6.288385
    34  H    4.608092   3.540630   5.574272   5.505049   6.837125
    35  H    5.616477   3.961020   6.775301   6.428568   7.850476
                   11         12         13         14         15
    11  C    0.000000
    12  C    2.513460   0.000000
    13  H    3.938292   3.956370   0.000000
    14  H    2.731693   2.722522   3.736041   0.000000
    15  H    2.138902   2.138496   2.208732   3.015165   0.000000
    16  H    1.094968   2.769958   4.497022   3.743104   2.475275
    17  H    1.095890   2.783424   4.776420   2.573501   3.065121
    18  H    1.095605   3.470420   3.786126   3.071850   2.489505
    19  H    2.770308   1.094962   4.512928   3.736405   2.474712
    20  H    3.470381   1.095612   3.818357   3.057324   2.489069
    21  H    2.783195   1.095888   4.792103   2.563753   3.064844
    22  C    7.237005   7.232046   5.527073   4.939530   6.754092
    23  C    7.262773   7.679838   6.225060   5.101715   7.209629
    24  C    8.545426   8.542614   6.327404   6.385787   7.871348
    25  C    7.684659   7.251591   6.224349   5.100425   7.201272
    26  H    7.354593   7.360151   4.290379   5.742107   6.228116
    27  H    6.641430   7.102704   6.189689   4.430919   6.840544
    28  H    8.290996   8.671589   7.298340   6.072805   8.289062
    29  H    7.176949   7.896065   6.066299   5.343984   7.155995
    30  H    9.399804   9.394749   7.387355   7.136285   8.846780
    31  H    8.855835   8.598842   6.269863   6.696236   7.935106
    32  H    8.601713   8.856811   6.270536   6.697031   7.940602
    33  H    7.109763   6.627172   6.189013   4.429442   6.831601
    34  H    7.896624   7.165605   6.064991   5.341795   7.141439
    35  H    8.678223   8.278534   7.297700   6.071698   8.281494
                   16         17         18         19         20
    16  H    0.000000
    17  H    1.773642   0.000000
    18  H    1.772306   1.767618   0.000000
    19  H    2.576007   3.139639   3.775546   0.000000
    20  H    3.775411   3.789412   4.314103   1.772314   0.000000
    21  H    3.138751   2.604315   3.789435   1.773646   1.767606
    22  C    8.289117   7.269627   6.997730   8.284597   6.988410
    23  C    8.348128   7.150995   6.907311   8.722267   7.641956
    24  C    9.569110   8.675171   8.226770   9.566392   8.221290
    25  C    8.724821   7.598035   7.652068   8.336227   6.887937
    26  H    8.241064   7.791870   6.989121   8.245888   6.998855
    27  H    7.735952   6.395842   6.355489   8.145133   7.160017
    28  H    9.381473   8.115362   7.944156   9.727711   8.612833
    29  H    8.237650   7.150154   6.666536   8.886327   7.939755
    30  H   10.448204   9.440615   9.090891  10.443429   9.081414
    31  H    9.836606   9.063785   8.608820   9.599894   8.148948
    32  H    9.603894   8.804167   8.153644   9.838483   8.609236
    33  H    8.149418   6.902189   7.173943   7.721357   6.330787
    34  H    8.883813   7.903609   7.943332   8.224127   6.647571
    35  H    9.732080   8.528159   8.626004   9.368410   7.922476
                   21         22         23         24         25
    21  H    0.000000
    22  C    7.265000   0.000000
    23  C    7.589542   1.543718   0.000000
    24  C    8.672795   1.551406   2.476883   0.000000
    25  C    7.143880   1.543725   2.526630   2.476846   0.000000
    26  H    7.797744   2.823932   3.918633   2.571028   3.919140
    27  H    6.890718   2.209704   1.093813   3.460164   2.777662
    28  H    8.518006   2.191171   1.096618   2.648328   2.802526
    29  H    7.897014   2.191464   1.096346   2.782923   3.490685
    30  H    9.435903   2.199520   2.706553   1.096902   2.706420
    31  H    8.804145   2.204822   3.457960   1.096337   2.732057
    32  H    9.062926   2.204834   2.732026   1.096337   3.457936
    33  H    6.385724   2.209714   2.777640   3.460136   1.093813
    34  H    7.145999   2.191465   3.490677   2.782897   1.096339
    35  H    8.106491   2.191179   2.802563   2.648269   1.096612
                   26         27         28         29         30
    26  H    0.000000
    27  H    4.633425   0.000000
    28  H    4.641761   1.755375   0.000000
    29  H    3.784350   1.768539   1.768812   0.000000
    30  H    3.646186   3.689725   2.411105   3.140027   0.000000
    31  H    2.354527   4.348152   3.674690   3.797888   1.762203
    32  H    2.354115   3.783896   2.970011   2.587183   1.762189
    33  H    4.633895   2.580084   3.142206   3.787215   3.689607
    34  H    3.785248   3.787204   3.817363   4.346851   3.139875
    35  H    4.642179   3.142296   2.632634   3.817385   2.410930
                   31         32         33         34         35
    31  H    0.000000
    32  H    1.778398   0.000000
    33  H    3.783921   4.348141   0.000000
    34  H    2.587224   3.797914   1.768529   0.000000
    35  H    2.970065   3.674595   1.755365   1.768801   0.000000
 Symmetry turned off by external request.
 Stoichiometry    C13H19NO2(1-,2)
 Framework group  C1[X(C13H19NO2)]
 Deg. of freedom    99
 Full point group                 C1      NOp   1
 Rotational constants (GHZ):           0.8346580           0.3095416           0.2504911
 Leave Link  202 at Wed Dec 20 01:21:59 2023, MaxMem=  4026531840 cpu:               0.8 elap:               0.5
 (Enter /sysapps/ubuntu-applications/gaussian/Gaussian/AVX2/g16/l301.exe)
 Standard basis: 6-311++G(d,p) (5D, 7F)
 Ernie: Thresh=  0.10000D-02 Tol=  0.10000D-05 Strict=F.
   485 basis functions,   747 primitive gaussians,   501 cartesian basis functions
    61 alpha electrons       60 beta electrons
       nuclear repulsion energy      1113.4699753687 Hartrees.
 IExCor=  402 DFT=T Ex+Corr=B3LYP ExCW=0 ScaHFX=  0.200000
 ScaDFX=  0.800000  0.720000  1.000000  0.810000 ScalE2=  1.000000  1.000000
 IRadAn=      5 IRanWt=     -1 IRanGd=            0 ICorTp=0 IEmpDi=  4
 NAtoms=   35 NActive=   35 NUniq=   35 SFac= 1.00D+00 NAtFMM=   60 NAOKFM=F Big=F
 Integral buffers will be    131072 words long.
 Raffenetti 2 integral format.
 Two-electron integral symmetry is turned off.
 Leave Link  301 at Wed Dec 20 01:22:00 2023, MaxMem=  4026531840 cpu:               0.5 elap:               0.2
 (Enter /sysapps/ubuntu-applications/gaussian/Gaussian/AVX2/g16/l302.exe)
 NPDir=0 NMtPBC=     1 NCelOv=     1 NCel=       1 NClECP=     1 NCelD=      1
         NCelK=      1 NCelE2=     1 NClLst=     1 CellRange=     0.0.
 One-electron integrals computed using PRISM.
 NBasis=   485 RedAO= T EigKep=  3.41D-06  NBF=   485
 NBsUse=   481 1.00D-06 EigRej=  8.72D-07 NBFU=   481
 Precomputing XC quadrature grid using
 IXCGrd= 4 IRadAn=           5 IRanWt=          -1 IRanGd=           0 AccXCQ= 0.00D+00.
 Generated NRdTot=       0 NPtTot=           0 NUsed=           0 NTot=          32
 NSgBfM=   500   500   500   500   500 MxSgAt=    35 MxSgA2=    35.
 Leave Link  302 at Wed Dec 20 01:22:01 2023, MaxMem=  4026531840 cpu:               9.5 elap:               1.8
 (Enter /sysapps/ubuntu-applications/gaussian/Gaussian/AVX2/g16/l303.exe)
 DipDrv:  MaxL=1.
 Leave Link  303 at Wed Dec 20 01:22:02 2023, MaxMem=  4026531840 cpu:               1.8 elap:               0.5
 (Enter /sysapps/ubuntu-applications/gaussian/Gaussian/AVX2/g16/l401.exe)
 ExpMin= 3.60D-02 ExpMax= 8.59D+03 ExpMxC= 1.30D+03 IAcc=3 IRadAn=         5 AccDes= 0.00D+00
 Harris functional with IExCor=  402 and IRadAn=       5 diagonalized for initial guess.
 HarFok:  IExCor=  402 AccDes= 0.00D+00 IRadAn=         5 IDoV= 1 UseB2=F ITyADJ=14
 ICtDFT=  3500011 ScaDFX=  1.000000  1.000000  1.000000  1.000000
 FoFCou: FMM=F IPFlag=           0 FMFlag=      100000 FMFlg1=           0
         NFxFlg=           0 DoJE=T BraDBF=F KetDBF=T FulRan=T
         wScrn=  0.000000 ICntrl=       500 IOpCl=  0 I1Cent=   200000004 NGrid=           0
         NMat0=    1 NMatS0=      1 NMatT0=    0 NMatD0=    1 NMtDS0=    0 NMtDT0=    0
 Symmetry not used in FoFCou.
 Harris En= -712.538214401649    
 JPrj=0 DoOrth=F DoCkMO=F.
 Initial guess <Sx>= 0.0000 <Sy>= 0.0000 <Sz>= 0.5000 <S**2>= 0.7500 S= 0.5000
 Leave Link  401 at Wed Dec 20 01:22:07 2023, MaxMem=  4026531840 cpu:              39.3 elap:               5.1
 (Enter /sysapps/ubuntu-applications/gaussian/Gaussian/AVX2/g16/l502.exe)
 Two-electron integral symmetry not used.
 UHF open shell SCF:
 Using DIIS extrapolation, IDIIS=  1040.
 NGot=  4026531840 LenX=  4026022068 LenY=  4025770566
 Requested convergence on RMS density matrix=1.00D-08 within 128 cycles.
 Requested convergence on MAX density matrix=1.00D-06.
 Requested convergence on             energy=1.00D-06.
 No special actions if energy rises.
 Fock matrices will be formed incrementally for  20 cycles.

 Cycle   1  Pass 1  IDiag  1:
 FoFJK:  IHMeth= 1 ICntrl=       0 DoSepK=F KAlg= 0 I1Cent=           0 FoldK=F
 IRaf= 850000000 NMat=       1 IRICut=       1 DoRegI=T DoRafI=F ISym2E= 0 IDoP0=0 IntGTp=1.
 FoFCou: FMM=F IPFlag=           0 FMFlag=      100000 FMFlg1=           0
         NFxFlg=           0 DoJE=F BraDBF=F KetDBF=F FulRan=T
         wScrn=  0.000000 ICntrl=         0 IOpCl=  1 I1Cent=           0 NGrid=           0
         NMat0=    1 NMatS0=      1 NMatT0=    0 NMatD0=    1 NMtDS0=    0 NMtDT0=    0
 Symmetry not used in FoFCou.
 E= -711.615827134328    
 DIIS: error= 4.55D-02 at cycle   1 NSaved=   1.
 NSaved= 1 IEnMin= 1 EnMin= -711.615827134328     IErMin= 1 ErrMin= 4.55D-02
 ErrMax= 4.55D-02  0.00D+00 EMaxC= 1.00D-01 BMatC= 2.87D+00 BMatP= 2.87D+00
 IDIUse=3 WtCom= 5.45D-01 WtEn= 4.55D-01
 Coeff-Com:  0.100D+01
 Coeff-En:   0.100D+01
 Coeff:      0.100D+01
 Gap=     0.136 Goal=   None    Shift=    0.000
 Gap=     0.143 Goal=   None    Shift=    0.000
 GapD=    0.136 DampG=1.000 DampE=0.500 DampFc=0.5000 IDamp=-1.
 Damping current iteration by 5.00D-01
 RMSDP=1.14D+00 MaxDP=1.63D+02              OVMax= 9.95D-01

 Cycle   2  Pass 1  IDiag  1:
 RMSU=  5.47D-01    CP:  3.00D+00
 E= -711.267623500825     Delta-E=        0.348203633503 Rises=F Damp=T
 DIIS: error= 4.38D-02 at cycle   2 NSaved=   2.
 NSaved= 2 IEnMin= 1 EnMin= -711.615827134328     IErMin= 2 ErrMin= 4.38D-02
 ErrMax= 4.38D-02  0.00D+00 EMaxC= 1.00D-01 BMatC= 9.69D-01 BMatP= 2.87D+00
 IDIUse=3 WtCom= 5.62D-01 WtEn= 4.38D-01
 Coeff-Com:  0.318D+00 0.682D+00
 Coeff-En:   0.647D+00 0.353D+00
 Coeff:      0.462D+00 0.538D+00
 Gap=     0.031 Goal=   None    Shift=    0.000
 Gap=    -0.002 Goal=   None    Shift=    0.000
 RMSDP=5.68D-01 MaxDP=8.13D+01 DE= 3.48D-01 OVMax= 6.92D-01

 Cycle   3  Pass 1  IDiag  1:
 RMSU=  5.43D-03    CP:  1.13D+00  1.06D-04
 E= -711.855928403369     Delta-E=       -0.588304902545 Rises=F Damp=F
 DIIS: error= 4.48D-02 at cycle   3 NSaved=   3.
 NSaved= 3 IEnMin= 3 EnMin= -711.855928403369     IErMin= 2 ErrMin= 4.38D-02
 ErrMax= 4.48D-02  0.00D+00 EMaxC= 1.00D-01 BMatC= 1.58D+00 BMatP= 9.69D-01
 IDIUse=2 WtCom= 0.00D+00 WtEn= 1.00D+00
 EnCoef did     2 forward-backward iterations
 Coeff-En:   0.226D+00 0.189D+00 0.585D+00
 Coeff:      0.226D+00 0.189D+00 0.585D+00
 Gap=     0.130 Goal=   None    Shift=    0.000
 Gap=     0.160 Goal=   None    Shift=    0.000
 RMSDP=4.10D-01 MaxDP=6.27D+01 DE=-5.88D-01 OVMax= 9.97D-01

 Cycle   4  Pass 1  IDiag  1:
 RMSU=  2.25D-01    CP:  3.00D+00  5.91D-01  1.83D+00
 E= -709.772856874610     Delta-E=        2.083071528759 Rises=F Damp=F
 DIIS: error= 1.58D-01 at cycle   4 NSaved=   4.
 NSaved= 4 IEnMin= 3 EnMin= -711.855928403369     IErMin= 2 ErrMin= 4.38D-02
 ErrMax= 1.58D-01  0.00D+00 EMaxC= 1.00D-01 BMatC= 6.03D+00 BMatP= 9.69D-01
 IDIUse=2 WtCom= 0.00D+00 WtEn= 1.00D+00
 EnCoef did     2 forward-backward iterations
 Coeff-En:   0.113D+00 0.000D+00 0.690D+00 0.196D+00
 Coeff:      0.113D+00 0.000D+00 0.690D+00 0.196D+00
 Gap=     0.002 Goal=   None    Shift=    0.000
 Gap=     0.002 Goal=   None    Shift=    0.000
 RMSDP=4.11D-01 MaxDP=6.27D+01 DE= 2.08D+00 OVMax= 9.90D-01

 Cycle   5  Pass 1  IDiag  1:
 RMSU=  6.92D-03    CP:  1.10D+00 -7.25D-04  1.59D-01 -1.77D-03
 E= -712.195962496275     Delta-E=       -2.423105621665 Rises=F Damp=F
 DIIS: error= 2.02D-02 at cycle   5 NSaved=   5.
 NSaved= 5 IEnMin= 5 EnMin= -712.195962496275     IErMin= 5 ErrMin= 2.02D-02
 ErrMax= 2.02D-02  0.00D+00 EMaxC= 1.00D-01 BMatC= 3.30D-01 BMatP= 9.69D-01
 IDIUse=3 WtCom= 7.98D-01 WtEn= 2.02D-01
 Coeff-Com:  0.107D-01 0.127D+00 0.286D+00-0.214D-01 0.598D+00
 Coeff-En:   0.000D+00 0.000D+00 0.176D+00 0.000D+00 0.824D+00
 Coeff:      0.853D-02 0.101D+00 0.264D+00-0.171D-01 0.643D+00
 Gap=     0.070 Goal=   None    Shift=    0.000
 Gap=     0.147 Goal=   None    Shift=    0.000
 RMSDP=3.93D-03 MaxDP=5.06D-01 DE=-2.42D+00 OVMax= 9.19D-02

 Cycle   6  Pass 1  IDiag  1:
 RMSU=  2.20D-03    CP:  1.10D+00 -8.45D-04  4.16D-01 -5.52D-04  5.78D-01
 E= -712.262510536779     Delta-E=       -0.066548040503 Rises=F Damp=F
 DIIS: error= 6.57D-03 at cycle   6 NSaved=   6.
 NSaved= 6 IEnMin= 6 EnMin= -712.262510536779     IErMin= 6 ErrMin= 6.57D-03
 ErrMax= 6.57D-03  0.00D+00 EMaxC= 1.00D-01 BMatC= 3.90D-02 BMatP= 3.30D-01
 IDIUse=3 WtCom= 9.34D-01 WtEn= 6.57D-02
 Coeff-Com: -0.864D-02 0.831D-01 0.116D+00-0.289D-01 0.359D+00 0.480D+00
 Coeff-En:   0.000D+00 0.000D+00 0.000D+00 0.000D+00 0.286D-01 0.971D+00
 Coeff:     -0.807D-02 0.776D-01 0.109D+00-0.270D-01 0.337D+00 0.512D+00
 Gap=     0.057 Goal=   None    Shift=    0.000
 Gap=     0.144 Goal=   None    Shift=    0.000
 RMSDP=1.61D-03 MaxDP=1.30D-01 DE=-6.65D-02 OVMax= 5.02D-02

 Cycle   7  Pass 1  IDiag  1:
 RMSU=  6.74D-04    CP:  1.14D+00 -6.97D-04  4.92D-01 -4.24D-04  6.60D-01
                    CP:  8.41D-01
 E= -712.270047534511     Delta-E=       -0.007536997732 Rises=F Damp=F
 DIIS: error= 2.26D-03 at cycle   7 NSaved=   7.
 NSaved= 7 IEnMin= 7 EnMin= -712.270047534511     IErMin= 7 ErrMin= 2.26D-03
 ErrMax= 2.26D-03  0.00D+00 EMaxC= 1.00D-01 BMatC= 5.61D-03 BMatP= 3.90D-02
 IDIUse=3 WtCom= 9.77D-01 WtEn= 2.26D-02
 Coeff-Com: -0.396D-02 0.177D-01 0.480D-02-0.767D-02 0.465D-01 0.301D+00
 Coeff-Com:  0.642D+00
 Coeff-En:   0.000D+00 0.000D+00 0.000D+00 0.000D+00 0.000D+00 0.122D+00
 Coeff-En:   0.878D+00
 Coeff:     -0.387D-02 0.173D-01 0.469D-02-0.750D-02 0.455D-01 0.297D+00
 Coeff:      0.647D+00
 Gap=     0.058 Goal=   None    Shift=    0.000
 Gap=     0.131 Goal=   None    Shift=    0.000
 RMSDP=5.61D-04 MaxDP=4.49D-02 DE=-7.54D-03 OVMax= 1.60D-02

 Cycle   8  Pass 1  IDiag  1:
 RMSU=  2.81D-04    CP:  1.12D+00 -8.16D-04  4.72D-01 -5.43D-04  6.56D-01
                    CP:  8.91D-01  6.94D-01
 E= -712.271222121400     Delta-E=       -0.001174586889 Rises=F Damp=F
 DIIS: error= 7.57D-04 at cycle   8 NSaved=   8.
 NSaved= 8 IEnMin= 8 EnMin= -712.271222121400     IErMin= 8 ErrMin= 7.57D-04
 ErrMax= 7.57D-04  0.00D+00 EMaxC= 1.00D-01 BMatC= 5.01D-04 BMatP= 5.61D-03
 IDIUse=3 WtCom= 9.92D-01 WtEn= 7.57D-03
 Coeff-Com: -0.147D-02 0.407D-02-0.464D-02-0.610D-03-0.551D-03 0.126D+00
 Coeff-Com:  0.340D+00 0.538D+00
 Coeff-En:   0.000D+00 0.000D+00 0.000D+00 0.000D+00 0.000D+00 0.000D+00
 Coeff-En:   0.000D+00 0.100D+01
 Coeff:     -0.146D-02 0.404D-02-0.461D-02-0.605D-03-0.547D-03 0.125D+00
 Coeff:      0.337D+00 0.541D+00
 Gap=     0.061 Goal=   None    Shift=    0.000
 Gap=     0.133 Goal=   None    Shift=    0.000
 RMSDP=1.79D-04 MaxDP=1.52D-02 DE=-1.17D-03 OVMax= 7.33D-03

 Cycle   9  Pass 1  IDiag  1:
 RMSU=  1.13D-04    CP:  1.13D+00 -7.94D-04  4.81D-01 -5.29D-04  6.48D-01
                    CP:  8.78D-01  7.26D-01  8.97D-01
 E= -712.271366991137     Delta-E=       -0.000144869737 Rises=F Damp=F
 DIIS: error= 2.49D-04 at cycle   9 NSaved=   9.
 NSaved= 9 IEnMin= 9 EnMin= -712.271366991137     IErMin= 9 ErrMin= 2.49D-04
 ErrMax= 2.49D-04  0.00D+00 EMaxC= 1.00D-01 BMatC= 5.58D-05 BMatP= 5.01D-04
 IDIUse=3 WtCom= 9.98D-01 WtEn= 2.49D-03
 Coeff-Com:  0.678D-04 0.790D-03-0.286D-02-0.116D-04-0.449D-02 0.335D-02
 Coeff-Com:  0.201D-01 0.218D+00 0.766D+00
 Coeff-En:   0.000D+00 0.000D+00 0.000D+00 0.000D+00 0.000D+00 0.000D+00
 Coeff-En:   0.000D+00 0.000D+00 0.100D+01
 Coeff:      0.676D-04 0.788D-03-0.286D-02-0.115D-04-0.448D-02 0.334D-02
 Coeff:      0.201D-01 0.217D+00 0.766D+00
 Gap=     0.061 Goal=   None    Shift=    0.000
 Gap=     0.133 Goal=   None    Shift=    0.000
 RMSDP=6.95D-05 MaxDP=8.74D-03 DE=-1.45D-04 OVMax= 3.25D-03

 Cycle  10  Pass 1  IDiag  1:
 RMSU=  4.25D-05    CP:  1.13D+00 -7.95D-04  4.76D-01 -5.41D-04  6.51D-01
                    CP:  8.80D-01  7.20D-01  9.04D-01  8.30D-01
 E= -712.271389147859     Delta-E=       -0.000022156723 Rises=F Damp=F
 DIIS: error= 1.77D-04 at cycle  10 NSaved=  10.
 NSaved=10 IEnMin=10 EnMin= -712.271389147859     IErMin=10 ErrMin= 1.77D-04
 ErrMax= 1.77D-04  0.00D+00 EMaxC= 1.00D-01 BMatC= 1.88D-05 BMatP= 5.58D-05
 IDIUse=3 WtCom= 9.98D-01 WtEn= 1.77D-03
 Coeff-Com:  0.441D-03-0.218D-03 0.242D-04 0.102D-03-0.237D-02-0.296D-01
 Coeff-Com: -0.703D-01 0.225D-01 0.415D+00 0.664D+00
 Coeff-En:   0.000D+00 0.000D+00 0.000D+00 0.000D+00 0.000D+00 0.000D+00
 Coeff-En:   0.000D+00 0.000D+00 0.000D+00 0.100D+01
 Coeff:      0.441D-03-0.218D-03 0.241D-04 0.101D-03-0.236D-02-0.296D-01
 Coeff:     -0.701D-01 0.225D-01 0.414D+00 0.665D+00
 Gap=     0.061 Goal=   None    Shift=    0.000
 Gap=     0.133 Goal=   None    Shift=    0.000
 RMSDP=3.19D-05 MaxDP=2.73D-03 DE=-2.22D-05 OVMax= 2.25D-03

 Cycle  11  Pass 1  IDiag  1:
 RMSU=  2.00D-05    CP:  1.13D+00 -7.90D-04  4.77D-01 -5.36D-04  6.50D-01
                    CP:  8.80D-01  7.23D-01  9.73D-01  9.23D-01  1.05D+00
 E= -712.271396089480     Delta-E=       -0.000006941621 Rises=F Damp=F
 DIIS: error= 1.09D-04 at cycle  11 NSaved=  11.
 NSaved=11 IEnMin=11 EnMin= -712.271396089480     IErMin=11 ErrMin= 1.09D-04
 ErrMax= 1.09D-04  0.00D+00 EMaxC= 1.00D-01 BMatC= 5.67D-06 BMatP= 1.88D-05
 IDIUse=3 WtCom= 9.99D-01 WtEn= 1.09D-03
 Coeff-Com:  0.259D-03 0.165D-03 0.121D-02-0.177D-03-0.386D-03-0.175D-01
 Coeff-Com: -0.424D-01-0.375D-01-0.367D-01 0.348D+00 0.785D+00
 Coeff-En:   0.000D+00 0.000D+00 0.000D+00 0.000D+00 0.000D+00 0.000D+00
 Coeff-En:   0.000D+00 0.000D+00 0.000D+00 0.000D+00 0.100D+01
 Coeff:      0.259D-03 0.164D-03 0.121D-02-0.177D-03-0.386D-03-0.174D-01
 Coeff:     -0.424D-01-0.375D-01-0.366D-01 0.348D+00 0.785D+00
 Gap=     0.061 Goal=   None    Shift=    0.000
 Gap=     0.133 Goal=   None    Shift=    0.000
 RMSDP=2.64D-05 MaxDP=3.44D-03 DE=-6.94D-06 OVMax= 1.23D-03

 Cycle  12  Pass 1  IDiag  1:
 RMSU=  1.09D-05    CP:  1.13D+00 -7.93D-04  4.79D-01 -5.29D-04  6.48D-01
                    CP:  8.81D-01  7.28D-01  9.86D-01  9.52D-01  1.14D+00
                    CP:  8.26D-01
 E= -712.271398794302     Delta-E=       -0.000002704822 Rises=F Damp=F
 DIIS: error= 4.57D-05 at cycle  12 NSaved=  12.
 NSaved=12 IEnMin=12 EnMin= -712.271398794302     IErMin=12 ErrMin= 4.57D-05
 ErrMax= 4.57D-05  0.00D+00 EMaxC= 1.00D-01 BMatC= 1.03D-06 BMatP= 5.67D-06
 IDIUse=1 WtCom= 1.00D+00 WtEn= 0.00D+00
 Coeff-Com:  0.742D-04-0.161D-03 0.762D-03-0.278D-04 0.378D-04-0.494D-02
 Coeff-Com: -0.112D-01-0.174D-01-0.752D-01 0.481D-01 0.374D+00 0.686D+00
 Coeff:      0.742D-04-0.161D-03 0.762D-03-0.278D-04 0.378D-04-0.494D-02
 Coeff:     -0.112D-01-0.174D-01-0.752D-01 0.481D-01 0.374D+00 0.686D+00
 Gap=     0.061 Goal=   None    Shift=    0.000
 Gap=     0.133 Goal=   None    Shift=    0.000
 RMSDP=1.42D-05 MaxDP=2.09D-03 DE=-2.70D-06 OVMax= 4.41D-04

 Cycle  13  Pass 1  IDiag  1:
 RMSU=  3.46D-06    CP:  1.13D+00 -7.93D-04  4.79D-01 -5.28D-04  6.47D-01
                    CP:  8.81D-01  7.27D-01  1.00D+00  9.48D-01  1.18D+00
                    CP:  1.01D+00  9.75D-01
 E= -712.271399124761     Delta-E=       -0.000000330459 Rises=F Damp=F
 DIIS: error= 1.54D-05 at cycle  13 NSaved=  13.
 NSaved=13 IEnMin=13 EnMin= -712.271399124761     IErMin=13 ErrMin= 1.54D-05
 ErrMax= 1.54D-05  0.00D+00 EMaxC= 1.00D-01 BMatC= 2.57D-07 BMatP= 1.03D-06
 IDIUse=1 WtCom= 1.00D+00 WtEn= 0.00D+00
 Coeff-Com:  0.408D-04-0.234D-04 0.133D-03-0.253D-04-0.869D-04 0.180D-02
 Coeff-Com:  0.532D-02 0.961D-03-0.276D-01-0.671D-01 0.318D-02 0.344D+00
 Coeff-Com:  0.740D+00
 Coeff:      0.408D-04-0.234D-04 0.133D-03-0.253D-04-0.869D-04 0.180D-02
 Coeff:      0.532D-02 0.961D-03-0.276D-01-0.671D-01 0.318D-02 0.344D+00
 Coeff:      0.740D+00
 Gap=     0.061 Goal=   None    Shift=    0.000
 Gap=     0.133 Goal=   None    Shift=    0.000
 RMSDP=4.77D-06 MaxDP=5.57D-04 DE=-3.30D-07 OVMax= 2.26D-04

 Cycle  14  Pass 1  IDiag  1:
 RMSU=  1.23D-06    CP:  1.13D+00 -7.92D-04  4.79D-01 -5.27D-04  6.47D-01
                    CP:  8.81D-01  7.28D-01  1.00D+00  9.55D-01  1.19D+00
                    CP:  1.02D+00  1.07D+00  1.28D+00
 E= -712.271399217154     Delta-E=       -0.000000092394 Rises=F Damp=F
 DIIS: error= 6.09D-06 at cycle  14 NSaved=  14.
 NSaved=14 IEnMin=14 EnMin= -712.271399217154     IErMin=14 ErrMin= 6.09D-06
 ErrMax= 6.09D-06  0.00D+00 EMaxC= 1.00D-01 BMatC= 2.87D-08 BMatP= 2.57D-07
 IDIUse=1 WtCom= 1.00D+00 WtEn= 0.00D+00
 Coeff-Com:  0.214D-04-0.291D-04-0.420D-04 0.739D-05-0.540D-04 0.139D-02
 Coeff-Com:  0.382D-02 0.317D-02 0.362D-02-0.353D-01-0.620D-01 0.370D-01
 Coeff-Com:  0.299D+00 0.749D+00
 Coeff:      0.214D-04-0.291D-04-0.420D-04 0.739D-05-0.540D-04 0.139D-02
 Coeff:      0.382D-02 0.317D-02 0.362D-02-0.353D-01-0.620D-01 0.370D-01
 Coeff:      0.299D+00 0.749D+00
 Gap=     0.061 Goal=   None    Shift=    0.000
 Gap=     0.133 Goal=   None    Shift=    0.000
 RMSDP=1.17D-06 MaxDP=1.09D-04 DE=-9.24D-08 OVMax= 7.31D-05

 Cycle  15  Pass 1  IDiag  1:
 RMSU=  6.74D-07    CP:  1.13D+00 -7.92D-04  4.79D-01 -5.26D-04  6.47D-01
                    CP:  8.81D-01  7.28D-01  9.99D-01  9.52D-01  1.19D+00
                    CP:  1.03D+00  1.10D+00  1.30D+00  9.54D-01
 E= -712.271399227663     Delta-E=       -0.000000010509 Rises=F Damp=F
 DIIS: error= 3.27D-06 at cycle  15 NSaved=  15.
 NSaved=15 IEnMin=15 EnMin= -712.271399227663     IErMin=15 ErrMin= 3.27D-06
 ErrMax= 3.27D-06  0.00D+00 EMaxC= 1.00D-01 BMatC= 9.59D-09 BMatP= 2.87D-08
 IDIUse=1 WtCom= 1.00D+00 WtEn= 0.00D+00
 Coeff-Com:  0.623D-05-0.192D-05-0.432D-04 0.285D-05-0.219D-04 0.462D-03
 Coeff-Com:  0.128D-02 0.139D-02 0.585D-02-0.705D-02-0.327D-01-0.327D-01
 Coeff-Com:  0.237D-01 0.432D+00 0.608D+00
 Coeff:      0.623D-05-0.192D-05-0.432D-04 0.285D-05-0.219D-04 0.462D-03
 Coeff:      0.128D-02 0.139D-02 0.585D-02-0.705D-02-0.327D-01-0.327D-01
 Coeff:      0.237D-01 0.432D+00 0.608D+00
 Gap=     0.061 Goal=   None    Shift=    0.000
 Gap=     0.133 Goal=   None    Shift=    0.000
 RMSDP=8.36D-07 MaxDP=9.83D-05 DE=-1.05D-08 OVMax= 3.49D-05

 Cycle  16  Pass 1  IDiag  1:
 RMSU=  2.85D-07    CP:  1.13D+00 -7.92D-04  4.79D-01 -5.26D-04  6.47D-01
                    CP:  8.81D-01  7.28D-01  9.99D-01  9.54D-01  1.18D+00
                    CP:  1.03D+00  1.11D+00  1.33D+00  1.06D+00  8.26D-01
 E= -712.271399230867     Delta-E=       -0.000000003204 Rises=F Damp=F
 DIIS: error= 1.27D-06 at cycle  16 NSaved=  16.
 NSaved=16 IEnMin=16 EnMin= -712.271399230867     IErMin=16 ErrMin= 1.27D-06
 ErrMax= 1.27D-06  0.00D+00 EMaxC= 1.00D-01 BMatC= 1.71D-09 BMatP= 9.59D-09
 IDIUse=1 WtCom= 1.00D+00 WtEn= 0.00D+00
 Coeff-Com: -0.431D-05 0.723D-05-0.127D-04 0.561D-06 0.679D-05-0.123D-03
 Coeff-Com: -0.307D-03 0.660D-04 0.275D-02 0.614D-02-0.345D-02-0.287D-01
 Coeff-Com: -0.801D-01 0.285D-01 0.316D+00 0.760D+00
 Coeff:     -0.431D-05 0.723D-05-0.127D-04 0.561D-06 0.679D-05-0.123D-03
 Coeff:     -0.307D-03 0.660D-04 0.275D-02 0.614D-02-0.345D-02-0.287D-01
 Coeff:     -0.801D-01 0.285D-01 0.316D+00 0.760D+00
 Gap=     0.061 Goal=   None    Shift=    0.000
 Gap=     0.133 Goal=   None    Shift=    0.000
 RMSDP=3.04D-07 MaxDP=2.12D-05 DE=-3.20D-09 OVMax= 2.02D-05

 Cycle  17  Pass 1  IDiag  1:
 RMSU=  1.59D-07    CP:  1.13D+00 -7.92D-04  4.79D-01 -5.26D-04  6.47D-01
                    CP:  8.81D-01  7.28D-01  9.99D-01  9.54D-01  1.18D+00
                    CP:  1.03D+00  1.12D+00  1.35D+00  1.11D+00  9.95D-01
                    CP:  8.02D-01
 E= -712.271399231690     Delta-E=       -0.000000000823 Rises=F Damp=F
 DIIS: error= 6.14D-07 at cycle  17 NSaved=  17.
 NSaved=17 IEnMin=17 EnMin= -712.271399231690     IErMin=17 ErrMin= 6.14D-07
 ErrMax= 6.14D-07  0.00D+00 EMaxC= 1.00D-01 BMatC= 4.32D-10 BMatP= 1.71D-09
 IDIUse=1 WtCom= 1.00D+00 WtEn= 0.00D+00
 Coeff-Com: -0.419D-05 0.607D-05-0.617D-06-0.522D-06-0.702D-07-0.155D-03
 Coeff-Com: -0.378D-03-0.167D-03 0.108D-03 0.428D-02 0.403D-02-0.698D-02
 Coeff-Com: -0.443D-01-0.633D-01 0.376D-01 0.400D+00 0.669D+00
 Coeff:     -0.419D-05 0.607D-05-0.617D-06-0.522D-06-0.702D-07-0.155D-03
 Coeff:     -0.378D-03-0.167D-03 0.108D-03 0.428D-02 0.403D-02-0.698D-02
 Coeff:     -0.443D-01-0.633D-01 0.376D-01 0.400D+00 0.669D+00
 Gap=     0.061 Goal=   None    Shift=    0.000
 Gap=     0.133 Goal=   None    Shift=    0.000
 RMSDP=1.23D-07 MaxDP=7.63D-06 DE=-8.23D-10 OVMax= 8.16D-06

 Cycle  18  Pass 1  IDiag  1:
 RMSU=  6.33D-08    CP:  1.13D+00 -7.92D-04  4.79D-01 -5.26D-04  6.47D-01
                    CP:  8.81D-01  7.28D-01  9.99D-01  9.54D-01  1.18D+00
                    CP:  1.03D+00  1.11D+00  1.36D+00  1.13D+00  9.41D-01
                    CP:  1.01D+00  1.01D+00
 E= -712.271399231834     Delta-E=       -0.000000000144 Rises=F Damp=F
 DIIS: error= 2.36D-07 at cycle  18 NSaved=  18.
 NSaved=18 IEnMin=18 EnMin= -712.271399231834     IErMin=18 ErrMin= 2.36D-07
 ErrMax= 2.36D-07  0.00D+00 EMaxC= 1.00D-01 BMatC= 7.09D-11 BMatP= 4.32D-10
 IDIUse=1 WtCom= 1.00D+00 WtEn= 0.00D+00
 Coeff-Com: -0.195D-05 0.201D-05 0.262D-05-0.207D-06 0.154D-06-0.627D-04
 Coeff-Com: -0.145D-03-0.935D-04-0.532D-03 0.848D-03 0.249D-02 0.272D-02
 Coeff-Com: -0.351D-02-0.367D-01-0.579D-01 0.167D-01 0.288D+00 0.788D+00
 Coeff:     -0.195D-05 0.201D-05 0.262D-05-0.207D-06 0.154D-06-0.627D-04
 Coeff:     -0.145D-03-0.935D-04-0.532D-03 0.848D-03 0.249D-02 0.272D-02
 Coeff:     -0.351D-02-0.367D-01-0.579D-01 0.167D-01 0.288D+00 0.788D+00
 Gap=     0.061 Goal=   None    Shift=    0.000
 Gap=     0.133 Goal=   None    Shift=    0.000
 RMSDP=1.23D-07 MaxDP=2.22D-05 DE=-1.44D-10 OVMax= 4.93D-06

 Cycle  19  Pass 1  IDiag  1:
 RMSU=  2.80D-08    CP:  1.13D+00 -7.92D-04  4.79D-01 -5.26D-04  6.47D-01
                    CP:  8.81D-01  7.28D-01  9.99D-01  9.54D-01  1.18D+00
                    CP:  1.03D+00  1.11D+00  1.35D+00  1.13D+00  9.65D-01
                    CP:  1.05D+00  1.09D+00  1.21D+00
 E= -712.271399231879     Delta-E=       -0.000000000045 Rises=F Damp=F
 DIIS: error= 7.53D-08 at cycle  19 NSaved=  19.
 NSaved=19 IEnMin=19 EnMin= -712.271399231879     IErMin=19 ErrMin= 7.53D-08
 ErrMax= 7.53D-08  0.00D+00 EMaxC= 1.00D-01 BMatC= 7.31D-12 BMatP= 7.09D-11
 IDIUse=1 WtCom= 1.00D+00 WtEn= 0.00D+00
 Coeff-Com: -0.146D-06-0.120D-06 0.559D-06 0.813D-07-0.202D-07-0.123D-06
 Coeff-Com:  0.903D-05 0.847D-05-0.176D-03-0.275D-03 0.530D-04 0.146D-02
 Coeff-Com:  0.460D-02-0.234D-02-0.211D-01-0.456D-01-0.161D-01 0.248D+00
 Coeff-Com:  0.832D+00
 Coeff:     -0.146D-06-0.120D-06 0.559D-06 0.813D-07-0.202D-07-0.123D-06
 Coeff:      0.903D-05 0.847D-05-0.176D-03-0.275D-03 0.530D-04 0.146D-02
 Coeff:      0.460D-02-0.234D-02-0.211D-01-0.456D-01-0.161D-01 0.248D+00
 Coeff:      0.832D+00
 Gap=     0.061 Goal=   None    Shift=    0.000
 Gap=     0.133 Goal=   None    Shift=    0.000
 RMSDP=3.50D-08 MaxDP=4.92D-06 DE=-4.48D-11 OVMax= 1.69D-06

 Cycle  20  Pass 1  IDiag  1:
 RMSU=  1.31D-08    CP:  1.13D+00 -7.92D-04  4.79D-01 -5.26D-04  6.47D-01
                    CP:  8.81D-01  7.28D-01  9.99D-01  9.54D-01  1.18D+00
                    CP:  1.03D+00  1.11D+00  1.35D+00  1.13D+00  9.58D-01
                    CP:  1.05D+00  1.15D+00  1.27D+00  1.05D+00
 E= -712.271399231889     Delta-E=       -0.000000000010 Rises=F Damp=F
 DIIS: error= 4.28D-08 at cycle  20 NSaved=  20.
 NSaved=20 IEnMin=20 EnMin= -712.271399231889     IErMin=20 ErrMin= 4.28D-08
 ErrMax= 4.28D-08  0.00D+00 EMaxC= 1.00D-01 BMatC= 2.68D-12 BMatP= 7.31D-12
 IDIUse=1 WtCom= 1.00D+00 WtEn= 0.00D+00
 Coeff-Com:  0.357D-06-0.415D-06 0.301D-07 0.891D-07-0.435D-06 0.731D-05
 Coeff-Com:  0.244D-04 0.175D-04-0.205D-04-0.269D-03-0.344D-03 0.430D-03
 Coeff-Com:  0.329D-02 0.435D-02-0.321D-02-0.295D-01-0.581D-01 0.175D-01
 Coeff-Com:  0.470D+00 0.596D+00
 Coeff:      0.357D-06-0.415D-06 0.301D-07 0.891D-07-0.435D-06 0.731D-05
 Coeff:      0.244D-04 0.175D-04-0.205D-04-0.269D-03-0.344D-03 0.430D-03
 Coeff:      0.329D-02 0.435D-02-0.321D-02-0.295D-01-0.581D-01 0.175D-01
 Coeff:      0.470D+00 0.596D+00
 Gap=     0.061 Goal=   None    Shift=    0.000
 Gap=     0.133 Goal=   None    Shift=    0.000
 RMSDP=1.24D-08 MaxDP=1.88D-06 DE=-1.00D-11 OVMax= 5.74D-07

 Cycle  21  Pass 1  IDiag  1:
 Restarting incremental Fock formation.
 E= -712.271399231896     Delta-E=       -0.000000000008 Rises=F Damp=F
 DIIS: error= 2.76D-08 at cycle  21 NSaved=  20.
 NSaved=20 IEnMin=20 EnMin= -712.271399231896     IErMin=20 ErrMin= 2.76D-08
 ErrMax= 2.76D-08  0.00D+00 EMaxC= 1.00D-01 BMatC= 3.77D-13 BMatP= 2.68D-12
 IDIUse=1 WtCom= 1.00D+00 WtEn= 0.00D+00
 Coeff-Com:  0.212D-06-0.212D-06-0.608D-07-0.155D-06 0.391D-05 0.116D-04
 Coeff-Com:  0.779D-05 0.239D-04-0.633D-04-0.178D-03-0.119D-03 0.530D-03
 Coeff-Com:  0.223D-02 0.272D-02-0.321D-02-0.225D-01-0.358D-01 0.495D-01
 Coeff-Com:  0.263D+00 0.744D+00
 Coeff:      0.212D-06-0.212D-06-0.608D-07-0.155D-06 0.391D-05 0.116D-04
 Coeff:      0.779D-05 0.239D-04-0.633D-04-0.178D-03-0.119D-03 0.530D-03
 Coeff:      0.223D-02 0.272D-02-0.321D-02-0.225D-01-0.358D-01 0.495D-01
 Coeff:      0.263D+00 0.744D+00
 Gap=     0.061 Goal=   None    Shift=    0.000
 Gap=     0.133 Goal=   None    Shift=    0.000
 RMSDP=4.28D-09 MaxDP=5.58D-07 DE=-7.50D-12 OVMax= 2.03D-07

 SCF Done:  E(UB3LYP) =  -712.271399232     A.U. after   21 cycles
            NFock= 21  Conv=0.43D-08     -V/T= 2.0041
 <Sx>= 0.0000 <Sy>= 0.0000 <Sz>= 0.5000 <S**2>= 0.7582 S= 0.5041
 <L.S>=  0.00000000000    
 KE= 7.093322694238D+02 PE=-3.903187687248D+03 EE= 1.368114043224D+03
 Annihilation of the first spin contaminant:
 S**2 before annihilation     0.7582,   after     0.7500
 Leave Link  502 at Wed Dec 20 01:31:25 2023, MaxMem=  4026531840 cpu:            4367.9 elap:             557.6
 (Enter /sysapps/ubuntu-applications/gaussian/Gaussian/AVX2/g16/l601.exe)
 Copying SCF densities to generalized density rwf, IOpCl= 1 IROHF=0.

 **********************************************************************

            Population analysis using the SCF density.

 **********************************************************************

 Alpha  occ. eigenvalues --  -18.93186 -18.91646 -14.18879 -10.10955 -10.07811
 Alpha  occ. eigenvalues --  -10.06820 -10.06801 -10.06741 -10.06717 -10.06487
 Alpha  occ. eigenvalues --  -10.04468 -10.03405 -10.03404 -10.02883 -10.00737
 Alpha  occ. eigenvalues --   -9.99995  -0.87554  -0.85843  -0.80361  -0.70210
 Alpha  occ. eigenvalues --   -0.68605  -0.64567  -0.59772  -0.59121  -0.56592
 Alpha  occ. eigenvalues --   -0.56301  -0.52194  -0.49857  -0.45947  -0.44517
 Alpha  occ. eigenvalues --   -0.40239  -0.37544  -0.37027  -0.34230  -0.33293
 Alpha  occ. eigenvalues --   -0.33106  -0.32041  -0.32002  -0.31445  -0.30056
 Alpha  occ. eigenvalues --   -0.29955  -0.28202  -0.28071  -0.26313  -0.25938
 Alpha  occ. eigenvalues --   -0.25569  -0.25458  -0.25178  -0.24338  -0.23690
 Alpha  occ. eigenvalues --   -0.22908  -0.22777  -0.21438  -0.20756  -0.20130
 Alpha  occ. eigenvalues --   -0.17938  -0.12683  -0.09803  -0.08057  -0.07222
 Alpha  occ. eigenvalues --    0.00801
 Alpha virt. eigenvalues --    0.06883   0.08324   0.09017   0.09570   0.10630
 Alpha virt. eigenvalues --    0.10644   0.10905   0.11822   0.12164   0.13003
 Alpha virt. eigenvalues --    0.13070   0.13405   0.13466   0.13708   0.14935
 Alpha virt. eigenvalues --    0.14991   0.15363   0.15635   0.16535   0.16852
 Alpha virt. eigenvalues --    0.17367   0.17893   0.17910   0.18700   0.18975
 Alpha virt. eigenvalues --    0.19631   0.20044   0.20196   0.20287   0.20340
 Alpha virt. eigenvalues --    0.20626   0.21292   0.21452   0.21770   0.21968
 Alpha virt. eigenvalues --    0.22340   0.22539   0.23151   0.23640   0.23676
 Alpha virt. eigenvalues --    0.23921   0.23928   0.24536   0.24569   0.24606
 Alpha virt. eigenvalues --    0.25029   0.25972   0.26007   0.26238   0.26550
 Alpha virt. eigenvalues --    0.26751   0.27261   0.27640   0.27859   0.28219
 Alpha virt. eigenvalues --    0.28952   0.29377   0.29899   0.30006   0.30234
 Alpha virt. eigenvalues --    0.30586   0.31109   0.31599   0.32083   0.32126
 Alpha virt. eigenvalues --    0.32454   0.32953   0.33555   0.34058   0.34156
 Alpha virt. eigenvalues --    0.34431   0.34553   0.35410   0.35566   0.35981
 Alpha virt. eigenvalues --    0.36770   0.37124   0.37474   0.37760   0.38409
 Alpha virt. eigenvalues --    0.38467   0.39200   0.39666   0.40215   0.40626
 Alpha virt. eigenvalues --    0.40683   0.41400   0.41526   0.42561   0.43097
 Alpha virt. eigenvalues --    0.43402   0.43634   0.44704   0.44875   0.45489
 Alpha virt. eigenvalues --    0.45576   0.46235   0.46626   0.46728   0.47716
 Alpha virt. eigenvalues --    0.48095   0.48718   0.49830   0.49901   0.51168
 Alpha virt. eigenvalues --    0.52005   0.52709   0.53394   0.54297   0.54894
 Alpha virt. eigenvalues --    0.55325   0.56071   0.56423   0.57697   0.58759
 Alpha virt. eigenvalues --    0.59784   0.60707   0.62621   0.62703   0.62797
 Alpha virt. eigenvalues --    0.64277   0.65066   0.65534   0.65879   0.66645
 Alpha virt. eigenvalues --    0.68232   0.69371   0.69397   0.71200   0.71856
 Alpha virt. eigenvalues --    0.72411   0.72804   0.73061   0.73840   0.74880
 Alpha virt. eigenvalues --    0.75467   0.75635   0.75697   0.76549   0.76641
 Alpha virt. eigenvalues --    0.77639   0.78359   0.78408   0.78654   0.78827
 Alpha virt. eigenvalues --    0.79711   0.80612   0.81362   0.82275   0.82396
 Alpha virt. eigenvalues --    0.83632   0.84073   0.84308   0.85255   0.85392
 Alpha virt. eigenvalues --    0.85758   0.86622   0.87697   0.87935   0.88416
 Alpha virt. eigenvalues --    0.89822   0.89895   0.90974   0.93176   0.93399
 Alpha virt. eigenvalues --    0.94775   0.95565   0.96705   0.98002   1.01400
 Alpha virt. eigenvalues --    1.01482   1.02192   1.04606   1.04827   1.07808
 Alpha virt. eigenvalues --    1.07889   1.08176   1.09377   1.09858   1.10921
 Alpha virt. eigenvalues --    1.11714   1.11813   1.13312   1.13697   1.14905
 Alpha virt. eigenvalues --    1.16861   1.18827   1.20181   1.21713   1.24367
 Alpha virt. eigenvalues --    1.25351   1.25935   1.27045   1.27693   1.29426
 Alpha virt. eigenvalues --    1.32786   1.33066   1.33988   1.36118   1.36312
 Alpha virt. eigenvalues --    1.37781   1.39322   1.40464   1.41121   1.41150
 Alpha virt. eigenvalues --    1.43044   1.43717   1.44969   1.47087   1.50038
 Alpha virt. eigenvalues --    1.52573   1.55171   1.56018   1.56349   1.56439
 Alpha virt. eigenvalues --    1.57150   1.58415   1.59153   1.60754   1.62419
 Alpha virt. eigenvalues --    1.62700   1.63375   1.63623   1.64763   1.65827
 Alpha virt. eigenvalues --    1.65968   1.67201   1.68143   1.68911   1.70299
 Alpha virt. eigenvalues --    1.70453   1.72461   1.72789   1.73612   1.74859
 Alpha virt. eigenvalues --    1.76181   1.76642   1.77448   1.78020   1.78569
 Alpha virt. eigenvalues --    1.78797   1.79149   1.81096   1.81983   1.82975
 Alpha virt. eigenvalues --    1.84720   1.85848   1.86437   1.87109   1.87605
 Alpha virt. eigenvalues --    1.89259   1.89420   1.89999   1.91472   1.92562
 Alpha virt. eigenvalues --    1.92672   1.93483   1.95570   1.95962   1.96856
 Alpha virt. eigenvalues --    1.98276   1.99512   2.00434   2.03074   2.05385
 Alpha virt. eigenvalues --    2.05654   2.08135   2.08544   2.09266   2.10844
 Alpha virt. eigenvalues --    2.11070   2.14632   2.16010   2.16253   2.17468
 Alpha virt. eigenvalues --    2.20817   2.21296   2.22085   2.24224   2.25311
 Alpha virt. eigenvalues --    2.26748   2.26967   2.27848   2.29373   2.33455
 Alpha virt. eigenvalues --    2.33998   2.34127   2.36119   2.37407   2.39105
 Alpha virt. eigenvalues --    2.39259   2.41329   2.41613   2.44145   2.46373
 Alpha virt. eigenvalues --    2.48458   2.52202   2.54511   2.56236   2.56923
 Alpha virt. eigenvalues --    2.58181   2.58379   2.59430   2.60888   2.61886
 Alpha virt. eigenvalues --    2.62709   2.63555   2.64457   2.64707   2.64870
 Alpha virt. eigenvalues --    2.65595   2.66467   2.67442   2.68212   2.68636
 Alpha virt. eigenvalues --    2.70403   2.72194   2.74128   2.75506   2.76127
 Alpha virt. eigenvalues --    2.78575   2.79398   2.80135   2.80195   2.82907
 Alpha virt. eigenvalues --    2.83586   2.84535   2.87025   2.88620   2.89277
 Alpha virt. eigenvalues --    2.90408   2.91464   2.91915   2.92400   2.95155
 Alpha virt. eigenvalues --    2.96515   2.96938   3.00423   3.01164   3.01486
 Alpha virt. eigenvalues --    3.02020   3.04940   3.04979   3.07750   3.07785
 Alpha virt. eigenvalues --    3.09229   3.12963   3.14668   3.14693   3.16483
 Alpha virt. eigenvalues --    3.19077   3.21165   3.22880   3.24022   3.24333
 Alpha virt. eigenvalues --    3.29415   3.32948   3.34394   3.34442   3.40064
 Alpha virt. eigenvalues --    3.41827   3.43856   3.47082   3.51382   3.51533
 Alpha virt. eigenvalues --    3.54369   3.56423   3.62904   3.70514   3.76715
 Alpha virt. eigenvalues --    3.78839   3.81907   3.86688   3.87420   3.87804
 Alpha virt. eigenvalues --    3.89285   3.89544   3.89899   3.91658   3.92772
 Alpha virt. eigenvalues --    3.93513   3.94427   3.95189   3.97276   3.98628
 Alpha virt. eigenvalues --    4.09674   4.13855   4.21637   4.29963   4.31437
 Alpha virt. eigenvalues --    4.37281   4.38449   4.41295   4.43900   4.56344
 Alpha virt. eigenvalues --    4.88453   4.95907   5.24191   5.24483   5.26057
 Alpha virt. eigenvalues --    5.42499   5.51251   5.92544   5.99842  23.81824
 Alpha virt. eigenvalues --   23.92603  23.94300  23.95861  24.03866  24.06530
 Alpha virt. eigenvalues --   24.08698  24.09959  24.10342  24.11560  24.12938
 Alpha virt. eigenvalues --   24.37477  24.43259  35.77550  50.20844  50.24091
  Beta  occ. eigenvalues --  -18.92544 -18.91068 -14.18826 -10.10959 -10.07539
  Beta  occ. eigenvalues --  -10.06816 -10.06797 -10.06724 -10.06657 -10.06400
  Beta  occ. eigenvalues --  -10.04468 -10.03400 -10.03399 -10.02813 -10.00503
  Beta  occ. eigenvalues --   -9.99977  -0.86467  -0.84862  -0.80201  -0.70058
  Beta  occ. eigenvalues --   -0.68486  -0.64182  -0.59762  -0.58920  -0.56571
  Beta  occ. eigenvalues --   -0.56284  -0.51670  -0.49386  -0.45692  -0.44143
  Beta  occ. eigenvalues --   -0.40055  -0.37434  -0.36853  -0.34112  -0.33208
  Beta  occ. eigenvalues --   -0.33033  -0.31959  -0.31826  -0.31122  -0.30045
  Beta  occ. eigenvalues --   -0.29870  -0.27995  -0.27584  -0.26124  -0.25832
  Beta  occ. eigenvalues --   -0.25355  -0.24740  -0.24730  -0.23903  -0.23495
  Beta  occ. eigenvalues --   -0.22612  -0.21413  -0.20613  -0.20329  -0.20031
  Beta  occ. eigenvalues --   -0.16701  -0.10346  -0.09244  -0.07506  -0.06441
  Beta virt. eigenvalues --    0.06873   0.07822   0.08319   0.09081   0.09557
  Beta virt. eigenvalues --    0.10637   0.10646   0.10900   0.11814   0.12149
  Beta virt. eigenvalues --    0.13003   0.13089   0.13460   0.13470   0.13711
  Beta virt. eigenvalues --    0.14942   0.15042   0.15363   0.16532   0.16777
  Beta virt. eigenvalues --    0.17010   0.17365   0.17906   0.18763   0.18974
  Beta virt. eigenvalues --    0.19130   0.19627   0.20207   0.20284   0.20315
  Beta virt. eigenvalues --    0.20632   0.21091   0.21287   0.21472   0.21796
  Beta virt. eigenvalues --    0.22055   0.22345   0.22551   0.23160   0.23680
  Beta virt. eigenvalues --    0.23701   0.23941   0.24006   0.24521   0.24623
  Beta virt. eigenvalues --    0.24635   0.25101   0.25996   0.26022   0.26264
  Beta virt. eigenvalues --    0.26675   0.26768   0.27287   0.27677   0.27907
  Beta virt. eigenvalues --    0.28227   0.29161   0.29443   0.29927   0.30154
  Beta virt. eigenvalues --    0.30266   0.30914   0.31163   0.31625   0.32119
  Beta virt. eigenvalues --    0.32527   0.32568   0.33143   0.33689   0.34095
  Beta virt. eigenvalues --    0.34198   0.34498   0.34975   0.35515   0.35612
  Beta virt. eigenvalues --    0.36010   0.36776   0.37205   0.37560   0.37775
  Beta virt. eigenvalues --    0.38445   0.38531   0.39308   0.39774   0.40257
  Beta virt. eigenvalues --    0.40727   0.40738   0.41507   0.41596   0.42628
  Beta virt. eigenvalues --    0.43130   0.43533   0.43683   0.44800   0.44994
  Beta virt. eigenvalues --    0.45619   0.45813   0.46264   0.46788   0.46827
  Beta virt. eigenvalues --    0.47817   0.48176   0.48816   0.49930   0.50227
  Beta virt. eigenvalues --    0.51262   0.52169   0.52825   0.53433   0.54343
  Beta virt. eigenvalues --    0.54917   0.55477   0.56248   0.56462   0.57760
  Beta virt. eigenvalues --    0.59000   0.59950   0.60760   0.62692   0.62815
  Beta virt. eigenvalues --    0.63107   0.64438   0.65172   0.65567   0.65982
  Beta virt. eigenvalues --    0.66715   0.68311   0.69423   0.69455   0.71231
  Beta virt. eigenvalues --    0.71908   0.72470   0.72880   0.73222   0.73903
  Beta virt. eigenvalues --    0.75286   0.75492   0.75722   0.75925   0.76606
  Beta virt. eigenvalues --    0.76749   0.77759   0.78446   0.78478   0.78684
  Beta virt. eigenvalues --    0.79284   0.79891   0.80969   0.81442   0.82418
  Beta virt. eigenvalues --    0.82485   0.83659   0.84355   0.84508   0.85327
  Beta virt. eigenvalues --    0.85543   0.85811   0.86684   0.87730   0.88121
  Beta virt. eigenvalues --    0.88473   0.89966   0.90185   0.91108   0.93244
  Beta virt. eigenvalues --    0.93493   0.94814   0.95631   0.96774   0.98097
  Beta virt. eigenvalues --    1.01539   1.01672   1.02274   1.04764   1.05060
  Beta virt. eigenvalues --    1.08012   1.08093   1.08287   1.09618   1.09948
  Beta virt. eigenvalues --    1.11013   1.11868   1.12121   1.13425   1.13853
  Beta virt. eigenvalues --    1.15014   1.16988   1.19272   1.20338   1.22115
  Beta virt. eigenvalues --    1.24482   1.25473   1.26286   1.27450   1.28461
  Beta virt. eigenvalues --    1.29893   1.33147   1.33689   1.34573   1.36463
  Beta virt. eigenvalues --    1.36608   1.37925   1.39431   1.40615   1.41344
  Beta virt. eigenvalues --    1.41943   1.43259   1.44415   1.45229   1.47291
  Beta virt. eigenvalues --    1.50254   1.52696   1.55175   1.56101   1.56512
  Beta virt. eigenvalues --    1.56547   1.57191   1.58551   1.59219   1.60833
  Beta virt. eigenvalues --    1.62488   1.62880   1.63665   1.63675   1.64856
  Beta virt. eigenvalues --    1.65871   1.66042   1.67211   1.68267   1.69046
  Beta virt. eigenvalues --    1.70443   1.70627   1.72537   1.72848   1.73648
  Beta virt. eigenvalues --    1.74934   1.76216   1.76844   1.77523   1.78106
  Beta virt. eigenvalues --    1.78840   1.78984   1.79257   1.81149   1.82040
  Beta virt. eigenvalues --    1.83049   1.84784   1.85964   1.86604   1.87389
  Beta virt. eigenvalues --    1.87692   1.89342   1.89549   1.90106   1.91650
  Beta virt. eigenvalues --    1.92674   1.92927   1.93745   1.95774   1.96084
  Beta virt. eigenvalues --    1.97187   1.98646   1.99650   2.00617   2.03234
  Beta virt. eigenvalues --    2.05575   2.06050   2.08682   2.08847   2.09332
  Beta virt. eigenvalues --    2.10916   2.11323   2.14648   2.16088   2.16412
  Beta virt. eigenvalues --    2.17516   2.20963   2.21379   2.22120   2.24331
  Beta virt. eigenvalues --    2.25407   2.27019   2.27045   2.27944   2.29533
  Beta virt. eigenvalues --    2.33580   2.34249   2.34281   2.36197   2.37502
  Beta virt. eigenvalues --    2.39197   2.39620   2.41434   2.41886   2.44542
  Beta virt. eigenvalues --    2.46517   2.48564   2.52268   2.54557   2.56358
  Beta virt. eigenvalues --    2.56963   2.58309   2.58398   2.59456   2.60908
  Beta virt. eigenvalues --    2.61898   2.62730   2.63640   2.64486   2.64749
  Beta virt. eigenvalues --    2.64890   2.65703   2.66517   2.67507   2.68273
  Beta virt. eigenvalues --    2.68661   2.70437   2.72322   2.74271   2.75535
  Beta virt. eigenvalues --    2.76195   2.78646   2.79460   2.80229   2.80496
  Beta virt. eigenvalues --    2.82927   2.83627   2.84924   2.87344   2.88705
  Beta virt. eigenvalues --    2.89426   2.90483   2.91558   2.92000   2.92499
  Beta virt. eigenvalues --    2.96145   2.96971   2.97234   3.00452   3.01217
  Beta virt. eigenvalues --    3.01645   3.02543   3.05038   3.06341   3.08287
  Beta virt. eigenvalues --    3.08342   3.10098   3.13666   3.15279   3.15496
  Beta virt. eigenvalues --    3.17308   3.19708   3.21267   3.22996   3.24167
  Beta virt. eigenvalues --    3.25000   3.29604   3.33096   3.34527   3.34596
  Beta virt. eigenvalues --    3.40200   3.42003   3.44060   3.47193   3.51584
  Beta virt. eigenvalues --    3.53090   3.55867   3.56671   3.63059   3.70736
  Beta virt. eigenvalues --    3.76989   3.79039   3.82275   3.86692   3.87430
  Beta virt. eigenvalues --    3.87926   3.89553   3.89557   3.89905   3.91827
  Beta virt. eigenvalues --    3.92834   3.93517   3.94545   3.95315   3.97292
  Beta virt. eigenvalues --    3.98760   4.09874   4.14077   4.21672   4.30329
  Beta virt. eigenvalues --    4.31713   4.37588   4.38635   4.41311   4.43936
  Beta virt. eigenvalues --    4.56530   4.88981   4.96010   5.24300   5.26861
  Beta virt. eigenvalues --    5.28689   5.42974   5.51769   5.93066   6.00388
  Beta virt. eigenvalues --   23.81941  23.92622  23.94334  23.95952  24.04092
  Beta virt. eigenvalues --   24.06535  24.08706  24.09965  24.10379  24.11693
  Beta virt. eigenvalues --   24.12948  24.37625  24.43353  35.77604  50.21447
  Beta virt. eigenvalues --   50.24709
          Condensed to atoms (all electrons):
               1          2          3          4          5          6
     1  C    9.827836  -1.619206  -0.180924  -0.561570  -0.311649   0.489719
     2  C   -1.619206  14.796665  -0.805042  -1.008867   2.921764  -9.883884
     3  C   -0.180924  -0.805042   8.101741   0.493677  -3.329861   1.773789
[...]
 -0.00179049,-0.00132940,0.00006305,-0.00024249,-0.00079712,-0.00011553
 ,0.00019062,0.00068054,-0.00009122,0.00009594,-0.00015347,0.00021248,-
 0.00030977,-0.00014145,-0.00007007,0.00014030,0.00053846,-0.00003692,-
 0.00000086,-0.00025922,-0.00009854,0.00025596,0.00009144,0.00009618,-0
 .00008520,0.00006458,-0.00002424,0.00000455,-0.00001481,-0.00001263,-0
 .00000369,-0.00000348,-0.00005289,0.00006500,-0.00000188,-0.00000399,-
 0.00002654,0.00001727,-0.00000361,-0.00000707,-0.00000932,-0.00002684,
 0.00000385,-0.00001297,-0.00000022,0.00000040,0.00001099,0.00001964,0.
 00000708,0.00000244,-0.00001711,0.00001044,-0.00000370,0.00000810,-0.0
 0000249,-0.00000016,0.00000121,-0.00000131,0.00000804,0.00741878,-0.00
 706025,0.00755606,0.00047472,-0.00070040,0.00065457,-0.09221476,0.0880
 3059,-0.17135028,0.00063671,-0.00042782,0.00053892,-0.00047291,0.00066
 964,0.00055040,-0.00010802,-0.00009777,0.00030907,0.00009912,-0.000222
 62,0.00018633,0.00000350,0.00010565,-0.00009422,0.10012313,-0.09485610
 ,0.18821670,-0.00010829,0.00032246,0.00044075,0.00091254,-0.00077318,0
 .00072628,-0.00007480,0.00075920,0.00039447,0.00023244,-0.00013510,-0.
 00056071,0.00006232,-0.00012344,0.00007997,-0.00015519,0.00015080,0.00
 010753,0.00012192,0.00006629,-0.00068143,0.00005507,0.00001000,0.00005
 944,0.00008313,-0.00017545,-0.00010857,-0.00005656,0.00003602,-0.00004
 234,0.00001529,-0.00000438,0.00001410,0.00000793,0.00000105,0.00000678
 ,0.00003756,-0.00006065,-0.00001051,0.00002231,-0.00001434,0.00001688,
 0.00000155,0.00000710,-0.00000028,0.00001198,0.00000358,0.00000374,0.0
 0000515,-0.00000441,-0.00001190,-0.00001133,-0.00000472,0.00000634,0.0
 0000674,-0.00000484,0.00000028,-0.00000162,0.00000409,0.00000134,0.000
 00087,0.00000046,-0.00000701,-0.01270631,-0.00982926,0.01113745,-0.002
 27763,0.00443721,0.00146346,-0.15382007,-0.07140205,0.10393994,0.00037
 330,-0.00092546,-0.00094458,-0.00078351,-0.00039171,-0.00103007,-0.000
 55051,-0.00087330,0.00132687,0.00032361,-0.00017804,0.00009294,0.00042
 176,0.00016550,-0.00026003,0.01200782,0.00740461,-0.01067719,0.1667584
 4,-0.00017974,-0.00013211,-0.00030372,-0.00041966,0.00070077,-0.000126
 00,0.00016836,0.00042706,0.00099767,0.00015928,-0.00019643,0.00001098,
 -0.00002503,0.00000133,0.00005839,0.00002424,0.00005415,0.00000920,-0.
 00006012,0.00001971,0.00006985,0.00003977,-0.00000428,-0.00014421,-0.0
 0002905,0.00003703,-0.00002853,0.00002198,-0.00001021,0.00001908,-0.00
 000372,-0.00000029,-0.00000298,-0.00000414,0.00000134,-0.00000322,0.00
 000693,-0.00002462,-0.00000863,0.00000548,-0.00000615,0.00000380,-0.00
 000105,0.00000066,-0.00000275,-0.00000581,0.00000150,-0.00000218,0.000
 00021,0.00000004,0.00000094,0.00000368,0.00000114,0.00000213,-0.000004
 63,0.00000275,-0.00000032,0.00000169,-0.00000085,0.00000059,0.00000109
 ,-0.00000064,0.00000085,0.01322299,0.00991447,-0.01390796,0.00219415,-
 0.00258919,-0.00168111,-0.07317113,-0.09442155,0.06934355,0.00075755,0
 .00139801,0.00001242,0.00075425,-0.00034622,0.00014945,0.00092479,0.00
 072338,-0.00084224,-0.00014204,-0.00002433,-0.00027581,0.00028149,0.00
 001675,0.00011452,-0.00981254,-0.00738038,0.00861078,0.07807393,0.1013
 4636,0.00008085,-0.00021020,-0.00005529,-0.00078095,0.00030114,-0.0000
 0972,-0.00078817,0.00008108,-0.00014487,-0.00004948,0.00004812,0.00012
 305,0.00000063,0.00000369,0.00003665,-0.00001691,0.00002559,-0.0000928
 5,-0.00010306,-0.00022154,0.00014879,0.00002439,-0.00005973,0.00004848
 ,0.00003947,-0.00004958,0.00003863,-0.00001207,0.00002071,-0.00001475,
 0.00000577,-0.00000291,-0.00000355,0.00000681,0.00000140,0.00000034,0.
 00001524,0.00000630,0.00001213,-0.00000974,0.00002608,-0.00001575,0.00
 000175,-0.00000094,0.00000553,0.00000705,-0.00000325,0.00000451,-0.000
 00335,0.00000286,0.00000219,-0.00000352,-0.00000200,-0.00000385,0.0000
 0493,-0.00000381,0.00000115,-0.00000392,-0.00000224,-0.00000024,-0.000
 00127,0.00000100,0.00000016,0.00830564,0.00690161,-0.00983853,0.001746
 00,-0.00360805,-0.00141126,0.10503366,0.06912333,-0.14762849,0.0003407
 5,0.00133574,0.00024752,-0.00110666,0.00045703,-0.00029930,0.00098504,
 0.00076953,-0.00039864,-0.00024743,-0.00018606,0.00047584,0.00008818,0
 .00019595,0.00017826,0.01461883,0.00935292,-0.01411408,-0.11648053,-0.
 07625790,0.16133022,-0.00007156,-0.00015694,0.00027367,0.00055860,-0.0
 0028399,-0.00000233,0.00034935,0.00005872,-0.00114291,-0.00019036,0.00
 021860,0.00005140,-0.00002008,-0.00001799,-0.00006094,0.00005914,-0.00
 000621,-0.00003393,0.00004830,-0.00003785,0.00001553,0.00002205,0.0000
 5770,0.00014192,0.00003175,-0.00002257,0.00004098,-0.00002125,0.000008
 84,-0.00001816,0.00000440,0.00000072,0.00000114,0.00000456,-0.00000147
 ,0.00000174,-0.00002886,0.00001283,0.00001355,-0.00000859,0.00001283,-
 0.00000705,0.00000016,-0.00000039,0.00000476,0.00000605,-0.00000280,0.
 00000313,-0.00000209,0.00000097,-0.00000033,-0.00000418,0.00000002,-0.
 00000286,0.00000435,-0.00000332,0.00000095,-0.00000148,0.00000150,-0.0
 0000009,-0.00000132,0.00000092,-0.00000049,0.01039625,0.01115466,0.009
 50596,0.00124190,0.00064405,-0.00007726,-0.12567491,-0.09527510,-0.071
 72754,-0.00143136,0.00207056,0.00133680,-0.00036757,0.00091238,-0.0001
 5922,0.00018025,0.00008456,-0.00024137,-0.00010685,-0.00012437,0.00001
 107,-0.00007016,-0.00007120,0.00000834,-0.00952460,-0.01024193,-0.0071
 3693,-0.01164394,-0.01257002,-0.01114860,0.13553679,0.00027337,-0.0001
 7881,-0.00048540,-0.00082930,0.00102457,-0.00073441,0.00065694,-0.0001
 7661,-0.00041496,-0.00003779,0.00030502,0.00055565,-0.00011926,0.00008
 066,-0.00006823,0.00007760,-0.00022055,-0.00010641,0.00016473,0.000188
 29,0.00066273,0.00000968,0.00003673,-0.00007248,-0.00005638,0.00019438
 ,0.00011476,0.00001783,-0.00004379,0.00003321,-0.00000794,0.00000301,-
 0.00001121,-0.00000533,-0.00000381,-0.00000445,-0.00005064,0.00004560,
 0.00001248,-0.00003623,-0.00000218,-0.00001931,0.00000045,-0.00000549,
 0.00000076,-0.00000933,0.00000017,-0.00000448,-0.00000041,0.00000006,0
 .00000464,0.00000742,0.00000379,0.00000342,-0.00000509,0.00000387,0.00
 000079,0.00000450,0.00000341,-0.00000112,-0.00000239,-0.00000102,0.000
 00524,-0.01416988,-0.01465867,-0.01050029,-0.00108130,0.00048595,0.001
 05745,-0.09338352,-0.15788502,-0.08562845,0.00453124,-0.00330981,-0.00
 191861,-0.00030083,-0.00058661,0.00120291,0.00021144,0.00001414,0.0002
 8982,0.00014141,0.00001035,0.00003695,0.00059627,0.00072040,-0.0001499
 8,0.00921988,0.01157681,0.00796603,-0.00724884,-0.00934312,-0.00702715
 ,0.10257564,0.17171801,0.00016183,-0.00007668,-0.00004856,-0.00020825,
 0.00070259,-0.00003430,-0.00012607,0.00081476,-0.00010540,-0.00000881,
 0.00002469,0.00006407,0.00000731,-0.00000283,0.00004673,-0.00003922,0.
 00002984,-0.00008291,0.00022807,0.00008425,0.00005074,0.00006143,-0.00
 003390,0.00004351,0.00004933,-0.00006638,0.00002821,-0.00005076,0.0000
 1231,-0.00002250,0.00001034,-0.00000097,0.00000476,0.00000703,-0.00000
 070,0.00000309,0.00000191,-0.00001804,0.00001290,-0.00001728,0.0000106
 9,-0.00001223,0.00000349,0.00000195,0.00000583,0.00000973,-0.00000035,
 0.00000360,0.00000134,-0.00000221,-0.00000646,-0.00000772,-0.00000154,
 0.00000299,0.00000714,-0.00000504,0.00000151,-0.00000094,0.00000416,-0
 .00000066,-0.00000219,-0.00000003,-0.00000235,-0.00844768,-0.00833690,
 -0.00825548,-0.00137842,-0.00029389,0.00035161,-0.07184227,-0.08648473
 ,-0.11248311,0.00301490,-0.00218592,-0.00154094,-0.00037195,0.00117517
 ,-0.00050230,0.00017237,0.00018472,0.00024791,-0.00002297,-0.00007220,
 -0.00012231,0.00085552,0.00028047,0.00003163,-0.01216575,-0.01511422,-
 0.01158793,0.01130112,0.01387310,0.01105864,0.07960138,0.09632167,0.12
 240416,-0.00035092,-0.00079302,-0.00396993,0.00072271,0.00031685,0.000
 99851,0.00006672,0.00003797,0.00000690,-0.00004394,0.00003149,-0.00026
 470,-0.00005276,-0.00002621,-0.00000175,-0.00004447,0.00013956,0.00041
 234,-0.00195088,0.00115994,0.00177734,-0.00004102,0.00010001,0.0004982
 2,0.00015658,-0.00030440,0.00014301,-0.00015461,0.00011081,-0.00005168
 ,0.00003684,-0.00001471,0.00001212,0.00003072,0.00000772,0.00000767,0.
 00001434,-0.00000807,0.00007291,-0.00013498,0.00020038,-0.00011816,0.0
 0002132,-0.00000473,0.00003204,0.00003602,-0.00000376,0.00001757,-0.00
 000510,0.00000184,-0.00001050,-0.00002429,-0.00001048,-0.00000478,0.00
 002145,-0.00001844,0.00000334,-0.00001339,-0.00000200,0.00000220,-0.00
 000289,0.00000466,-0.00000845,0.01123231,-0.01394574,-0.00929061,0.001
 10644,0.00020928,-0.00033259,-0.00231591,-0.00251840,-0.00203366,-0.12
 522283,0.10345155,0.07321926,-0.00004103,-0.00000294,0.00013605,-0.000
 28240,-0.00041970,0.00028760,-0.00008503,0.00012976,-0.00001669,0.0000
 2500,0.00020307,-0.00001138,-0.00011413,-0.00008509,0.00016205,-0.0000
 0246,0.00010483,-0.00018646,0.00068806,-0.00122392,-0.00086424,0.13550
 230,0.00041383,0.00018204,-0.00046101,0.00022485,0.00050253,0.00061975
 ,0.00008688,0.00001321,-0.00011433,0.00002242,-0.00007490,0.00007584,0
 .00003035,0.00000192,0.00003734,-0.00009757,-0.00008757,0.00006787,0.0
 0206792,-0.00111369,0.00104550,-0.00001660,0.00002026,-0.00008229,-0.0
 0006616,0.00003786,0.00009992,0.00001585,-0.00002197,0.00003780,-0.000
 00556,0.00000369,-0.00001317,-0.00000143,0.00000439,-0.00000841,0.0000
 1497,0.00002362,0.00000720,-0.00000320,0.00007587,-0.00003527,0.000005
 02,-0.00000313,0.00000481,-0.00000888,-0.00000257,-0.00000160,-0.00000
 269,0.00000213,0.00000660,0.00000365,0.00000083,-0.00000127,-0.0000056
 4,0.00000231,-0.00000012,0.00000141,-0.00000595,0.00000226,0.00000029,
 -0.00000052,0.00000404,0.01051455,-0.01416152,-0.00899984,0.00128653,0
 .00049002,0.00002580,-0.00348172,-0.00218909,-0.00196742,0.09937980,-0
 .17501727,-0.08781715,-0.00001411,-0.00000632,0.00007709,-0.00070854,-
 0.00015829,0.00024655,-0.00001870,-0.00015547,-0.00001899,-0.00000392,
 0.00032748,0.00008414,-0.00026671,0.00035030,0.00011942,0.00018157,0.0
 0015590,-0.00017042,0.00075400,-0.00075268,-0.00094910,-0.10885943,0.1
 8998032,-0.00066882,-0.00029792,-0.00275997,0.00080049,-0.00021711,0.0
 0028238,-0.00000886,0.00003827,-0.00006163,-0.00000952,-0.00012137,-0.
 00011251,-0.00003817,0.00007495,-0.00000111,-0.00016519,-0.00017390,0.
 00001481,0.00169805,0.00049130,0.00129751,-0.00004129,0.00010842,0.000
 26615,0.00009068,-0.00007069,0.00016464,-0.00011348,0.00005487,-0.0000
 3273,0.00002200,-0.00000758,0.00000859,0.00000869,-0.00000219,0.000009
 69,0.00002524,0.00002038,0.00003043,-0.00010136,0.00008004,-0.00005217
 ,0.00001626,-0.00000538,0.00001994,0.00002263,-0.00000152,0.00000963,0
 .00000008,0.00000010,-0.00000846,-0.00001338,-0.00000398,-0.00000036,0
 .00001496,-0.00000927,0.00000253,-0.00000527,0.00000686,-0.00000094,-0
 .00000224,0.00000303,-0.00000639,0.00940470,-0.01118257,-0.00913622,0.
 00032800,0.00094298,0.00042962,-0.00300127,-0.00167387,-0.00165331,0.0
 6944819,-0.08638945,-0.10948694,-0.00000244,0.00001928,0.00014424,-0.0
 0010129,-0.00012528,0.00049878,-0.00015226,0.00002535,0.00002985,-0.00
 003313,0.00008331,-0.00013317,0.00022391,-0.00023809,0.00029163,-0.000
 25204,0.00027016,0.00028667,0.00052870,-0.00125204,-0.00015900,-0.0756
 2681,0.09736491,0.11764681,-0.00019052,0.00035343,0.00090909,0.0010338
 1,-0.00036544,0.00134797,0.00011820,0.00026594,-0.00057662,-0.00003350
 ,-0.00010896,-0.00006210,0.00000655,0.00002658,0.00001290,-0.00013494,
 0.00013626,-0.00008848,-0.00064587,0.00039420,-0.00100991,0.00003008,0
 .00003578,-0.00005452,0.00001555,0.00001508,-0.00009151,-0.00002089,0.
 00000785,-0.00001950,0.00000840,-0.00000006,0.00001211,-0.00000621,-0.
 00000436,0.00000555,-0.00000843,-0.00000659,-0.00001131,0.00002646,-0.
 00007667,0.00004377,-0.00000487,0.00000461,-0.00001016,0.00000476,0.00
 000277,-0.00000038,0.00000634,-0.00000427,-0.00000927,-0.00000730,-0.0
 0000126,0.00000496,0.00000319,-0.00000005,0.00000037,0.00000188,0.0000
 0859,0.00000027,0.00000165,0.00000023,-0.00000507,-0.01370985,-0.00841
 092,0.01262591,-0.00191613,-0.00218024,-0.00361253,0.00037576,0.001153
 04,0.00068687,-0.14785802,-0.07216417,0.10075443,-0.00001918,-0.000063
 10,-0.00000369,0.00032372,0.00015904,-0.00014410,0.00028032,-0.0000908
 0,0.00015807,-0.00076589,-0.00108752,0.00089028,0.00003545,-0.00000427
 ,-0.00012359,0.00071511,-0.00019168,-0.00043568,0.00003309,0.00020999,
 -0.00021027,-0.01034812,-0.00930673,0.01042023,0.16072018,0.00001407,0
 .00014221,0.00013065,0.00145419,0.00030894,0.00096225,0.00002279,0.000
 24297,-0.00036648,-0.00003588,-0.00008116,0.00000116,0.00000829,-0.000
 03103,0.00002702,-0.00003397,0.00009442,0.00007746,0.00039799,-0.00025
 672,0.00007472,0.00002714,0.00000276,-0.00006001,0.00001296,-0.0000546
 3,-0.00002034,-0.00000992,0.00000645,0.00000016,0.00000311,-0.00000221
 ,0.00000223,0.00000294,0.00000335,0.00000029,-0.00000228,-0.00000765,0
 .00000345,-0.00000107,0.00001842,-0.00001230,0.00000315,0.00000128,0.0
 0000159,0.00000062,0.00000291,-0.00000031,0.00000198,-0.00000262,-0.00
 000421,-0.00000165,-0.00000055,0.00000441,-0.00000124,-0.00000064,-0.0
 0000050,0.00000059,-0.00000021,0.00000094,0.,-0.00000074,-0.00000121,-
 0.01216994,-0.01010362,0.01250836,-0.00226090,-0.00247883,-0.00321985,
 -0.00056356,0.00054936,0.00154027,-0.07200610,-0.09837687,0.07183843,-
 0.00000852,-0.00003869,-0.00006238,-0.00004040,0.00001146,0.00003122,0
 .00027657,0.00029149,-0.00028975,-0.00126468,-0.00053789,0.00071007,-0
 .00007368,-0.00007056,0.00001778,0.00040092,-0.00021522,-0.00084650,0.
 00029825,0.00038916,-0.00011597,0.01302225,0.01252127,-0.01398282,0.08
 330858,0.10608309,0.00022446,-0.00014685,-0.00021753,-0.00015350,-0.00
 010920,0.00128258,0.00029610,-0.00015439,0.00005879,-0.00006630,0.0000
 8164,-0.00015088,0.00001881,-0.00005842,0.00005606,-0.00011374,0.00010
 573,0.00006472,0.00041184,-0.00013067,0.00038613,0.00000408,-0.0000120
 3,0.00019625,0.00005675,-0.00017015,0.00001664,-0.00004895,0.00004802,
 -0.00002918,0.00001350,-0.00000490,0.00000223,0.00001612,0.00000643,-0
 .00000052,0.00001843,-0.00000548,0.00002007,-0.00001247,0.00005994,-0.
 00003457,0.00000507,0.00000137,0.00001191,0.00001389,-0.00000271,0.000
 00738,-0.00000155,0.00000027,-0.00000203,-0.00001191,-0.00000533,-0.00
 000302,0.00000830,-0.00000739,0.00000144,-0.00000607,-0.00000426,0.000
 00063,-0.00000228,0.00000051,-0.00000137,-0.01083096,-0.00796981,0.009
 09226,-0.00187033,-0.00192349,-0.00112440,-0.00061474,0.00012770,0.000
 81627,0.10237400,0.07373731,-0.14674252,-0.00002439,-0.00001068,-0.000
 01869,-0.00012685,-0.00001020,-0.00011387,0.00006710,-0.00035287,0.000
 14727,-0.00051442,-0.00057672,0.00081047,0.00014188,-0.00001389,-0.000
 09952,0.00001148,0.00003695,0.00014950,-0.00010271,0.00023327,0.000195
 19,0.00803559,0.00796570,-0.00980176,-0.11046662,-0.07915348,0.1584031
 4,-0.00005765,0.00024830,0.00000174,-0.00098781,-0.00387000,-0.0017862
 0,-0.00077723,0.00072581,0.00005467,0.00035979,0.00016983,0.00008834,-
 0.00004961,-0.00002653,-0.00019578,0.00042448,-0.00010029,0.00014342,-
 0.00110126,-0.00009663,0.00010951,-0.00008401,-0.00002530,-0.00046051,
 -0.00019296,0.00034465,-0.00005936,0.00014236,-0.00009832,0.00009528,-
 0.00003529,0.00001121,-0.00001872,-0.00002802,-0.00000280,-0.00001571,
 -0.00005063,-0.00000214,-0.00004213,0.00003117,-0.00007909,0.00003183,
 -0.00001251,-0.00000677,-0.00002049,-0.00003851,0.00000352,-0.00001641
 ,-0.00000268,0.00000148,0.00001794,0.00002830,0.00001135,0.00000098,-0
 .00002415,0.00001874,-0.00000214,0.00001078,-0.00000219,-0.00000045,0.
 00000172,-0.00000314,0.00001258,-0.01185723,0.01099714,-0.01317793,0.0
 0040959,0.00149436,-0.00079151,0.00023370,0.00114977,0.00080510,-0.114
 41909,0.06918684,-0.08433299,-0.00003817,-0.00018995,-0.00005214,-0.00
 013607,0.00013739,-0.00000652,0.00002327,-0.00085241,0.00058538,0.0003
 7275,-0.00008014,0.00032995,0.00074770,-0.00048643,0.00021144,0.000015
 37,-0.00012630,0.00007281,0.00000411,-0.00012998,0.00027055,-0.0084296
 7,0.00786369,-0.01271599,0.01192924,-0.01078261,0.01325039,0.12358822,
 0.00002356,-0.00002266,-0.00147303,-0.00163693,-0.00168420,-0.00192879
 ,-0.00022972,0.00052262,-0.00044929,0.00030466,0.00012725,-0.00024904,
 -0.00006272,0.00004519,-0.00007271,-0.00005777,-0.00015089,0.00012992,
 0.00112799,0.00026372,0.00113735,-0.00008413,0.00005028,0.00019199,0.0
 0007334,-0.00005881,0.00011301,-0.00009229,0.00004560,-0.00003565,0.00
 001568,-0.00000511,0.00000593,0.00000964,-0.00000357,0.00000559,0.0000
 1309,0.00000250,0.00002825,-0.00007478,0.00005951,-0.00004665,0.000009
 63,-0.00000378,0.00001489,0.00001917,-0.00000266,0.00000921,-0.0000014
 5,0.00000187,-0.00000525,-0.00001042,-0.00000286,-0.00000251,0.0000141
 9,-0.00000842,0.00000365,-0.00000598,0.00000573,-0.00000069,-0.0000031
 1,0.00000303,-0.00000524,-0.01055003,0.00796795,-0.01299770,0.00017812
 ,0.00096423,-0.00052483,-0.00076987,0.00094355,-0.00045231,0.06997455,
 -0.11652236,0.08805353,-0.00017330,-0.00010038,0.00002134,0.00000709,-
 0.00008160,0.00016508,0.00005200,0.00009978,0.00003389,0.00028404,0.00
 023390,-0.00014298,-0.00001817,-0.00003607,-0.00005854,0.00012439,-0.0
 0010675,-0.00000176,-0.00005161,0.00036376,0.00024125,0.00900906,-0.01
 094502,0.01617083,0.00798513,-0.00840971,0.00841809,-0.07540304,0.1264
 4438,-0.00001671,-0.00018861,-0.00177845,-0.00193648,-0.00380727,-0.00
 163863,-0.00079142,0.00053841,0.00066808,0.00039320,0.00022623,0.00007
 025,-0.00003747,-0.00000978,-0.00025338,0.00041431,-0.00037994,0.00030
 084,0.00058959,0.00015166,0.00138349,-0.00010931,-0.00001529,-0.000359
 05,-0.00019698,0.00037302,0.00005933,0.00012228,-0.00009792,0.00010125
 ,-0.00003528,0.00000797,-0.00002270,-0.00002484,-0.00000204,-0.0000142
 7,-0.00002686,0.00001226,-0.00003074,-0.00002287,-0.00001462,-0.000012
 64,-0.00000268,-0.00000955,-0.00001079,-0.00003859,0.00000479,-0.00001
 595,-0.00000286,0.00000129,0.00001770,0.00003038,0.00001235,0.00000297
 ,-0.00002458,0.00001763,-0.00000234,0.00001096,-0.00000291,-0.00000117
 ,0.00000034,-0.00000294,0.00001239,-0.00905949,0.00954245,-0.01277789,
 0.00109593,0.00084761,0.00035852,-0.00035839,0.00153399,-0.00002073,-0
 .08445745,0.08659351,-0.15377350,-0.00006326,-0.00018351,-0.00008535,0
 .00003648,0.00001008,0.00001084,-0.00006095,-0.00046506,0.00072766,0.0
 0022570,-0.00018932,0.00011569,0.00044626,-0.00105949,0.00025352,-0.00
 006398,0.00000312,-0.00011710,0.00032169,-0.00010280,0.00040936,0.0069
 6767,-0.00725216,0.01197278,-0.01093744,0.01020368,-0.01337907,0.09761
 308,-0.09629686,0.16782906\\0.00000271,0.00000138,0.00000447,-0.000003
 08,-0.00000090,0.00000156,0.00000027,0.00000149,-0.00000281,-0.0000009
 3,-0.00000504,0.00000449,-0.00000390,0.00000462,0.00000260,0.00000374,
 -0.00000338,-0.00000465,0.00000157,-0.00000123,-0.00000268,0.00000148,
 0.00000005,-0.00000373,0.00000386,0.00001009,0.00000090,-0.00000452,-0
 .00000152,0.00000085,0.00000318,0.00000021,0.00000053,0.00000080,0.000
 00056,-0.00000159,0.00000029,-0.00000314,-0.00000125,-0.00000338,-0.00
 000449,0.00000011,0.00000146,-0.00000142,0.00000305,0.00000006,-0.0000
 0018,-0.00000036,-0.00000062,0.00000134,0.00000011,-0.00000019,-0.0000
 0024,-0.00000064,-0.00000134,0.00000184,0.00000074,-0.00000059,0.00000
 022,-0.00000018,0.00000019,0.00000005,-0.00000059,0.00000178,0.0000008
 9,0.00000084,-0.00000141,-0.00000047,0.00000136,-0.00000030,-0.0000026
 8,-0.00000136,-0.00000119,-0.00000062,0.00000046,0.00000092,0.00000023
 ,-0.00000038,-0.00000076,0.00000037,-0.00000045,-0.00000002,0.00000017
 ,-0.00000019,-0.00000006,0.00000039,0.00000051,0.00000022,0.00000050,0
 .00000008,-0.00000055,-0.00000012,-0.00000167,0.00000087,-0.00000027,0
 .00000071,-0.00000018,0.00000101,-0.00000007,-0.00000011,0.00000032,0.
 00000028,-0.00000026,-0.00000003,-0.00000103\\\@


 HE WHO LAUGHS LAST PROBABLY DIDN'T GET THE JOKE.
 Job cpu time:       0 days 10 hours 16 minutes 43.7 seconds.
 Elapsed time:       0 days  1 hours 17 minutes 16.9 seconds.
 File lengths (MBytes):  RWF=   1479 Int=      0 D2E=      0 Chk=     29 Scr=      1
 Normal termination of Gaussian 16 at Wed Dec 20 06:48:22 2023.
