 Entering Gaussian System, Link 0=g16
 Input=148-an-PCM.com
 Output=148-an-PCM.log
 Initial command:
 /sysapps/ubuntu-applications/gaussian/Gaussian/AVX2/g16/l1.exe "/scratch/selhajj1/4286648/Gau-200894.inp" -scrdir="/scratch/selhajj1/4286648/"
 Entering Link 1 = /sysapps/ubuntu-applications/gaussian/Gaussian/AVX2/g16/l1.exe PID=    200896.
  
 Copyright (c) 1988,1990,1992,1993,1995,1998,2003,2009,2016,
            Gaussian, Inc.  All Rights Reserved.
  
 This is part of the Gaussian(R) 16 program.  It is based on
 the Gaussian(R) 09 system (copyright 2009, Gaussian, Inc.),
 the Gaussian(R) 03 system (copyright 2003, Gaussian, Inc.),
 the Gaussian(R) 98 system (copyright 1998, Gaussian, Inc.),
 the Gaussian(R) 94 system (copyright 1995, Gaussian, Inc.),
 the Gaussian 92(TM) system (copyright 1992, Gaussian, Inc.),
 the Gaussian 90(TM) system (copyright 1990, Gaussian, Inc.),
 the Gaussian 88(TM) system (copyright 1988, Gaussian, Inc.),
 the Gaussian 86(TM) system (copyright 1986, Carnegie Mellon
 University), and the Gaussian 82(TM) system (copyright 1983,
 Carnegie Mellon University). Gaussian is a federally registered
 trademark of Gaussian, Inc.
  
 This software contains proprietary and confidential information,
 including trade secrets, belonging to Gaussian, Inc.
  
 This software is provided under written license and may be
 used, copied, transmitted, or stored only in accord with that
 written license.
  
 The following legend is applicable only to US Government
 contracts under FAR:
  
                    RESTRICTED RIGHTS LEGEND
  
 Use, reproduction and disclosure by the US Government is
 subject to restrictions as set forth in subparagraphs (a)
 and (c) of the Commercial Computer Software - Restricted
 Rights clause in FAR 52.227-19.
  
 Gaussian, Inc.
 340 Quinnipiac St., Bldg. 40, Wallingford CT 06492
  
  
 ---------------------------------------------------------------
 Warning -- This program may not be used in any manner that
 competes with the business of Gaussian, Inc. or will provide
 assistance to any competitor of Gaussian, Inc.  The licensee
 of this program is prohibited from giving any competitor of
 Gaussian, Inc. access to this program.  By using this program,
 the user acknowledges that Gaussian, Inc. is engaged in the
 business of creating and licensing software in the field of
 computational chemistry and represents and warrants to the
 licensee that it is not a competitor of Gaussian, Inc. and that
 it will not use this program in any manner prohibited above.
 ---------------------------------------------------------------
  

 Cite this work as:
 Gaussian 16, Revision A.03,
 M. J. Frisch, G. W. Trucks, H. B. Schlegel, G. E. Scuseria, 
 M. A. Robb, J. R. Cheeseman, G. Scalmani, V. Barone, 
 G. A. Petersson, H. Nakatsuji, X. Li, M. Caricato, A. V. Marenich, 
 J. Bloino, B. G. Janesko, R. Gomperts, B. Mennucci, H. P. Hratchian, 
 J. V. Ortiz, A. F. Izmaylov, J. L. Sonnenberg, D. Williams-Young, 
 F. Ding, F. Lipparini, F. Egidi, J. Goings, B. Peng, A. Petrone, 
 T. Henderson, D. Ranasinghe, V. G. Zakrzewski, J. Gao, N. Rega, 
 G. Zheng, W. Liang, M. Hada, M. Ehara, K. Toyota, R. Fukuda, 
 J. Hasegawa, M. Ishida, T. Nakajima, Y. Honda, O. Kitao, H. Nakai, 
 T. Vreven, K. Throssell, J. A. Montgomery, Jr., J. E. Peralta, 
 F. Ogliaro, M. J. Bearpark, J. J. Heyd, E. N. Brothers, K. N. Kudin, 
 V. N. Staroverov, T. A. Keith, R. Kobayashi, J. Normand, 
 K. Raghavachari, A. P. Rendell, J. C. Burant, S. S. Iyengar, 
 J. Tomasi, M. Cossi, J. M. Millam, M. Klene, C. Adamo, R. Cammi, 
 J. W. Ochterski, R. L. Martin, K. Morokuma, O. Farkas, 
 J. B. Foresman, and D. J. Fox, Gaussian, Inc., Wallingford CT, 2016.
 
 ******************************************
 Gaussian 16:  ES64L-G16RevA.03 25-Dec-2016
                14-Jan-2024 
 ******************************************
 %chk=148-an-PCM.chk
 %nproc=8
 Will use up to    8 processors via shared memory.
 %mem=30GB
 ----------------------------------------------------------------
 #P UB3LYP/6-311++G(d,p) SCRF=(PCM,Solvent=n,n-DiMethylFormamide)
 ----------------------------------------------------------------
 1/38=1,172=1/1;
 2/12=2,17=6,18=5,40=1/2;
 3/5=4,6=6,7=1111,11=2,25=1,30=1,70=2201,72=148,74=-5,116=2/1,2,3;
 4//1;
 5/5=2,38=5,53=148/2;
 6/7=2,8=2,9=2,10=2,28=1/1;
 99/5=1,9=1/99;
 Leave Link    1 at Sun Jan 14 01:24:42 2024, MaxMem=  4026531840 cpu:               0.8 elap:               0.1
 (Enter /sysapps/ubuntu-applications/gaussian/Gaussian/AVX2/g16/l101.exe)
 -------
 Reduced
 -------
 Symbolic Z-matrix:
 Charge = -2 Multiplicity = 1
 C                    -2.98575   3.769     0.52878 
 C                    -4.23234   3.20247   0.57623 
 C                    -4.42576   1.80952   0.43066 
 C                    -1.832     2.9699    0.33642 
 C                    -2.00116   1.54599   0.18574 
 C                    -3.31234   1.01697   0.24392 
 C                    -0.53265   3.61673   0.28407 
 C                     0.58558   2.71503   0.06971 
 C                     0.42125   1.29059  -0.08134 
 C                    -0.88073   0.64519  -0.0319 
 C                     1.89292   3.25473  -0.00968 
 C                     2.97633   2.44259  -0.21915 
 C                     2.84266   1.04328  -0.37083 
 C                     1.57636   0.50159  -0.29493 
 O                    -0.38587   4.87573   0.41138 
 O                    -1.02865  -0.61127  -0.17183 
 H                    -3.40941  -0.05732   0.12886 
 H                     1.42292  -0.56679  -0.40348 
 H                    -2.84992   4.84003   0.62556 
 H                     2.00475   4.32832   0.08939 
 H                     3.71518   0.4212   -0.52803 
 O                     4.23739   3.08022  -0.40025 
 C                     5.33052   2.71538   0.29546 
 C                     6.53719   3.50398  -0.17286 
 O                     5.37672   1.85897   1.14827 
 O                    -5.34378   4.09003   0.65762 
 H                     6.25551   4.48944  -0.54397 
 H                     7.03019   2.96316  -0.99088 
 H                     7.25257   3.59148   0.64464 
 C                    -6.3109    3.94292   1.58232 
 C                    -7.40135   4.9737    1.36856 
 O                    -6.34621   3.09563   2.44469 
 H                    -5.42069   1.38433   0.47918 
 H                    -7.0088    5.8899    0.9273 
 H                    -7.89218   5.18454   2.31846 
 H                    -8.15776   4.56702   0.6851 
 
 ITRead=  0  0  0  0  0  0  0  0  0  0  0  0  0  0  0  0  0  0  0  0
 ITRead=  0  0  0  0  0  0  0  0  0  0  0  0  0  0  0  0
 MicOpt= -1 -1 -1 -1 -1 -1 -1 -1 -1 -1 -1 -1 -1 -1 -1 -1 -1 -1 -1 -1
 MicOpt= -1 -1 -1 -1 -1 -1 -1 -1 -1 -1 -1 -1 -1 -1 -1 -1
 NAtoms=     36 NQM=       36 NQMF=       0 NMMI=      0 NMMIF=      0
                NMic=       0 NMicF=      0.
                    Isotopes and Nuclear Properties:
 (Nuclear quadrupole moments (NQMom) in fm**2, nuclear magnetic moments (NMagM)
  in nuclear magnetons)

  Atom         1           2           3           4           5           6           7           8           9          10
 IAtWgt=          12          12          12          12          12          12          12          12          12          12
 AtmWgt=  12.0000000  12.0000000  12.0000000  12.0000000  12.0000000  12.0000000  12.0000000  12.0000000  12.0000000  12.0000000
 NucSpn=           0           0           0           0           0           0           0           0           0           0
 AtZEff=  -0.0000000  -0.0000000  -0.0000000  -0.0000000  -0.0000000  -0.0000000  -0.0000000  -0.0000000  -0.0000000  -0.0000000
 NQMom=    0.0000000   0.0000000   0.0000000   0.0000000   0.0000000   0.0000000   0.0000000   0.0000000   0.0000000   0.0000000
 NMagM=    0.0000000   0.0000000   0.0000000   0.0000000   0.0000000   0.0000000   0.0000000   0.0000000   0.0000000   0.0000000
 AtZNuc=   6.0000000   6.0000000   6.0000000   6.0000000   6.0000000   6.0000000   6.0000000   6.0000000   6.0000000   6.0000000

  Atom        11          12          13          14          15          16          17          18          19          20
 IAtWgt=          12          12          12          12          16          16           1           1           1           1
 AtmWgt=  12.0000000  12.0000000  12.0000000  12.0000000  15.9949146  15.9949146   1.0078250   1.0078250   1.0078250   1.0078250
 NucSpn=           0           0           0           0           0           0           1           1           1           1
 AtZEff=  -0.0000000  -0.0000000  -0.0000000  -0.0000000  -0.0000000  -0.0000000  -0.0000000  -0.0000000  -0.0000000  -0.0000000
 NQMom=    0.0000000   0.0000000   0.0000000   0.0000000   0.0000000   0.0000000   0.0000000   0.0000000   0.0000000   0.0000000
 NMagM=    0.0000000   0.0000000   0.0000000   0.0000000   0.0000000   0.0000000   2.7928460   2.7928460   2.7928460   2.7928460
 AtZNuc=   6.0000000   6.0000000   6.0000000   6.0000000   8.0000000   8.0000000   1.0000000   1.0000000   1.0000000   1.0000000

  Atom        21          22          23          24          25          26          27          28          29          30
 IAtWgt=           1          16          12          12          16          16           1           1           1          12
 AtmWgt=   1.0078250  15.9949146  12.0000000  12.0000000  15.9949146  15.9949146   1.0078250   1.0078250   1.0078250  12.0000000
 NucSpn=           1           0           0           0           0           0           1           1           1           0
 AtZEff=  -0.0000000  -0.0000000  -0.0000000  -0.0000000  -0.0000000  -0.0000000  -0.0000000  -0.0000000  -0.0000000  -0.0000000
 NQMom=    0.0000000   0.0000000   0.0000000   0.0000000   0.0000000   0.0000000   0.0000000   0.0000000   0.0000000   0.0000000
 NMagM=    2.7928460   0.0000000   0.0000000   0.0000000   0.0000000   0.0000000   2.7928460   2.7928460   2.7928460   0.0000000
 AtZNuc=   1.0000000   8.0000000   6.0000000   6.0000000   8.0000000   8.0000000   1.0000000   1.0000000   1.0000000   6.0000000

  Atom        31          32          33          34          35          36
 IAtWgt=          12          16           1           1           1           1
 AtmWgt=  12.0000000  15.9949146   1.0078250   1.0078250   1.0078250   1.0078250
 NucSpn=           0           0           1           1           1           1
 AtZEff=  -0.0000000  -0.0000000  -0.0000000  -0.0000000  -0.0000000  -0.0000000
 NQMom=    0.0000000   0.0000000   0.0000000   0.0000000   0.0000000   0.0000000
 NMagM=    0.0000000   0.0000000   2.7928460   2.7928460   2.7928460   2.7928460
 AtZNuc=   6.0000000   8.0000000   1.0000000   1.0000000   1.0000000   1.0000000
 Leave Link  101 at Sun Jan 14 01:24:42 2024, MaxMem=  4026531840 cpu:               1.0 elap:               0.2
 (Enter /sysapps/ubuntu-applications/gaussian/Gaussian/AVX2/g16/l202.exe)
                          Input orientation:                          
 ---------------------------------------------------------------------
 Center     Atomic      Atomic             Coordinates (Angstroms)
 Number     Number       Type             X           Y           Z
 ---------------------------------------------------------------------
      1          6           0       -2.985752    3.768999    0.528777
      2          6           0       -4.232336    3.202466    0.576226
      3          6           0       -4.425764    1.809519    0.430656
      4          6           0       -1.832000    2.969896    0.336417
      5          6           0       -2.001158    1.545990    0.185735
      6          6           0       -3.312339    1.016972    0.243918
      7          6           0       -0.532647    3.616733    0.284068
      8          6           0        0.585584    2.715027    0.069712
      9          6           0        0.421246    1.290593   -0.081341
     10          6           0       -0.880731    0.645192   -0.031903
     11          6           0        1.892920    3.254728   -0.009677
     12          6           0        2.976329    2.442594   -0.219149
     13          6           0        2.842658    1.043281   -0.370825
     14          6           0        1.576359    0.501585   -0.294932
     15          8           0       -0.385872    4.875728    0.411382
     16          8           0       -1.028651   -0.611271   -0.171834
     17          1           0       -3.409412   -0.057315    0.128864
     18          1           0        1.422923   -0.566793   -0.403479
     19          1           0       -2.849915    4.840030    0.625558
     20          1           0        2.004750    4.328322    0.089385
     21          1           0        3.715180    0.421203   -0.528031
     22          8           0        4.237394    3.080219   -0.400247
     23          6           0        5.330523    2.715376    0.295457
     24          6           0        6.537194    3.503983   -0.172857
     25          8           0        5.376716    1.858968    1.148268
     26          8           0       -5.343782    4.090027    0.657616
     27          1           0        6.255508    4.489435   -0.543967
     28          1           0        7.030194    2.963155   -0.990881
     29          1           0        7.252571    3.591484    0.644636
     30          6           0       -6.310904    3.942915    1.582324
     31          6           0       -7.401352    4.973704    1.368562
     32          8           0       -6.346215    3.095628    2.444691
     33          1           0       -5.420688    1.384334    0.479178
     34          1           0       -7.008797    5.889904    0.927300
     35          1           0       -7.892182    5.184542    2.318464
     36          1           0       -8.157764    4.567020    0.685095
 ---------------------------------------------------------------------
                    Distance matrix (angstroms):
                    1          2          3          4          5
     1  C    0.000000
     2  C    1.370103   0.000000
     3  C    2.433685   1.413827   0.000000
     4  C    1.416585   2.423471   2.843056   0.000000
     5  C    2.455376   2.806163   2.451152   1.441814   0.000000
     6  C    2.785939   2.394412   1.379390   2.452320   1.415076
     7  C    2.469978   3.734257   4.294633   1.452397   2.540506
     8  C    3.751805   4.868933   5.105275   2.445568   2.841011
     9  C    4.257038   5.073803   4.901523   2.841073   2.450428
    10  C    3.808365   4.259428   3.759904   2.538665   1.454015
    11  C    4.935164   6.153436   6.496791   3.751791   4.256973
    12  C    6.153467   7.292111   7.457480   4.868956   5.073776
    13  C    6.496860   7.457515   7.352513   5.105337   4.901533
    14  C    5.671627   6.464875   6.185681   4.255358   3.757719
    15  O    2.828075   4.197888   5.071759   2.393554   3.707724
    16  O    4.848491   5.036644   4.214688   3.705192   2.393199
    17  H    3.870413   3.391682   2.146886   3.419841   2.134713
    18  H    6.253368   6.866519   6.367871   4.863141   4.066369
    19  H    1.083940   2.143627   3.421299   2.148757   3.429946
    20  H    5.040934   6.356556   6.914647   4.077621   4.878315
    21  H    7.564858   8.492221   8.313932   6.165575   5.869508
    22  O    7.315145   8.526709   8.795191   6.114932   6.451106
    23  C    8.386000   9.579372   9.799183   7.167161   7.425163
    24  C    9.552436  10.799760  11.109540   8.401668   8.767313
    25  O    8.600166   9.719367   9.828836   7.338859   7.446976
    26  O    2.383267   1.424676   2.468802   3.700064   4.227048
    27  H    9.331168  10.625723  11.055379   8.275981   8.795957
    28  H   10.162574  11.373552  11.601320   8.961041   9.217272
    29  H   10.240517  11.491697  11.815443   9.111026   9.488210
    30  C    3.492398   2.425066   3.071070   4.749698   5.125390
    31  C    4.653394   3.715877   4.443631   6.008182   6.504644
    32  O    3.926432   2.823307   3.065705   4.983850   5.136514
    33  H    3.408519   2.174213   1.083056   3.925948   3.435903
    34  H    4.565298   3.879989   4.854715   5.972840   6.670529
    35  H    5.411081   4.512038   5.193328   6.749739   7.245120
    36  H    5.235550   4.157264   4.647190   6.533580   6.876029
                    6          7          8          9         10
     6  C    0.000000
     7  C    3.806187   0.000000
     8  C    4.255296   1.452399   0.000000
     9  C    3.757701   2.540544   1.441817   0.000000
    10  C    2.475281   3.008497   2.538626   1.454005   0.000000
    11  C    5.671559   2.469961   1.416583   2.455359   3.808321
    12  C    6.464841   3.734266   2.423494   2.806162   4.259416
    13  C    6.185676   4.294674   2.843095   2.451163   3.759916
    14  C    4.945235   3.806218   2.452331   1.415076   2.475298
    15  O    4.845849   1.273900   2.393553   3.707750   4.282385
    16  O    2.835358   4.281341   3.705180   2.393215   1.272855
    17  H    1.084783   4.668886   4.863062   4.066323   2.629371
    18  H    5.034892   4.668925   3.419852   2.134716   2.629410
    19  H    3.869788   2.642499   4.077653   4.878391   4.680449
    20  H    6.265808   2.642469   2.148753   3.429931   4.680401
    21  H    7.094848   5.377262   3.925977   3.435895   4.628035
    22  O    7.853051   4.848652   3.699992   4.226990   5.679810
    23  C    8.808308   5.932060   4.750306   5.125718   6.555342
    24  C   10.167213   7.085488   6.008573   6.504790   7.950985
    25  O    8.776473   6.225524   4.985084   5.137282   6.482415
    26  O    3.706963   4.848769   6.115034   6.451235   5.679890
    27  H   10.208940   6.893932   5.972702   6.669725   8.121965
    28  H   10.596242   7.697352   6.536010   6.877712   8.299116
    29  H   10.881453   7.793604   6.748884   7.244870   8.676920
    30  C    4.398166   5.931283   7.166397   7.424583   6.554959
    31  C    5.800050   7.084956   8.401177   8.767016   7.950837
    32  O    4.285862   6.223939   7.337249   7.445637   6.481487
    33  H    2.153007   5.377231   6.165526   5.869511   4.628039
    34  H    6.154371   6.893589   8.275864   8.796395   8.122824
    35  H    6.530493   7.794841   9.111965   9.488677   8.677002
    36  H    6.022925   7.694562   8.958499   9.215303   8.297592
                   11         12         13         14         15
    11  C    0.000000
    12  C    1.370115   0.000000
    13  C    2.433707   1.413842   0.000000
    14  C    2.785925   2.394405   1.379387   0.000000
    15  O    2.828043   4.197869   5.071775   4.845860   0.000000
    16  O    4.848486   5.036685   4.214757   2.835433   5.555220
    17  H    6.253283   6.866465   6.367840   5.034867   5.792799
    18  H    3.870400   3.391675   2.146870   1.084784   5.792821
    19  H    5.040951   6.356599   6.914728   6.265884   2.473591
    20  H    1.083939   2.143625   3.421312   3.869772   2.473542
    21  H    3.408546   2.174243   1.083046   2.152987   6.127309
    22  O    2.383182   1.424657   2.468860   3.706960   5.025652
    23  C    3.493010   2.425172   3.070717   4.398088   6.112097
    24  C    4.653820   3.715972   4.443404   5.799929   7.081798
    25  O    3.927571   2.823527   3.065035   4.285794   6.546088
    26  O    7.315248   8.526840   8.795348   7.853191   5.025816
    27  H    4.565319   3.879185   4.853195   6.152999   6.720851
    28  H    5.238259   4.159372   4.648209   6.023951   7.786033
    29  H    5.409934   4.511354   5.193441   6.530670   7.749161
    30  C    8.385153   9.578568   9.798488   8.807710   6.111240
    31  C    9.551854  10.799241  11.109160  10.166925   7.081155
    32  O    8.598406   9.717630   9.827240   8.775065   6.544371
    33  H    7.564801   8.492200   8.313947   7.094868   6.127300
    34  H    9.330737  10.625490  11.055589  10.209443   6.719960
    35  H   10.241711  11.492706  11.816053  10.881783   7.750937
    36  H   10.159777  11.370966  11.599180  10.594403   7.782835
                   16         17         18         19         20
    16  O    0.000000
    17  H    2.462785   0.000000
    18  H    2.462895   4.888192   0.000000
    19  H    5.802544   4.954163   6.967768   0.000000
    20  H    5.802528   6.967677   4.954149   4.910916   0.000000
    21  H    4.867937   7.170795   2.499218   7.997329   4.309565
    22  O    6.435099   8.282374   4.606729   7.374223   2.604266
    23  C    7.191942   9.170716   5.150775   8.458291   3.702003
    24  C    8.612626  10.569241   6.540655   9.515267   4.614256
    25  O    6.990957   9.050269   4.891290   8.765695   4.311508
    26  O    6.435103   4.606714   8.282523   2.604401   7.374320
    27  H    8.900262  10.702164   6.995646   9.186916   4.300702
    28  H    8.853945  10.925312   6.651847  10.185877   5.318434
    29  H    9.322468  11.280853   7.237030  10.179364   5.328307
    30  C    7.191653   5.151023   9.170221   3.701170   8.457394
    31  C    8.612554   6.540916  10.569062   4.613621   9.514598
    32  O    6.990264   4.891719   9.049028   4.310023   8.763881
    33  H    4.867879   2.499260   7.170843   4.309540   7.997258
    34  H    8.901433   6.997320  10.702981   4.299952   9.186113
    35  H    9.322075   7.236480  11.280869   5.330016  10.180922
    36  H    8.852868   6.651369  10.923854   5.315199  10.182757
                   21         22         23         24         25
    21  H    0.000000
    22  O    2.712822   0.000000
    23  C    2.924157   1.346122   0.000000
    24  C    4.194454   2.349545   1.515676   0.000000
    25  O    2.763666   2.277588   1.209485   2.407936   0.000000
    26  O    9.845345   9.692147  10.768547  11.924375  10.961179
    27  H    4.796252   2.465630   2.169681   1.090039   3.248891
    28  H    4.202983   2.856971   2.145913   1.097592   2.920475
    29  H    4.892746   3.231790   2.140972   1.089824   2.602708
    30  C   10.834132  10.767610  11.776489  12.974858  11.879886
    31  C   12.161399  11.923690  12.975062  14.100323  13.154054
    32  O   10.826878  10.959320  11.878973  13.152967  11.859054
    33  H    9.241546   9.845200  10.834850  12.161785  10.828522
    34  H   12.125525  11.667627  12.756789  13.798436  13.026826
    35  H   12.865566  12.607386  13.602546  14.738991  13.729255
    36  H   12.634329  12.531101  13.620363  14.758317  13.810511
                   26         27         28         29         30
    26  O    0.000000
    27  H   11.668199   0.000000
    28  H   12.534060   1.769011   0.000000
    29  H   12.606222   1.792548   1.766116   0.000000
    30  C    1.346125  12.756744  13.622269  13.600390   0.000000
    31  C    2.349452  13.798627  14.760718  14.736759   1.515684
    32  O    2.277573  13.026058  13.811192  13.726363   1.209471
    33  H    2.712661  12.125264  12.636384  12.865084   2.925022
    34  H    2.466690  13.418932  14.468536  14.448157   2.169534
    35  H    3.232758  14.451084  15.445505  15.320022   2.141023
    36  H    2.854255  14.465788  15.364093  15.441235   2.146024
                   31         32         33         34         35
    31  C    0.000000
    32  O    2.408015   0.000000
    33  H    4.194951   2.765568   0.000000
    34  H    1.090061   3.247995   4.798236   0.000000
    35  H    1.089808   2.601828   4.892120   1.792552   0.000000
    36  H    1.097578   2.922821   4.202794   1.768844   1.766285
                   36
    36  H    0.000000
 Stoichiometry    C18H12O6(2-)
 Framework group  C1[X(C18H12O6)]
 Deg. of freedom   102
 Full point group                 C1      NOp   1
 Largest Abelian subgroup         C1      NOp   1
 Largest concise Abelian subgroup C1      NOp   1
                         Standard orientation:                         
 ---------------------------------------------------------------------
 Center     Atomic      Atomic             Coordinates (Angstroms)
 Number     Number       Type             X           Y           Z
 ---------------------------------------------------------------------
      1          6           0        2.467784   -0.881084   -0.255397
      2          6           0        3.646207   -0.182427   -0.235922
      3          6           0        3.676324    1.230006   -0.180868
      4          6           0        1.222952   -0.206249   -0.214119
      5          6           0        1.225291    1.234433   -0.157049
      6          6           0        2.472654    1.902410   -0.138800
      7          6           0        0.000199   -0.989394   -0.246000
      8          6           0       -1.222616   -0.206359   -0.213719
      9          6           0       -1.225137    1.234319   -0.156487
     10          6           0        0.000041    2.016785   -0.127934
     11          6           0       -2.467381   -0.881324   -0.254838
     12          6           0       -3.645903   -0.182824   -0.234863
     13          6           0       -3.676189    1.229601   -0.179310
     14          6           0       -2.472581    1.902126   -0.137531
     15          8           0        0.000245   -2.262039   -0.302537
     16          8           0        0.000013    3.288893   -0.084305
     17          1           0        2.444069    2.985901   -0.094270
     18          1           0       -2.444123    2.985610   -0.092721
     19          1           0        2.455714   -1.963381   -0.313817
     20          1           0       -2.455202   -1.963599   -0.313628
     21          1           0       -4.620723    1.759075   -0.156880
     22          8           0       -4.845829   -0.933841   -0.395483
     23          6           0       -5.888470   -0.806013    0.446305
     24          6           0       -7.050259   -1.657571   -0.025256
     25          8           0       -5.930254   -0.092789    1.422225
     26          8           0        4.846318   -0.933266   -0.396164
     27          1           0       -6.709616   -2.538667   -0.569148
     28          1           0       -7.683329   -1.067596   -0.700428
     29          1           0       -7.659024   -1.946493    0.831274
     30          6           0        5.888020   -0.806115    0.446891
     31          6           0        7.050065   -1.657744   -0.023935
     32          8           0        5.928800   -0.093488    1.423271
     33          1           0        4.620823    1.759586   -0.159032
     34          1           0        6.709314   -2.541275   -0.563839
     35          1           0        7.660997   -1.942758    0.832342
     36          1           0        7.680764   -1.069625   -0.702913
 ---------------------------------------------------------------------
 Rotational constants (GHZ):           0.6772071           0.0937523           0.0847311
 Leave Link  202 at Sun Jan 14 01:24:42 2024, MaxMem=  4026531840 cpu:               0.4 elap:               0.1
 (Enter /sysapps/ubuntu-applications/gaussian/Gaussian/AVX2/g16/l301.exe)
 Standard basis: 6-311++G(d,p) (5D, 7F)
 Ernie: Thresh=  0.10000D-02 Tol=  0.10000D-05 Strict=F.
 There are   636 symmetry adapted cartesian basis functions of A   symmetry.
 There are   612 symmetry adapted basis functions of A   symmetry.
   612 basis functions,   972 primitive gaussians,   636 cartesian basis functions
    85 alpha electrons       85 beta electrons
       nuclear repulsion energy      1854.7300342090 Hartrees.
 IExCor=  402 DFT=T Ex+Corr=B3LYP ExCW=0 ScaHFX=  0.200000
 ScaDFX=  0.800000  0.720000  1.000000  0.810000 ScalE2=  1.000000  1.000000
 IRadAn=      5 IRanWt=     -1 IRanGd=            0 ICorTp=0 IEmpDi=  4
 NAtoms=   36 NActive=   36 NUniq=   36 SFac= 1.00D+00 NAtFMM=   60 NAOKFM=F Big=F
 Integral buffers will be    131072 words long.
 Raffenetti 2 integral format.
 Two-electron integral symmetry is turned on.
 ------------------------------------------------------------------------------
 Polarizable Continuum Model (PCM)
 =================================
 Model                : PCM.
 Atomic radii         : UFF (Universal Force Field).
 Polarization charges : Total charges.
 Charge compensation  : None.
 Solution method      : On-the-fly selection.
 Cavity type          : Scaled VdW (van der Waals Surface) (Alpha=1.100).
 Cavity algorithm     : GePol (No added spheres)
                        Default sphere list used, NSphG=   36.
                        Lebedev-Laikov grids with approx.  5.0 points / Ang**2.
                        Smoothing algorithm: York/Karplus (Gamma=1.0000).
                        Polarization charges: spherical gaussians, with
                                              point-specific exponents (IZeta= 3).
                        Self-potential: point-specific (ISelfS= 7).
                        Self-field    : sphere-specific E.n sum rule (ISelfD= 2).
 Solvent              : n,n-DiMethylFormamide, Eps=  37.219000 Eps(inf)=   2.046330
 ------------------------------------------------------------------------------
 GePol: Number of generator spheres                  =      36
 GePol: Total number of spheres                      =      36
 GePol: Number of exposed spheres                    =      36 (100.00%)
 GePol: Number of points                             =    2900
 GePol: Average weight of points                     =       0.13
 GePol: Minimum weight of points                     =   0.23D-08
 GePol: Maximum weight of points                     =    0.20577
 GePol: Number of points with low weight             =     150
 GePol: Fraction of low-weight points (<1% of avg)   =       5.17%
 GePol: Cavity surface area                          =    386.524 Ang**2
 GePol: Cavity volume                                =    417.234 Ang**3
 Leave Link  301 at Sun Jan 14 01:24:43 2024, MaxMem=  4026531840 cpu:               0.6 elap:               0.1
 (Enter /sysapps/ubuntu-applications/gaussian/Gaussian/AVX2/g16/l302.exe)
 NPDir=0 NMtPBC=     1 NCelOv=     1 NCel=       1 NClECP=     1 NCelD=      1
         NCelK=      1 NCelE2=     1 NClLst=     1 CellRange=     0.0.
 One-electron integrals computed using PRISM.
 One-electron integral symmetry used in STVInt
 NBasis=   612 RedAO= T EigKep=  1.57D-06  NBF=   612
 NBsUse=   605 1.00D-06 EigRej=  9.50D-07 NBFU=   605
 Precomputing XC quadrature grid using
 IXCGrd= 4 IRadAn=           5 IRanWt=          -1 IRanGd=           0 AccXCQ= 0.00D+00.
 Generated NRdTot=       0 NPtTot=           0 NUsed=           0 NTot=          32
 NSgBfM=   616   616   616   616   616 MxSgAt=    36 MxSgA2=    36.
 Leave Link  302 at Sun Jan 14 01:24:45 2024, MaxMem=  4026531840 cpu:              17.7 elap:               2.6
 (Enter /sysapps/ubuntu-applications/gaussian/Gaussian/AVX2/g16/l303.exe)
 DipDrv:  MaxL=1.
 Leave Link  303 at Sun Jan 14 01:24:46 2024, MaxMem=  4026531840 cpu:               2.2 elap:               0.4
 (Enter /sysapps/ubuntu-applications/gaussian/Gaussian/AVX2/g16/l401.exe)
 ExpMin= 3.60D-02 ExpMax= 8.59D+03 ExpMxC= 1.30D+03 IAcc=3 IRadAn=         5 AccDes= 0.00D+00
 Harris functional with IExCor=  402 and IRadAn=       5 diagonalized for initial guess.
 HarFok:  IExCor=  402 AccDes= 0.00D+00 IRadAn=         5 IDoV= 1 UseB2=F ITyADJ=14
 ICtDFT=  3500011 ScaDFX=  1.000000  1.000000  1.000000  1.000000
 FoFCou: FMM=F IPFlag=           0 FMFlag=      100000 FMFlg1=           0
         NFxFlg=           0 DoJE=T BraDBF=F KetDBF=T FulRan=T
         wScrn=  0.000000 ICntrl=       500 IOpCl=  0 I1Cent=   200000004 NGrid=           0
         NMat0=    1 NMatS0=      1 NMatT0=    0 NMatD0=    1 NMtDS0=    0 NMtDT0=    0
 Petite list used in FoFCou.
 Harris En= -1145.33937086894    
 JPrj=0 DoOrth=F DoCkMO=F.
 Initial guess <Sx>= 0.0000 <Sy>= 0.0000 <Sz>= 0.0000 <S**2>=-0.0000 S=-0.0000
 Leave Link  401 at Sun Jan 14 01:24:50 2024, MaxMem=  4026531840 cpu:              37.3 elap:               4.7
 (Enter /sysapps/ubuntu-applications/gaussian/Gaussian/AVX2/g16/l502.exe)
 Integral symmetry usage will be decided dynamically.
 UHF open shell SCF:
 Using DIIS extrapolation, IDIIS=  1040.
 NGot=  4026531840 LenX=  4025711840 LenY=  4025306708
 Requested convergence on RMS density matrix=1.00D-08 within 128 cycles.
 Requested convergence on MAX density matrix=1.00D-06.
 Requested convergence on             energy=1.00D-06.
 No special actions if energy rises.
 Fock matrices will be formed incrementally for  20 cycles.

 Cycle   1  Pass 1  IDiag  1:
 FoFJK:  IHMeth= 1 ICntrl=       0 DoSepK=F KAlg= 0 I1Cent=           0 FoldK=F
 IRaf= 740000000 NMat=       1 IRICut=       1 DoRegI=T DoRafI=F ISym2E= 0 IDoP0=0 IntGTp=1.
 FoFCou: FMM=F IPFlag=           0 FMFlag=      100000 FMFlg1=           0
         NFxFlg=           0 DoJE=F BraDBF=F KetDBF=F FulRan=T
         wScrn=  0.000000 ICntrl=         0 IOpCl=  1 I1Cent=           0 NGrid=           0
         NMat0=    1 NMatS0=      1 NMatT0=    0 NMatD0=    1 NMtDS0=    0 NMtDT0=    0
 Symmetry not used in FoFCou.
 Inv3:  Mode=1 IEnd=    25230000.
 Iteration    1 A*A^-1 deviation from unit magnitude is 3.11D-15 for   2753.
 Iteration    1 A*A^-1 deviation from orthogonality  is 2.66D-15 for   2725   2570.
 Iteration    1 A^-1*A deviation from unit magnitude is 3.55D-15 for    231.
 Iteration    1 A^-1*A deviation from orthogonality  is 2.22D-15 for   2726   2571.
 E= -1144.32478129562    
 DIIS: error= 3.23D-02 at cycle   1 NSaved=   1.
 NSaved= 1 IEnMin= 1 EnMin= -1144.32478129562     IErMin= 1 ErrMin= 3.23D-02
 ErrMax= 3.23D-02  0.00D+00 EMaxC= 1.00D-01 BMatC= 3.76D+00 BMatP= 3.76D+00
 IDIUse=3 WtCom= 6.77D-01 WtEn= 3.23D-01
 Coeff-Com:  0.100D+01
 Coeff-En:   0.100D+01
 Coeff:      0.100D+01
 Gap=     0.050 Goal=   None    Shift=    0.000
 Gap=     0.050 Goal=   None    Shift=    0.000
 GapD=    0.050 DampG=0.500 DampE=0.500 DampFc=0.2500 IDamp=-1.
 Damping current iteration by 2.50D-01
 RMSDP=6.96D-01 MaxDP=4.82D+01              OVMax= 9.97D-01

 Cycle   2  Pass 1  IDiag  1:
 RMSU=  1.66D-01    CP:  2.03D+00
 E= -1144.55009046938     Delta-E=       -0.225309173759 Rises=F Damp=T
 DIIS: error= 1.73D-02 at cycle   2 NSaved=   2.
 NSaved= 2 IEnMin= 2 EnMin= -1144.55009046938     IErMin= 2 ErrMin= 1.73D-02
 ErrMax= 1.73D-02  0.00D+00 EMaxC= 1.00D-01 BMatC= 6.95D-01 BMatP= 3.76D+00
 IDIUse=3 WtCom= 8.27D-01 WtEn= 1.73D-01
 Coeff-Com: -0.465D+00 0.147D+01
 Coeff-En:   0.000D+00 0.100D+01
 Coeff:     -0.385D+00 0.139D+01
 Gap=    -0.002 Goal=   None    Shift=    0.000
 Gap=    -0.002 Goal=   None    Shift=    0.000
 RMSDP=1.74D-01 MaxDP=1.22D+01 DE=-2.25D-01 OVMax= 8.54D-01

 Cycle   3  Pass 1  IDiag  1:
 RMSU=  5.93D-03    CP:  9.17D-01  1.14D-02
 E= -1144.91700321419     Delta-E=       -0.366912744805 Rises=F Damp=F
 DIIS: error= 2.04D-02 at cycle   3 NSaved=   3.
 NSaved= 3 IEnMin= 3 EnMin= -1144.91700321419     IErMin= 2 ErrMin= 1.73D-02
 ErrMax= 2.04D-02  0.00D+00 EMaxC= 1.00D-01 BMatC= 7.96D-01 BMatP= 6.95D-01
 IDIUse=2 WtCom= 0.00D+00 WtEn= 1.00D+00
 Coeff-En:   0.000D+00 0.000D+00 0.100D+01
 Coeff:      0.000D+00 0.000D+00 0.100D+01
 Gap=     0.039 Goal=   None    Shift=    0.000
 Gap=     0.039 Goal=   None    Shift=    0.000
 RMSDP=4.28D-02 MaxDP=3.83D+00 DE=-3.67D-01 OVMax= 8.71D-01

 Cycle   4  Pass 1  IDiag  1:
 RMSU=  3.86D-02    CP:  1.22D+00  7.11D-02  1.53D+00
 E= -1143.67249297757     Delta-E=        1.244510236614 Rises=F Damp=F
 DIIS: error= 6.67D-02 at cycle   4 NSaved=   4.
 NSaved= 4 IEnMin= 3 EnMin= -1144.91700321419     IErMin= 2 ErrMin= 1.73D-02
 ErrMax= 6.67D-02  0.00D+00 EMaxC= 1.00D-01 BMatC= 5.66D+00 BMatP= 6.95D-01
 IDIUse=2 WtCom= 0.00D+00 WtEn= 1.00D+00
 Coeff-En:   0.000D+00 0.000D+00 0.847D+00 0.153D+00
 Coeff:      0.000D+00 0.000D+00 0.847D+00 0.153D+00
 Gap=     0.079 Goal=   None    Shift=    0.000
 Gap=     0.079 Goal=   None    Shift=    0.000
 RMSDP=3.85D-02 MaxDP=3.39D+00 DE= 1.24D+00 OVMax= 8.18D-01

 Cycle   5  Pass 1  IDiag  1:
 RMSU=  6.08D-03    CP:  8.38D-01  1.63D-02  7.20D-01  1.93D-01
 E= -1144.97847788002     Delta-E=       -1.305984902452 Rises=F Damp=F
 DIIS: error= 1.53D-02 at cycle   5 NSaved=   5.
 NSaved= 5 IEnMin= 5 EnMin= -1144.97847788002     IErMin= 5 ErrMin= 1.53D-02
 ErrMax= 1.53D-02  0.00D+00 EMaxC= 1.00D-01 BMatC= 5.56D-01 BMatP= 6.95D-01
 IDIUse=3 WtCom= 8.47D-01 WtEn= 1.53D-01
 Coeff-Com: -0.403D-01 0.134D+00 0.445D+00 0.148D-01 0.446D+00
 Coeff-En:   0.000D+00 0.000D+00 0.416D+00 0.000D+00 0.584D+00
 Coeff:     -0.341D-01 0.114D+00 0.441D+00 0.125D-01 0.467D+00
 Gap=     0.072 Goal=   None    Shift=    0.000
 Gap=     0.072 Goal=   None    Shift=    0.000
 RMSDP=4.88D-03 MaxDP=4.07D-01 DE=-1.31D+00 OVMax= 1.13D-01

 Cycle   6  Pass 1  IDiag  1:
 RMSU=  2.10D-03    CP:  8.12D-01  1.39D-02  7.35D-01  9.98D-02  6.55D-01
 E= -1145.08458117354     Delta-E=       -0.106103293515 Rises=F Damp=F
 DIIS: error= 4.08D-03 at cycle   6 NSaved=   6.
 NSaved= 6 IEnMin= 6 EnMin= -1145.08458117354     IErMin= 6 ErrMin= 4.08D-03
 ErrMax= 4.08D-03  0.00D+00 EMaxC= 1.00D-01 BMatC= 3.58D-02 BMatP= 5.56D-01
 IDIUse=3 WtCom= 9.59D-01 WtEn= 4.08D-02
 Coeff-Com: -0.248D-01 0.577D-01 0.244D+00-0.145D-01 0.336D+00 0.402D+00
 Coeff-En:   0.000D+00 0.000D+00 0.000D+00 0.000D+00 0.000D+00 0.100D+01
 Coeff:     -0.237D-01 0.553D-01 0.234D+00-0.139D-01 0.322D+00 0.426D+00
 Gap=     0.072 Goal=   None    Shift=    0.000
 Gap=     0.072 Goal=   None    Shift=    0.000
 RMSDP=1.02D-03 MaxDP=9.02D-02 DE=-1.06D-01 OVMax= 5.47D-02

 Cycle   7  Pass 1  IDiag  1:
 RMSU=  6.53D-04    CP:  8.06D-01  1.45D-02  7.44D-01  9.15D-02  7.37D-01
                    CP:  7.98D-01
 E= -1145.09149416941     Delta-E=       -0.006912995874 Rises=F Damp=F
 DIIS: error= 9.66D-04 at cycle   7 NSaved=   7.
 NSaved= 7 IEnMin= 7 EnMin= -1145.09149416941     IErMin= 7 ErrMin= 9.66D-04
 ErrMax= 9.66D-04  0.00D+00 EMaxC= 1.00D-01 BMatC= 1.20D-03 BMatP= 3.58D-02
 IDIUse=3 WtCom= 9.90D-01 WtEn= 9.66D-03
 Coeff-Com: -0.635D-02 0.121D-01 0.591D-01-0.530D-02 0.806D-01 0.185D+00
 Coeff-Com:  0.675D+00
 Coeff-En:   0.000D+00 0.000D+00 0.000D+00 0.000D+00 0.000D+00 0.000D+00
 Coeff-En:   0.100D+01
 Coeff:     -0.629D-02 0.120D-01 0.585D-01-0.525D-02 0.799D-01 0.183D+00
 Coeff:      0.678D+00
 Gap=     0.073 Goal=   None    Shift=    0.000
 Gap=     0.073 Goal=   None    Shift=    0.000
 RMSDP=3.45D-04 MaxDP=3.71D-02 DE=-6.91D-03 OVMax= 1.65D-02

 Cycle   8  Pass 1  IDiag  1:
 RMSU=  1.64D-04    CP:  8.03D-01  1.42D-02  7.37D-01  8.88D-02  7.35D-01
                    CP:  8.85D-01  8.76D-01
 E= -1145.09166477286     Delta-E=       -0.000170603445 Rises=F Damp=F
 DIIS: error= 5.07D-04 at cycle   8 NSaved=   8.
 NSaved= 8 IEnMin= 8 EnMin= -1145.09166477286     IErMin= 8 ErrMin= 5.07D-04
 ErrMax= 5.07D-04  0.00D+00 EMaxC= 1.00D-01 BMatC= 4.41D-04 BMatP= 1.20D-03
 IDIUse=3 WtCom= 9.95D-01 WtEn= 5.07D-03
 Coeff-Com:  0.178D-02-0.449D-02 0.436D-02-0.635D-03 0.152D-02 0.502D-01
 Coeff-Com:  0.461D+00 0.486D+00
 Coeff-En:   0.000D+00 0.000D+00 0.000D+00 0.000D+00 0.000D+00 0.000D+00
 Coeff-En:   0.294D+00 0.706D+00
 Coeff:      0.177D-02-0.446D-02 0.434D-02-0.631D-03 0.151D-02 0.499D-01
 Coeff:      0.460D+00 0.488D+00
 Gap=     0.073 Goal=   None    Shift=    0.000
 Gap=     0.073 Goal=   None    Shift=    0.000
 RMSDP=1.34D-04 MaxDP=8.22D-03 DE=-1.71D-04 OVMax= 6.82D-03

 Cycle   9  Pass 1  IDiag  1:
 RMSU=  8.29D-05    CP:  8.01D-01  1.42D-02  7.34D-01  8.77D-02  7.42D-01
                    CP:  8.77D-01  9.53D-01  1.02D+00
 E= -1145.09176230018     Delta-E=       -0.000097527326 Rises=F Damp=F
 DIIS: error= 8.89D-05 at cycle   9 NSaved=   9.
 NSaved= 9 IEnMin= 9 EnMin= -1145.09176230018     IErMin= 9 ErrMin= 8.89D-05
 ErrMax= 8.89D-05  0.00D+00 EMaxC= 1.00D-01 BMatC= 3.09D-05 BMatP= 4.41D-04
 IDIUse=1 WtCom= 1.00D+00 WtEn= 0.00D+00
 Coeff-Com:  0.914D-03-0.164D-02-0.670D-03-0.358D-04-0.516D-02 0.173D-01
 Coeff-Com:  0.235D+00 0.306D+00 0.448D+00
 Coeff:      0.914D-03-0.164D-02-0.670D-03-0.358D-04-0.516D-02 0.173D-01
 Coeff:      0.235D+00 0.306D+00 0.448D+00
 Gap=     0.073 Goal=   None    Shift=    0.000
 Gap=     0.073 Goal=   None    Shift=    0.000
 RMSDP=4.40D-05 MaxDP=3.57D-03 DE=-9.75D-05 OVMax= 9.28D-04

 Cycle  10  Pass 1  IDiag  1:
 RMSU=  1.44D-05    CP:  8.02D-01  1.42D-02  7.35D-01  8.71D-02  7.39D-01
                    CP:  8.80D-01  9.60D-01  1.06D+00  8.57D-01
 E= -1145.09176870207     Delta-E=       -0.000006401889 Rises=F Damp=F
 DIIS: error= 1.98D-05 at cycle  10 NSaved=  10.
 NSaved=10 IEnMin=10 EnMin= -1145.09176870207     IErMin=10 ErrMin= 1.98D-05
 ErrMax= 1.98D-05  0.00D+00 EMaxC= 1.00D-01 BMatC= 1.40D-06 BMatP= 3.09D-05
 IDIUse=1 WtCom= 1.00D+00 WtEn= 0.00D+00
 Coeff-Com:  0.324D-03-0.347D-03-0.838D-03 0.110D-04-0.250D-02 0.407D-02
 Coeff-Com:  0.618D-01 0.946D-01 0.206D+00 0.637D+00
 Coeff:      0.324D-03-0.347D-03-0.838D-03 0.110D-04-0.250D-02 0.407D-02
 Coeff:      0.618D-01 0.946D-01 0.206D+00 0.637D+00
 Gap=     0.073 Goal=   None    Shift=    0.000
 Gap=     0.073 Goal=   None    Shift=    0.000
 RMSDP=1.48D-05 MaxDP=1.23D-03 DE=-6.40D-06 OVMax= 2.27D-04

 Cycle  11  Pass 1  IDiag  1:
 RMSU=  8.21D-06    CP:  8.02D-01  1.42D-02  7.35D-01  8.68D-02  7.39D-01
                    CP:  8.80D-01  9.62D-01  1.07D+00  8.25D-01  1.05D+00
 E= -1145.09176896000     Delta-E=       -0.000000257922 Rises=F Damp=F
 DIIS: error= 9.84D-06 at cycle  11 NSaved=  11.
 NSaved=11 IEnMin=11 EnMin= -1145.09176896000     IErMin=11 ErrMin= 9.84D-06
 ErrMax= 9.84D-06  0.00D+00 EMaxC= 1.00D-01 BMatC= 2.53D-07 BMatP= 1.40D-06
 IDIUse=1 WtCom= 1.00D+00 WtEn= 0.00D+00
 Coeff-Com:  0.173D-03-0.208D-03-0.453D-03-0.220D-05-0.798D-03 0.848D-03
 Coeff-Com:  0.120D-01 0.214D-01 0.663D-01 0.350D+00 0.550D+00
 Coeff:      0.173D-03-0.208D-03-0.453D-03-0.220D-05-0.798D-03 0.848D-03
 Coeff:      0.120D-01 0.214D-01 0.663D-01 0.350D+00 0.550D+00
 Gap=     0.073 Goal=   None    Shift=    0.000
 Gap=     0.073 Goal=   None    Shift=    0.000
 RMSDP=6.14D-06 MaxDP=5.20D-04 DE=-2.58D-07 OVMax= 8.27D-05

 Cycle  12  Pass 1  IDiag  1:
 RMSU=  2.35D-06    CP:  8.02D-01  1.42D-02  7.35D-01  8.68D-02  7.39D-01
                    CP:  8.81D-01  9.64D-01  1.08D+00  8.45D-01  1.12D+00
                    CP:  9.03D-01
 E= -1145.09176901792     Delta-E=       -0.000000057928 Rises=F Damp=F
 DIIS: error= 3.27D-06 at cycle  12 NSaved=  12.
 NSaved=12 IEnMin=12 EnMin= -1145.09176901792     IErMin=12 ErrMin= 3.27D-06
 ErrMax= 3.27D-06  0.00D+00 EMaxC= 1.00D-01 BMatC= 2.87D-08 BMatP= 2.53D-07
 IDIUse=1 WtCom= 1.00D+00 WtEn= 0.00D+00
 Coeff-Com:  0.706D-04-0.992D-04-0.175D-03 0.121D-05-0.190D-03 0.368D-04
 Coeff-Com:  0.608D-03 0.111D-02 0.168D-01 0.123D+00 0.297D+00 0.562D+00
 Coeff:      0.706D-04-0.992D-04-0.175D-03 0.121D-05-0.190D-03 0.368D-04
 Coeff:      0.608D-03 0.111D-02 0.168D-01 0.123D+00 0.297D+00 0.562D+00
 Gap=     0.073 Goal=   None    Shift=    0.000
 Gap=     0.073 Goal=   None    Shift=    0.000
 RMSDP=1.67D-06 MaxDP=1.15D-04 DE=-5.79D-08 OVMax= 5.42D-05

 Cycle  13  Pass 1  IDiag  1:
 RMSU=  7.60D-07    CP:  8.02D-01  1.42D-02  7.34D-01  8.67D-02  7.39D-01
                    CP:  8.81D-01  9.65D-01  1.09D+00  8.48D-01  1.13D+00
                    CP:  9.47D-01  9.42D-01
 E= -1145.09176902355     Delta-E=       -0.000000005627 Rises=F Damp=F
 DIIS: error= 1.68D-06 at cycle  13 NSaved=  13.
 NSaved=13 IEnMin=13 EnMin= -1145.09176902355     IErMin=13 ErrMin= 1.68D-06
 ErrMax= 1.68D-06  0.00D+00 EMaxC= 1.00D-01 BMatC= 6.67D-09 BMatP= 2.87D-08
 IDIUse=1 WtCom= 1.00D+00 WtEn= 0.00D+00
 Coeff-Com:  0.136D-04-0.210D-04-0.248D-04 0.660D-06 0.302D-04-0.178D-03
 Coeff-Com: -0.189D-02-0.392D-02 0.593D-04 0.215D-01 0.103D+00 0.348D+00
 Coeff-Com:  0.533D+00
 Coeff:      0.136D-04-0.210D-04-0.248D-04 0.660D-06 0.302D-04-0.178D-03
 Coeff:     -0.189D-02-0.392D-02 0.593D-04 0.215D-01 0.103D+00 0.348D+00
 Coeff:      0.533D+00
 Gap=     0.073 Goal=   None    Shift=    0.000
 Gap=     0.073 Goal=   None    Shift=    0.000
 RMSDP=7.62D-07 MaxDP=5.15D-05 DE=-5.63D-09 OVMax= 1.07D-05

 Cycle  14  Pass 1  IDiag  1:
 RMSU=  3.62D-07    CP:  8.02D-01  1.42D-02  7.34D-01  8.67D-02  7.39D-01
                    CP:  8.81D-01  9.65D-01  1.09D+00  8.49D-01  1.14D+00
                    CP:  9.53D-01  1.01D+00  1.09D+00
 E= -1145.09176902525     Delta-E=       -0.000000001704 Rises=F Damp=F
 DIIS: error= 4.73D-07 at cycle  14 NSaved=  14.
 NSaved=14 IEnMin=14 EnMin= -1145.09176902525     IErMin=14 ErrMin= 4.73D-07
 ErrMax= 4.73D-07  0.00D+00 EMaxC= 1.00D-01 BMatC= 6.57D-10 BMatP= 6.67D-09
 IDIUse=1 WtCom= 1.00D+00 WtEn= 0.00D+00
 Coeff-Com: -0.312D-05 0.401D-05 0.586D-05-0.272D-06 0.247D-04-0.119D-03
 Coeff-Com: -0.696D-03-0.194D-02-0.118D-02-0.653D-02 0.374D-02 0.699D-01
 Coeff-Com:  0.205D+00 0.732D+00
 Coeff:     -0.312D-05 0.401D-05 0.586D-05-0.272D-06 0.247D-04-0.119D-03
 Coeff:     -0.696D-03-0.194D-02-0.118D-02-0.653D-02 0.374D-02 0.699D-01
 Coeff:      0.205D+00 0.732D+00
 Gap=     0.073 Goal=   None    Shift=    0.000
 Gap=     0.073 Goal=   None    Shift=    0.000
 RMSDP=2.90D-07 MaxDP=2.62D-05 DE=-1.70D-09 OVMax= 8.95D-06

 Cycle  15  Pass 1  IDiag  1:
 RMSU=  1.05D-07    CP:  8.02D-01  1.42D-02  7.34D-01  8.67D-02  7.39D-01
                    CP:  8.81D-01  9.65D-01  1.09D+00  8.49D-01  1.14D+00
                    CP:  9.63D-01  1.03D+00  1.22D+00  1.02D+00
 E= -1145.09176902541     Delta-E=       -0.000000000159 Rises=F Damp=F
 DIIS: error= 2.62D-07 at cycle  15 NSaved=  15.
 NSaved=15 IEnMin=15 EnMin= -1145.09176902541     IErMin=15 ErrMin= 2.62D-07
 ErrMax= 2.62D-07  0.00D+00 EMaxC= 1.00D-01 BMatC= 1.07D-10 BMatP= 6.57D-10
 IDIUse=1 WtCom= 1.00D+00 WtEn= 0.00D+00
 Coeff-Com: -0.981D-06 0.392D-06 0.616D-05 0.132D-07 0.105D-04-0.457D-04
 Coeff-Com: -0.932D-04-0.601D-03-0.244D-03-0.474D-02-0.831D-02 0.258D-02
 Coeff-Com:  0.395D-01 0.389D+00 0.583D+00
 Coeff:     -0.981D-06 0.392D-06 0.616D-05 0.132D-07 0.105D-04-0.457D-04
 Coeff:     -0.932D-04-0.601D-03-0.244D-03-0.474D-02-0.831D-02 0.258D-02
 Coeff:      0.395D-01 0.389D+00 0.583D+00
 Gap=     0.073 Goal=   None    Shift=    0.000
 Gap=     0.073 Goal=   None    Shift=    0.000
 RMSDP=1.13D-07 MaxDP=1.41D-05 DE=-1.59D-10 OVMax= 4.28D-06

 Cycle  16  Pass 1  IDiag  1:
 RMSU=  3.86D-08    CP:  8.02D-01  1.42D-02  7.34D-01  8.67D-02  7.39D-01
                    CP:  8.81D-01  9.65D-01  1.09D+00  8.49D-01  1.14D+00
                    CP:  9.66D-01  1.04D+00  1.26D+00  1.05D+00  1.21D+00
 E= -1145.09176902545     Delta-E=       -0.000000000035 Rises=F Damp=F
 DIIS: error= 7.09D-08 at cycle  16 NSaved=  16.
 NSaved=16 IEnMin=16 EnMin= -1145.09176902545     IErMin=16 ErrMin= 7.09D-08
 ErrMax= 7.09D-08  0.00D+00 EMaxC= 1.00D-01 BMatC= 1.40D-11 BMatP= 1.07D-10
 IDIUse=1 WtCom= 1.00D+00 WtEn= 0.00D+00
 Coeff-Com:  0.212D-07 0.246D-07 0.254D-05 0.104D-08 0.189D-05-0.603D-05
 Coeff-Com:  0.429D-04-0.194D-04 0.516D-04-0.125D-02-0.542D-02-0.107D-01
 Coeff-Com: -0.280D-01 0.479D-01 0.231D+00 0.766D+00
 Coeff:      0.212D-07 0.246D-07 0.254D-05 0.104D-08 0.189D-05-0.603D-05
 Coeff:      0.429D-04-0.194D-04 0.516D-04-0.125D-02-0.542D-02-0.107D-01
 Coeff:     -0.280D-01 0.479D-01 0.231D+00 0.766D+00
 Gap=     0.073 Goal=   None    Shift=    0.000
 Gap=     0.073 Goal=   None    Shift=    0.000
 RMSDP=4.52D-08 MaxDP=3.37D-06 DE=-3.50D-11 OVMax= 2.31D-06

 Cycle  17  Pass 1  IDiag  1:
 RMSU=  1.72D-08    CP:  8.02D-01  1.42D-02  7.34D-01  8.67D-02  7.39D-01
                    CP:  8.81D-01  9.65D-01  1.09D+00  8.49D-01  1.14D+00
                    CP:  9.67D-01  1.04D+00  1.29D+00  1.08D+00  1.38D+00
                    CP:  1.08D+00
 E= -1145.09176902546     Delta-E=       -0.000000000014 Rises=F Damp=F
 DIIS: error= 3.76D-08 at cycle  17 NSaved=  17.
 NSaved=17 IEnMin=17 EnMin= -1145.09176902546     IErMin=17 ErrMin= 3.76D-08
 ErrMax= 3.76D-08  0.00D+00 EMaxC= 1.00D-01 BMatC= 4.02D-12 BMatP= 1.40D-11
 IDIUse=1 WtCom= 1.00D+00 WtEn= 0.00D+00
 Coeff-Com:  0.559D-06-0.546D-06 0.502D-06 0.286D-07-0.585D-06 0.200D-05
 Coeff-Com:  0.369D-04 0.678D-04 0.935D-04 0.218D-03-0.138D-02-0.451D-02
 Coeff-Com: -0.233D-01-0.341D-01 0.355D-01 0.478D+00 0.549D+00
 Coeff:      0.559D-06-0.546D-06 0.502D-06 0.286D-07-0.585D-06 0.200D-05
 Coeff:      0.369D-04 0.678D-04 0.935D-04 0.218D-03-0.138D-02-0.451D-02
 Coeff:     -0.233D-01-0.341D-01 0.355D-01 0.478D+00 0.549D+00
 Gap=     0.073 Goal=   None    Shift=    0.000
 Gap=     0.073 Goal=   None    Shift=    0.000
 RMSDP=2.52D-08 MaxDP=1.99D-06 DE=-1.36D-11 OVMax= 1.30D-06

 Cycle  18  Pass 1  IDiag  1:
 RMSU=  8.02D-09    CP:  8.02D-01  1.42D-02  7.34D-01  8.67D-02  7.39D-01
                    CP:  8.81D-01  9.65D-01  1.09D+00  8.49D-01  1.14D+00
                    CP:  9.67D-01  1.04D+00  1.30D+00  1.09D+00  1.45D+00
                    CP:  1.25D+00  1.01D+00
 E= -1145.09176902545     Delta-E=        0.000000000011 Rises=F Damp=F
 DIIS: error= 1.50D-08 at cycle  18 NSaved=  18.
 NSaved=18 IEnMin=17 EnMin= -1145.09176902546     IErMin=18 ErrMin= 1.50D-08
 ErrMax= 1.50D-08  0.00D+00 EMaxC= 1.00D-01 BMatC= 4.63D-13 BMatP= 4.02D-12
 IDIUse=1 WtCom= 1.00D+00 WtEn= 0.00D+00
 Coeff-Com:  0.351D-06-0.408D-06 0.146D-06-0.772D-08-0.185D-06 0.813D-06
 Coeff-Com:  0.105D-04 0.222D-04 0.291D-04 0.185D-03 0.727D-04-0.226D-03
 Coeff-Com: -0.585D-02-0.182D-01-0.146D-01 0.637D-01 0.237D+00 0.737D+00
 Coeff:      0.351D-06-0.408D-06 0.146D-06-0.772D-08-0.185D-06 0.813D-06
 Coeff:      0.105D-04 0.222D-04 0.291D-04 0.185D-03 0.727D-04-0.226D-03
 Coeff:     -0.585D-02-0.182D-01-0.146D-01 0.637D-01 0.237D+00 0.737D+00
 Gap=     0.073 Goal=   None    Shift=    0.000
 Gap=     0.073 Goal=   None    Shift=    0.000
 RMSDP=6.57D-09 MaxDP=4.03D-07 DE= 1.14D-11 OVMax= 3.24D-07

 Error on total polarization charges =  0.02744
 SCF Done:  E(UB3LYP) =  -1145.09176903     A.U. after   18 cycles
            NFock= 18  Conv=0.66D-08     -V/T= 2.0040
 <Sx>= 0.0000 <Sy>= 0.0000 <Sz>= 0.0000 <S**2>=-0.0000 S=-0.0000
 <L.S>=  0.00000000000    
 KE= 1.140586223563D+03 PE=-6.430037704587D+03 EE= 2.289629677789D+03
 Annihilation of the first spin contaminant:
 S**2 before annihilation    -0.0000,   after    -0.0000
 Leave Link  502 at Sun Jan 14 01:34:46 2024, MaxMem=  4026531840 cpu:            4744.4 elap:             595.7
 (Enter /sysapps/ubuntu-applications/gaussian/Gaussian/AVX2/g16/l601.exe)
 Copying SCF densities to generalized density rwf, IOpCl= 1 IROHF=0.

 **********************************************************************

            Population analysis using the SCF density.

 **********************************************************************

 Orbital symmetries:
 Alpha Orbitals:
       Occupied  (A) (A) (A) (A) (A) (A) (A) (A) (A) (A) (A) (A)
                 (A) (A) (A) (A) (A) (A) (A) (A) (A) (A) (A) (A)
                 (A) (A) (A) (A) (A) (A) (A) (A) (A) (A) (A) (A)
                 (A) (A) (A) (A) (A) (A) (A) (A) (A) (A) (A) (A)
                 (A) (A) (A) (A) (A) (A) (A) (A) (A) (A) (A) (A)
                 (A) (A) (A) (A) (A) (A) (A) (A) (A) (A) (A) (A)
                 (A) (A) (A) (A) (A) (A) (A) (A) (A) (A) (A) (A)
                 (A)
       Virtual   (A) (A) (A) (A) (A) (A) (A) (A) (A) (A) (A) (A)
                 (A) (A) (A) (A) (A) (A) (A) (A) (A) (A) (A) (A)
                 (A) (A) (A) (A) (A) (A) (A) (A) (A) (A) (A) (A)
                 (A) (A) (A) (A) (A) (A) (A) (A) (A) (A) (A) (A)
                 (A) (A) (A) (A) (A) (A) (A) (A) (A) (A) (A) (A)
                 (A) (A) (A) (A) (A) (A) (A) (A) (A) (A) (A) (A)
                 (A) (A) (A) (A) (A) (A) (A) (A) (A) (A) (A) (A)
                 (A) (A) (A) (A) (A) (A) (A) (A) (A) (A) (A) (A)
                 (A) (A) (A) (A) (A) (A) (A) (A) (A) (A) (A) (A)
                 (A) (A) (A) (A) (A) (A) (A) (A) (A) (A) (A) (A)
                 (A) (A) (A) (A) (A) (A) (A) (A) (A) (A) (A) (A)
                 (A) (A) (A) (A) (A) (A) (A) (A) (A) (A) (A) (A)
                 (A) (A) (A) (A) (A) (A) (A) (A) (A) (A) (A) (A)
                 (A) (A) (A) (A) (A) (A) (A) (A) (A) (A) (A) (A)
                 (A) (A) (A) (A) (A) (A) (A) (A) (A) (A) (A) (A)
                 (A) (A) (A) (A) (A) (A) (A) (A) (A) (A) (A) (A)
                 (A) (A) (A) (A) (A) (A) (A) (A) (A) (A) (A) (A)
                 (A) (A) (A) (A) (A) (A) (A) (A) (A) (A) (A) (A)
                 (A) (A) (A) (A) (A) (A) (A) (A) (A) (A) (A) (A)
                 (A) (A) (A) (A) (A) (A) (A) (A) (A) (A) (A) (A)
                 (A) (A) (A) (A) (A) (A) (A) (A) (A) (A) (A) (A)
                 (A) (A) (A) (A) (A) (A) (A) (A) (A) (A) (A) (A)
                 (A) (A) (A) (A) (A) (A) (A) (A) (A) (A) (A) (A)
                 (A) (A) (A) (A) (A) (A) (A) (A) (A) (A) (A) (A)
                 (A) (A) (A) (A) (A) (A) (A) (A) (A) (A) (A) (A)
                 (A) (A) (A) (A) (A) (A) (A) (A) (A) (A) (A) (A)
                 (A) (A) (A) (A) (A) (A) (A) (A) (A) (A) (A) (A)
                 (A) (A) (A) (A) (A) (A) (A) (A) (A) (A) (A) (A)
                 (A) (A) (A) (A) (A) (A) (A) (A) (A) (A) (A) (A)
                 (A) (A) (A) (A) (A) (A) (A) (A) (A) (A) (A) (A)
                 (A) (A) (A) (A) (A) (A) (A) (A) (A) (A) (A) (A)
                 (A) (A) (A) (A) (A) (A) (A) (A) (A) (A) (A) (A)
                 (A) (A) (A) (A) (A) (A) (A) (A) (A) (A) (A) (A)
                 (A) (A) (A) (A) (A) (A) (A) (A) (A) (A) (A) (A)
                 (A) (A) (A) (A) (A) (A) (A) (A) (A) (A) (A) (A)
                 (A) (A) (A) (A) (A) (A) (A) (A) (A) (A) (A) (A)
                 (A) (A) (A) (A) (A) (A) (A) (A) (A) (A) (A) (A)
                 (A) (A) (A) (A) (A) (A) (A) (A) (A) (A) (A) (A)
                 (A) (A) (A) (A) (A) (A) (A) (A) (A) (A) (A) (A)
                 (A) (A) (A) (A) (A) (A) (A) (A) (A) (A) (A) (A)
                 (A) (A) (A) (A) (A) (A) (A) (A) (A) (A) (A) (A)
                 (A) (A) (A) (A) (A) (A) (A) (A) (A) (A) (A) (A)
                 (A) (A) (A) (A) (A) (A) (A) (A) (A) (A) (A) (A)
                 (A) (A) (A) (A)
 Beta  Orbitals:
       Occupied  (A) (A) (A) (A) (A) (A) (A) (A) (A) (A) (A) (A)
                 (A) (A) (A) (A) (A) (A) (A) (A) (A) (A) (A) (A)
                 (A) (A) (A) (A) (A) (A) (A) (A) (A) (A) (A) (A)
                 (A) (A) (A) (A) (A) (A) (A) (A) (A) (A) (A) (A)
                 (A) (A) (A) (A) (A) (A) (A) (A) (A) (A) (A) (A)
                 (A) (A) (A) (A) (A) (A) (A) (A) (A) (A) (A) (A)
                 (A) (A) (A) (A) (A) (A) (A) (A) (A) (A) (A) (A)
                 (A)
       Virtual   (A) (A) (A) (A) (A) (A) (A) (A) (A) (A) (A) (A)
                 (A) (A) (A) (A) (A) (A) (A) (A) (A) (A) (A) (A)
                 (A) (A) (A) (A) (A) (A) (A) (A) (A) (A) (A) (A)
                 (A) (A) (A) (A) (A) (A) (A) (A) (A) (A) (A) (A)
                 (A) (A) (A) (A) (A) (A) (A) (A) (A) (A) (A) (A)
                 (A) (A) (A) (A) (A) (A) (A) (A) (A) (A) (A) (A)
                 (A) (A) (A) (A) (A) (A) (A) (A) (A) (A) (A) (A)
                 (A) (A) (A) (A) (A) (A) (A) (A) (A) (A) (A) (A)
                 (A) (A) (A) (A) (A) (A) (A) (A) (A) (A) (A) (A)
                 (A) (A) (A) (A) (A) (A) (A) (A) (A) (A) (A) (A)
                 (A) (A) (A) (A) (A) (A) (A) (A) (A) (A) (A) (A)
                 (A) (A) (A) (A) (A) (A) (A) (A) (A) (A) (A) (A)
                 (A) (A) (A) (A) (A) (A) (A) (A) (A) (A) (A) (A)
                 (A) (A) (A) (A) (A) (A) (A) (A) (A) (A) (A) (A)
                 (A) (A) (A) (A) (A) (A) (A) (A) (A) (A) (A) (A)
                 (A) (A) (A) (A) (A) (A) (A) (A) (A) (A) (A) (A)
                 (A) (A) (A) (A) (A) (A) (A) (A) (A) (A) (A) (A)
                 (A) (A) (A) (A) (A) (A) (A) (A) (A) (A) (A) (A)
                 (A) (A) (A) (A) (A) (A) (A) (A) (A) (A) (A) (A)
                 (A) (A) (A) (A) (A) (A) (A) (A) (A) (A) (A) (A)
                 (A) (A) (A) (A) (A) (A) (A) (A) (A) (A) (A) (A)
                 (A) (A) (A) (A) (A) (A) (A) (A) (A) (A) (A) (A)
                 (A) (A) (A) (A) (A) (A) (A) (A) (A) (A) (A) (A)
                 (A) (A) (A) (A) (A) (A) (A) (A) (A) (A) (A) (A)
                 (A) (A) (A) (A) (A) (A) (A) (A) (A) (A) (A) (A)
                 (A) (A) (A) (A) (A) (A) (A) (A) (A) (A) (A) (A)
                 (A) (A) (A) (A) (A) (A) (A) (A) (A) (A) (A) (A)
                 (A) (A) (A) (A) (A) (A) (A) (A) (A) (A) (A) (A)
                 (A) (A) (A) (A) (A) (A) (A) (A) (A) (A) (A) (A)
                 (A) (A) (A) (A) (A) (A) (A) (A) (A) (A) (A) (A)
                 (A) (A) (A) (A) (A) (A) (A) (A) (A) (A) (A) (A)
                 (A) (A) (A) (A) (A) (A) (A) (A) (A) (A) (A) (A)
                 (A) (A) (A) (A) (A) (A) (A) (A) (A) (A) (A) (A)
                 (A) (A) (A) (A) (A) (A) (A) (A) (A) (A) (A) (A)
                 (A) (A) (A) (A) (A) (A) (A) (A) (A) (A) (A) (A)
                 (A) (A) (A) (A) (A) (A) (A) (A) (A) (A) (A) (A)
                 (A) (A) (A) (A) (A) (A) (A) (A) (A) (A) (A) (A)
                 (A) (A) (A) (A) (A) (A) (A) (A) (A) (A) (A) (A)
                 (A) (A) (A) (A) (A) (A) (A) (A) (A) (A) (A) (A)
                 (A) (A) (A) (A) (A) (A) (A) (A) (A) (A) (A) (A)
                 (A) (A) (A) (A) (A) (A) (A) (A) (A) (A) (A) (A)
                 (A) (A) (A) (A) (A) (A) (A) (A) (A) (A) (A) (A)
                 (A) (A) (A) (A) (A) (A) (A) (A) (A) (A) (A) (A)
                 (A) (A) (A) (A)
 The electronic state is 1-A.
 Alpha  occ. eigenvalues --  -19.17504 -19.17502 -19.11714 -19.11712 -19.02356
 Alpha  occ. eigenvalues --  -19.02100 -10.31036 -10.31036 -10.21712 -10.21711
 Alpha  occ. eigenvalues --  -10.17857 -10.17615 -10.17615 -10.17549 -10.15669
 Alpha  occ. eigenvalues --  -10.15669 -10.15434 -10.15434 -10.15296 -10.15296
 Alpha  occ. eigenvalues --  -10.14139 -10.14138 -10.13868 -10.13867  -1.11195
 Alpha  occ. eigenvalues --   -1.11195  -1.03083  -1.03082  -0.94809  -0.94403
 Alpha  occ. eigenvalues --   -0.83923  -0.83485  -0.77416  -0.76243  -0.74477
 Alpha  occ. eigenvalues --   -0.73182  -0.72942  -0.71069  -0.65418  -0.63297
 Alpha  occ. eigenvalues --   -0.63065  -0.58665  -0.58006  -0.55688  -0.53168
 Alpha  occ. eigenvalues --   -0.50427  -0.50093  -0.49220  -0.48702  -0.48585
 Alpha  occ. eigenvalues --   -0.47924  -0.46997  -0.46676  -0.44283  -0.43938
 Alpha  occ. eigenvalues --   -0.41989  -0.41522  -0.41294  -0.41290  -0.40762
 Alpha  occ. eigenvalues --   -0.40243  -0.39467  -0.38740  -0.38394  -0.38007
 Alpha  occ. eigenvalues --   -0.37507  -0.36985  -0.36316  -0.35261  -0.33638
 Alpha  occ. eigenvalues --   -0.33455  -0.33369  -0.33010  -0.31501  -0.30817
 Alpha  occ. eigenvalues --   -0.29819  -0.28807  -0.28758  -0.24059  -0.23116
 Alpha  occ. eigenvalues --   -0.22639  -0.21802  -0.20572  -0.19791  -0.10545
 Alpha virt. eigenvalues --   -0.03270  -0.01346  -0.00392  -0.00132  -0.00089
 Alpha virt. eigenvalues --    0.00717   0.01000   0.01731   0.01869   0.02075
 Alpha virt. eigenvalues --    0.03310   0.03473   0.03715   0.04073   0.04624
 Alpha virt. eigenvalues --    0.04764   0.05302   0.05482   0.06365   0.06368
 Alpha virt. eigenvalues --    0.06545   0.06854   0.07249   0.07628   0.08331
 Alpha virt. eigenvalues --    0.08538   0.08955   0.09330   0.09597   0.10130
 Alpha virt. eigenvalues --    0.10286   0.10313   0.10572   0.10842   0.11183
 Alpha virt. eigenvalues --    0.11466   0.11678   0.12192   0.12318   0.12591
 Alpha virt. eigenvalues --    0.13068   0.13545   0.13797   0.13833   0.14000
 Alpha virt. eigenvalues --    0.14268   0.14447   0.14643   0.15087   0.15548
 Alpha virt. eigenvalues --    0.15713   0.15717   0.15809   0.16259   0.16965
 Alpha virt. eigenvalues --    0.17134   0.17373   0.17546   0.18110   0.18381
 Alpha virt. eigenvalues --    0.18593   0.18936   0.19043   0.19434   0.19783
 Alpha virt. eigenvalues --    0.20099   0.20412   0.20555   0.20969   0.21293
 Alpha virt. eigenvalues --    0.22046   0.22414   0.22617   0.22927   0.23690
 Alpha virt. eigenvalues --    0.24032   0.24324   0.24568   0.24806   0.25329
 Alpha virt. eigenvalues --    0.25465   0.25691   0.26037   0.26656   0.26800
 Alpha virt. eigenvalues --    0.27043   0.27677   0.27800   0.28337   0.28461
 Alpha virt. eigenvalues --    0.28971   0.29180   0.29443   0.29644   0.29730
 Alpha virt. eigenvalues --    0.30192   0.30627   0.30744   0.31168   0.31374
 Alpha virt. eigenvalues --    0.31405   0.31749   0.32233   0.32550   0.32616
 Alpha virt. eigenvalues --    0.32795   0.32899   0.33576   0.33778   0.33912
 Alpha virt. eigenvalues --    0.34049   0.34310   0.34657   0.34807   0.34823
 Alpha virt. eigenvalues --    0.35687   0.36066   0.36260   0.36427   0.37413
 Alpha virt. eigenvalues --    0.37714   0.37965   0.38768   0.39141   0.39450
 Alpha virt. eigenvalues --    0.39760   0.41058   0.41189   0.41706   0.41814
 Alpha virt. eigenvalues --    0.42904   0.43059   0.43936   0.44561   0.45090
 Alpha virt. eigenvalues --    0.46620   0.46948   0.47345   0.47799   0.48427
 Alpha virt. eigenvalues --    0.48932   0.49396   0.49865   0.51749   0.52327
 Alpha virt. eigenvalues --    0.52821   0.53636   0.54321   0.55892   0.57559
 Alpha virt. eigenvalues --    0.58357   0.58657   0.59301   0.59391   0.60689
 Alpha virt. eigenvalues --    0.60717   0.61372   0.61616   0.62118   0.62518
 Alpha virt. eigenvalues --    0.62890   0.63996   0.64688   0.65163   0.65633
 Alpha virt. eigenvalues --    0.66132   0.66249   0.66448   0.67098   0.67171
 Alpha virt. eigenvalues --    0.67512   0.67832   0.67916   0.68321   0.68396
 Alpha virt. eigenvalues --    0.69427   0.69784   0.70157   0.70995   0.72014
 Alpha virt. eigenvalues --    0.72549   0.73513   0.74328   0.75298   0.75545
 Alpha virt. eigenvalues --    0.75909   0.76164   0.76902   0.77851   0.78152
 Alpha virt. eigenvalues --    0.78501   0.79232   0.79766   0.80801   0.81227
 Alpha virt. eigenvalues --    0.81665   0.82039   0.83617   0.83668   0.86871
 Alpha virt. eigenvalues --    0.88642   0.89099   0.89282   0.89455   0.90194
 Alpha virt. eigenvalues --    0.91265   0.92515   0.92803   0.93854   0.94912
 Alpha virt. eigenvalues --    0.95198   0.95527   0.96010   0.97820   0.99407
 Alpha virt. eigenvalues --    1.00692   1.01197   1.01442   1.02310   1.03593
 Alpha virt. eigenvalues --    1.03625   1.04445   1.04858   1.06008   1.06327
 Alpha virt. eigenvalues --    1.07980   1.08367   1.09215   1.09659   1.10731
 Alpha virt. eigenvalues --    1.10842   1.11133   1.12901   1.13542   1.15162
 Alpha virt. eigenvalues --    1.15569   1.16392   1.16463   1.17376   1.18157
 Alpha virt. eigenvalues --    1.18425   1.18791   1.20465   1.20683   1.21259
 Alpha virt. eigenvalues --    1.21679   1.21974   1.23557   1.24108   1.24760
 Alpha virt. eigenvalues --    1.26768   1.27156   1.28056   1.28298   1.29117
 Alpha virt. eigenvalues --    1.29563   1.30936   1.33860   1.33903   1.34878
 Alpha virt. eigenvalues --    1.36182   1.37214   1.38371   1.38712   1.39699
 Alpha virt. eigenvalues --    1.41350   1.41734   1.43325   1.45156   1.45207
 Alpha virt. eigenvalues --    1.46713   1.48724   1.49396   1.51646   1.52450
 Alpha virt. eigenvalues --    1.53084   1.53175   1.54804   1.54973   1.55573
 Alpha virt. eigenvalues --    1.56390   1.56955   1.57516   1.57858   1.58749
 Alpha virt. eigenvalues --    1.60100   1.60286   1.61372   1.61644   1.61846
 Alpha virt. eigenvalues --    1.63025   1.63575   1.64814   1.64893   1.65093
 Alpha virt. eigenvalues --    1.66786   1.67770   1.69069   1.72387   1.73344
 Alpha virt. eigenvalues --    1.75270   1.75853   1.76141   1.76940   1.76944
 Alpha virt. eigenvalues --    1.77676   1.80431   1.80467   1.81739   1.83314
 Alpha virt. eigenvalues --    1.83465   1.84336   1.85964   1.86128   1.87760
 Alpha virt. eigenvalues --    1.88389   1.89760   1.90327   1.90350   1.92802
 Alpha virt. eigenvalues --    1.93565   1.94927   1.94978   1.96397   1.97036
 Alpha virt. eigenvalues --    1.97372   1.98419   1.99665   2.00806   2.01251
 Alpha virt. eigenvalues --    2.02173   2.03464   2.05005   2.05252   2.05768
 Alpha virt. eigenvalues --    2.07220   2.08615   2.09346   2.09725   2.11642
 Alpha virt. eigenvalues --    2.11674   2.12865   2.13037   2.17335   2.19963
 Alpha virt. eigenvalues --    2.22322   2.23613   2.24422   2.25179   2.25351
 Alpha virt. eigenvalues --    2.28756   2.29824   2.31069   2.34671   2.35644
 Alpha virt. eigenvalues --    2.36451   2.38062   2.38824   2.40817   2.42488
 Alpha virt. eigenvalues --    2.44476   2.46676   2.46795   2.49874   2.51336
 Alpha virt. eigenvalues --    2.52616   2.52632   2.55243   2.55679   2.56498
 Alpha virt. eigenvalues --    2.57643   2.59096   2.59929   2.60975   2.61245
 Alpha virt. eigenvalues --    2.63730   2.67083   2.68018   2.68951   2.69864
 Alpha virt. eigenvalues --    2.70989   2.71662   2.71858   2.74830   2.74998
 Alpha virt. eigenvalues --    2.76243   2.77397   2.78870   2.80328   2.80564
 Alpha virt. eigenvalues --    2.80669   2.81049   2.81366   2.83241   2.83464
 Alpha virt. eigenvalues --    2.84091   2.87142   2.88056   2.88774   2.89429
 Alpha virt. eigenvalues --    2.90519   2.90918   2.91165   2.92642   2.93554
 Alpha virt. eigenvalues --    2.93600   2.95240   2.95395   2.98209   2.98949
 Alpha virt. eigenvalues --    3.00123   3.00557   3.00702   3.03268   3.04032
 Alpha virt. eigenvalues --    3.04727   3.07199   3.12474   3.12677   3.12783
 Alpha virt. eigenvalues --    3.13888   3.17867   3.18213   3.18781   3.19681
 Alpha virt. eigenvalues --    3.20963   3.21198   3.24595   3.25682   3.26771
 Alpha virt. eigenvalues --    3.27087   3.29882   3.31088   3.36419   3.36803
 Alpha virt. eigenvalues --    3.37027   3.37437   3.39234   3.41029   3.42368
 Alpha virt. eigenvalues --    3.47246   3.48255   3.53485   3.54578   3.56300
 Alpha virt. eigenvalues --    3.57981   3.58179   3.59015   3.59887   3.62162
 Alpha virt. eigenvalues --    3.64298   3.64695   3.69845   3.71163   3.73005
 Alpha virt. eigenvalues --    3.78590   3.78751   3.82150   3.84711   3.84968
 Alpha virt. eigenvalues --    3.88920   3.91682   4.04898   4.04956   4.09308
 Alpha virt. eigenvalues --    4.12333   4.17810   4.18243   4.19593   4.19634
 Alpha virt. eigenvalues --    4.21523   4.24097   4.33144   4.36861   4.55255
 Alpha virt. eigenvalues --    4.85254   4.85544   4.87600   5.06970   5.07074
 Alpha virt. eigenvalues --    5.09249   5.09320   5.13750   5.14946   5.20586
 Alpha virt. eigenvalues --    5.20905   5.31863   5.34017   5.35435   5.36050
 Alpha virt. eigenvalues --    5.67665   5.68557   5.79812   5.87328   5.91369
 Alpha virt. eigenvalues --    5.91572  23.56078  23.71494  23.82624  23.82912
 Alpha virt. eigenvalues --   23.91500  23.93395  23.94990  23.96173  23.96213
 Alpha virt. eigenvalues --   23.98822  24.00160  24.00282  24.02366  24.06417
 Alpha virt. eigenvalues --   24.14581  24.14946  24.20607  24.20612  49.92184
 Alpha virt. eigenvalues --   49.92556  49.98939  49.98963  50.10897  50.16655
  Beta  occ. eigenvalues --  -19.17504 -19.17502 -19.11714 -19.11712 -19.02356
  Beta  occ. eigenvalues --  -19.02100 -10.31036 -10.31036 -10.21712 -10.21711
  Beta  occ. eigenvalues --  -10.17857 -10.17615 -10.17615 -10.17549 -10.15669
  Beta  occ. eigenvalues --  -10.15669 -10.15434 -10.15434 -10.15296 -10.15296
  Beta  occ. eigenvalues --  -10.14139 -10.14138 -10.13868 -10.13867  -1.11195
  Beta  occ. eigenvalues --   -1.11195  -1.03083  -1.03082  -0.94809  -0.94403
  Beta  occ. eigenvalues --   -0.83923  -0.83485  -0.77416  -0.76243  -0.74477
  Beta  occ. eigenvalues --   -0.73182  -0.72942  -0.71069  -0.65418  -0.63297
  Beta  occ. eigenvalues --   -0.63065  -0.58665  -0.58006  -0.55688  -0.53168
  Beta  occ. eigenvalues --   -0.50427  -0.50093  -0.49220  -0.48702  -0.48585
  Beta  occ. eigenvalues --   -0.47924  -0.46997  -0.46676  -0.44283  -0.43938
  Beta  occ. eigenvalues --   -0.41989  -0.41522  -0.41294  -0.41290  -0.40762
  Beta  occ. eigenvalues --   -0.40243  -0.39467  -0.38740  -0.38394  -0.38007
  Beta  occ. eigenvalues --   -0.37507  -0.36985  -0.36316  -0.35261  -0.33638
  Beta  occ. eigenvalues --   -0.33455  -0.33369  -0.33010  -0.31501  -0.30817
  Beta  occ. eigenvalues --   -0.29819  -0.28807  -0.28758  -0.24059  -0.23116
  Beta  occ. eigenvalues --   -0.22639  -0.21802  -0.20572  -0.19791  -0.10545
  Beta virt. eigenvalues --   -0.03270  -0.01346  -0.00392  -0.00132  -0.00089
  Beta virt. eigenvalues --    0.00717   0.01000   0.01731   0.01869   0.02075
  Beta virt. eigenvalues --    0.03310   0.03473   0.03715   0.04073   0.04624
  Beta virt. eigenvalues --    0.04764   0.05302   0.05482   0.06365   0.06368
  Beta virt. eigenvalues --    0.06545   0.06854   0.07249   0.07628   0.08331
  Beta virt. eigenvalues --    0.08538   0.08955   0.09330   0.09597   0.10130
  Beta virt. eigenvalues --    0.10286   0.10313   0.10572   0.10842   0.11183
  Beta virt. eigenvalues --    0.11466   0.11678   0.12192   0.12318   0.12591
  Beta virt. eigenvalues --    0.13068   0.13545   0.13797   0.13833   0.14000
  Beta virt. eigenvalues --    0.14268   0.14447   0.14643   0.15087   0.15548
  Beta virt. eigenvalues --    0.15713   0.15717   0.15809   0.16259   0.16965
  Beta virt. eigenvalues --    0.17134   0.17373   0.17546   0.18110   0.18381
  Beta virt. eigenvalues --    0.18593   0.18936   0.19043   0.19434   0.19783
  Beta virt. eigenvalues --    0.20099   0.20412   0.20555   0.20969   0.21293
  Beta virt. eigenvalues --    0.22046   0.22414   0.22617   0.22927   0.23690
  Beta virt. eigenvalues --    0.24032   0.24324   0.24568   0.24806   0.25329
  Beta virt. eigenvalues --    0.25465   0.25691   0.26037   0.26656   0.26800
  Beta virt. eigenvalues --    0.27043   0.27677   0.27800   0.28337   0.28461
  Beta virt. eigenvalues --    0.28971   0.29180   0.29443   0.29644   0.29730
  Beta virt. eigenvalues --    0.30192   0.30627   0.30744   0.31168   0.31374
  Beta virt. eigenvalues --    0.31405   0.31749   0.32233   0.32550   0.32616
  Beta virt. eigenvalues --    0.32795   0.32899   0.33576   0.33778   0.33912
  Beta virt. eigenvalues --    0.34049   0.34310   0.34657   0.34807   0.34823
  Beta virt. eigenvalues --    0.35687   0.36066   0.36260   0.36427   0.37413
  Beta virt. eigenvalues --    0.37714   0.37965   0.38768   0.39141   0.39450
  Beta virt. eigenvalues --    0.39760   0.41058   0.41189   0.41706   0.41814
  Beta virt. eigenvalues --    0.42904   0.43059   0.43936   0.44561   0.45090
  Beta virt. eigenvalues --    0.46620   0.46948   0.47345   0.47799   0.48427
  Beta virt. eigenvalues --    0.48932   0.49396   0.49865   0.51749   0.52327
  Beta virt. eigenvalues --    0.52821   0.53636   0.54321   0.55892   0.57559
  Beta virt. eigenvalues --    0.58357   0.58657   0.59301   0.59391   0.60689
  Beta virt. eigenvalues --    0.60717   0.61372   0.61616   0.62118   0.62518
  Beta virt. eigenvalues --    0.62890   0.63996   0.64688   0.65163   0.65633
  Beta virt. eigenvalues --    0.66132   0.66249   0.66448   0.67098   0.67171
  Beta virt. eigenvalues --    0.67512   0.67832   0.67916   0.68321   0.68396
  Beta virt. eigenvalues --    0.69427   0.69784   0.70157   0.70995   0.72014
  Beta virt. eigenvalues --    0.72549   0.73513   0.74328   0.75298   0.75545
  Beta virt. eigenvalues --    0.75909   0.76164   0.76902   0.77851   0.78152
  Beta virt. eigenvalues --    0.78501   0.79232   0.79766   0.80801   0.81227
  Beta virt. eigenvalues --    0.81665   0.82039   0.83617   0.83668   0.86871
  Beta virt. eigenvalues --    0.88642   0.89099   0.89282   0.89455   0.90194
  Beta virt. eigenvalues --    0.91265   0.92515   0.92803   0.93854   0.94912
  Beta virt. eigenvalues --    0.95198   0.95527   0.96010   0.97820   0.99407
  Beta virt. eigenvalues --    1.00692   1.01197   1.01442   1.02310   1.03593
  Beta virt. eigenvalues --    1.03625   1.04445   1.04858   1.06008   1.06327
  Beta virt. eigenvalues --    1.07980   1.08367   1.09215   1.09659   1.10731
  Beta virt. eigenvalues --    1.10842   1.11133   1.12901   1.13542   1.15162
  Beta virt. eigenvalues --    1.15569   1.16392   1.16463   1.17376   1.18157
  Beta virt. eigenvalues --    1.18425   1.18791   1.20465   1.20683   1.21259
  Beta virt. eigenvalues --    1.21679   1.21974   1.23557   1.24108   1.24760
  Beta virt. eigenvalues --    1.26768   1.27156   1.28056   1.28298   1.29117
  Beta virt. eigenvalues --    1.29563   1.30936   1.33860   1.33903   1.34878
  Beta virt. eigenvalues --    1.36182   1.37214   1.38371   1.38712   1.39699
  Beta virt. eigenvalues --    1.41350   1.41734   1.43325   1.45156   1.45207
  Beta virt. eigenvalues --    1.46713   1.48724   1.49396   1.51646   1.52450
  Beta virt. eigenvalues --    1.53084   1.53175   1.54804   1.54973   1.55573
  Beta virt. eigenvalues --    1.56390   1.56955   1.57516   1.57858   1.58749
  Beta virt. eigenvalues --    1.60100   1.60286   1.61372   1.61644   1.61846
  Beta virt. eigenvalues --    1.63025   1.63575   1.64814   1.64893   1.65093
  Beta virt. eigenvalues --    1.66786   1.67770   1.69069   1.72387   1.73344
  Beta virt. eigenvalues --    1.75270   1.75853   1.76141   1.76940   1.76944
  Beta virt. eigenvalues --    1.77676   1.80431   1.80467   1.81739   1.83314
  Beta virt. eigenvalues --    1.83465   1.84336   1.85964   1.86128   1.87760
  Beta virt. eigenvalues --    1.88389   1.89760   1.90327   1.90350   1.92802
  Beta virt. eigenvalues --    1.93565   1.94927   1.94978   1.96397   1.97036
  Beta virt. eigenvalues --    1.97372   1.98419   1.99665   2.00806   2.01251
  Beta virt. eigenvalues --    2.02173   2.03464   2.05005   2.05252   2.05768
  Beta virt. eigenvalues --    2.07220   2.08615   2.09346   2.09725   2.11642
  Beta virt. eigenvalues --    2.11674   2.12865   2.13037   2.17335   2.19963
  Beta virt. eigenvalues --    2.22322   2.23613   2.24422   2.25179   2.25351
  Beta virt. eigenvalues --    2.28756   2.29824   2.31069   2.34671   2.35644
  Beta virt. eigenvalues --    2.36451   2.38062   2.38824   2.40817   2.42488
  Beta virt. eigenvalues --    2.44476   2.46676   2.46795   2.49874   2.51336
  Beta virt. eigenvalues --    2.52616   2.52632   2.55243   2.55679   2.56498
  Beta virt. eigenvalues --    2.57643   2.59096   2.59929   2.60975   2.61245
  Beta virt. eigenvalues --    2.63730   2.67083   2.68018   2.68951   2.69864
  Beta virt. eigenvalues --    2.70989   2.71662   2.71858   2.74830   2.74998
  Beta virt. eigenvalues --    2.76243   2.77397   2.78870   2.80328   2.80564
  Beta virt. eigenvalues --    2.80669   2.81049   2.81366   2.83241   2.83464
  Beta virt. eigenvalues --    2.84091   2.87142   2.88056   2.88774   2.89429
  Beta virt. eigenvalues --    2.90519   2.90918   2.91165   2.92642   2.93554
  Beta virt. eigenvalues --    2.93600   2.95240   2.95395   2.98209   2.98949
  Beta virt. eigenvalues --    3.00123   3.00557   3.00702   3.03268   3.04032
  Beta virt. eigenvalues --    3.04727   3.07199   3.12474   3.12677   3.12783
  Beta virt. eigenvalues --    3.13888   3.17867   3.18213   3.18781   3.19681
  Beta virt. eigenvalues --    3.20963   3.21198   3.24595   3.25682   3.26771
  Beta virt. eigenvalues --    3.27087   3.29882   3.31088   3.36419   3.36803
  Beta virt. eigenvalues --    3.37027   3.37437   3.39234   3.41029   3.42368
  Beta virt. eigenvalues --    3.47246   3.48255   3.53485   3.54578   3.56300
  Beta virt. eigenvalues --    3.57981   3.58179   3.59015   3.59887   3.62162
  Beta virt. eigenvalues --    3.64298   3.64695   3.69845   3.71163   3.73005
  Beta virt. eigenvalues --    3.78590   3.78751   3.82150   3.84711   3.84968
  Beta virt. eigenvalues --    3.88920   3.91682   4.04898   4.04956   4.09308
  Beta virt. eigenvalues --    4.12333   4.17810   4.18243   4.19593   4.19634
  Beta virt. eigenvalues --    4.21523   4.24097   4.33144   4.36861   4.55255
  Beta virt. eigenvalues --    4.85254   4.85544   4.87600   5.06970   5.07074
  Beta virt. eigenvalues --    5.09249   5.09320   5.13750   5.14946   5.20586
  Beta virt. eigenvalues --    5.20905   5.31863   5.34017   5.35435   5.36050
  Beta virt. eigenvalues --    5.67665   5.68557   5.79812   5.87328   5.91369
  Beta virt. eigenvalues --    5.91572  23.56078  23.71494  23.82624  23.82912
  Beta virt. eigenvalues --   23.91500  23.93395  23.94990  23.96173  23.96213
  Beta virt. eigenvalues --   23.98822  24.00160  24.00282  24.02366  24.06417
  Beta virt. eigenvalues --   24.14581  24.14946  24.20607  24.20612  49.92184
  Beta virt. eigenvalues --   49.92556  49.98939  49.98963  50.10897  50.16655
          Condensed to atoms (all electrons):
               1          2          3          4          5          6
     1  C   14.957359  -1.557956  -4.875684   1.172511  -0.921139   3.239128
     2  C   -1.557956  12.971627   0.112435  -3.689563  -0.497748  -0.332145
     3  C   -4.875684   0.112435  12.299279  -0.290282  -1.980388  -1.466773
     4  C    1.172511  -3.689563  -0.290282  17.471919   0.106923  -0.134329
     5  C   -0.921139  -0.497748  -1.980388   0.106923  14.911320   1.498283
     6  C    3.239128  -0.332145  -1.466773  -0.134329   1.498283  10.353888
     7  C   -2.209530   0.937778   0.510136  -1.472935   0.969414  -0.800204
     8  C   -0.060476   0.089886   0.179513  -1.706667  -4.116331  -1.798061
     9  C   -0.757444  -0.699580  -0.049099  -4.119784  -1.165077  -0.797908
    10  C   -2.036465  -0.632900   1.298248   0.712613  -0.191263  -3.063118
    11  C   -0.403623  -0.197021  -0.145060  -0.062729  -0.758583  -0.216929
    12  C   -0.198106  -0.006009   0.005745   0.088402  -0.701511  -0.194564
    13  C   -0.145074   0.005903   0.025975   0.180269  -0.047570  -0.198061
    14  C   -0.215835  -0.193849  -0.198680  -1.798467  -0.798438  -0.430997
    15  O    0.186995   0.151638   0.003905  -0.467803  -0.189820  -0.019552
    16  O   -0.018437  -0.013860   0.100732  -0.195314  -0.413013   0.150236
    17  H    0.024908   0.041529  -0.047239   0.064765   0.003693   0.319285
    18  H   -0.005320  -0.002497  -0.002113  -0.018917  -0.048375  -0.025431
    19  H    0.401344  -0.113268  -0.028669   0.022054   0.063695   0.027549
    20  H   -0.016472  -0.005952  -0.001959  -0.031295   0.010735  -0.003058
    21  H    0.000346  -0.000180  -0.000040   0.005512   0.017171   0.003182
    22  O   -0.000472   0.000265  -0.000029  -0.001275  -0.000088  -0.000149
    23  C   -0.001972  -0.000467  -0.000198  -0.003797  -0.020561  -0.002320
    24  C    0.000101  -0.000062  -0.000005  -0.000029  -0.000017   0.000086
    25  O    0.000135   0.000001   0.000016  -0.000007   0.000535   0.000078
    26  O   -0.191938   0.464738  -0.172404  -0.045584   0.002604  -0.018874
    27  H   -0.000132  -0.000024  -0.000010   0.000471  -0.000010   0.000018
    28  H   -0.000005   0.000001   0.000002   0.000017  -0.000041  -0.000006
    29  H    0.000008  -0.000003   0.000001  -0.000076  -0.000005   0.000004
    30  C   -0.227419   0.351542   0.118930  -0.196359  -0.121566  -0.083158
    31  C    0.049207  -0.067321  -0.020795  -0.005378  -0.004205   0.008421
    32  O   -0.058361  -0.042521   0.104401   0.014795   0.008271  -0.065273
    33  H   -0.071487  -0.274300   0.587230  -0.015724   0.011047  -0.004838
    34  H    0.026949  -0.015427  -0.014091   0.001224  -0.001823   0.001858
    35  H    0.007391  -0.018642   0.001932  -0.000777  -0.000479   0.001091
    36  H   -0.014907   0.005880   0.011295  -0.000690  -0.000444  -0.003904
               7          8          9         10         11         12
     1  C   -2.209530  -0.060476  -0.757444  -2.036465  -0.403623  -0.198106
     2  C    0.937778   0.089886  -0.699580  -0.632900  -0.197021  -0.006009
     3  C    0.510136   0.179513  -0.049099   1.298248  -0.145060   0.005745
     4  C   -1.472935  -1.706667  -4.119784   0.712613  -0.062729   0.088402
     5  C    0.969414  -4.116331  -1.165077  -0.191263  -0.758583  -0.701511
     6  C   -0.800204  -1.798061  -0.797908  -3.063118  -0.216929  -0.194564
     7  C    9.099690  -1.473969   0.968074   1.123592  -2.210201   0.935558
     8  C   -1.473969  17.475368   0.109637   0.713286   1.174972  -3.697584
     9  C    0.968074   0.109637  14.912132  -0.192936  -0.919741  -0.499185
    10  C    1.123592   0.713286  -0.192936  12.430071  -2.037018  -0.635422
    11  C   -2.210201   1.174972  -0.919741  -2.037018  14.961985  -1.553726
[...]
  XXX=              0.2095  YYY=           -109.3748  ZZZ=             -3.6131  XYY=              0.0104
  XXY=           -132.4812  XXZ=           -168.3027  XZZ=             -0.0365  YZZ=            -11.8680
  YYZ=             14.6543  XYZ=              0.0041
 Hexadecapole moment (field-independent basis, Debye-Ang**3):
 XXXX=         -13045.5627 YYYY=          -2515.4364 ZZZZ=           -405.7748 XXXY=              0.3188
 XXXZ=              0.5602 YYYX=             -0.0553 YYYZ=              2.0531 ZZZX=             -0.0356
 ZZZY=              1.3834 XXYY=          -2379.9629 XXZZ=          -2748.0951 YYZZ=           -412.8203
 XXYZ=            -93.3267 YYXZ=             -0.0203 ZZXY=              0.0702
 N-N= 1.854730034209D+03 E-N=-6.430037706644D+03  KE= 1.140586223563D+03
                          Isotropic Fermi Contact Couplings
        Atom                 a.u.       MegaHertz       Gauss      10(-4) cm-1
     1  C(13)              0.00000       0.00000       0.00000       0.00000
     2  C(13)              0.00000       0.00000       0.00000       0.00000
     3  C(13)              0.00000       0.00000       0.00000       0.00000
     4  C(13)             -0.00000      -0.00000      -0.00000      -0.00000
     5  C(13)             -0.00000      -0.00000      -0.00000      -0.00000
     6  C(13)              0.00000       0.00000       0.00000       0.00000
     7  C(13)             -0.00000      -0.00000      -0.00000      -0.00000
     8  C(13)             -0.00000      -0.00000      -0.00000      -0.00000
     9  C(13)             -0.00000      -0.00000      -0.00000      -0.00000
    10  C(13)             -0.00000      -0.00000      -0.00000      -0.00000
    11  C(13)              0.00000       0.00000       0.00000       0.00000
    12  C(13)              0.00000       0.00000       0.00000       0.00000
    13  C(13)              0.00000       0.00000       0.00000       0.00000
    14  C(13)             -0.00000      -0.00000      -0.00000      -0.00000
    15  O(17)              0.00000      -0.00000      -0.00000      -0.00000
    16  O(17)             -0.00000       0.00000       0.00000       0.00000
    17  H(1)               0.00000       0.00000       0.00000       0.00000
    18  H(1)              -0.00000      -0.00000      -0.00000      -0.00000
    19  H(1)              -0.00000      -0.00000      -0.00000      -0.00000
    20  H(1)              -0.00000      -0.00000      -0.00000      -0.00000
    21  H(1)               0.00000       0.00000       0.00000       0.00000
    22  O(17)              0.00000      -0.00000      -0.00000      -0.00000
    23  C(13)             -0.00000      -0.00000      -0.00000      -0.00000
    24  C(13)             -0.00000      -0.00000      -0.00000      -0.00000
    25  O(17)              0.00000      -0.00000      -0.00000      -0.00000
    26  O(17)              0.00000      -0.00000      -0.00000      -0.00000
    27  H(1)               0.00000       0.00000       0.00000       0.00000
    28  H(1)              -0.00000      -0.00000      -0.00000      -0.00000
    29  H(1)               0.00000       0.00000       0.00000       0.00000
    30  C(13)              0.00000       0.00000       0.00000       0.00000
    31  C(13)             -0.00000      -0.00000      -0.00000      -0.00000
    32  O(17)             -0.00000       0.00000       0.00000       0.00000
    33  H(1)              -0.00000      -0.00000      -0.00000      -0.00000
    34  H(1)               0.00000       0.00000       0.00000       0.00000
    35  H(1)               0.00000       0.00000       0.00000       0.00000
    36  H(1)              -0.00000      -0.00000      -0.00000      -0.00000
 --------------------------------------------------------
       Center         ----  Spin Dipole Couplings  ----
                      3XX-RR        3YY-RR        3ZZ-RR
 --------------------------------------------------------
     1   Atom        0.000000      0.000000     -0.000000
     2   Atom        0.000000     -0.000000      0.000000
     3   Atom       -0.000000      0.000000      0.000000
     4   Atom       -0.000000      0.000000     -0.000000
     5   Atom        0.000000      0.000000     -0.000000
     6   Atom        0.000000     -0.000000     -0.000000
     7   Atom        0.000000     -0.000000      0.000000
     8   Atom       -0.000000      0.000000      0.000000
     9   Atom       -0.000000      0.000000      0.000000
    10   Atom       -0.000000     -0.000000      0.000000
    11   Atom        0.000000     -0.000000     -0.000000
    12   Atom       -0.000000      0.000000      0.000000
    13   Atom       -0.000000      0.000000      0.000000
    14   Atom        0.000000     -0.000000     -0.000000
    15   Atom       -0.000000      0.000000      0.000000
    16   Atom        0.000000     -0.000000     -0.000000
    17   Atom       -0.000000      0.000000     -0.000000
    18   Atom        0.000000      0.000000     -0.000000
    19   Atom        0.000000     -0.000000      0.000000
    20   Atom        0.000000      0.000000     -0.000000
    21   Atom        0.000000     -0.000000      0.000000
    22   Atom        0.000000     -0.000000      0.000000
    23   Atom       -0.000000      0.000000     -0.000000
    24   Atom       -0.000000      0.000000      0.000000
    25   Atom       -0.000000      0.000000     -0.000000
    26   Atom        0.000000     -0.000000      0.000000
    27   Atom        0.000000     -0.000000     -0.000000
    28   Atom        0.000000     -0.000000      0.000000
    29   Atom       -0.000000     -0.000000      0.000000
    30   Atom        0.000000      0.000000     -0.000000
    31   Atom        0.000000     -0.000000      0.000000
    32   Atom        0.000000     -0.000000      0.000000
    33   Atom        0.000000     -0.000000     -0.000000
    34   Atom       -0.000000      0.000000     -0.000000
    35   Atom        0.000000     -0.000000     -0.000000
    36   Atom       -0.000000     -0.000000      0.000000
 --------------------------------------------------------
                        XY            XZ            YZ
 --------------------------------------------------------
     1   Atom       -0.000000      0.000000      0.000000
     2   Atom       -0.000000     -0.000000     -0.000000
     3   Atom        0.000000     -0.000000     -0.000000
     4   Atom       -0.000000      0.000000      0.000000
     5   Atom        0.000000     -0.000000     -0.000000
     6   Atom       -0.000000      0.000000      0.000000
     7   Atom        0.000000      0.000000      0.000000
     8   Atom       -0.000000     -0.000000     -0.000000
     9   Atom        0.000000      0.000000      0.000000
    10   Atom        0.000000      0.000000     -0.000000
    11   Atom        0.000000     -0.000000      0.000000
    12   Atom        0.000000     -0.000000      0.000000
    13   Atom        0.000000      0.000000     -0.000000
    14   Atom       -0.000000     -0.000000      0.000000
    15   Atom       -0.000000     -0.000000      0.000000
    16   Atom        0.000000      0.000000     -0.000000
    17   Atom       -0.000000      0.000000     -0.000000
    18   Atom        0.000000     -0.000000     -0.000000
    19   Atom       -0.000000     -0.000000     -0.000000
    20   Atom       -0.000000     -0.000000     -0.000000
    21   Atom        0.000000      0.000000     -0.000000
    22   Atom        0.000000      0.000000      0.000000
    23   Atom       -0.000000      0.000000     -0.000000
    24   Atom       -0.000000      0.000000     -0.000000
    25   Atom        0.000000     -0.000000      0.000000
    26   Atom        0.000000     -0.000000     -0.000000
    27   Atom        0.000000      0.000000     -0.000000
    28   Atom        0.000000      0.000000     -0.000000
    29   Atom        0.000000     -0.000000     -0.000000
    30   Atom       -0.000000     -0.000000     -0.000000
    31   Atom        0.000000      0.000000      0.000000
    32   Atom       -0.000000      0.000000      0.000000
    33   Atom        0.000000      0.000000      0.000000
    34   Atom        0.000000     -0.000000     -0.000000
    35   Atom       -0.000000     -0.000000     -0.000000
    36   Atom       -0.000000      0.000000     -0.000000
 --------------------------------------------------------


 ---------------------------------------------------------------------------------
              Anisotropic Spin Dipole Couplings in Principal Axis System
 ---------------------------------------------------------------------------------

       Atom             a.u.   MegaHertz   Gauss  10(-4) cm-1        Axes

              Baa    -0.0000    -0.000    -0.000    -0.000 -0.0553 -0.0307  0.9980
     1 C(13)  Bbb     0.0000     0.000     0.000     0.000  0.9727  0.2238  0.0608
              Bcc     0.0000     0.000     0.000     0.000 -0.2252  0.9742  0.0175
 
              Baa    -0.0000    -0.000    -0.000    -0.000  0.5229  0.7837  0.3352
     2 C(13)  Bbb     0.0000     0.000     0.000     0.000  0.2481 -0.5161  0.8198
              Bcc     0.0000     0.000     0.000     0.000  0.8155 -0.3455 -0.4643
 
              Baa    -0.0000    -0.000    -0.000    -0.000  0.9982 -0.0259  0.0541
     3 C(13)  Bbb     0.0000     0.000     0.000     0.000 -0.0019  0.8873  0.4611
              Bcc     0.0000     0.000     0.000     0.000 -0.0599 -0.4604  0.8857
 
              Baa    -0.0000    -0.000    -0.000    -0.000 -0.6294 -0.3697  0.6835
     4 C(13)  Bbb    -0.0000    -0.000    -0.000    -0.000  0.6015  0.3252  0.7297
              Bcc     0.0000     0.000     0.000     0.000 -0.4920  0.8704  0.0177
 
              Baa    -0.0000    -0.000    -0.000    -0.000  0.0948  0.0645  0.9934
     5 C(13)  Bbb     0.0000     0.000     0.000     0.000 -0.1693  0.9844 -0.0478
              Bcc     0.0000     0.000     0.000     0.000  0.9810  0.1637 -0.1042
 
              Baa    -0.0000    -0.000    -0.000    -0.000 -0.3563 -0.6505  0.6708
     6 C(13)  Bbb    -0.0000    -0.000    -0.000    -0.000  0.2240  0.6375  0.7372
              Bcc     0.0000     0.000     0.000     0.000  0.9071 -0.4129  0.0814
 
              Baa    -0.0000    -0.000    -0.000    -0.000 -0.3442  0.9382  0.0352
     7 C(13)  Bbb    -0.0000    -0.000    -0.000    -0.000 -0.1097 -0.0774  0.9909
              Bcc     0.0000     0.000     0.000     0.000  0.9325  0.3372  0.1296
 
              Baa    -0.0000    -0.000    -0.000    -0.000  0.9867  0.1281  0.0998
     8 C(13)  Bbb     0.0000     0.000     0.000     0.000 -0.1031  0.0190  0.9945
              Bcc     0.0000     0.000     0.000     0.000 -0.1255  0.9916 -0.0320
 
              Baa    -0.0000    -0.000    -0.000    -0.000  0.9950 -0.0701 -0.0718
     9 C(13)  Bbb     0.0000     0.000     0.000     0.000  0.0398 -0.3811  0.9237
              Bcc     0.0000     0.000     0.000     0.000  0.0921  0.9219  0.3764
 
              Baa    -0.0000    -0.000    -0.000    -0.000  0.5957 -0.5936 -0.5410
    10 C(13)  Bbb     0.0000     0.000     0.000     0.000  0.6431  0.7561 -0.1214
              Bcc     0.0000     0.000     0.000     0.000  0.4811 -0.2756  0.8322
 
              Baa    -0.0000    -0.000    -0.000    -0.000  0.4638 -0.5077  0.7260
    11 C(13)  Bbb    -0.0000    -0.000    -0.000    -0.000 -0.0780  0.7929  0.6043
              Bcc     0.0000     0.000     0.000     0.000  0.8825  0.3369 -0.3282
 
              Baa    -0.0000    -0.000    -0.000    -0.000  0.7269 -0.5726  0.3790
    12 C(13)  Bbb     0.0000     0.000     0.000     0.000 -0.5924 -0.2439  0.7678
              Bcc     0.0000     0.000     0.000     0.000  0.3473  0.7827  0.5165
 
              Baa    -0.0000    -0.000    -0.000    -0.000  0.8994 -0.2690 -0.3447
    13 C(13)  Bbb     0.0000     0.000     0.000     0.000  0.2606  0.9628 -0.0713
              Bcc     0.0000     0.000     0.000     0.000  0.3510 -0.0257  0.9360
 
              Baa    -0.0000    -0.000    -0.000    -0.000  0.3470  0.8454 -0.4060
    14 C(13)  Bbb    -0.0000    -0.000    -0.000    -0.000  0.2415  0.3377  0.9097
              Bcc     0.0000     0.000     0.000     0.000  0.9062 -0.4137 -0.0870
 
              Baa    -0.0000     0.000     0.000     0.000  0.9562  0.1463  0.2537
    15 O(17)  Bbb     0.0000    -0.000    -0.000    -0.000 -0.1339 -0.5521  0.8230
              Bcc     0.0000    -0.000    -0.000    -0.000 -0.2605  0.8209  0.5083
 
              Baa    -0.0000     0.000     0.000     0.000 -0.1470  0.9242  0.3526
    16 O(17)  Bbb    -0.0000     0.000     0.000     0.000 -0.0385 -0.3615  0.9316
              Bcc     0.0000    -0.000    -0.000    -0.000  0.9884  0.1234  0.0887
 
              Baa    -0.0000    -0.000    -0.000    -0.000  0.9588  0.0836 -0.2715
    17 H(1)   Bbb    -0.0000    -0.000    -0.000    -0.000  0.2605  0.1226  0.9576
              Bcc     0.0000     0.000     0.000     0.000 -0.1133  0.9889 -0.0958
 
              Baa    -0.0000    -0.000    -0.000    -0.000  0.1487 -0.0783  0.9858
    18 H(1)   Bbb    -0.0000    -0.000    -0.000    -0.000  0.7626 -0.6256 -0.1647
              Bcc     0.0000     0.000     0.000     0.000  0.6296  0.7762 -0.0333
 
              Baa    -0.0000    -0.000    -0.000    -0.000  0.0227  0.9997  0.0108
    19 H(1)   Bbb     0.0000     0.000     0.000     0.000  0.2462 -0.0160  0.9691
              Bcc     0.0000     0.000     0.000     0.000  0.9690 -0.0194 -0.2465
 
              Baa    -0.0000    -0.000    -0.000    -0.000  0.6486  0.7525  0.1142
    20 H(1)   Bbb    -0.0000    -0.000    -0.000    -0.000 -0.0560 -0.1025  0.9932
              Bcc     0.0000     0.000     0.000     0.000  0.7591 -0.6506 -0.0243
 
              Baa    -0.0000    -0.000    -0.000    -0.000 -0.0794  0.9948  0.0633
    21 H(1)   Bbb     0.0000     0.000     0.000     0.000  0.8086  0.1014 -0.5795
              Bcc     0.0000     0.000     0.000     0.000  0.5829 -0.0051  0.8125
 
              Baa    -0.0000     0.000     0.000     0.000 -0.1536  0.9861 -0.0626
    22 O(17)  Bbb     0.0000    -0.000    -0.000    -0.000  0.9268  0.1218 -0.3553
              Bcc     0.0000    -0.000    -0.000    -0.000  0.3428  0.1126  0.9326
 
              Baa    -0.0000    -0.000    -0.000    -0.000  0.7933  0.5298  0.2999
    23 C(13)  Bbb    -0.0000    -0.000    -0.000    -0.000 -0.3819  0.0496  0.9229
              Bcc     0.0000     0.000     0.000     0.000 -0.4741  0.8467 -0.2417
 
              Baa    -0.0000    -0.000    -0.000    -0.000  0.8096  0.1745 -0.5604
    24 C(13)  Bbb     0.0000     0.000     0.000     0.000  0.1296  0.8780  0.4607
              Bcc     0.0000     0.000     0.000     0.000  0.5725 -0.4456  0.6883
 
              Baa    -0.0000     0.000     0.000     0.000  0.2177 -0.0594  0.9742
    25 O(17)  Bbb    -0.0000     0.000     0.000     0.000  0.9498 -0.2168 -0.2255
              Bcc     0.0000    -0.000    -0.000    -0.000  0.2246  0.9744  0.0092
 
              Baa    -0.0000     0.000     0.000     0.000 -0.1347  0.9757  0.1730
    26 O(17)  Bbb     0.0000    -0.000    -0.000    -0.000  0.3212 -0.1222  0.9391
              Bcc     0.0000    -0.000    -0.000    -0.000  0.9374  0.1821 -0.2969
 
              Baa    -0.0000    -0.000    -0.000    -0.000 -0.3898  0.7815  0.4872
    27 H(1)   Bbb     0.0000     0.000     0.000     0.000  0.4368 -0.3089  0.8449
              Bcc     0.0000     0.000     0.000     0.000  0.8107  0.5421 -0.2209
 
              Baa    -0.0000    -0.000    -0.000    -0.000 -0.6655  0.2780  0.6927
    28 H(1)   Bbb    -0.0000    -0.000    -0.000    -0.000  0.2321  0.9591 -0.1619
              Bcc     0.0000     0.000     0.000     0.000  0.7094 -0.0531  0.7028
 
              Baa    -0.0000    -0.000    -0.000    -0.000 -0.0059  0.9518  0.3067
    29 H(1)   Bbb    -0.0000    -0.000    -0.000    -0.000  0.9687 -0.0708  0.2380
              Bcc     0.0000     0.000     0.000     0.000 -0.2483 -0.2985  0.9215
 
              Baa    -0.0000    -0.000    -0.000    -0.000  0.2928  0.4426  0.8476
    30 C(13)  Bbb     0.0000     0.000     0.000     0.000  0.3940  0.7518 -0.5287
              Bcc     0.0000     0.000     0.000     0.000  0.8712 -0.4888 -0.0457
 
              Baa    -0.0000    -0.000    -0.000    -0.000 -0.6625  0.7489  0.0161
    31 C(13)  Bbb     0.0000     0.000     0.000     0.000 -0.1394 -0.1444  0.9797
              Bcc     0.0000     0.000     0.000     0.000  0.7360  0.6467  0.2000
 
              Baa    -0.0000     0.000     0.000     0.000  0.1890  0.8994 -0.3941
    32 O(17)  Bbb     0.0000    -0.000    -0.000    -0.000  0.9795 -0.1440  0.1410
              Bcc     0.0000    -0.000    -0.000    -0.000 -0.0700  0.4127  0.9082
 
              Baa    -0.0000    -0.000    -0.000    -0.000 -0.3483  0.8510 -0.3930
    33 H(1)   Bbb    -0.0000    -0.000    -0.000    -0.000 -0.2522  0.3187  0.9137
              Bcc     0.0000     0.000     0.000     0.000  0.9028  0.4174  0.1036
 
              Baa    -0.0000    -0.000    -0.000    -0.000  0.8839 -0.1604  0.4393
    34 H(1)   Bbb    -0.0000    -0.000    -0.000    -0.000 -0.2837  0.5629  0.7763
              Bcc     0.0000     0.000     0.000     0.000  0.3718  0.8108 -0.4520
 
              Baa    -0.0000    -0.000    -0.000    -0.000  0.2216  0.7269  0.6500
    35 H(1)   Bbb     0.0000     0.000     0.000     0.000  0.9714 -0.2230 -0.0817
              Bcc     0.0000     0.000     0.000     0.000 -0.0856 -0.6495  0.7555
 
              Baa    -0.0000    -0.000    -0.000    -0.000  0.4514  0.8909 -0.0494
    36 H(1)   Bbb    -0.0000    -0.000    -0.000    -0.000  0.8000 -0.4287 -0.4197
              Bcc     0.0000     0.000     0.000     0.000  0.3951 -0.1500  0.9063
 

 ---------------------------------------------------------------------------------

 No NMR shielding tensors so no spin-rotation constants.
 Leave Link  601 at Sun Jan 14 01:34:47 2024, MaxMem=  4026531840 cpu:               4.2 elap:               0.6
 (Enter /sysapps/ubuntu-applications/gaussian/Gaussian/AVX2/g16/l9999.exe)
 1\1\GINC-ACIDSCN008\SP\UB3LYP\6-311++G(d,p)\C18H12O6(2-)\SELHAJJ1\14-J
 an-2024\0\\#P UB3LYP/6-311++G(d,p) SCRF=(PCM,Solvent=n,n-DiMethylForma
 mide)\\Reduced\\-2,1\C,0,-2.985752,3.768999,0.528777\C,0,-4.232336,3.2
 02466,0.576226\C,0,-4.425764,1.809519,0.430656\C,0,-1.832,2.969896,0.3
 36417\C,0,-2.001158,1.54599,0.185735\C,0,-3.312339,1.016972,0.243918\C
 ,0,-0.532647,3.616733,0.284068\C,0,0.585584,2.715027,0.069712\C,0,0.42
 1246,1.290593,-0.081341\C,0,-0.880731,0.645192,-0.031903\C,0,1.89292,3
 .254728,-0.009677\C,0,2.976329,2.442594,-0.219149\C,0,2.842658,1.04328
 1,-0.370825\C,0,1.576359,0.501585,-0.294932\O,0,-0.385872,4.875728,0.4
 11382\O,0,-1.028651,-0.611271,-0.171834\H,0,-3.409412,-0.057315,0.1288
 64\H,0,1.422923,-0.566793,-0.403479\H,0,-2.849915,4.84003,0.625558\H,0
 ,2.00475,4.328322,0.089385\H,0,3.71518,0.421203,-0.528031\O,0,4.237394
 ,3.080219,-0.400247\C,0,5.330523,2.715376,0.295457\C,0,6.537194,3.5039
 83,-0.172857\O,0,5.376716,1.858968,1.148268\O,0,-5.343782,4.090027,0.6
 57616\H,0,6.255508,4.489435,-0.543967\H,0,7.030194,2.963155,-0.990881\
 H,0,7.252571,3.591484,0.644636\C,0,-6.310904,3.942915,1.582324\C,0,-7.
 401352,4.973704,1.368562\O,0,-6.346215,3.095628,2.444691\H,0,-5.420688
 ,1.384334,0.479178\H,0,-7.008797,5.889904,0.9273\H,0,-7.892182,5.18454
 2,2.318464\H,0,-8.157764,4.56702,0.685095\\Version=ES64L-G16RevA.03\St
 ate=1-A\HF=-1145.091769\S2=0.\S2-1=0.\S2A=0.\RMSD=6.571e-09\Dipole=0.1
 957711,2.6133215,-0.7165764\Quadrupole=1.8582333,-13.6651803,11.806947
 ,-1.7472326,0.9849095,-0.9744869\PG=C01 [X(C18H12O6)]\\@


 NEVER TEACH A PIG TO SING.
 IT WASTES YOUR TIME AND ANNOYS THE PIG.
     -- SEEN ON A GREETING CARD
 Job cpu time:       0 days  1 hours 20 minutes  9.8 seconds.
 Elapsed time:       0 days  0 hours 10 minutes  4.9 seconds.
 File lengths (MBytes):  RWF=    499 Int=      0 D2E=      0 Chk=     28 Scr=      1
 Normal termination of Gaussian 16 at Sun Jan 14 01:34:47 2024.
