 Entering Gaussian System, Link 0=g16
 Input=168-rad.com
 Output=168-rad.log
 Initial command:
 /sysapps/ubuntu-applications/gaussian/Gaussian/AVX2/g16/l1.exe "/scratch/selhajj1/4221744/Gau-2963163.inp" -scrdir="/scratch/selhajj1/4221744/"
 Entering Link 1 = /sysapps/ubuntu-applications/gaussian/Gaussian/AVX2/g16/l1.exe PID=   2963207.
  
 Copyright (c) 1988,1990,1992,1993,1995,1998,2003,2009,2016,
            Gaussian, Inc.  All Rights Reserved.
  
 This is part of the Gaussian(R) 16 program.  It is based on
 the Gaussian(R) 09 system (copyright 2009, Gaussian, Inc.),
 the Gaussian(R) 03 system (copyright 2003, Gaussian, Inc.),
 the Gaussian(R) 98 system (copyright 1998, Gaussian, Inc.),
 the Gaussian(R) 94 system (copyright 1995, Gaussian, Inc.),
 the Gaussian 92(TM) system (copyright 1992, Gaussian, Inc.),
 the Gaussian 90(TM) system (copyright 1990, Gaussian, Inc.),
 the Gaussian 88(TM) system (copyright 1988, Gaussian, Inc.),
 the Gaussian 86(TM) system (copyright 1986, Carnegie Mellon
 University), and the Gaussian 82(TM) system (copyright 1983,
 Carnegie Mellon University). Gaussian is a federally registered
 trademark of Gaussian, Inc.
  
 This software contains proprietary and confidential information,
 including trade secrets, belonging to Gaussian, Inc.
  
 This software is provided under written license and may be
 used, copied, transmitted, or stored only in accord with that
 written license.
  
 The following legend is applicable only to US Government
 contracts under FAR:
  
                    RESTRICTED RIGHTS LEGEND
  
 Use, reproduction and disclosure by the US Government is
 subject to restrictions as set forth in subparagraphs (a)
 and (c) of the Commercial Computer Software - Restricted
 Rights clause in FAR 52.227-19.
  
 Gaussian, Inc.
 340 Quinnipiac St., Bldg. 40, Wallingford CT 06492
  
  
 ---------------------------------------------------------------
 Warning -- This program may not be used in any manner that
 competes with the business of Gaussian, Inc. or will provide
 assistance to any competitor of Gaussian, Inc.  The licensee
 of this program is prohibited from giving any competitor of
 Gaussian, Inc. access to this program.  By using this program,
 the user acknowledges that Gaussian, Inc. is engaged in the
 business of creating and licensing software in the field of
 computational chemistry and represents and warrants to the
 licensee that it is not a competitor of Gaussian, Inc. and that
 it will not use this program in any manner prohibited above.
 ---------------------------------------------------------------
  

 Cite this work as:
 Gaussian 16, Revision A.03,
 M. J. Frisch, G. W. Trucks, H. B. Schlegel, G. E. Scuseria, 
 M. A. Robb, J. R. Cheeseman, G. Scalmani, V. Barone, 
 G. A. Petersson, H. Nakatsuji, X. Li, M. Caricato, A. V. Marenich, 
 J. Bloino, B. G. Janesko, R. Gomperts, B. Mennucci, H. P. Hratchian, 
 J. V. Ortiz, A. F. Izmaylov, J. L. Sonnenberg, D. Williams-Young, 
 F. Ding, F. Lipparini, F. Egidi, J. Goings, B. Peng, A. Petrone, 
 T. Henderson, D. Ranasinghe, V. G. Zakrzewski, J. Gao, N. Rega, 
 G. Zheng, W. Liang, M. Hada, M. Ehara, K. Toyota, R. Fukuda, 
 J. Hasegawa, M. Ishida, T. Nakajima, Y. Honda, O. Kitao, H. Nakai, 
 T. Vreven, K. Throssell, J. A. Montgomery, Jr., J. E. Peralta, 
 F. Ogliaro, M. J. Bearpark, J. J. Heyd, E. N. Brothers, K. N. Kudin, 
 V. N. Staroverov, T. A. Keith, R. Kobayashi, J. Normand, 
 K. Raghavachari, A. P. Rendell, J. C. Burant, S. S. Iyengar, 
 J. Tomasi, M. Cossi, J. M. Millam, M. Klene, C. Adamo, R. Cammi, 
 J. W. Ochterski, R. L. Martin, K. Morokuma, O. Farkas, 
 J. B. Foresman, and D. J. Fox, Gaussian, Inc., Wallingford CT, 2016.
 
 ******************************************
 Gaussian 16:  ES64L-G16RevA.03 25-Dec-2016
                21-Dec-2023 
 ******************************************
 %chk=168-rad.chk
 %nproc=8
 Will use up to    8 processors via shared memory.
 %mem=30GB
 --------------------------------------
 #P UB3LYP/6-311++G(d,p) nosym opt freq
 --------------------------------------
 1/18=20,19=15,26=3,38=1/1,3;
 2/9=110,12=2,15=1,17=6,18=5,40=1/2;
 3/5=4,6=6,7=1111,11=2,25=1,30=1,71=1,74=-5,116=2/1,2,3;
 4//1;
 5/5=2,38=5/2;
 6/7=2,8=2,9=2,10=2,28=1/1;
 7/30=1/1,2,3,16;
 1/18=20,19=15,26=3/3(2);
 2/9=110,15=1/2;
 99//99;
 2/9=110,15=1/2;
 3/5=4,6=6,7=1111,11=2,25=1,30=1,71=1,74=-5,116=2/1,2,3;
 4/5=5,16=3,69=1/1;
 5/5=2,38=5/2;
 7/30=1/1,2,3,16;
 1/18=20,19=15,26=3/3(-5);
 2/9=110,15=1/2;
 6/7=2,8=2,9=2,10=2,19=2,28=1/1;
 99/9=1/99;
 Leave Link    1 at Thu Dec 21 05:34:01 2023, MaxMem=  4026531840 cpu:               0.6 elap:               0.2
 (Enter /sysapps/ubuntu-applications/gaussian/Gaussian/AVX2/g16/l101.exe)
 -------
 Radical
 -------
 Symbolic Z-matrix:
 Charge = -1 Multiplicity = 2
 N                    -5.0409   -0.71338  -0.51085 
 C                    -3.73684  -0.24042  -0.24589 
 C                    -3.59692   0.97113   0.41196 
 C                    -2.32031   1.43498   0.67181 
 C                    -1.17942   0.75596   0.31108 
 C                     0.15893   1.25303   0.58935 
 O                     0.27413   2.34478   1.18207 
 C                     1.33755   0.50147   0.18954 
 C                     2.62411   0.93231   0.43155 
 C                     3.74553   0.21981   0.05254 
 N                     5.06195   0.69412   0.31832 
 C                     3.57956  -0.97375  -0.59572 
 C                     2.29233  -1.43347  -0.8534 
 C                     1.17177  -0.72163  -0.47473 
 C                    -0.17274  -1.21733  -0.7523 
 O                    -0.31722  -2.31525  -1.34857 
 C                    -1.36383  -0.45912  -0.34897 
 C                    -2.61426  -0.96296  -0.63034 
 H                    -5.71767  -0.74168   0.28194 
 H                    -5.28695  -1.01569  -1.47361 
 H                    -4.48959   1.5165    0.70183 
 H                    -2.18932   2.38531   1.18797 
 H                     2.76421   1.87706   0.94474 
 H                     5.77119   0.07198   0.75955 
 H                     5.36461   1.66878   0.08548 
 H                     4.45849  -1.54329  -0.8988 
 H                     2.18079  -2.38323  -1.36911 
 H                    -2.75916  -1.90604  -1.14263 
 
 ITRead=  0  0  0  0  0  0  0  0  0  0  0  0  0  0  0  0  0  0  0  0
 ITRead=  0  0  0  0  0  0  0  0
 MicOpt= -1 -1 -1 -1 -1 -1 -1 -1 -1 -1 -1 -1 -1 -1 -1 -1 -1 -1 -1 -1
 MicOpt= -1 -1 -1 -1 -1 -1 -1 -1
 NAtoms=     28 NQM=       28 NQMF=       0 NMMI=      0 NMMIF=      0
                NMic=       0 NMicF=      0.
                    Isotopes and Nuclear Properties:
 (Nuclear quadrupole moments (NQMom) in fm**2, nuclear magnetic moments (NMagM)
  in nuclear magnetons)

  Atom         1           2           3           4           5           6           7           8           9          10
 IAtWgt=          14          12          12          12          12          12          16          12          12          12
 AtmWgt=  14.0030740  12.0000000  12.0000000  12.0000000  12.0000000  12.0000000  15.9949146  12.0000000  12.0000000  12.0000000
 NucSpn=           2           0           0           0           0           0           0           0           0           0
 AtZEff=  -0.0000000  -0.0000000  -0.0000000  -0.0000000  -0.0000000  -0.0000000  -0.0000000  -0.0000000  -0.0000000  -0.0000000
 NQMom=    2.0440000   0.0000000   0.0000000   0.0000000   0.0000000   0.0000000   0.0000000   0.0000000   0.0000000   0.0000000
 NMagM=    0.4037610   0.0000000   0.0000000   0.0000000   0.0000000   0.0000000   0.0000000   0.0000000   0.0000000   0.0000000
 AtZNuc=   7.0000000   6.0000000   6.0000000   6.0000000   6.0000000   6.0000000   8.0000000   6.0000000   6.0000000   6.0000000

  Atom        11          12          13          14          15          16          17          18          19          20
 IAtWgt=          14          12          12          12          12          16          12          12           1           1
 AtmWgt=  14.0030740  12.0000000  12.0000000  12.0000000  12.0000000  15.9949146  12.0000000  12.0000000   1.0078250   1.0078250
 NucSpn=           2           0           0           0           0           0           0           0           1           1
 AtZEff=  -0.0000000  -0.0000000  -0.0000000  -0.0000000  -0.0000000  -0.0000000  -0.0000000  -0.0000000  -0.0000000  -0.0000000
 NQMom=    2.0440000   0.0000000   0.0000000   0.0000000   0.0000000   0.0000000   0.0000000   0.0000000   0.0000000   0.0000000
 NMagM=    0.4037610   0.0000000   0.0000000   0.0000000   0.0000000   0.0000000   0.0000000   0.0000000   2.7928460   2.7928460
 AtZNuc=   7.0000000   6.0000000   6.0000000   6.0000000   6.0000000   8.0000000   6.0000000   6.0000000   1.0000000   1.0000000

  Atom        21          22          23          24          25          26          27          28
 IAtWgt=           1           1           1           1           1           1           1           1
 AtmWgt=   1.0078250   1.0078250   1.0078250   1.0078250   1.0078250   1.0078250   1.0078250   1.0078250
 NucSpn=           1           1           1           1           1           1           1           1
 AtZEff=  -0.0000000  -0.0000000  -0.0000000  -0.0000000  -0.0000000  -0.0000000  -0.0000000  -0.0000000
 NQMom=    0.0000000   0.0000000   0.0000000   0.0000000   0.0000000   0.0000000   0.0000000   0.0000000
 NMagM=    2.7928460   2.7928460   2.7928460   2.7928460   2.7928460   2.7928460   2.7928460   2.7928460
 AtZNuc=   1.0000000   1.0000000   1.0000000   1.0000000   1.0000000   1.0000000   1.0000000   1.0000000
 Leave Link  101 at Thu Dec 21 05:34:01 2023, MaxMem=  4026531840 cpu:               3.3 elap:               0.5
 (Enter /sysapps/ubuntu-applications/gaussian/Gaussian/AVX2/g16/l103.exe)

 GradGradGradGradGradGradGradGradGradGradGradGradGradGradGradGradGradGrad
 Berny optimization.
 Initialization pass.
                           ----------------------------
                           !    Initial Parameters    !
                           ! (Angstroms and Degrees)  !
 --------------------------                            --------------------------
 ! Name  Definition              Value          Derivative Info.                !
 --------------------------------------------------------------------------------
 ! R1    R(1,2)                  1.4123         estimate D2E/DX2                !
 ! R2    R(1,19)                 1.0427         estimate D2E/DX2                !
 ! R3    R(1,20)                 1.0387         estimate D2E/DX2                !
 ! R4    R(2,3)                  1.3857         estimate D2E/DX2                !
 ! R5    R(2,18)                 1.3893         estimate D2E/DX2                !
 ! R6    R(3,4)                  1.3829         estimate D2E/DX2                !
 ! R7    R(3,21)                 1.0855         estimate D2E/DX2                !
 ! R8    R(4,5)                  1.3758         estimate D2E/DX2                !
 ! R9    R(4,22)                 1.0894         estimate D2E/DX2                !
 ! R10   R(5,6)                  1.4545         estimate D2E/DX2                !
 ! R11   R(5,17)                 1.395          estimate D2E/DX2                !
 ! R12   R(6,7)                  1.2476         estimate D2E/DX2                !
 ! R13   R(6,8)                  1.4539         estimate D2E/DX2                !
 ! R14   R(8,9)                  1.3782         estimate D2E/DX2                !
 ! R15   R(8,14)                 1.4017         estimate D2E/DX2                !
 ! R16   R(9,10)                 1.3816         estimate D2E/DX2                !
 ! R17   R(9,23)                 1.0842         estimate D2E/DX2                !
 ! R18   R(10,11)                1.4243         estimate D2E/DX2                !
 ! R19   R(10,12)                1.3684         estimate D2E/DX2                !
 ! R20   R(11,24)                1.0415         estimate D2E/DX2                !
 ! R21   R(11,25)                1.0468         estimate D2E/DX2                !
 ! R22   R(12,13)                1.3909         estimate D2E/DX2                !
 ! R23   R(12,26)                1.0903         estimate D2E/DX2                !
 ! R24   R(13,14)                1.3805         estimate D2E/DX2                !
 ! R25   R(13,27)                1.0865         estimate D2E/DX2                !
 ! R26   R(14,15)                1.4596         estimate D2E/DX2                !
 ! R27   R(15,16)                1.2577         estimate D2E/DX2                !
 ! R28   R(15,17)                1.4684         estimate D2E/DX2                !
 ! R29   R(17,18)                1.3772         estimate D2E/DX2                !
 ! R30   R(18,28)                1.083          estimate D2E/DX2                !
 ! A1    A(2,1,19)             117.7582         estimate D2E/DX2                !
 ! A2    A(2,1,20)             119.3485         estimate D2E/DX2                !
 ! A3    A(19,1,20)            122.8933         estimate D2E/DX2                !
 ! A4    A(1,2,3)              118.3668         estimate D2E/DX2                !
 ! A5    A(1,2,18)             121.3346         estimate D2E/DX2                !
 ! A6    A(3,2,18)             120.2986         estimate D2E/DX2                !
 ! A7    A(2,3,4)              118.4036         estimate D2E/DX2                !
 ! A8    A(2,3,21)             118.8814         estimate D2E/DX2                !
 ! A9    A(4,3,21)             122.7149         estimate D2E/DX2                !
 ! A10   A(3,4,5)              123.4155         estimate D2E/DX2                !
 ! A11   A(3,4,22)             119.5149         estimate D2E/DX2                !
 ! A12   A(5,4,22)             117.0695         estimate D2E/DX2                !
 ! A13   A(4,5,6)              122.969          estimate D2E/DX2                !
 ! A14   A(4,5,17)             116.3797         estimate D2E/DX2                !
 ! A15   A(6,5,17)             120.6513         estimate D2E/DX2                !
 ! A16   A(5,6,7)              118.3532         estimate D2E/DX2                !
 ! A17   A(5,6,8)              121.1069         estimate D2E/DX2                !
 ! A18   A(7,6,8)              120.54           estimate D2E/DX2                !
 ! A19   A(6,8,9)              123.1527         estimate D2E/DX2                !
 ! A20   A(6,8,14)             119.0457         estimate D2E/DX2                !
 ! A21   A(9,8,14)             117.8016         estimate D2E/DX2                !
 ! A22   A(8,9,10)             123.2517         estimate D2E/DX2                !
 ! A23   A(8,9,23)             118.4335         estimate D2E/DX2                !
 ! A24   A(10,9,23)            118.3148         estimate D2E/DX2                !
 ! A25   A(9,10,11)            121.8217         estimate D2E/DX2                !
 ! A26   A(9,10,12)            118.7726         estimate D2E/DX2                !
 ! A27   A(11,10,12)           119.4057         estimate D2E/DX2                !
 ! A28   A(10,11,24)           120.6326         estimate D2E/DX2                !
 ! A29   A(10,11,25)           122.398          estimate D2E/DX2                !
 ! A30   A(24,11,25)           116.9694         estimate D2E/DX2                !
 ! A31   A(10,12,13)           119.2294         estimate D2E/DX2                !
 ! A32   A(10,12,26)           119.3111         estimate D2E/DX2                !
 ! A33   A(13,12,26)           121.4595         estimate D2E/DX2                !
 ! A34   A(12,13,14)           122.002          estimate D2E/DX2                !
 ! A35   A(12,13,27)           118.1551         estimate D2E/DX2                !
 ! A36   A(14,13,27)           119.8428         estimate D2E/DX2                !
 ! A37   A(8,14,13)            118.9428         estimate D2E/DX2                !
 ! A38   A(8,14,15)            119.6971         estimate D2E/DX2                !
 ! A39   A(13,14,15)           121.3601         estimate D2E/DX2                !
 ! A40   A(14,15,16)           119.5012         estimate D2E/DX2                !
 ! A41   A(14,15,17)           121.3043         estimate D2E/DX2                !
 ! A42   A(16,15,17)           119.1945         estimate D2E/DX2                !
 ! A43   A(5,17,15)            118.1947         estimate D2E/DX2                !
 ! A44   A(5,17,18)            122.3682         estimate D2E/DX2                !
 ! A45   A(15,17,18)           119.4371         estimate D2E/DX2                !
 ! A46   A(2,18,17)            119.1343         estimate D2E/DX2                !
 ! A47   A(2,18,28)            118.4046         estimate D2E/DX2                !
 ! A48   A(17,18,28)           122.461          estimate D2E/DX2                !
 ! D1    D(19,1,2,3)           -50.7225         estimate D2E/DX2                !
 ! D2    D(19,1,2,18)          129.2772         estimate D2E/DX2                !
 ! D3    D(20,1,2,3)           129.2783         estimate D2E/DX2                !
 ! D4    D(20,1,2,18)          -50.722          estimate D2E/DX2                !
 ! D5    D(1,2,3,4)            179.9999         estimate D2E/DX2                !
 ! D6    D(1,2,3,21)            -0.0009         estimate D2E/DX2                !
 ! D7    D(18,2,3,4)             0.0001         estimate D2E/DX2                !
 ! D8    D(18,2,3,21)          179.9994         estimate D2E/DX2                !
 ! D9    D(1,2,18,17)         -179.9998         estimate D2E/DX2                !
 ! D10   D(1,2,18,28)           -0.0004         estimate D2E/DX2                !
 ! D11   D(3,2,18,17)            0.0            estimate D2E/DX2                !
 ! D12   D(3,2,18,28)          179.9994         estimate D2E/DX2                !
 ! D13   D(2,3,4,5)             -0.0002         estimate D2E/DX2                !
 ! D14   D(2,3,4,22)          -179.9995         estimate D2E/DX2                !
 ! D15   D(21,3,4,5)          -179.9994         estimate D2E/DX2                !
 ! D16   D(21,3,4,22)            0.0012         estimate D2E/DX2                !
 ! D17   D(3,4,5,6)           -179.9999         estimate D2E/DX2                !
 ! D18   D(3,4,5,17)             0.0002         estimate D2E/DX2                !
 ! D19   D(22,4,5,6)            -0.0006         estimate D2E/DX2                !
 ! D20   D(22,4,5,17)          179.9995         estimate D2E/DX2                !
 ! D21   D(4,5,6,7)             -0.0003         estimate D2E/DX2                !
 ! D22   D(4,5,6,8)            179.9998         estimate D2E/DX2                !
 ! D23   D(17,5,6,7)           179.9996         estimate D2E/DX2                !
 ! D24   D(17,5,6,8)            -0.0003         estimate D2E/DX2                !
 ! D25   D(4,5,17,15)         -179.9998         estimate D2E/DX2                !
 ! D26   D(4,5,17,18)           -0.0001         estimate D2E/DX2                !
 ! D27   D(6,5,17,15)            0.0003         estimate D2E/DX2                !
 ! D28   D(6,5,17,18)         -180.0            estimate D2E/DX2                !
 ! D29   D(5,6,8,9)            179.9998         estimate D2E/DX2                !
 ! D30   D(5,6,8,14)             0.0001         estimate D2E/DX2                !
 ! D31   D(7,6,8,9)             -0.0001         estimate D2E/DX2                !
 ! D32   D(7,6,8,14)          -179.9998         estimate D2E/DX2                !
 ! D33   D(6,8,9,10)          -179.9996         estimate D2E/DX2                !
 ! D34   D(6,8,9,23)             0.0007         estimate D2E/DX2                !
 ! D35   D(14,8,9,10)            0.0001         estimate D2E/DX2                !
 ! D36   D(14,8,9,23)         -179.9995         estimate D2E/DX2                !
 ! D37   D(6,8,14,13)          179.9997         estimate D2E/DX2                !
 ! D38   D(6,8,14,15)            0.0001         estimate D2E/DX2                !
 ! D39   D(9,8,14,13)            0.0            estimate D2E/DX2                !
 ! D40   D(9,8,14,15)         -179.9996         estimate D2E/DX2                !
 ! D41   D(8,9,10,11)         -180.0            estimate D2E/DX2                !
 ! D42   D(8,9,10,12)           -0.0001         estimate D2E/DX2                !
 ! D43   D(23,9,10,11)          -0.0003         estimate D2E/DX2                !
 ! D44   D(23,9,10,12)         179.9996         estimate D2E/DX2                !
 ! D45   D(9,10,11,24)         130.6091         estimate D2E/DX2                !
 ! D46   D(9,10,11,25)         -49.3909         estimate D2E/DX2                !
 ! D47   D(12,10,11,24)        -49.3908         estimate D2E/DX2                !
 ! D48   D(12,10,11,25)        130.6092         estimate D2E/DX2                !
 ! D49   D(9,10,12,13)           0.0            estimate D2E/DX2                !
 ! D50   D(9,10,12,26)        -179.9999         estimate D2E/DX2                !
 ! D51   D(11,10,12,13)        179.9999         estimate D2E/DX2                !
 ! D52   D(11,10,12,26)          0.0            estimate D2E/DX2                !
 ! D53   D(10,12,13,14)          0.0001         estimate D2E/DX2                !
 ! D54   D(10,12,13,27)       -180.0            estimate D2E/DX2                !
 ! D55   D(26,12,13,14)        180.0            estimate D2E/DX2                !
 ! D56   D(26,12,13,27)         -0.0001         estimate D2E/DX2                !
 ! D57   D(12,13,14,8)          -0.0001         estimate D2E/DX2                !
 ! D58   D(12,13,14,15)        179.9995         estimate D2E/DX2                !
 ! D59   D(27,13,14,8)         180.0            estimate D2E/DX2                !
 ! D60   D(27,13,14,15)         -0.0004         estimate D2E/DX2                !
 ! D61   D(8,14,15,16)         179.9999         estimate D2E/DX2                !
 ! D62   D(8,14,15,17)          -0.0001         estimate D2E/DX2                !
 ! D63   D(13,14,15,16)          0.0003         estimate D2E/DX2                !
 ! D64   D(13,14,15,17)       -179.9997         estimate D2E/DX2                !
 ! D65   D(14,15,17,5)          -0.0001         estimate D2E/DX2                !
 ! D66   D(14,15,17,18)       -179.9998         estimate D2E/DX2                !
 ! D67   D(16,15,17,5)         179.9999         estimate D2E/DX2                !
 ! D68   D(16,15,17,18)          0.0001         estimate D2E/DX2                !
 ! D69   D(5,17,18,2)            0.0            estimate D2E/DX2                !
 ! D70   D(5,17,18,28)        -179.9994         estimate D2E/DX2                !
 ! D71   D(15,17,18,2)         179.9998         estimate D2E/DX2                !
 ! D72   D(15,17,18,28)          0.0004         estimate D2E/DX2                !
 --------------------------------------------------------------------------------
 Trust Radius=3.00D-01 FncErr=1.00D-07 GrdErr=1.00D-06 EigMax=2.50D+02 EigMin=1.00D-04
 Number of steps in this run=    160 maximum allowed number of steps=    168.
 GradGradGradGradGradGradGradGradGradGradGradGradGradGradGradGradGradGrad

 Leave Link  103 at Thu Dec 21 05:34:01 2023, MaxMem=  4026531840 cpu:               0.5 elap:               0.2
 (Enter /sysapps/ubuntu-applications/gaussian/Gaussian/AVX2/g16/l202.exe)
                          Input orientation:                          
 ---------------------------------------------------------------------
 Center     Atomic      Atomic             Coordinates (Angstroms)
 Number     Number       Type             X           Y           Z
 ---------------------------------------------------------------------
      1          7           0       -5.040903   -0.713376   -0.510851
      2          6           0       -3.736842   -0.240415   -0.245886
      3          6           0       -3.596920    0.971135    0.411963
      4          6           0       -2.320313    1.434984    0.671812
      5          6           0       -1.179416    0.755959    0.311082
      6          6           0        0.158925    1.253034    0.589351
      7          8           0        0.274129    2.344779    1.182068
      8          6           0        1.337550    0.501469    0.189538
      9          6           0        2.624108    0.932306    0.431549
     10          6           0        3.745527    0.219812    0.052539
     11          7           0        5.061947    0.694120    0.318317
     12          6           0        3.579555   -0.973754   -0.595724
     13          6           0        2.292327   -1.433473   -0.853398
     14          6           0        1.171767   -0.721626   -0.474735
     15          6           0       -0.172736   -1.217329   -0.752305
     16          8           0       -0.317220   -2.315250   -1.348568
     17          6           0       -1.363831   -0.459122   -0.348972
     18          6           0       -2.614257   -0.962964   -0.630337
     19          1           0       -5.717667   -0.741676    0.281938
     20          1           0       -5.286953   -1.015686   -1.473608
     21          1           0       -4.489590    1.516498    0.701831
     22          1           0       -2.189318    2.385306    1.187967
     23          1           0        2.764212    1.877063    0.944742
     24          1           0        5.771191    0.071981    0.759553
     25          1           0        5.364608    1.668777    0.085479
     26          1           0        4.458492   -1.543288   -0.898799
     27          1           0        2.180787   -2.383230   -1.369106
     28          1           0       -2.759159   -1.906035   -1.142631
 ---------------------------------------------------------------------
                    Distance matrix (angstroms):
                    1          2          3          4          5
     1  N    0.000000
     2  C    1.412258   0.000000
     3  C    2.402966   1.385711   0.000000
     4  C    3.662752   2.378169   1.382897   0.000000
     5  C    4.212552   2.800607   2.429157   1.375808   0.000000
     6  C    5.667047   4.254998   3.770584   2.487273   1.454536
     7  O    6.361434   4.980980   4.179113   2.796286   2.322877
     8  C    6.530778   5.146789   4.961759   3.805786   2.532718
     9  C    7.896124   6.503527   6.221180   4.975712   3.809515
    10  C    8.853789   7.502446   7.389533   6.217279   4.960782
    11  N   10.234068   8.866249   8.663803   7.427759   6.241674
    12  C    8.624807   7.361375   7.503321   6.497470   5.144124
    13  C    7.376458   6.176029   6.485870   5.641876   4.266454
    14  C    6.212780   4.937446   5.137319   4.261474   2.885971
    15  C    4.900135   3.730104   4.227284   3.697968   2.457247
    16  O    5.057761   4.149055   4.965504   4.707290   3.595852
    17  C    3.689404   2.385296   2.758866   2.354675   1.395028
    18  C    2.442372   1.389272   2.406814   2.744477   2.428937
    19  H    1.042749   2.110338   2.729138   4.053623   4.779067
    20  H    1.038669   2.123957   3.218548   4.405629   4.816192
    21  H    2.597476   2.133434   1.085497   2.171016   3.418824
    22  H    4.540853   3.368260   2.140889   1.089351   2.107984
    23  H    8.351583   6.940101   6.447368   5.111000   4.148566
    24  H   10.914764   9.566148   9.417579   8.205968   6.998564
    25  H   10.691347   9.305439   8.994569   7.710801   6.611231
    26  H    9.543467   8.323897   8.539911   7.568958   6.207766
    27  H    7.461757   6.393090   6.914178   6.245319   4.895764
    28  H    2.651026   2.129391   3.375902   3.827166   3.419807
                    6          7          8          9         10
     6  C    0.000000
     7  O    1.247594   0.000000
     8  C    1.453911   2.348142   0.000000
     9  C    2.490962   2.842667   1.378194   0.000000
    10  C    3.770866   4.223970   2.428261   1.381622   0.000000
    11  N    4.942213   5.137503   3.731599   2.452064   1.424279
    12  C    4.250141   5.009894   2.796338   2.366693   1.368353
    13  C    3.721592   4.742513   2.396522   2.712578   2.380307
    14  C    2.461181   3.599109   1.401679   2.380365   2.790799
    15  C    2.830677   4.078002   2.474328   3.720857   4.250403
    16  O    4.088386   5.335699   3.610810   4.729361   4.989545
    17  C    2.476028   3.590105   2.917223   4.295223   5.169884
    18  C    3.753508   4.750657   4.293430   5.670989   6.504777
    19  H    6.213510   6.799857   7.164498   8.509395   9.514679
    20  H    6.249839   7.019329   6.996561   8.367149   9.243445
    21  H    4.657334   4.858982   5.937028   7.142761   8.361826
    22  H    2.674813   2.463787   4.121225   5.084529   6.418796
    23  H    2.702450   2.544719   2.120838   1.084233   2.122613
    24  H    5.737716   5.963373   4.490718   3.279006   2.150590
    25  H    5.246509   5.250948   4.194118   2.858757   2.173018
    26  H    5.340438   6.079141   3.886616   3.356093   2.126472
    27  H    4.598466   5.700692   3.385544   3.798904   3.353403
    28  H    4.636237   5.716160   4.934955   6.285999   6.946840
                   11         12         13         14         15
    11  N    0.000000
    12  C    2.411381   0.000000
    13  C    3.683797   1.390933   0.000000
    14  C    4.215065   2.423974   1.380495   0.000000
    15  C    5.674661   3.763447   2.476585   1.459607   0.000000
    16  O    6.385159   4.189421   2.798654   2.349533   1.257711
    17  C    6.562459   4.976224   3.817237   2.552251   1.468423
    18  C    7.910119   6.193918   4.934136   3.796898   2.457764
    19  H   10.874875   9.341439   8.119580   6.930891   5.660580
    20  H   10.641155   8.909961   7.616082   6.542116   5.168768
    21  H    9.594543   8.543776   7.557478   6.200361   5.312585
    22  H    7.496482   6.909756   6.231804   4.869753   4.561824
    23  H    2.659201   3.341403   3.796792   3.362139   4.591393
    24  H    1.041524   2.780936   4.119526   4.827834   6.267240
    25  H    1.046791   3.260892   4.465910   4.858783   6.300290
    26  H    2.617541   1.090300   2.169422   3.414311   4.644995
    27  H    4.540767   2.131032   1.086478   2.139847   2.697932
    28  H    8.370476   6.430206   5.081779   4.159458   2.704858
                   16         17         18         19         20
    16  O    0.000000
    17  C    2.353678   0.000000
    18  C    2.760600   1.377166   0.000000
    19  H    5.856578   4.408375   3.242278   0.000000
    20  H    5.138360   4.118914   2.803068   1.828261   0.000000
    21  H    6.024542   3.844168   3.382200   2.604579   3.432241
    22  H    5.659857   3.336821   3.833759   4.800849   5.314704
    23  H    5.685946   4.916523   6.282878   8.901650   8.890314
    24  H    6.871085   7.240127   8.562630  11.527532  11.333692
    25  H    7.086052   7.070261   8.432125  11.343090  11.094721
    26  H    4.858564   5.947872   7.101593  10.275745   9.776629
    27  H    2.499016   4.160190   5.055233   8.234453   7.592644
    28  H    2.484538   2.161109   1.082971   3.483949   2.700373
                   21         22         23         24         25
    21  H    0.000000
    22  H    2.506474   0.000000
    23  H    7.266819   4.985471   0.000000
    24  H   10.362123   8.300886   3.512056   0.000000
    25  H    9.874629   7.667508   2.746593   1.780292   0.000000
    26  H    9.591271   7.998863   4.238870   2.661278   3.479541
    27  H    7.999412   6.955240   4.883070   4.842546   5.354558
    28  H    4.255604   4.916504   7.012602   8.960900   8.960084
                   26         27         28
    26  H    0.000000
    27  H    2.472778   0.000000
    28  H    7.230873   4.968105   0.000000
 Symmetry turned off by external request.
 Stoichiometry    C14H10N2O2(1-,2)
 Framework group  C1[X(C14H10N2O2)]
 Deg. of freedom    78
 Full point group                 C1      NOp   1
 Rotational constants (GHZ):           1.0694356           0.2624729           0.2110883
 Leave Link  202 at Thu Dec 21 05:34:02 2023, MaxMem=  4026531840 cpu:               1.0 elap:               0.2
 (Enter /sysapps/ubuntu-applications/gaussian/Gaussian/AVX2/g16/l301.exe)
 Standard basis: 6-311++G(d,p) (5D, 7F)
 Ernie: Thresh=  0.10000D-02 Tol=  0.10000D-05 Strict=F.
   466 basis functions,   738 primitive gaussians,   484 cartesian basis functions
    63 alpha electrons       62 beta electrons
       nuclear repulsion energy      1204.5630347561 Hartrees.
 IExCor=  402 DFT=T Ex+Corr=B3LYP ExCW=0 ScaHFX=  0.200000
 ScaDFX=  0.800000  0.720000  1.000000  0.810000 ScalE2=  1.000000  1.000000
 IRadAn=      5 IRanWt=     -1 IRanGd=            0 ICorTp=0 IEmpDi=  4
 NAtoms=   28 NActive=   28 NUniq=   28 SFac= 1.00D+00 NAtFMM=   60 NAOKFM=F Big=F
 Integral buffers will be    131072 words long.
 Raffenetti 2 integral format.
 Two-electron integral symmetry is turned off.
 Leave Link  301 at Thu Dec 21 05:34:02 2023, MaxMem=  4026531840 cpu:               0.3 elap:               0.1
 (Enter /sysapps/ubuntu-applications/gaussian/Gaussian/AVX2/g16/l302.exe)
 NPDir=0 NMtPBC=     1 NCelOv=     1 NCel=       1 NClECP=     1 NCelD=      1
         NCelK=      1 NCelE2=     1 NClLst=     1 CellRange=     0.0.
 One-electron integrals computed using PRISM.
 NBasis=   466 RedAO= T EigKep=  1.41D-06  NBF=   466
 NBsUse=   459 1.00D-06 EigRej=  7.63D-07 NBFU=   459
 Precomputing XC quadrature grid using
 IXCGrd= 4 IRadAn=           5 IRanWt=          -1 IRanGd=           0 AccXCQ= 0.00D+00.
 Generated NRdTot=       0 NPtTot=           0 NUsed=           0 NTot=          32
 NSgBfM=   478   478   478   478   478 MxSgAt=    28 MxSgA2=    28.
 Leave Link  302 at Thu Dec 21 05:34:03 2023, MaxMem=  4026531840 cpu:               4.4 elap:               0.7
 (Enter /sysapps/ubuntu-applications/gaussian/Gaussian/AVX2/g16/l303.exe)
 DipDrv:  MaxL=1.
 Leave Link  303 at Thu Dec 21 05:34:03 2023, MaxMem=  4026531840 cpu:               1.2 elap:               0.3
 (Enter /sysapps/ubuntu-applications/gaussian/Gaussian/AVX2/g16/l401.exe)
 ExpMin= 3.60D-02 ExpMax= 8.59D+03 ExpMxC= 1.30D+03 IAcc=3 IRadAn=         5 AccDes= 0.00D+00
 Harris functional with IExCor=  402 and IRadAn=       5 diagonalized for initial guess.
 HarFok:  IExCor=  402 AccDes= 0.00D+00 IRadAn=         5 IDoV= 1 UseB2=F ITyADJ=14
 ICtDFT=  3500011 ScaDFX=  1.000000  1.000000  1.000000  1.000000
 FoFCou: FMM=F IPFlag=           0 FMFlag=      100000 FMFlg1=           0
         NFxFlg=           0 DoJE=T BraDBF=F KetDBF=T FulRan=T
         wScrn=  0.000000 ICntrl=       500 IOpCl=  0 I1Cent=   200000004 NGrid=           0
         NMat0=    1 NMatS0=      1 NMatT0=    0 NMatD0=    1 NMtDS0=    0 NMtDT0=    0
 Symmetry not used in FoFCou.
 Harris En= -799.925134917937    
 JPrj=0 DoOrth=F DoCkMO=F.
 Initial guess <Sx>= 0.0000 <Sy>= 0.0000 <Sz>= 0.5000 <S**2>= 0.7500 S= 0.5000
 Leave Link  401 at Thu Dec 21 05:34:08 2023, MaxMem=  4026531840 cpu:              38.4 elap:               4.9
 (Enter /sysapps/ubuntu-applications/gaussian/Gaussian/AVX2/g16/l502.exe)
 Two-electron integral symmetry not used.
 UHF open shell SCF:
 Using DIIS extrapolation, IDIIS=  1040.
 NGot=  4026531840 LenX=  4026056052 LenY=  4025821312
 Requested convergence on RMS density matrix=1.00D-08 within 128 cycles.
 Requested convergence on MAX density matrix=1.00D-06.
 Requested convergence on             energy=1.00D-06.
 No special actions if energy rises.
 Fock matrices will be formed incrementally for  20 cycles.

 Cycle   1  Pass 1  IDiag  1:
 FoFJK:  IHMeth= 1 ICntrl=       0 DoSepK=F KAlg= 0 I1Cent=           0 FoldK=F
 IRaf= 840000000 NMat=       1 IRICut=       1 DoRegI=T DoRafI=F ISym2E= 0 IDoP0=0 IntGTp=1.
 FoFCou: FMM=F IPFlag=           0 FMFlag=      100000 FMFlg1=           0
         NFxFlg=           0 DoJE=F BraDBF=F KetDBF=F FulRan=T
         wScrn=  0.000000 ICntrl=         0 IOpCl=  1 I1Cent=           0 NGrid=           0
         NMat0=    1 NMatS0=      1 NMatT0=    0 NMatD0=    1 NMtDS0=    0 NMtDT0=    0
 Symmetry not used in FoFCou.
 E= -799.187494808077    
 DIIS: error= 3.31D-02 at cycle   1 NSaved=   1.
 NSaved= 1 IEnMin= 1 EnMin= -799.187494808077     IErMin= 1 ErrMin= 3.31D-02
 ErrMax= 3.31D-02  0.00D+00 EMaxC= 1.00D-01 BMatC= 2.49D+00 BMatP= 2.49D+00
 IDIUse=3 WtCom= 6.69D-01 WtEn= 3.31D-01
 Coeff-Com:  0.100D+01
 Coeff-En:   0.100D+01
 Coeff:      0.100D+01
 Gap=     0.059 Goal=   None    Shift=    0.000
 Gap=     0.180 Goal=   None    Shift=    0.000
 GapD=    0.059 DampG=0.500 DampE=0.500 DampFc=0.2500 IDamp=-1.
 Damping current iteration by 2.50D-01
 RMSDP=1.14D+00 MaxDP=1.15D+02              OVMax= 9.94D-01

 Cycle   2  Pass 1  IDiag  1:
 RMSU=  2.61D-01    CP:  2.79D+00
 E= -799.144659964102     Delta-E=        0.042834843975 Rises=F Damp=T
 DIIS: error= 1.52D-02 at cycle   2 NSaved=   2.
 NSaved= 2 IEnMin= 1 EnMin= -799.187494808077     IErMin= 2 ErrMin= 1.52D-02
 ErrMax= 1.52D-02  0.00D+00 EMaxC= 1.00D-01 BMatC= 5.35D-01 BMatP= 2.49D+00
 IDIUse=3 WtCom= 8.48D-01 WtEn= 1.52D-01
 Coeff-Com: -0.130D+00 0.113D+01
 Coeff-En:   0.554D+00 0.446D+00
 Coeff:     -0.266D-01 0.103D+01
 Gap=     0.014 Goal=   None    Shift=    0.000
 Gap=     0.016 Goal=   None    Shift=    0.000
 RMSDP=2.82D-01 MaxDP=2.83D+01 DE= 4.28D-02 OVMax= 7.59D-01

 Cycle   3  Pass 1  IDiag  1:
 RMSU=  2.07D-02    CP:  1.10D+00  7.84D-03
 E= -798.955333308569     Delta-E=        0.189326655533 Rises=F Damp=F
 DIIS: error= 4.11D-02 at cycle   3 NSaved=   3.
 NSaved= 3 IEnMin= 1 EnMin= -799.187494808077     IErMin= 2 ErrMin= 1.52D-02
 ErrMax= 4.11D-02  0.00D+00 EMaxC= 1.00D-01 BMatC= 2.71D+00 BMatP= 5.35D-01
 IDIUse=2 WtCom= 0.00D+00 WtEn= 1.00D+00
 EnCoef did     2 forward-backward iterations
 Coeff-En:   0.216D+00 0.452D+00 0.332D+00
 Coeff:      0.216D+00 0.452D+00 0.332D+00
 Gap=     0.201 Goal=   None    Shift=    0.000
 Gap=     0.121 Goal=   None    Shift=    0.000
 RMSDP=1.38D-01 MaxDP=1.04D+01 DE= 1.89D-01 OVMax= 9.75D-01

 Cycle   4  Pass 1  IDiag  1:
 RMSU=  1.35D-01    CP:  1.38D+00  6.47D-02  2.56D-01
 E= -799.342635724131     Delta-E=       -0.387302415563 Rises=F Damp=F
 DIIS: error= 3.35D-02 at cycle   4 NSaved=   4.
 NSaved= 4 IEnMin= 4 EnMin= -799.342635724131     IErMin= 2 ErrMin= 1.52D-02
 ErrMax= 3.35D-02  0.00D+00 EMaxC= 1.00D-01 BMatC= 1.28D+00 BMatP= 5.35D-01
 IDIUse=2 WtCom= 0.00D+00 WtEn= 1.00D+00
 EnCoef did     3 forward-backward iterations
 Coeff-En:   0.140D+00 0.000D+00 0.287D+00 0.573D+00
 Coeff:      0.140D+00 0.000D+00 0.287D+00 0.573D+00
 Gap=    -0.029 Goal=   None    Shift=    0.000
 Gap=     0.248 Goal=   None    Shift=    0.000
 RMSDP=1.37D-01 MaxDP=1.06D+01 DE=-3.87D-01 OVMax= 9.41D-01

 Cycle   5  Pass 1  IDiag  1:
 RMSU=  8.33D-03    CP:  9.27D-01  2.70D-04  3.35D-01  1.56D-02
 E= -799.678637876895     Delta-E=       -0.336002152764 Rises=F Damp=F
 DIIS: error= 1.08D-02 at cycle   5 NSaved=   5.
 NSaved= 5 IEnMin= 5 EnMin= -799.678637876895     IErMin= 5 ErrMin= 1.08D-02
 ErrMax= 1.08D-02  0.00D+00 EMaxC= 1.00D-01 BMatC= 1.58D-01 BMatP= 5.35D-01
 IDIUse=3 WtCom= 8.92D-01 WtEn= 1.08D-01
 Coeff-Com: -0.110D-01 0.855D-01 0.104D+00 0.265D+00 0.557D+00
 Coeff-En:   0.000D+00 0.000D+00 0.000D+00 0.137D+00 0.863D+00
 Coeff:     -0.983D-02 0.762D-01 0.925D-01 0.251D+00 0.590D+00
 Gap=     0.061 Goal=   None    Shift=    0.000
 Gap=     0.159 Goal=   None    Shift=    0.000
 RMSDP=4.50D-03 MaxDP=2.87D-01 DE=-3.36D-01 OVMax= 1.20D-01

 Cycle   6  Pass 1  IDiag  1:
 RMSU=  4.07D-03    CP:  9.04D-01  1.69D-03  3.01D-01  1.39D-02  9.04D-01
 E= -799.715089120490     Delta-E=       -0.036451243595 Rises=F Damp=F
 DIIS: error= 6.88D-03 at cycle   6 NSaved=   6.
 NSaved= 6 IEnMin= 6 EnMin= -799.715089120490     IErMin= 6 ErrMin= 6.88D-03
 ErrMax= 6.88D-03  0.00D+00 EMaxC= 1.00D-01 BMatC= 5.61D-02 BMatP= 1.58D-01
 IDIUse=3 WtCom= 9.31D-01 WtEn= 6.88D-02
 Coeff-Com: -0.121D+00 0.164D+00 0.288D-02 0.444D-01 0.421D+00 0.489D+00
 Coeff-En:   0.000D+00 0.000D+00 0.000D+00 0.000D+00 0.796D-01 0.920D+00
 Coeff:     -0.112D+00 0.152D+00 0.268D-02 0.413D-01 0.397D+00 0.519D+00
 Gap=     0.068 Goal=   None    Shift=    0.000
 Gap=     0.145 Goal=   None    Shift=    0.000
 RMSDP=2.86D-03 MaxDP=1.66D-01 DE=-3.65D-02 OVMax= 6.02D-02

 Cycle   7  Pass 1  IDiag  1:
 RMSU=  2.71D-03    CP:  9.12D-01 -3.53D-04  2.93D-01  1.37D-02  8.55D-01
                    CP:  1.06D+00
 E= -799.724330487649     Delta-E=       -0.009241367159 Rises=F Damp=F
 DIIS: error= 4.18D-03 at cycle   7 NSaved=   7.
 NSaved= 7 IEnMin= 7 EnMin= -799.724330487649     IErMin= 7 ErrMin= 4.18D-03
 ErrMax= 4.18D-03  0.00D+00 EMaxC= 1.00D-01 BMatC= 1.29D-02 BMatP= 5.61D-02
 IDIUse=3 WtCom= 9.58D-01 WtEn= 4.18D-02
 Coeff-Com: -0.816D-01 0.113D+00-0.154D-01 0.206D-01 0.185D+00 0.273D+00
 Coeff-Com:  0.505D+00
 Coeff-En:   0.000D+00 0.000D+00 0.000D+00 0.000D+00 0.000D+00 0.145D-01
 Coeff-En:   0.986D+00
 Coeff:     -0.782D-01 0.109D+00-0.148D-01 0.198D-01 0.177D+00 0.262D+00
 Coeff:      0.525D+00
 Gap=     0.067 Goal=   None    Shift=    0.000
 Gap=     0.151 Goal=   None    Shift=    0.000
 RMSDP=1.10D-03 MaxDP=6.83D-02 DE=-9.24D-03 OVMax= 3.47D-02

 Cycle   8  Pass 1  IDiag  1:
 RMSU=  8.35D-04    CP:  9.12D-01 -4.71D-04  2.72D-01  1.45D-02  9.04D-01
                    CP:  1.15D+00  9.71D-01
 E= -799.726872584667     Delta-E=       -0.002542097018 Rises=F Damp=F
 DIIS: error= 2.77D-03 at cycle   8 NSaved=   8.
 NSaved= 8 IEnMin= 8 EnMin= -799.726872584667     IErMin= 8 ErrMin= 2.77D-03
 ErrMax= 2.77D-03  0.00D+00 EMaxC= 1.00D-01 BMatC= 5.93D-03 BMatP= 1.29D-02
 IDIUse=3 WtCom= 9.72D-01 WtEn= 2.77D-02
 Coeff-Com: -0.464D-01 0.686D-01-0.159D-01 0.155D-01 0.501D-01 0.669D-01
 Coeff-Com:  0.364D+00 0.498D+00
 Coeff-En:   0.000D+00 0.000D+00 0.000D+00 0.000D+00 0.000D+00 0.000D+00
 Coeff-En:   0.000D+00 0.100D+01
 Coeff:     -0.451D-01 0.667D-01-0.155D-01 0.151D-01 0.488D-01 0.651D-01
 Coeff:      0.354D+00 0.511D+00
 Gap=     0.066 Goal=   None    Shift=    0.000
 Gap=     0.152 Goal=   None    Shift=    0.000
 RMSDP=8.06D-04 MaxDP=4.21D-02 DE=-2.54D-03 OVMax= 2.13D-02

 Cycle   9  Pass 1  IDiag  1:
 RMSU=  5.62D-04    CP:  9.12D-01 -4.55D-04  2.56D-01  1.52D-02  9.47D-01
                    CP:  1.20D+00  1.02D+00  1.19D+00
 E= -799.728146088258     Delta-E=       -0.001273503591 Rises=F Damp=F
 DIIS: error= 1.54D-03 at cycle   9 NSaved=   9.
 NSaved= 9 IEnMin= 9 EnMin= -799.728146088258     IErMin= 9 ErrMin= 1.54D-03
 ErrMax= 1.54D-03  0.00D+00 EMaxC= 1.00D-01 BMatC= 1.87D-03 BMatP= 5.93D-03
 IDIUse=3 WtCom= 9.85D-01 WtEn= 1.54D-02
 Coeff-Com: -0.114D-01 0.210D-01-0.360D-02 0.610D-02-0.252D-01-0.713D-01
 Coeff-Com: -0.145D+00 0.240D+00 0.989D+00
 Coeff-En:   0.000D+00 0.000D+00 0.000D+00 0.000D+00 0.000D+00 0.000D+00
 Coeff-En:   0.000D+00 0.000D+00 0.100D+01
 Coeff:     -0.112D-01 0.206D-01-0.355D-02 0.601D-02-0.248D-01-0.702D-01
 Coeff:     -0.142D+00 0.237D+00 0.989D+00
 Gap=     0.066 Goal=   None    Shift=    0.000
 Gap=     0.151 Goal=   None    Shift=    0.000
 RMSDP=8.32D-04 MaxDP=4.19D-02 DE=-1.27D-03 OVMax= 1.11D-02

 Cycle  10  Pass 1  IDiag  1:
 RMSU=  3.00D-04    CP:  9.14D-01 -3.43D-04  2.40D-01  1.58D-02  9.80D-01
                    CP:  1.32D+00  1.08D+00  1.61D+00  1.26D+00
 E= -799.728683586696     Delta-E=       -0.000537498438 Rises=F Damp=F
 DIIS: error= 5.88D-04 at cycle  10 NSaved=  10.
 NSaved=10 IEnMin=10 EnMin= -799.728683586696     IErMin=10 ErrMin= 5.88D-04
 ErrMax= 5.88D-04  0.00D+00 EMaxC= 1.00D-01 BMatC= 2.93D-04 BMatP= 1.87D-03
 IDIUse=3 WtCom= 9.94D-01 WtEn= 5.88D-03
 Coeff-Com:  0.221D-02-0.332D-03 0.168D-02 0.124D-02-0.306D-01-0.700D-01
 Coeff-Com: -0.225D+00 0.128D-01 0.756D+00 0.552D+00
 Coeff-En:   0.000D+00 0.000D+00 0.000D+00 0.000D+00 0.000D+00 0.000D+00
 Coeff-En:   0.000D+00 0.000D+00 0.000D+00 0.100D+01
 Coeff:      0.219D-02-0.330D-03 0.167D-02 0.123D-02-0.304D-01-0.696D-01
 Coeff:     -0.224D+00 0.128D-01 0.752D+00 0.554D+00
 Gap=     0.065 Goal=   None    Shift=    0.000
 Gap=     0.151 Goal=   None    Shift=    0.000
 RMSDP=4.86D-04 MaxDP=2.56D-02 DE=-5.37D-04 OVMax= 5.27D-03

 Cycle  11  Pass 1  IDiag  1:
 RMSU=  1.22D-04    CP:  9.15D-01 -3.64D-04  2.33D-01  1.61D-02  9.87D-01
                    CP:  1.38D+00  1.13D+00  1.91D+00  1.64D+00  1.06D+00
 E= -799.728783177508     Delta-E=       -0.000099590812 Rises=F Damp=F
 DIIS: error= 1.02D-04 at cycle  11 NSaved=  11.
 NSaved=11 IEnMin=11 EnMin= -799.728783177508     IErMin=11 ErrMin= 1.02D-04
 ErrMax= 1.02D-04  0.00D+00 EMaxC= 1.00D-01 BMatC= 1.25D-05 BMatP= 2.93D-04
 IDIUse=3 WtCom= 9.99D-01 WtEn= 1.02D-03
 Coeff-Com:  0.455D-03-0.380D-03 0.134D-02-0.781D-03-0.349D-02-0.908D-02
 Coeff-Com: -0.417D-01-0.191D-01 0.110D+00 0.154D+00 0.809D+00
 Coeff-En:   0.000D+00 0.000D+00 0.000D+00 0.000D+00 0.000D+00 0.000D+00
 Coeff-En:   0.000D+00 0.000D+00 0.000D+00 0.000D+00 0.100D+01
 Coeff:      0.455D-03-0.380D-03 0.134D-02-0.780D-03-0.349D-02-0.907D-02
 Coeff:     -0.417D-01-0.191D-01 0.110D+00 0.154D+00 0.809D+00
 Gap=     0.066 Goal=   None    Shift=    0.000
 Gap=     0.151 Goal=   None    Shift=    0.000
 RMSDP=6.60D-05 MaxDP=4.79D-03 DE=-9.96D-05 OVMax= 1.26D-03

 Cycle  12  Pass 1  IDiag  1:
 RMSU=  5.30D-05    CP:  9.15D-01 -3.53D-04  2.34D-01  1.61D-02  9.85D-01
                    CP:  1.38D+00  1.12D+00  1.91D+00  1.66D+00  1.08D+00
                    CP:  1.11D+00
 E= -799.728787836597     Delta-E=       -0.000004659089 Rises=F Damp=F
 DIIS: error= 6.20D-05 at cycle  12 NSaved=  12.
 NSaved=12 IEnMin=12 EnMin= -799.728787836597     IErMin=12 ErrMin= 6.20D-05
 ErrMax= 6.20D-05  0.00D+00 EMaxC= 1.00D-01 BMatC= 6.59D-06 BMatP= 1.25D-05
 IDIUse=1 WtCom= 1.00D+00 WtEn= 0.00D+00
 Coeff-Com:  0.592D-03-0.117D-02 0.538D-03-0.443D-03 0.226D-02 0.544D-02
 Coeff-Com:  0.203D-01-0.600D-02-0.770D-01-0.253D-01 0.473D+00 0.608D+00
 Coeff:      0.592D-03-0.117D-02 0.538D-03-0.443D-03 0.226D-02 0.544D-02
 Coeff:      0.203D-01-0.600D-02-0.770D-01-0.253D-01 0.473D+00 0.608D+00
 Gap=     0.066 Goal=   None    Shift=    0.000
 Gap=     0.151 Goal=   None    Shift=    0.000
 RMSDP=4.19D-05 MaxDP=2.88D-03 DE=-4.66D-06 OVMax= 7.67D-04

 Cycle  13  Pass 1  IDiag  1:
 RMSU=  2.57D-05    CP:  9.15D-01 -3.43D-04  2.34D-01  1.61D-02  9.84D-01
                    CP:  1.37D+00  1.12D+00  1.93D+00  1.67D+00  1.06D+00
                    CP:  1.25D+00  9.97D-01
 E= -799.728789772078     Delta-E=       -0.000001935480 Rises=F Damp=F
 DIIS: error= 3.95D-05 at cycle  13 NSaved=  13.
 NSaved=13 IEnMin=13 EnMin= -799.728789772078     IErMin=13 ErrMin= 3.95D-05
 ErrMax= 3.95D-05  0.00D+00 EMaxC= 1.00D-01 BMatC= 2.03D-06 BMatP= 6.59D-06
 IDIUse=1 WtCom= 1.00D+00 WtEn= 0.00D+00
 Coeff-Com:  0.356D-03-0.655D-03-0.903D-04-0.994D-04 0.173D-02 0.510D-02
 Coeff-Com:  0.193D-01 0.593D-02-0.575D-01-0.585D-01-0.146D+00 0.271D+00
 Coeff-Com:  0.959D+00
 Coeff:      0.356D-03-0.655D-03-0.903D-04-0.994D-04 0.173D-02 0.510D-02
 Coeff:      0.193D-01 0.593D-02-0.575D-01-0.585D-01-0.146D+00 0.271D+00
 Coeff:      0.959D+00
 Gap=     0.066 Goal=   None    Shift=    0.000
 Gap=     0.151 Goal=   None    Shift=    0.000
 RMSDP=3.27D-05 MaxDP=2.40D-03 DE=-1.94D-06 OVMax= 4.65D-04

 Cycle  14  Pass 1  IDiag  1:
 RMSU=  1.59D-05    CP:  9.15D-01 -3.48D-04  2.34D-01  1.61D-02  9.82D-01
                    CP:  1.37D+00  1.12D+00  1.92D+00  1.66D+00  1.06D+00
                    CP:  1.31D+00  1.27D+00  1.10D+00
 E= -799.728790549824     Delta-E=       -0.000000777747 Rises=F Damp=F
 DIIS: error= 1.77D-05 at cycle  14 NSaved=  14.
 NSaved=14 IEnMin=14 EnMin= -799.728790549824     IErMin=14 ErrMin= 1.77D-05
 ErrMax= 1.77D-05  0.00D+00 EMaxC= 1.00D-01 BMatC= 4.75D-07 BMatP= 2.03D-06
 IDIUse=1 WtCom= 1.00D+00 WtEn= 0.00D+00
 Coeff-Com:  0.276D-03-0.412D-03-0.107D-03 0.236D-04 0.387D-03 0.209D-02
 Coeff-Com:  0.844D-02 0.453D-02-0.203D-01-0.295D-01-0.155D+00 0.675D-01
 Coeff-Com:  0.536D+00 0.585D+00
 Coeff:      0.276D-03-0.412D-03-0.107D-03 0.236D-04 0.387D-03 0.209D-02
 Coeff:      0.844D-02 0.453D-02-0.203D-01-0.295D-01-0.155D+00 0.675D-01
 Coeff:      0.536D+00 0.585D+00
 Gap=     0.066 Goal=   None    Shift=    0.000
 Gap=     0.151 Goal=   None    Shift=    0.000
 RMSDP=9.13D-06 MaxDP=5.76D-04 DE=-7.78D-07 OVMax= 1.14D-04

 Cycle  15  Pass 1  IDiag  1:
 RMSU=  3.83D-06    CP:  9.15D-01 -3.40D-04  2.34D-01  1.61D-02  9.82D-01
                    CP:  1.37D+00  1.12D+00  1.92D+00  1.66D+00  1.06D+00
                    CP:  1.32D+00  1.31D+00  1.25D+00  8.97D-01
 E= -799.728790658199     Delta-E=       -0.000000108374 Rises=F Damp=F
 DIIS: error= 8.06D-06 at cycle  15 NSaved=  15.
 NSaved=15 IEnMin=15 EnMin= -799.728790658199     IErMin=15 ErrMin= 8.06D-06
 ErrMax= 8.06D-06  0.00D+00 EMaxC= 1.00D-01 BMatC= 9.42D-08 BMatP= 4.75D-07
 IDIUse=1 WtCom= 1.00D+00 WtEn= 0.00D+00
 Coeff-Com:  0.133D-03-0.158D-03-0.120D-04 0.844D-05-0.363D-03-0.130D-03
 Coeff-Com:  0.174D-05 0.105D-02 0.427D-02-0.190D-02-0.473D-01-0.235D-01
 Coeff-Com:  0.578D-01 0.298D+00 0.712D+00
 Coeff:      0.133D-03-0.158D-03-0.120D-04 0.844D-05-0.363D-03-0.130D-03
 Coeff:      0.174D-05 0.105D-02 0.427D-02-0.190D-02-0.473D-01-0.235D-01
 Coeff:      0.578D-01 0.298D+00 0.712D+00
 Gap=     0.066 Goal=   None    Shift=    0.000
 Gap=     0.151 Goal=   None    Shift=    0.000
 RMSDP=5.22D-06 MaxDP=3.46D-04 DE=-1.08D-07 OVMax= 8.24D-05

 Cycle  16  Pass 1  IDiag  1:
 RMSU=  2.23D-06    CP:  9.15D-01 -3.40D-04  2.34D-01  1.61D-02  9.81D-01
                    CP:  1.37D+00  1.12D+00  1.92D+00  1.66D+00  1.06D+00
                    CP:  1.31D+00  1.33D+00  1.25D+00  9.09D-01  1.11D+00
 E= -799.728790683049     Delta-E=       -0.000000024850 Rises=F Damp=F
 DIIS: error= 3.34D-06 at cycle  16 NSaved=  16.
 NSaved=16 IEnMin=16 EnMin= -799.728790683049     IErMin=16 ErrMin= 3.34D-06
 ErrMax= 3.34D-06  0.00D+00 EMaxC= 1.00D-01 BMatC= 1.22D-08 BMatP= 9.42D-08
 IDIUse=1 WtCom= 1.00D+00 WtEn= 0.00D+00
 Coeff-Com:  0.397D-04-0.410D-04 0.102D-04 0.707D-06-0.237D-03-0.360D-03
 Coeff-Com: -0.907D-03 0.364D-03 0.487D-02 0.209D-02-0.495D-02-0.178D-01
 Coeff-Com: -0.304D-01 0.612D-01 0.296D+00 0.690D+00
 Coeff:      0.397D-04-0.410D-04 0.102D-04 0.707D-06-0.237D-03-0.360D-03
 Coeff:     -0.907D-03 0.364D-03 0.487D-02 0.209D-02-0.495D-02-0.178D-01
 Coeff:     -0.304D-01 0.612D-01 0.296D+00 0.690D+00
 Gap=     0.066 Goal=   None    Shift=    0.000
 Gap=     0.151 Goal=   None    Shift=    0.000
 RMSDP=2.46D-06 MaxDP=1.37D-04 DE=-2.49D-08 OVMax= 4.09D-05

 Cycle  17  Pass 1  IDiag  1:
 RMSU=  6.17D-07    CP:  9.15D-01 -3.40D-04  2.34D-01  1.61D-02  9.81D-01
                    CP:  1.37D+00  1.12D+00  1.92D+00  1.66D+00  1.06D+00
                    CP:  1.31D+00  1.33D+00  1.25D+00  9.44D-01  1.31D+00
                    CP:  8.64D-01
 E= -799.728790686375     Delta-E=       -0.000000003326 Rises=F Damp=F
 DIIS: error= 1.12D-06 at cycle  17 NSaved=  17.
 NSaved=17 IEnMin=17 EnMin= -799.728790686375     IErMin=17 ErrMin= 1.12D-06
 ErrMax= 1.12D-06  0.00D+00 EMaxC= 1.00D-01 BMatC= 2.02D-09 BMatP= 1.22D-08
 IDIUse=1 WtCom= 1.00D+00 WtEn= 0.00D+00
 Coeff-Com:  0.904D-05-0.872D-05 0.104D-04 0.181D-05-0.941D-04-0.239D-03
 Coeff-Com: -0.572D-03 0.160D-03 0.235D-02 0.152D-02 0.560D-02-0.668D-02
 Coeff-Com: -0.290D-01-0.188D-01 0.455D-01 0.407D+00 0.594D+00
 Coeff:      0.904D-05-0.872D-05 0.104D-04 0.181D-05-0.941D-04-0.239D-03
 Coeff:     -0.572D-03 0.160D-03 0.235D-02 0.152D-02 0.560D-02-0.668D-02
 Coeff:     -0.290D-01-0.188D-01 0.455D-01 0.407D+00 0.594D+00
 Gap=     0.066 Goal=   None    Shift=    0.000
 Gap=     0.151 Goal=   None    Shift=    0.000
 RMSDP=8.07D-07 MaxDP=3.34D-05 DE=-3.33D-09 OVMax= 2.17D-05

 Cycle  18  Pass 1  IDiag  1:
 RMSU=  2.52D-07    CP:  9.15D-01 -3.40D-04  2.34D-01  1.61D-02  9.81D-01
                    CP:  1.37D+00  1.12D+00  1.92D+00  1.66D+00  1.05D+00
                    CP:  1.31D+00  1.33D+00  1.25D+00  9.54D-01  1.32D+00
                    CP:  1.01D+00  9.54D-01
 E= -799.728790687019     Delta-E=       -0.000000000644 Rises=F Damp=F
 DIIS: error= 2.89D-07 at cycle  18 NSaved=  18.
 NSaved=18 IEnMin=18 EnMin= -799.728790687019     IErMin=18 ErrMin= 2.89D-07
 ErrMax= 2.89D-07  0.00D+00 EMaxC= 1.00D-01 BMatC= 1.44D-10 BMatP= 2.02D-09
 IDIUse=1 WtCom= 1.00D+00 WtEn= 0.00D+00
 Coeff-Com:  0.111D-05-0.270D-05 0.230D-05 0.126D-05 0.771D-06-0.396D-04
 Coeff-Com: -0.774D-04 0.167D-04 0.147D-03 0.158D-03 0.256D-02 0.625D-03
 Coeff-Com: -0.548D-02-0.156D-01-0.304D-01 0.242D-01 0.214D+00 0.809D+00
 Coeff:      0.111D-05-0.270D-05 0.230D-05 0.126D-05 0.771D-06-0.396D-04
 Coeff:     -0.774D-04 0.167D-04 0.147D-03 0.158D-03 0.256D-02 0.625D-03
 Coeff:     -0.548D-02-0.156D-01-0.304D-01 0.242D-01 0.214D+00 0.809D+00
 Gap=     0.066 Goal=   None    Shift=    0.000
 Gap=     0.151 Goal=   None    Shift=    0.000
 RMSDP=2.18D-07 MaxDP=1.35D-05 DE=-6.44D-10 OVMax= 6.08D-06

 Cycle  19  Pass 1  IDiag  1:
 RMSU=  1.32D-07    CP:  9.15D-01 -3.40D-04  2.34D-01  1.61D-02  9.81D-01
                    CP:  1.37D+00  1.12D+00  1.92D+00  1.66D+00  1.05D+00
                    CP:  1.31D+00  1.33D+00  1.25D+00  9.54D-01  1.34D+00
                    CP:  1.02D+00  1.02D+00  9.87D-01
 E= -799.728790687095     Delta-E=       -0.000000000076 Rises=F Damp=F
 DIIS: error= 2.05D-07 at cycle  19 NSaved=  19.
 NSaved=19 IEnMin=19 EnMin= -799.728790687095     IErMin=19 ErrMin= 2.05D-07
 ErrMax= 2.05D-07  0.00D+00 EMaxC= 1.00D-01 BMatC= 3.90D-11 BMatP= 1.44D-10
 IDIUse=1 WtCom= 1.00D+00 WtEn= 0.00D+00
 Coeff-Com: -0.244D-06-0.559D-06-0.125D-06 0.645D-06 0.143D-04 0.136D-04
 Coeff-Com:  0.344D-04-0.309D-04-0.226D-03-0.123D-03 0.561D-03 0.132D-02
 Coeff-Com:  0.112D-02-0.547D-02-0.228D-01-0.512D-01 0.246D-01 0.439D+00
 Coeff-Com:  0.614D+00
 Coeff:     -0.244D-06-0.559D-06-0.125D-06 0.645D-06 0.143D-04 0.136D-04
 Coeff:      0.344D-04-0.309D-04-0.226D-03-0.123D-03 0.561D-03 0.132D-02
 Coeff:      0.112D-02-0.547D-02-0.228D-01-0.512D-01 0.246D-01 0.439D+00
 Coeff:      0.614D+00
 Gap=     0.066 Goal=   None    Shift=    0.000
 Gap=     0.151 Goal=   None    Shift=    0.000
 RMSDP=7.59D-08 MaxDP=4.18D-06 DE=-7.64D-11 OVMax= 2.00D-06

 Cycle  20  Pass 1  IDiag  1:
 RMSU=  4.27D-08    CP:  9.15D-01 -3.40D-04  2.34D-01  1.61D-02  9.81D-01
                    CP:  1.37D+00  1.12D+00  1.92D+00  1.66D+00  1.05D+00
                    CP:  1.31D+00  1.33D+00  1.25D+00  9.54D-01  1.35D+00
                    CP:  1.03D+00  1.05D+00  1.05D+00  9.66D-01
 E= -799.728790687089     Delta-E=        0.000000000006 Rises=F Damp=F
 DIIS: error= 1.37D-07 at cycle  20 NSaved=  20.
 NSaved=20 IEnMin=19 EnMin= -799.728790687095     IErMin=20 ErrMin= 1.37D-07
 ErrMax= 1.37D-07  0.00D+00 EMaxC= 1.00D-01 BMatC= 8.33D-12 BMatP= 3.90D-11
 IDIUse=1 WtCom= 1.00D+00 WtEn= 0.00D+00
 Coeff-Com:  0.212D-06-0.450D-06-0.686D-06 0.212D-06 0.640D-05 0.180D-04
 Coeff-Com:  0.451D-04-0.299D-04-0.148D-03-0.120D-03-0.375D-03 0.457D-03
 Coeff-Com:  0.190D-02 0.133D-02-0.258D-02-0.291D-01-0.444D-01-0.143D-01
 Coeff-Com:  0.292D+00 0.796D+00
 Coeff:      0.212D-06-0.450D-06-0.686D-06 0.212D-06 0.640D-05 0.180D-04
 Coeff:      0.451D-04-0.299D-04-0.148D-03-0.120D-03-0.375D-03 0.457D-03
 Coeff:      0.190D-02 0.133D-02-0.258D-02-0.291D-01-0.444D-01-0.143D-01
 Coeff:      0.292D+00 0.796D+00
 Gap=     0.066 Goal=   None    Shift=    0.000
 Gap=     0.151 Goal=   None    Shift=    0.000
 RMSDP=5.01D-08 MaxDP=2.65D-06 DE= 6.14D-12 OVMax= 1.43D-06

 Cycle  21  Pass 1  IDiag  1:
 Restarting incremental Fock formation.
 E= -799.728790687083     Delta-E=        0.000000000006 Rises=F Damp=F
 DIIS: error= 8.25D-08 at cycle  21 NSaved=  20.
 NSaved=20 IEnMin=18 EnMin= -799.728790687095     IErMin=20 ErrMin= 8.25D-08
 ErrMax= 8.25D-08  0.00D+00 EMaxC= 1.00D-01 BMatC= 2.93D-12 BMatP= 8.33D-12
 IDIUse=1 WtCom= 1.00D+00 WtEn= 0.00D+00
 Coeff-Com:  0.182D-07 0.288D-06-0.145D-06-0.341D-06 0.487D-05 0.834D-05
 Coeff-Com: -0.148D-04 0.173D-05-0.169D-04-0.282D-03-0.149D-03 0.580D-03
 Coeff-Com:  0.190D-02 0.440D-02-0.156D-02-0.299D-01-0.120D+00 0.990D-02
 Coeff-Com:  0.446D+00 0.690D+00
 Coeff:      0.182D-07 0.288D-06-0.145D-06-0.341D-06 0.487D-05 0.834D-05
 Coeff:     -0.148D-04 0.173D-05-0.169D-04-0.282D-03-0.149D-03 0.580D-03
 Coeff:      0.190D-02 0.440D-02-0.156D-02-0.299D-01-0.120D+00 0.990D-02
 Coeff:      0.446D+00 0.690D+00
 Gap=     0.066 Goal=   None    Shift=    0.000
 Gap=     0.151 Goal=   None    Shift=    0.000
 RMSDP=3.05D-08 MaxDP=1.80D-06 DE= 6.14D-12 OVMax= 9.81D-07

 Cycle  22  Pass 1  IDiag  1:
 RMSU=  3.03D-08    CP:  1.00D+00
 E= -799.728790687103     Delta-E=       -0.000000000020 Rises=F Damp=F
 DIIS: error= 4.51D-08 at cycle  22 NSaved=  20.
 NSaved=20 IEnMin=20 EnMin= -799.728790687103     IErMin=20 ErrMin= 4.51D-08
 ErrMax= 4.51D-08  0.00D+00 EMaxC= 1.00D-01 BMatC= 1.07D-12 BMatP= 2.93D-12
 IDIUse=1 WtCom= 1.00D+00 WtEn= 0.00D+00
 Coeff-Com:  0.492D-07-0.135D-06-0.250D-05-0.268D-05-0.278D-05 0.322D-05
 Coeff-Com:  0.390D-04 0.685D-05-0.151D-03-0.219D-03 0.406D-04 0.101D-02
 Coeff-Com:  0.357D-02 0.712D-02-0.513D-02-0.670D-01-0.882D-01-0.121D-01
 Coeff-Com:  0.413D+00 0.748D+00
 Coeff:      0.492D-07-0.135D-06-0.250D-05-0.268D-05-0.278D-05 0.322D-05
 Coeff:      0.390D-04 0.685D-05-0.151D-03-0.219D-03 0.406D-04 0.101D-02
 Coeff:      0.357D-02 0.712D-02-0.513D-02-0.670D-01-0.882D-01-0.121D-01
 Coeff:      0.413D+00 0.748D+00
 Gap=     0.066 Goal=   None    Shift=    0.000
 Gap=     0.151 Goal=   None    Shift=    0.000
 RMSDP=1.56D-08 MaxDP=1.27D-06 DE=-2.05D-11 OVMax= 6.02D-07

 Cycle  23  Pass 1  IDiag  1:
 RMSU=  1.56D-08    CP:  1.00D+00  1.01D+00
 E= -799.728790687107     Delta-E=       -0.000000000004 Rises=F Damp=F
 DIIS: error= 1.36D-08 at cycle  23 NSaved=  20.
 NSaved=20 IEnMin=20 EnMin= -799.728790687107     IErMin=20 ErrMin= 1.36D-08
 ErrMax= 1.36D-08  0.00D+00 EMaxC= 1.00D-01 BMatC= 1.92D-13 BMatP= 1.07D-12
 IDIUse=1 WtCom= 1.00D+00 WtEn= 0.00D+00
 Coeff-Com: -0.798D-08-0.104D-05-0.240D-05-0.340D-05 0.307D-05 0.226D-04
 Coeff-Com:  0.956D-05 0.673D-05-0.675D-04-0.169D-03-0.596D-04 0.518D-03
 Coeff-Com:  0.370D-02 0.587D-02 0.120D-02-0.415D-01-0.135D+00-0.216D-01
 Coeff-Com:  0.289D+00 0.898D+00
 Coeff:     -0.798D-08-0.104D-05-0.240D-05-0.340D-05 0.307D-05 0.226D-04
 Coeff:      0.956D-05 0.673D-05-0.675D-04-0.169D-03-0.596D-04 0.518D-03
 Coeff:      0.370D-02 0.587D-02 0.120D-02-0.415D-01-0.135D+00-0.216D-01
 Coeff:      0.289D+00 0.898D+00
 Gap=     0.066 Goal=   None    Shift=    0.000
 Gap=     0.151 Goal=   None    Shift=    0.000
 RMSDP=1.19D-08 MaxDP=8.11D-07 DE=-3.87D-12 OVMax= 4.79D-07

 Cycle  24  Pass 1  IDiag  1:
 RMSU=  1.02D-08    CP:  1.00D+00  1.14D+00  1.08D+00
 E= -799.728790687105     Delta-E=        0.000000000002 Rises=F Damp=F
 DIIS: error= 4.72D-09 at cycle  24 NSaved=  20.
 NSaved=20 IEnMin=19 EnMin= -799.728790687107     IErMin=20 ErrMin= 4.72D-09
 ErrMax= 4.72D-09  0.00D+00 EMaxC= 1.00D-01 BMatC= 6.20D-14 BMatP= 1.92D-13
 IDIUse=1 WtCom= 1.00D+00 WtEn= 0.00D+00
 Coeff-Com: -0.714D-07-0.746D-06-0.113D-05-0.487D-06 0.497D-05 0.426D-05
 Coeff-Com:  0.385D-04 0.201D-04-0.980D-04-0.270D-03-0.495D-03 0.426D-03
 Coeff-Com:  0.434D-02 0.149D-01-0.318D-02-0.693D-01-0.879D-01-0.296D-02
 Coeff-Com:  0.454D+00 0.690D+00
 Coeff:     -0.714D-07-0.746D-06-0.113D-05-0.487D-06 0.497D-05 0.426D-05
 Coeff:      0.385D-04 0.201D-04-0.980D-04-0.270D-03-0.495D-03 0.426D-03
 Coeff:      0.434D-02 0.149D-01-0.318D-02-0.693D-01-0.879D-01-0.296D-02
 Coeff:      0.454D+00 0.690D+00
 Gap=     0.066 Goal=   None    Shift=    0.000
 Gap=     0.151 Goal=   None    Shift=    0.000
 RMSDP=4.70D-09 MaxDP=4.95D-07 DE= 1.59D-12 OVMax= 1.48D-07

 SCF Done:  E(UB3LYP) =  -799.728790687     A.U. after   24 cycles
            NFock= 24  Conv=0.47D-08     -V/T= 2.0035
 <Sx>= 0.0000 <Sy>= 0.0000 <Sz>= 0.5000 <S**2>= 0.7608 S= 0.5054
 <L.S>=  0.00000000000    
 KE= 7.969215006458D+02 PE=-4.292703063290D+03 EE= 1.491489737201D+03
 Annihilation of the first spin contaminant:
 S**2 before annihilation     0.7608,   after     0.7500
 Leave Link  502 at Thu Dec 21 05:41:43 2023, MaxMem=  4026531840 cpu:            3612.6 elap:             454.7
 (Enter /sysapps/ubuntu-applications/gaussian/Gaussian/AVX2/g16/l601.exe)
 Copying SCF densities to generalized density rwf, IOpCl= 1 IROHF=0.

 **********************************************************************

            Population analysis using the SCF density.

 **********************************************************************

 Alpha  occ. eigenvalues --  -18.93200 -18.93122 -14.20830 -14.20670 -10.08616
 Alpha  occ. eigenvalues --  -10.08473 -10.08366 -10.08268 -10.04664 -10.04630
 Alpha  occ. eigenvalues --  -10.04457 -10.04358 -10.03773 -10.03769 -10.03706
 Alpha  occ. eigenvalues --  -10.03656 -10.03432 -10.03295  -0.86709  -0.85967
 Alpha  occ. eigenvalues --   -0.79328  -0.78994  -0.72953  -0.71932  -0.65084
 Alpha  occ. eigenvalues --   -0.62565  -0.62086  -0.60790  -0.52719  -0.52375
 Alpha  occ. eigenvalues --   -0.48939  -0.47589  -0.43451  -0.41970  -0.41234
 Alpha  occ. eigenvalues --   -0.40304  -0.39299  -0.37144  -0.34494  -0.34195
 Alpha  occ. eigenvalues --   -0.33827  -0.30624  -0.29923  -0.29640  -0.29355
 Alpha  occ. eigenvalues --   -0.28253  -0.27790  -0.25829  -0.25283  -0.24112
 Alpha  occ. eigenvalues --   -0.23778  -0.22839  -0.22258  -0.20157  -0.16874
 Alpha  occ. eigenvalues --   -0.16214  -0.13461  -0.12779  -0.11073  -0.10304
 Alpha  occ. eigenvalues --   -0.10114  -0.09550   0.00236
 Alpha virt. eigenvalues --    0.06802   0.06959   0.07246   0.09599   0.09622
 Alpha virt. eigenvalues --    0.10093   0.10804   0.11335   0.12199   0.12584
 Alpha virt. eigenvalues --    0.12846   0.13422   0.14427   0.15442   0.15904
 Alpha virt. eigenvalues --    0.16573   0.17060   0.17524   0.17879   0.18397
 Alpha virt. eigenvalues --    0.18927   0.19037   0.19761   0.20105   0.20341
 Alpha virt. eigenvalues --    0.20755   0.21225   0.21676   0.21933   0.22315
 Alpha virt. eigenvalues --    0.22474   0.22581   0.23365   0.23811   0.24133
 Alpha virt. eigenvalues --    0.24314   0.24452   0.24480   0.24524   0.24682
 Alpha virt. eigenvalues --    0.25206   0.25672   0.26173   0.26982   0.27405
 Alpha virt. eigenvalues --    0.27496   0.27998   0.28411   0.28624   0.28911
 Alpha virt. eigenvalues --    0.30216   0.31334   0.31390   0.31520   0.31709
 Alpha virt. eigenvalues --    0.32542   0.32852   0.33062   0.33435   0.34203
 Alpha virt. eigenvalues --    0.34340   0.35074   0.35370   0.35542   0.36330
 Alpha virt. eigenvalues --    0.36476   0.36719   0.37228   0.37480   0.37648
 Alpha virt. eigenvalues --    0.38147   0.38666   0.39090   0.39650   0.40021
 Alpha virt. eigenvalues --    0.40580   0.40771   0.41544   0.41627   0.41766
 Alpha virt. eigenvalues --    0.42959   0.43256   0.43952   0.44409   0.44780
 Alpha virt. eigenvalues --    0.45139   0.45321   0.45704   0.45869   0.46119
 Alpha virt. eigenvalues --    0.47696   0.47820   0.48111   0.48290   0.49645
 Alpha virt. eigenvalues --    0.50419   0.51083   0.51592   0.52666   0.54003
 Alpha virt. eigenvalues --    0.55075   0.55764   0.56615   0.57847   0.60774
 Alpha virt. eigenvalues --    0.61863   0.62518   0.62871   0.63938   0.65250
 Alpha virt. eigenvalues --    0.66419   0.67305   0.67988   0.68653   0.69054
 Alpha virt. eigenvalues --    0.70077   0.71027   0.71213   0.71600   0.72025
 Alpha virt. eigenvalues --    0.72754   0.74084   0.75054   0.76039   0.76581
 Alpha virt. eigenvalues --    0.77060   0.77595   0.77807   0.78785   0.79175
 Alpha virt. eigenvalues --    0.79311   0.80363   0.80974   0.81704   0.81954
 Alpha virt. eigenvalues --    0.82601   0.82970   0.84562   0.85742   0.86000
 Alpha virt. eigenvalues --    0.86556   0.87119   0.88069   0.89420   0.89754
 Alpha virt. eigenvalues --    0.90916   0.91642   0.92057   0.92594   0.93435
 Alpha virt. eigenvalues --    0.94105   0.94863   0.95150   0.96453   0.97420
 Alpha virt. eigenvalues --    0.99369   0.99994   1.00859   1.02223   1.03085
 Alpha virt. eigenvalues --    1.03811   1.04300   1.04988   1.05580   1.06999
 Alpha virt. eigenvalues --    1.07158   1.07768   1.09851   1.10109   1.10978
 Alpha virt. eigenvalues --    1.11613   1.12686   1.12848   1.14984   1.15602
 Alpha virt. eigenvalues --    1.16255   1.17900   1.18995   1.19200   1.21312
 Alpha virt. eigenvalues --    1.21417   1.22147   1.25576   1.26039   1.26930
 Alpha virt. eigenvalues --    1.27165   1.27717   1.31565   1.31806   1.32757
 Alpha virt. eigenvalues --    1.33035   1.34689   1.38170   1.38493   1.40002
 Alpha virt. eigenvalues --    1.40821   1.42950   1.43398   1.44366   1.45338
 Alpha virt. eigenvalues --    1.46529   1.49520   1.50304   1.50988   1.51646
 Alpha virt. eigenvalues --    1.53998   1.58436   1.58685   1.61608   1.64157
 Alpha virt. eigenvalues --    1.64490   1.64565   1.65360   1.66209   1.67059
 Alpha virt. eigenvalues --    1.67431   1.68634   1.69200   1.69843   1.72199
 Alpha virt. eigenvalues --    1.73457   1.73794   1.74859   1.75808   1.80034
 Alpha virt. eigenvalues --    1.80449   1.81200   1.82349   1.82849   1.84345
 Alpha virt. eigenvalues --    1.85339   1.86306   1.87257   1.87581   1.88037
 Alpha virt. eigenvalues --    1.88954   1.91385   1.92389   1.92805   1.96381
 Alpha virt. eigenvalues --    1.97164   2.01960   2.02838   2.04037   2.04866
 Alpha virt. eigenvalues --    2.06380   2.07945   2.08276   2.08531   2.08914
 Alpha virt. eigenvalues --    2.10311   2.10635   2.11497   2.12647   2.13845
 Alpha virt. eigenvalues --    2.14406   2.15221   2.18786   2.18995   2.19941
 Alpha virt. eigenvalues --    2.20970   2.22086   2.22776   2.23465   2.25450
 Alpha virt. eigenvalues --    2.27639   2.32508   2.32898   2.35977   2.37051
 Alpha virt. eigenvalues --    2.38386   2.41589   2.43814   2.45535   2.47874
 Alpha virt. eigenvalues --    2.50132   2.51533   2.52537   2.53639   2.56535
 Alpha virt. eigenvalues --    2.58069   2.60344   2.63211   2.65294   2.68739
 Alpha virt. eigenvalues --    2.69832   2.70851   2.74924   2.76359   2.76732
 Alpha virt. eigenvalues --    2.78993   2.80672   2.81773   2.82426   2.83369
 Alpha virt. eigenvalues --    2.83844   2.84580   2.86284   2.88601   2.89849
 Alpha virt. eigenvalues --    2.90393   2.90570   2.90961   2.92257   2.94241
 Alpha virt. eigenvalues --    2.95143   2.96168   2.96456   2.97732   2.98551
 Alpha virt. eigenvalues --    3.00264   3.02341   3.02640   3.02843   3.04419
 Alpha virt. eigenvalues --    3.04675   3.05370   3.05795   3.08600   3.10911
 Alpha virt. eigenvalues --    3.11800   3.12638   3.13974   3.14500   3.18003
 Alpha virt. eigenvalues --    3.24685   3.26235   3.28499   3.30005   3.32624
 Alpha virt. eigenvalues --    3.34996   3.38855   3.39574   3.40760   3.43984
 Alpha virt. eigenvalues --    3.48257   3.50816   3.51122   3.52617   3.52767
 Alpha virt. eigenvalues --    3.55496   3.56179   3.61848   3.62790   3.69308
 Alpha virt. eigenvalues --    3.70749   3.71556   3.74218   3.75298   3.78515
 Alpha virt. eigenvalues --    3.85142   3.96226   3.97457   3.99852   4.04088
 Alpha virt. eigenvalues --    4.05191   4.06399   4.07381   4.19923   4.23434
 Alpha virt. eigenvalues --    4.32332   4.35314   4.42619   4.45161   4.63688
 Alpha virt. eigenvalues --    4.76485   4.79872   4.96781   5.01111   5.02347
 Alpha virt. eigenvalues --    5.04234   5.05802   5.22149   5.23439   5.42676
 Alpha virt. eigenvalues --    5.44714   5.91011   5.98905  23.66058  23.80102
 Alpha virt. eigenvalues --   24.06115  24.09331  24.11038  24.11400  24.12864
 Alpha virt. eigenvalues --   24.14050  24.23906  24.26977  24.27966  24.28693
 Alpha virt. eigenvalues --   24.36263  24.36783  35.71689  35.72416  50.20997
 Alpha virt. eigenvalues --   50.25751
  Beta  occ. eigenvalues --  -18.92602 -18.92533 -14.20826 -14.20665 -10.08561
  Beta  occ. eigenvalues --  -10.08410 -10.08213 -10.08117 -10.04637 -10.04592
  Beta  occ. eigenvalues --  -10.04472 -10.04368 -10.03769 -10.03757 -10.03612
  Beta  occ. eigenvalues --  -10.03559 -10.03359 -10.03233  -0.85700  -0.84946
  Beta  occ. eigenvalues --   -0.79254  -0.78919  -0.72687  -0.71848  -0.64753
  Beta  occ. eigenvalues --   -0.62355  -0.61964  -0.60611  -0.52242  -0.51984
  Beta  occ. eigenvalues --   -0.48709  -0.47519  -0.43253  -0.41737  -0.41146
  Beta  occ. eigenvalues --   -0.40238  -0.39236  -0.36988  -0.34380  -0.33905
  Beta  occ. eigenvalues --   -0.33745  -0.30482  -0.29883  -0.29588  -0.28303
  Beta  occ. eigenvalues --   -0.28089  -0.27446  -0.25243  -0.25011  -0.23613
  Beta  occ. eigenvalues --   -0.22765  -0.21821  -0.21390  -0.19867  -0.16621
  Beta  occ. eigenvalues --   -0.15407  -0.12405  -0.11986  -0.09962  -0.09750
  Beta  occ. eigenvalues --   -0.09584  -0.08983
  Beta virt. eigenvalues --    0.06128   0.06902   0.06983   0.08022   0.09586
  Beta virt. eigenvalues --    0.09666   0.10344   0.10850   0.11556   0.12375
  Beta virt. eigenvalues --    0.12850   0.13074   0.13418   0.14400   0.15456
  Beta virt. eigenvalues --    0.15898   0.16651   0.17212   0.17614   0.18229
  Beta virt. eigenvalues --    0.18412   0.18941   0.19261   0.19931   0.20148
  Beta virt. eigenvalues --    0.20359   0.21234   0.21662   0.21896   0.22036
  Beta virt. eigenvalues --    0.22324   0.22644   0.22745   0.23440   0.23818
  Beta virt. eigenvalues --    0.24208   0.24342   0.24465   0.24502   0.24543
  Beta virt. eigenvalues --    0.24747   0.25214   0.25727   0.26206   0.27028
  Beta virt. eigenvalues --    0.27499   0.27662   0.28014   0.28414   0.28632
  Beta virt. eigenvalues --    0.28959   0.30211   0.31427   0.31479   0.31719
  Beta virt. eigenvalues --    0.31816   0.32589   0.32863   0.33068   0.33534
  Beta virt. eigenvalues --    0.34247   0.34398   0.35116   0.35391   0.35531
  Beta virt. eigenvalues --    0.36433   0.36513   0.36769   0.37285   0.37559
  Beta virt. eigenvalues --    0.37714   0.38686   0.38833   0.39320   0.39746
  Beta virt. eigenvalues --    0.40117   0.40610   0.40830   0.41585   0.41691
  Beta virt. eigenvalues --    0.41822   0.43027   0.43316   0.44251   0.44627
  Beta virt. eigenvalues --    0.45138   0.45281   0.45394   0.45793   0.45968
  Beta virt. eigenvalues --    0.46203   0.47792   0.47948   0.48133   0.48357
  Beta virt. eigenvalues --    0.49813   0.50548   0.51134   0.51629   0.52812
  Beta virt. eigenvalues --    0.54134   0.55129   0.55870   0.56725   0.58346
  Beta virt. eigenvalues --    0.60857   0.61941   0.62668   0.62967   0.63975
  Beta virt. eigenvalues --    0.65406   0.66496   0.67411   0.68077   0.68793
  Beta virt. eigenvalues --    0.69450   0.70156   0.71153   0.71285   0.71704
  Beta virt. eigenvalues --    0.72238   0.72857   0.74187   0.75093   0.76146
  Beta virt. eigenvalues --    0.76657   0.77158   0.77698   0.77921   0.79082
  Beta virt. eigenvalues --    0.79380   0.79461   0.80464   0.81210   0.81974
  Beta virt. eigenvalues --    0.82183   0.82683   0.83364   0.84604   0.85809
  Beta virt. eigenvalues --    0.86055   0.86612   0.87535   0.88136   0.89460
  Beta virt. eigenvalues --    0.89797   0.90960   0.91667   0.92192   0.92711
  Beta virt. eigenvalues --    0.93469   0.94179   0.94942   0.95288   0.96497
  Beta virt. eigenvalues --    0.97486   0.99413   1.00037   1.00953   1.02289
  Beta virt. eigenvalues --    1.03131   1.03889   1.04347   1.05227   1.05632
  Beta virt. eigenvalues --    1.07104   1.07340   1.07863   1.10034   1.10222
  Beta virt. eigenvalues --    1.11433   1.11671   1.12862   1.13107   1.15232
  Beta virt. eigenvalues --    1.15893   1.16320   1.18155   1.19159   1.19268
  Beta virt. eigenvalues --    1.21449   1.21558   1.22486   1.25899   1.26444
  Beta virt. eigenvalues --    1.27153   1.27867   1.27967   1.31769   1.32877
  Beta virt. eigenvalues --    1.32978   1.33281   1.34730   1.38331   1.39457
  Beta virt. eigenvalues --    1.40322   1.41477   1.43090   1.43600   1.44521
  Beta virt. eigenvalues --    1.45474   1.46660   1.49680   1.50561   1.51081
  Beta virt. eigenvalues --    1.51873   1.54216   1.58578   1.58772   1.61654
  Beta virt. eigenvalues --    1.64571   1.64587   1.64880   1.65438   1.66450
  Beta virt. eigenvalues --    1.67254   1.67548   1.68701   1.69359   1.69899
  Beta virt. eigenvalues --    1.72301   1.73574   1.73918   1.74992   1.75945
  Beta virt. eigenvalues --    1.80122   1.80537   1.81383   1.82420   1.83103
  Beta virt. eigenvalues --    1.84445   1.85415   1.86439   1.87352   1.87700
  Beta virt. eigenvalues --    1.88156   1.89146   1.91480   1.92548   1.93187
  Beta virt. eigenvalues --    1.96740   1.97386   2.02176   2.02983   2.04247
  Beta virt. eigenvalues --    2.05096   2.06564   2.08124   2.08358   2.08662
  Beta virt. eigenvalues --    2.09182   2.10463   2.11161   2.11677   2.12785
  Beta virt. eigenvalues --    2.13978   2.14520   2.15347   2.18964   2.19114
  Beta virt. eigenvalues --    2.20049   2.21113   2.22238   2.22953   2.23680
  Beta virt. eigenvalues --    2.25582   2.27789   2.32626   2.33028   2.36078
  Beta virt. eigenvalues --    2.37190   2.38548   2.41872   2.43938   2.45740
  Beta virt. eigenvalues --    2.48120   2.50441   2.51737   2.52677   2.53971
  Beta virt. eigenvalues --    2.56655   2.58254   2.60437   2.63337   2.65368
  Beta virt. eigenvalues --    2.68780   2.69877   2.70915   2.75048   2.76534
  Beta virt. eigenvalues --    2.76831   2.79431   2.80917   2.81901   2.82483
  Beta virt. eigenvalues --    2.83479   2.83959   2.84689   2.86360   2.88760
  Beta virt. eigenvalues --    2.89931   2.90611   2.90843   2.91214   2.92384
  Beta virt. eigenvalues --    2.94461   2.95371   2.96270   2.96864   2.97989
  Beta virt. eigenvalues --    2.98622   3.00526   3.02849   3.03095   3.03154
  Beta virt. eigenvalues --    3.04699   3.04965   3.05815   3.06125   3.08655
  Beta virt. eigenvalues --    3.12083   3.12896   3.13756   3.14512   3.14963
  Beta virt. eigenvalues --    3.18477   3.25012   3.26709   3.28845   3.30337
  Beta virt. eigenvalues --    3.32718   3.35177   3.39017   3.39733   3.40796
  Beta virt. eigenvalues --    3.44157   3.49802   3.51183   3.52363   3.52724
  Beta virt. eigenvalues --    3.52867   3.55619   3.56282   3.61950   3.62881
  Beta virt. eigenvalues --    3.69498   3.70913   3.71736   3.74331   3.75557
  Beta virt. eigenvalues --    3.78585   3.85312   3.96362   3.97810   4.00013
  Beta virt. eigenvalues --    4.04256   4.05316   4.06439   4.07426   4.20011
  Beta virt. eigenvalues --    4.23596   4.32469   4.35416   4.42878   4.45477
  Beta virt. eigenvalues --    4.64000   4.76497   4.79886   4.97159   5.01284
  Beta virt. eigenvalues --    5.02476   5.04320   5.05864   5.24611   5.25901
  Beta virt. eigenvalues --    5.43165   5.45204   5.91514   5.99408  23.66122
  Beta virt. eigenvalues --   23.80159  24.06253  24.09445  24.11104  24.11453
  Beta virt. eigenvalues --   24.13009  24.14135  24.23966  24.27038  24.27994
  Beta virt. eigenvalues --   24.28725  24.36296  24.36823  35.71694  35.72422
  Beta virt. eigenvalues --   50.21591  50.26348
          Condensed to atoms (all electrons):
               1          2          3          4          5          6
     1  N    6.836091   0.487434  -0.260023  -0.029031   0.000533  -0.006842
     2  C    0.487434   9.690916  -0.129437   0.354404   0.751994  -0.550271
     3  C   -0.260023  -0.129437  11.461443  -2.201343  -2.486641   1.779381
     4  C   -0.029031   0.354404  -2.201343  11.167890   2.746436  -3.375123
     5  C    0.000533   0.751994  -2.486641   2.746436  19.662097  -1.063211
     6  C   -0.006842  -0.550271   1.779381  -3.375123  -1.063211  11.169381
     7  O    0.000137  -0.011546   0.118698   0.225808  -0.281496   0.795451
     8  C   -0.002121  -0.336052   0.575349  -0.408778  -0.712364  -0.141513
     9  C   -0.000534  -0.047195  -0.011052  -0.193220  -1.042651  -2.434936
    10  C   -0.000084   0.012244  -0.002917  -0.225866   0.028304   0.370380
    11  N    0.000000  -0.000091   0.000553  -0.003239  -0.013378  -0.056381
    12  C    0.000611  -0.013654   0.025654  -0.005044   0.401273   0.250404
    13  C   -0.002536  -0.189413  -0.046180  -0.081881  -2.685512  -1.561613
    14  C   -0.014363   0.062537   0.305576  -2.421476  -8.210520   0.549824
    15  C   -0.045607   0.686306   0.311690  -1.560678   0.933609   2.105538
    16  O   -0.001458   0.177130   0.013545  -0.043667  -0.337737  -0.013294
    17  C   -0.024617  -3.164749   0.428435  -1.674822  -1.553145   1.221957
    18  C   -0.192990  -0.801359  -4.319626   3.433076  -0.418848  -2.293413
    19  H    0.347959  -0.037581  -0.013540   0.025402   0.011631   0.000552
    20  H    0.363435  -0.060694  -0.017826   0.001874  -0.012035  -0.003712
    21  H   -0.006112  -0.183817   0.620160  -0.178542  -0.078855   0.054150
    22  H   -0.003762   0.010970  -0.249706   0.365396   0.078956   0.082717
    23  H    0.000013  -0.003589   0.008814  -0.016469  -0.071613   0.046090
    24  H   -0.000000  -0.000071   0.000189  -0.000271  -0.001614  -0.005406
    25  H   -0.000000   0.000052  -0.000257   0.000053   0.000597   0.006135
    26  H    0.000012  -0.000426  -0.000321   0.002510   0.010969   0.005549
    27  H   -0.000190  -0.007597   0.000442   0.002534  -0.001324   0.000610
    28  H    0.002469  -0.190875  -0.060731   0.034181   0.124682   0.003213
               7          8          9         10         11         12
     1  N    0.000137  -0.002121  -0.000534  -0.000084   0.000000   0.000611
     2  C   -0.011546  -0.336052  -0.047195   0.012244  -0.000091  -0.013654
     3  C    0.118698   0.575349  -0.011052  -0.002917   0.000553   0.025654
     4  C    0.225808  -0.408778  -0.193220  -0.225866  -0.003239  -0.005044
     5  C   -0.281496  -0.712364  -1.042651   0.028304  -0.013378   0.401273
     6  C    0.795451  -0.141513  -2.434936   0.370380  -0.056381   0.250404
     7  O    8.354712  -0.409921   0.184734   0.151861  -0.000993   0.015003
     8  C   -0.409921  16.396867   1.236500  -2.868506  -0.036081   0.356377
     9  C    0.184734   1.236500  15.031536  -0.639029  -0.232949  -4.512279
    10  C    0.151861  -2.868506  -0.639029   9.880615   0.581256  -0.039574
    11  N   -0.000993  -0.036081  -0.232949   0.581256   6.853353  -0.267730
    12  C    0.015003   0.356377  -4.512279  -0.039574  -0.267730  11.625635
    13  C   -0.042455  -2.128472   3.544123   0.316992  -0.042111  -2.339837
    14  C   -0.369963  -1.205186  -0.682044   0.536382   0.001594  -2.366552
    15  C   -0.019615   1.221613  -2.219047  -0.561612  -0.006161   1.747504
    16  O   -0.000024  -0.327749  -0.036832  -0.012003   0.000116   0.118030
    17  C   -0.298616  -3.766159  -1.901533  -0.510534  -0.002437   0.588711
    18  C   -0.032324  -1.942733  -0.412003  -0.071428  -0.000365  -0.017760
    19  H   -0.000008  -0.001606  -0.000401  -0.000073  -0.000000   0.000194
    20  H    0.000005  -0.000437   0.000142   0.000025  -0.000000  -0.000242
    21  H    0.003871   0.020561   0.002049  -0.000066   0.000013  -0.000202
    22  H   -0.006548  -0.020217  -0.014545  -0.010194  -0.000202   0.000660
    23  H   -0.004303   0.078708   0.341084  -0.220547   0.000490  -0.050332
    24  H   -0.000077  -0.015812  -0.021002  -0.031085   0.345660   0.008001
    25  H   -0.000322   0.017772   0.059220  -0.059010   0.360467  -0.026571
    26  H    0.000006   0.053252  -0.031409  -0.189175  -0.007509   0.608969
    27  H    0.000270   0.044213   0.044976   0.002864  -0.003614  -0.255313
    28  H   -0.000005   0.010496  -0.008089  -0.003252   0.000007   0.009004
              13         14         15         16         17         18
     1  N   -0.002536  -0.014363  -0.045607  -0.001458  -0.024617  -0.192990
     2  C   -0.189413   0.062537   0.686306   0.177130  -3.164749  -0.801359
     3  C   -0.046180   0.305576   0.311690   0.013545   0.428435  -4.319626
     4  C   -0.081881  -2.421476  -1.560678  -0.043667  -1.674822   3.433076
     5  C   -2.685512  -8.210520   0.933609  -0.337737  -1.553145  -0.418848
     6  C   -1.561613   0.549824   2.105538  -0.013294   1.221957  -2.293413
     7  O   -0.042455  -0.369963  -0.019615  -0.000024  -0.298616  -0.032324
     8  C   -2.128472  -1.205186   1.221613  -0.327749  -3.766159  -1.942733
     9  C    3.544123  -0.682044  -2.219047  -0.036832  -1.901533  -0.412003
[...]
 0,-0.00029434,-0.06253118,0.05648582,0.04996228,0.00004536,-0.00119324
 ,-0.00056467,-0.00437132,-0.00088488,-0.00068167,-0.00020649,-0.024875
 12,-0.01350652,-0.06076506,-0.03087901,-0.01684011,0.00913131,0.022246
 85,0.01210850,-0.00079607,0.00280277,0.00155759,0.00036073,-0.00243571
 ,-0.00131727,0.00109207,-0.00077094,-0.00040635,-0.00027339,-0.0001543
 4,-0.00010137,0.00002683,-0.00016718,-0.00008028,0.00007916,0.00002704
 ,-0.00000716,-0.00007348,0.00010359,0.00004781,0.00010361,-0.00014216,
 -0.00007407,-0.00004096,0.00022765,0.00011986,0.00105379,0.00129416,0.
 00072177,-0.00060463,0.00000712,-0.00000592,-0.00417456,0.00169698,0.0
 0086067,-0.00109896,0.00018207,0.00011057,0.00005183,-0.00004278,-0.00
 000159,-0.00039199,-0.00018677,-0.00012629,0.00122399,0.00042426,0.000
 28319,0.05963176,0.00002959,-0.00032477,-0.00035839,-0.00143295,0.0033
 4735,-0.00278544,0.00105896,-0.00417761,-0.00425239,-0.02999051,-0.263
 06080,-0.12210417,-0.00140789,-0.01183886,-0.00892585,-0.00152956,-0.0
 0317220,-0.00011329,-0.00198215,0.00165873,0.00127645,-0.00007063,0.00
 012364,0.00004605,0.00009307,-0.00001509,-0.00004655,-0.00008176,0.000
 05417,0.00001381,0.00006022,0.00001342,-0.00000218,0.00007522,-0.00003
 139,-0.00000979,-0.00007866,0.00005727,0.00002770,0.00014858,-0.000087
 93,-0.00006873,-0.00082154,-0.00045858,-0.00020495,0.00032539,-0.00028
 882,-0.00013735,0.00290157,0.00097951,-0.00232298,0.00049441,0.0002780
 7,0.00071278,-0.00000394,-0.00001036,0.00002613,-0.00007850,-0.0000410
 7,0.00007679,-0.00039115,-0.00045608,0.00249850,0.03272969,0.27767702,
 -0.00018424,-0.00031856,0.00013688,-0.00070958,-0.00279194,0.00688659,
 0.00059202,-0.00427934,0.00136967,-0.01655214,-0.12206153,-0.10495730,
 -0.00058729,-0.00890429,-0.00034170,-0.00086645,-0.00007243,-0.0030699
 5,-0.00106751,0.00126160,0.00001169,-0.00001409,0.00003336,0.00005357,
 0.00004823,-0.00005958,0.00005223,-0.00005464,0.00000301,0.00002758,0.
 00005396,0.00003535,-0.00002965,0.00004426,-0.00001065,-0.00000457,-0.
 00004675,0.00003179,0.00001653,0.00008182,-0.00007169,0.00001181,-0.00
 045388,-0.00015137,-0.00021049,0.00017226,-0.00017278,-0.00011098,0.00
 159479,-0.00230038,0.00409656,0.00018238,0.00078239,-0.00062983,0.0000
 5791,-0.00008074,-0.00005423,-0.00008653,0.00003766,-0.00016520,-0.000
 05456,0.00246484,-0.00373356,0.01788595,0.13640539,0.10115620,0.000000
 26,0.00002614,0.00000949,-0.00004475,-0.00011117,-0.00005686,0.0001210
 6,0.00016355,0.00008309,-0.00024226,0.00015761,0.00009118,0.00121951,0
 .00063227,0.00034722,-0.00136346,-0.00319362,-0.00172491,0.00151772,0.
 00257450,0.00142720,0.00278360,-0.02628703,-0.01436742,-0.05812787,-0.
 02083952,-0.01201966,0.00428679,0.02099963,0.01156063,0.00233300,0.000
 63131,0.00076586,-0.00356716,0.00222008,0.00111762,-0.00113073,-0.0000
 4266,-0.00002251,-0.00523786,-0.00047892,-0.00035122,0.00107452,-0.001
 44431,-0.00077179,-0.00072683,-0.00004018,-0.00002596,-0.00012128,-0.0
 0026740,-0.00014138,0.00011174,0.00014331,0.00007510,-0.00001276,-0.00
 000621,0.00000507,0.00000029,-0.00000054,-0.00000254,0.00001573,0.0000
 0380,0.00000187,-0.00010897,0.00001159,0.00000445,0.05712346,-0.000132
 41,-0.00001651,-0.00006154,0.00009280,0.00004579,0.00003488,-0.0000511
 1,-0.00002922,-0.00002695,0.00005308,-0.00004628,-0.00008815,-0.000338
 98,-0.00004328,-0.00006136,0.00144101,-0.00288305,0.00008816,0.0020809
 5,0.00058176,0.00085479,-0.00342774,-0.00734165,-0.00573994,-0.0212069
 6,-0.25818333,-0.12318808,-0.00500708,-0.00999749,-0.00798720,-0.00111
 816,0.00014108,0.00206516,0.00288355,0.00165668,-0.00246347,0.00008828
 ,0.00026389,0.00067815,-0.00176170,0.00218463,-0.00175116,0.00054924,-
 0.00022282,-0.00025802,-0.00026550,-0.00025715,-0.00009805,-0.00013623
 ,0.00003865,0.00001852,-0.00001039,0.00002572,0.00002488,0.00000330,-0
 .00001318,0.00001620,0.00000607,-0.00000388,0.00001237,-0.00002972,0.0
 0000107,0.00001050,0.00002732,0.00003154,0.00001003,0.02459703,0.27429
 597,-0.00008586,-0.00000384,-0.00004765,0.00006934,0.00000349,0.000006
 05,-0.00002393,-0.00000620,0.00001413,0.00001434,-0.00008845,0.0000766
 2,-0.00013281,-0.00001634,0.00002471,0.00075608,0.00006790,-0.00297929
 ,0.00115657,0.00085671,-0.00039643,-0.00168972,-0.00620092,-0.00022646
 ,-0.01254870,-0.12275530,-0.10176090,-0.00214597,-0.00780330,0.0001610
 1,0.00006845,0.00311385,-0.00234334,0.00139095,-0.00233053,0.00500426,
 -0.00014329,0.00070758,-0.00065810,-0.00107136,-0.00185592,0.00441700,
 0.00030359,-0.00022843,0.00006881,-0.00016583,-0.00014724,-0.00014027,
 -0.00003438,-0.00002675,0.00000392,-0.00002929,0.00002544,0.00000903,0
 .00000517,-0.00001070,0.00001261,0.00000492,-0.00000167,0.00001208,-0.
 00001634,0.00001347,-0.00001529,0.00001305,0.00000932,0.00002157,0.014
 09323,0.13727434,0.09951291,0.00003636,0.00001111,0.00002344,0.0000176
 7,-0.00010294,-0.00004351,0.00004912,0.00006762,0.00004828,-0.00012017
 ,-0.00003023,0.00000107,0.00000788,0.00022732,-0.00006175,-0.00038799,
 -0.00052633,-0.00017797,0.00007860,0.00004625,0.00010558,-0.00083336,0
 .00083698,0.00178114,-0.00348611,-0.00375059,-0.00349152,-0.02745082,0
 .02669181,-0.00526685,-0.20167944,0.17277100,-0.05872733,0.00296659,0.
 00146043,0.00188748,-0.00123146,-0.00061250,0.00089984,0.00095517,-0.0
 0008510,-0.00020677,-0.00053475,-0.00002203,-0.00018274,0.00012627,-0.
 00001492,0.00001196,0.00024291,-0.00006838,-0.00002641,-0.00011106,-0.
 00003486,0.00000367,-0.00000062,0.00000447,-0.00000858,-0.00000355,0.0
 0000419,-0.00000680,-0.00000007,-0.00000292,-0.00000442,0.00000230,0.0
 0000197,-0.00000559,0.00028573,0.00020403,-0.00045206,0.22888396,0.000
 10825,-0.00001308,0.00005534,-0.00019926,0.00018174,0.00008904,-0.0000
 1179,-0.00013956,-0.00008618,0.00006637,0.00000675,-0.00001848,-0.0002
 9235,-0.00023936,-0.00005365,0.00036986,-0.00008856,0.00002509,-0.0000
 6219,-0.00009994,-0.00012062,-0.00112055,0.00054872,-0.00032545,-0.001
 42078,-0.00096704,-0.00063389,-0.01259966,0.01219391,-0.00032202,0.193
 19741,-0.25995109,0.02929127,-0.00227220,0.00079031,-0.00002370,0.0008
 3138,0.00002285,-0.00019443,-0.00040709,0.00043597,-0.00004112,0.00056
 030,-0.00047585,-0.00009616,-0.00004363,0.00029108,0.00015225,-0.00043
 515,0.00030911,0.00021630,0.00027190,-0.00002279,-0.00006473,-0.000004
 48,0.00001051,-0.00002188,-0.00000965,0.00000170,-0.00001107,0.0000103
 9,-0.00001194,0.00000081,0.00000231,-0.00000810,-0.00000264,-0.0001547
 7,-0.00000454,0.00055267,-0.19355096,0.26503954,-0.00034873,-0.0000160
 7,-0.00018648,0.00026061,-0.00011946,-0.00003298,0.00010700,0.00005637
 ,0.00003632,-0.00022548,0.00004486,0.00002780,0.00071086,0.00029860,0.
 00001438,-0.00065294,-0.00091019,-0.00051675,0.00026336,0.00077804,0.0
 0045860,0.00102763,-0.00027517,0.00143716,-0.00120123,-0.00013125,0.00
 082590,0.00656597,0.00710463,-0.00399791,-0.09142139,0.05452951,-0.040
 31135,-0.00114385,0.00046657,0.00045392,-0.00056211,0.00022745,-0.0003
 8508,0.00013498,-0.00040840,-0.00025005,0.00001117,-0.00011479,-0.0000
 8652,-0.00004258,-0.00006915,-0.00005452,-0.00002678,-0.00029978,-0.00
 013872,-0.00009556,0.00009891,0.00006795,0.00000759,-0.00004937,0.0000
 5687,0.00000619,-0.00000769,0.00004229,-0.00003182,0.00001990,0.000009
 94,0.00001203,0.00000806,0.00000345,-0.00008850,0.00041035,-0.00028479
 ,0.06507954,-0.04011432,0.03915714,0.00005243,-0.00000146,0.00002690,-
 0.00012002,0.00005301,0.00003330,0.00006811,-0.00005503,-0.00004489,-0
 .00005157,0.00004558,0.00005274,0.00016954,-0.00010132,-0.00012012,0.0
 0000910,-0.00053343,-0.00027064,0.00034230,0.00032932,0.00022901,-0.00
 087045,0.00017046,0.00036019,0.00230297,-0.00178615,-0.00045532,0.0001
 5919,-0.02880389,-0.02672247,-0.05946308,0.01251934,-0.01223224,-0.006
 36971,-0.00005488,-0.00054190,0.00052004,-0.00151853,-0.00063722,0.000
 36376,0.00017488,0.00002768,0.00002179,-0.00032456,-0.00014788,-0.0000
 0305,0.00037003,0.00019269,-0.00027483,0.00010831,0.00006344,0.0001490
 6,-0.00000305,-0.00000155,-0.00000353,0.00000028,-0.00001188,-0.000009
 95,0.00000303,-0.00000701,0.00001381,-0.00000478,0.00000085,-0.0000095
 7,-0.00000310,-0.00000744,-0.00048522,0.00155077,0.00069646,0.00182346
 ,0.01657879,0.02137420,0.06186012,0.00014902,0.00000872,0.00008275,-0.
 00007898,-0.00000575,-0.00002773,-0.00001447,0.00000046,0.00002358,0.0
 0006468,-0.00000148,-0.00000773,-0.00021906,-0.00009581,-0.00012452,0.
 00027033,0.00065930,0.00030463,-0.00016141,-0.00057472,-0.00016797,-0.
 00022108,-0.00116998,0.00086369,0.00325927,0.00176665,0.00186918,-0.00
 463117,-0.01322027,-0.01021393,0.00582750,-0.21847333,-0.18903618,-0.0
 0260642,0.00196479,-0.00060222,0.00020702,-0.00065863,-0.00079137,0.00
 035048,0.00021708,0.00004809,-0.00032884,0.00008781,-0.00007620,0.0000
 6980,0.00000168,0.00003240,0.00015278,0.00005103,0.00004511,-0.0000448
 6,-0.00005098,-0.00001782,-0.00000303,0.00002156,-0.00002394,-0.000003
 93,0.00000515,-0.00002030,0.00001735,-0.00000744,-0.00000498,-0.000001
 55,-0.00000157,-0.00001012,-0.00030944,0.00048622,-0.00100790,-0.00315
 826,-0.01734917,-0.02034900,0.00155424,0.24620929,-0.00016063,-0.00001
 247,-0.00008632,0.00009706,0.00002922,0.00003800,-0.00001487,-0.000035
 93,-0.00002642,-0.00000306,0.00000221,-0.00000809,0.00011155,0.0000362
 9,0.00004016,0.00008053,-0.00047482,-0.00031302,0.00007074,0.00043420,
 0.00014576,-0.00068946,-0.00024800,-0.00017238,0.00115364,0.00123377,0
 .00110337,0.00610643,0.00129689,-0.00591077,-0.02358884,-0.23281050,-0
 .23144593,-0.00150132,-0.00054449,0.00116738,0.00095160,-0.00064206,0.
 00106436,-0.00035762,0.00040320,0.00029909,0.00017997,0.00006932,-0.00
 008723,-0.00006963,-0.00000075,-0.00001146,-0.00012624,-0.00003754,-0.
 00002011,0.00000570,0.00004982,0.00002380,0.00000683,-0.00002055,0.000
 02221,0.00000604,-0.00000468,0.00002136,-0.00001775,0.00000778,0.00000
 461,0.00000600,0.00000054,0.00001233,-0.00057711,0.00039271,-0.0000938
 0,0.00007034,0.01161854,0.00397720,0.01822430,0.21882230,0.23079492,-0
 .00021460,-0.00001113,-0.00009298,0.00009931,0.00003962,0.00003666,-0.
 00006743,-0.00006148,-0.00003418,0.00006494,-0.00001239,-0.00000247,-0
 .00002033,-0.00000230,-0.00000455,0.00024944,-0.00031920,-0.00017231,-
 0.00003758,0.00037653,0.00020537,-0.00035668,-0.00057795,-0.00033019,0
 .00165786,-0.00100037,-0.00048587,0.00193280,-0.00334647,-0.00193382,0
 .00188376,-0.00040931,-0.00021820,-0.22562218,0.11123808,0.06228757,-0
 .02005025,0.01781759,0.00973029,-0.00318299,-0.00391437,-0.00204001,-0
 .00004263,0.00170897,0.00093200,-0.00011934,-0.00039062,-0.00020464,-0
 .00063888,-0.00033602,-0.00019057,-0.00006049,0.00021375,0.00011262,-0
 .00000048,-0.00002092,0.00002612,0.00001357,-0.00000551,0.00002440,-0.
 00002766,0.00001320,0.00000552,0.00000431,0.00001395,0.00000863,0.0001
 7509,-0.00008306,-0.00003551,0.00032351,0.00061240,0.00032260,0.000197
 78,0.00006913,0.00012537,0.24259832,0.00009388,0.00000457,0.00005030,-
 0.00010133,0.00006632,-0.00001052,-0.00001745,-0.00003776,-0.00000662,
 0.00005603,0.00002597,-0.00001406,-0.00004656,-0.00004579,-0.00011868,
 0.00006893,-0.00021679,0.00030238,0.00025143,0.00001931,-0.00000435,-0
 .00090925,-0.00040665,0.00003670,-0.00238481,-0.00344120,-0.00423705,0
 .02468332,-0.00945516,-0.00619218,0.00023642,0.00118693,0.00217672,0.1
 1034799,-0.12458967,-0.05339425,-0.00932937,0.00857063,0.00370361,-0.0
 0249028,0.00182495,-0.00348941,-0.00003418,0.00064052,-0.00002785,0.00
 008976,-0.00003300,-0.00014501,-0.00019773,-0.00017549,0.00038800,0.00
 005422,0.00000755,-0.00000899,-0.00000507,0.00001301,-0.00001552,-0.00
 000182,0.00000235,-0.00001151,0.00001199,-0.00000423,-0.00000450,-0.00
 001601,-0.00000263,0.00000052,0.00107273,-0.00045436,-0.00035968,-0.00
 041982,-0.00040238,-0.00111068,-0.00016149,0.00019156,0.00038728,-0.12
 128909,0.12720442,0.00005441,0.00000144,0.00003434,-0.00009771,0.00004
 185,0.00008114,0.00000487,-0.00004906,-0.00004850,0.00002816,-0.000004
 37,0.00004768,-0.00006508,-0.00018489,0.00007565,0.00017902,0.00025572
 ,-0.00065932,0.00010937,0.00001140,0.00003663,-0.00062601,0.00013681,-
 0.00040794,-0.00113562,-0.00420015,0.00191514,0.01305243,-0.00589714,-
 0.00143424,0.00097813,0.00100193,-0.00106859,0.06292022,-0.05359795,-0
 .05910516,-0.00571291,0.00372221,0.00406507,-0.00136992,-0.00352833,0.
 00599728,0.00004219,-0.00017318,0.00055217,0.00002867,0.00000158,0.000
 23278,-0.00024753,0.00044497,-0.00062019,0.00009888,-0.00000234,0.0000
 1077,0.00000012,0.00000353,-0.00001464,-0.00000428,0.00000142,-0.00000
 494,0.00000772,-0.00000693,0.00000339,-0.00000575,-0.00000087,-0.00000
 489,0.00059357,-0.00039603,0.00014456,-0.00121611,0.00006394,-0.000316
 57,-0.00006254,0.00029039,-0.00040333,-0.06782068,0.05956562,0.0546035
 9,0.00007907,0.00000821,0.00002778,0.00002701,-0.00015870,-0.00009655,
 -0.00007345,0.00009704,0.00006023,0.00010347,-0.00014010,-0.00007780,-
 0.00004088,0.00022513,0.00012471,0.00105368,0.00130387,0.00070489,-0.0
 0060466,0.00000201,0.00000300,-0.00417421,0.00169976,0.00085889,-0.001
 09968,0.00019256,0.00009189,-0.00437169,-0.00098519,-0.00049958,0.0000
 4499,-0.00112223,-0.00069491,-0.00020641,-0.02485408,-0.01354503,-0.06
 077154,-0.03080251,-0.01693576,0.00913136,0.02225259,0.01209968,-0.000
 79707,0.00282110,0.00152574,0.00036289,-0.00243923,-0.00131228,0.00109
 244,-0.00076654,-0.00041480,-0.00027369,-0.00016696,-0.00007798,0.0000
 0235,0.00001132,-0.00000459,-0.00000955,0.00000430,-0.00000484,0.00000
 435,-0.00001358,-0.00001022,0.00002448,-0.00001352,-0.00000761,0.00008
 390,-0.00000944,0.00000109,0.00005251,-0.00002582,-0.00003460,-0.00039
 277,-0.00020673,-0.00009052,0.00122507,0.00043411,0.00026381,0.0596370
 7,0.00007716,-0.00000217,0.00004582,-0.00009041,0.00004463,0.00000983,
 0.00007852,-0.00002287,-0.00001646,-0.00008257,0.00005705,0.00003234,0
 .00015002,-0.00008419,-0.00007484,-0.00083454,-0.00044930,-0.00017170,
 0.00032499,-0.00030714,-0.00015866,0.00297084,0.00103361,-0.00232801,0
 .00042266,0.00031906,0.00075644,-0.00130708,0.00330203,-0.00276433,-0.
 00013684,-0.00030263,-0.00032592,0.00109239,-0.00404990,-0.00420080,-0
 .03007292,-0.26303732,-0.12200824,-0.00128409,-0.01200795,-0.00894184,
 -0.00157061,-0.00319496,-0.00008727,-0.00198039,0.00168486,0.00124844,
 -0.00005644,0.00011583,0.00004362,0.00009321,-0.00001588,-0.00005740,-
 0.00000352,0.00000244,-0.00000955,-0.00000773,0.00000383,-0.00001368,0
 .00001477,-0.00000439,0.00000186,-0.00001389,-0.00001473,-0.00000783,-
 0.00005964,-0.00023311,0.00023147,0.00004618,-0.00006618,-0.00004389,-
 0.00011402,-0.00007433,0.00005979,-0.00029288,-0.00049365,0.00248491,0
 .03262605,0.27776421,0.00002216,0.00000762,-0.00001392,-0.00003890,0.0
 0001958,0.00003704,0.00003833,-0.00001521,-0.00001306,-0.00003949,0.00
 002749,0.00001677,0.00007912,-0.00007084,0.00000791,-0.00043057,-0.000
 19722,-0.00021981,0.00017336,-0.00012782,-0.00009276,0.00146997,-0.002
 36636,0.00404173,0.00031370,0.00068511,-0.00066981,-0.00094254,-0.0027
 5384,0.00693184,0.00012149,-0.00038148,0.00011538,0.00052872,-0.004505
 73,0.00123723,-0.01635740,-0.12204884,-0.10492032,-0.00081142,-0.00867
 609,-0.00017545,-0.00079321,-0.00007109,-0.00304815,-0.00106806,0.0012
 5991,-0.00001225,-0.00004038,0.00004631,0.00006153,0.00004851,-0.00004
 796,0.00005324,0.00000480,0.00000128,-0.00000718,0.00000131,-0.0000029
 1,0.00000686,0.00000708,0.00000009,-0.00000318,-0.00000694,-0.00000637
 ,-0.00000574,-0.00002601,0.00024000,-0.00053548,-0.00003386,0.00006229
 ,0.00000094,-0.00002114,0.00009795,-0.00013175,-0.00023555,0.00252875,
 -0.00369701,0.01803090,0.13628701,0.10101539,0.00233905,0.00095973,0.0
 0017925,0.00429822,0.02113526,0.01130942,-0.00356860,0.00220166,0.0011
 5487,-0.00113217,-0.00004131,-0.00002473,-0.00523927,-0.00049845,-0.00
 031836,0.00107404,-0.00143850,-0.00078239,-0.00072692,-0.00004043,-0.0
 0002642,-0.00012056,-0.00026396,-0.00014899,0.00011131,0.00014053,0.00
 008047,-0.00004447,-0.00010842,-0.00006292,0.00000015,0.00002217,0.000
 01688,0.00012113,0.00015854,0.00009306,-0.00024246,0.00016436,0.000078
 93,0.00122036,0.00062928,0.00035353,-0.00136495,-0.00319197,-0.0017324
 0,0.00151921,0.00258602,0.00140928,0.00277993,-0.02636938,-0.01423039,
 -0.05814425,-0.02127848,-0.01116505,0.00028010,-0.00016128,-0.00007188
 ,-0.00048218,-0.00066115,0.00004635,0.00017522,0.00108339,0.00057496,0
 .00008393,-0.00005835,-0.00002834,0.00003675,0.00000105,0.00000180,-0.
 00001265,0.00000095,-0.00000815,0.00000029,-0.00000237,0.00000093,0.00
 001575,0.00000344,0.00000254,-0.00010902,0.00001075,0.00000603,0.05713
 205,-0.00058797,0.00075792,0.00270350,-0.00453068,-0.01014325,-0.00785
 871,0.00279041,0.00179449,-0.00241829,-0.00007227,0.00024834,0.0007161
 6,-0.00179935,0.00211982,-0.00182328,0.00054842,-0.00023537,-0.0002077
 0,-0.00027996,-0.00028508,-0.00013052,-0.00010237,0.00001256,-0.000008
 51,-0.00003082,0.00003640,0.00001737,0.00010915,0.00003541,0.00001178,
 -0.00014494,-0.00006758,0.00002823,-0.00004849,-0.00001462,-0.00001721
 ,0.00004304,-0.00004165,-0.00009218,-0.00030279,-0.00003304,-0.0000296
 7,0.00140753,-0.00286982,0.00008609,0.00209898,0.00065501,0.00081602,-
 0.00328731,-0.00763403,-0.00586872,-0.02192465,-0.26022265,-0.12138946
 ,-0.00027299,0.00024066,0.00039330,0.00143967,-0.00020284,-0.00054247,
 -0.00007377,-0.00038339,-0.00041278,-0.00000825,-0.00023012,0.00022993
 ,0.00000187,-0.00002316,-0.00001305,0.00000649,0.00000739,-0.00002404,
 0.00000762,0.00001217,-0.00001206,-0.00003013,0.00000066,0.00001352,0.
 00002658,0.00003315,0.00000837,0.02501696,0.27643262,-0.00091433,0.001
 67337,-0.00296955,-0.00302262,-0.00771992,0.00030408,0.00156240,-0.002
 55643,0.00487139,0.00015083,0.00068951,-0.00064115,-0.00100264,-0.0017
 0208,0.00448170,0.00030381,-0.00026222,0.00008012,-0.00013883,-0.00007
 861,-0.00011200,-0.00009630,0.00003427,0.00002948,0.00000827,0.0000189
 6,-0.00000127,0.00003982,0.00004007,0.00001609,-0.00006451,-0.00002730
 ,0.00000363,-0.00002870,-0.00003490,-0.00000043,0.00003297,-0.00009037
 ,0.00007198,-0.00019959,-0.00006155,0.00001402,0.00081833,0.00005333,-
 0.00299103,0.00112253,0.00080171,-0.00046873,-0.00195380,-0.00569947,0
 .00006363,-0.01119978,-0.12180153,-0.09966865,0.00042607,0.00024895,-0
 .00052429,0.00091604,0.00083318,0.00060059,-0.00005214,-0.00043454,0.0
 0007409,-0.00000103,0.00023778,-0.00053858,0.00000030,-0.00001108,-0.0
 0000746,-0.00000008,0.00000279,-0.00000814,0.00000247,0.00000186,-0.00
 000397,-0.00001563,0.00001097,-0.00001486,0.00001446,0.00000888,0.0000
 1999,0.01329171,0.13582436,0.09731930\\0.00008733,0.00008185,-0.000072
 88,-0.00013416,0.00004882,0.00003659,-0.00004173,-0.00011247,-0.000056
 97,0.00005608,0.00001869,0.00001307,-0.00004205,0.00004988,0.00005737,
 -0.00000075,0.00000935,-0.00006760,0.00000482,0.00001821,0.00003090,-0
 .00000480,0.00007366,0.00004617,-0.00008454,0.00000747,0.00000532,0.00
 022727,-0.00004652,-0.00004315,-0.00008735,-0.00003484,0.00001203,0.00
 002860,0.00006901,0.00003931,-0.00003895,0.00004344,0.00002379,0.00000
 589,-0.00009316,-0.00004054,-0.00001191,-0.00008497,-0.00002557,0.0000
 0210,0.00006655,0.00002472,0.00008416,-0.00007788,-0.00005869,-0.00001
 699,0.00005659,0.00001964,-0.00001023,-0.00004361,0.00001404,-0.000009
 39,-0.00002854,0.00004612,0.00002043,0.00002284,0.00001094,0.00000834,
 -0.00000379,-0.00000280,-0.00000179,-0.00000341,0.00000927,-0.00001417
 ,0.00002648,-0.00000303,-0.00001026,-0.00000744,-0.00001330,-0.0000199
 9,-0.00001856,-0.00000507,-0.00001310,-0.00001286,0.00000052,0.0000171
 2,-0.00002480,-0.00000019\\\@


 TO DETECT ERRORS, THE PROGRAMMER MUST HAVE A CONNIVING MIND,
 ONE THAT DELIGHTS IN UNCOVERING FLAWS WHERE BEAUTY AND
 PERFECTION WERE ONCE THOUGHT TO LIE.

             -- THE PSYCHOLOGY OF COMPUTER PROGRAMMING
                GERALD M. WEINBERG
 Job cpu time:       0 days 10 hours  8 minutes  4.6 seconds.
 Elapsed time:       0 days  1 hours 29 minutes  3.6 seconds.
 File lengths (MBytes):  RWF=   1102 Int=      0 D2E=      0 Chk=     25 Scr=      1
 Normal termination of Gaussian 16 at Thu Dec 21 08:59:07 2023.
