
Running Job 1 of 1 312-an-COSMO.in
qchem 312-an-COSMO.in_3534375.0 /expanse/lustre/scratch/selhajj/temp_project/qcscratch/28873509/qchem3534375/ 0
/cm/shared/apps/spack/cpu/opt/spack/linux-centos8-zen2/gcc-10.2.0/qchem-5.4-akfmr7b3t57bfs6qan3padb2wnb2i7cl/exe/qcprog.exe_s 312-an-COSMO.in_3534375.0 /expanse/lustre/scratch/selhajj/temp_project/qcscratch/28873509/qchem3534375/
                  Welcome to Q-Chem
     A Quantum Leap Into The Future Of Chemistry


 Q-Chem 5.4, Q-Chem, Inc., Pleasanton, CA (2021)

 License issued to: University of California, San Diego (site)

 E. Epifanovsky,  A. T. B. Gilbert,  Xintian Feng,  Joonho Lee,  Yuezhi Mao,  
 N. Mardirossian,  P. Pokhilko,  A. White,  M. Wormit,  M. P. Coons,  
 A. L. Dempwolff,  Zhengting Gan,  D. Hait,  P. R. Horn,  L. D. Jacobson,  
 I. Kaliman,  J. Kussmann,  A. W. Lange,  Ka Un Lao,  D. S. Levine,  Jie Liu,  
 S. C. McKenzie,  A. F. Morrison,  K. Nanda,  F. Plasser,  D. R. Rehn,  
 M. L. Vidal,  Zhi-Qiang You,  Ying Zhu,  B. Alam,  B. Albrecht,  
 A. Aldossary,  E. Alguire,  J. H. Andersen,  D. Barton,  K. Begam,  A. Behn,  
 Y. A. Bernard,  E. J. Berquist,  H. Burton,  A. Carreras,  K. Carter-Fenk,  
 R. Chakraborty,  A. D. Chien,  K. D. Closser,  V. Cofer-Shabica,  
 S. Dasgupta,  Jia Deng,  M. de Wergifosse,  M. Diedenhofen,  Hainam Do,  
 S. Ehlert,  Po-Tung Fang,  S. Fatehi,  Qingguo Feng,  J. Gayvert,  
 Qinghui Ge,  G. Gidofalvi,  M. Goldey,  J. Gomes,  C. Gonzalez-Espinoza,  
 S. Gulania,  A. Gunina,  M. W. D. Hanson-Heine,  P. H. P. Harbach,  
 A. W. Hauser,  M. F. Herbst,  M. Hernandez Vera,  M. Hodecker,  
 Z. C. Holden,  S. Houck,  Xunkun Huang,  Kerwin Hui,  B. C. Huynh,  
 M. Ivanov,  Hyunjun Ji,  Hanjie Jiang,  B. Kaduk,  S. Kaehler,  
 K. Khistyaev,  Jaehoon Kim,  P. Klunzinger,  Z. Koczor-Benda,  
 Joong Hoon Koh,  D. Kosenkov,  L. Koulias,  T. Kowalczyk,  C. M. Krauter,  
 K. Kue,  A. Kunitsa,  T. Kus,  A. Landau,  K. V. Lawler,  D. Lefrancois,  
 S. Lehtola,  Rain Li,  Yi-Pei Li,  Jiashu Liang,  M. Liebenthal,  
 Hung-Hsuan Lin,  You-Sheng Lin,  Fenglai Liu,  Kuan-Yu Liu,  
 M. Loipersberger,  A. Luenser,  A. Manjanath,  P. Manohar,  E. Mansoor,  
 S. F. Manzer,  Shan-Ping Mao,  A. V. Marenich,  T. Markovich,  S. Mason,  
 S. A. Maurer,  P. F. McLaughlin,  M. F. S. J. Menger,  J.-M. Mewes,  
 S. A. Mewes,  P. Morgante,  J. W. Mullinax,  T. S. Nguyen-Beck,  
 K. J. Oosterbaan,  G. Paran,  Alexander C. Paul,  Suranjan K. Paul,  
 F. Pavosevic,  Zheng Pei,  S. Prager,  E. I. Proynov,  E. Ramos,  B. Rana,  
 A. E. Rask,  A. Rettig,  R. M. Richard,  F. Rob,  E. Rossomme,  T. Scheele,  
 M. Scheurer,  M. Schneider,  N. Sergueev,  S. M. Sharada,  W. Skomorowski,  
 D. W. Small,  C. J. Stein,  Yu-Chuan Su,  E. J. Sundstrom,  Zhen Tao,  
 J. Thirman,  T. Tsuchimochi,  N. M. Tubman,  S. P. Veccham,  O. Vydrov,  
 J. Wenzel,  J. Witte,  A. Yamada,  Kun Yao,  S. Yeganeh,  S. R. Yost,  
 A. Zech,  Igor Ying Zhang,  Xing Zhang,  Yu Zhang,  D. Zuev,  
 A. Aspuru-Guzik,  A. T. Bell,  N. A. Besley,  K. B. Bravaya,  B. R. Brooks,  
 D. Casanova,  Jeng-Da Chai,  S. Coriani,  C. J. Cramer,  
 A. E. DePrince, III,  R. A. DiStasio Jr.,  A. Dreuw,  B. D. Dunietz,  
 T. R. Furlani,  W. A. Goddard III,  S. Grimme,  S. Hammes-Schiffer,  
 T. Head-Gordon,  W. J. Hehre,  Chao-Ping Hsu,  T.-C. Jagau,  Yousung Jung,  
 A. Klamt,  Jing Kong,  D. S. Lambrecht,  WanZhen Liang,  N. J. Mayhall,  
 C. W. McCurdy,  J. B. Neaton,  C. Ochsenfeld,  J. A. Parkhill,  R. Peverati,  
 V. A. Rassolov,  Yihan Shao,  L. V. Slipchenko,  T. Stauch,  R. P. Steele,  
 J. E. Subotnik,  A. J. W. Thom,  A. Tkatchenko,  D. G. Truhlar,  
 T. Van Voorhis,  T. A. Wesolowski,  K. B. Whaley,  H. L. Woodcock III,  
 P. M. Zimmerman,  S. Faraji,  P. M. W. Gill,  M. Head-Gordon,  
 J. M. Herbert,  A. I. Krylov

 Contributors to earlier versions of Q-Chem not listed above: 
 R. D. Adamson,  B. Austin,  R. Baer,  J. Baker,  G. J. O. Beran,  
 K. Brandhorst,  S. T. Brown,  E. F. C. Byrd,  A. K. Chakraborty,  
 G. K. L. Chan,  Chun-Min Chang,  Yunqing Chen,  C.-L. Cheng,  
 Siu Hung Chien,  D. M. Chipman,  D. L. Crittenden,  H. Dachsel,  
 R. J. Doerksen,  A. D. Dutoi,  R. G. Edgar,  J. Fosso-Tande,  
 L. Fusti-Molnar,  D. Ghosh,  A. Ghysels,  A. Golubeva-Zadorozhnaya,  
 J. Gonthier,  M. S. Gordon,  S. R. Gwaltney,  G. Hawkins,  J. E. Herr,  
 A. Heyden,  S. Hirata,  E. G. Hohenstein,  G. Kedziora,  F. J. Keil,  
 C. Kelley,  Jihan Kim,  R. A. King,  R. Z. Khaliullin,  P. P. Korambath,  
 W. Kurlancheek,  A. Laurent,  A. M. Lee,  M. S. Lee,  S. V. Levchenko,  
 Ching Yeh Lin,  D. Liotard,  E. Livshits,  R. C. Lochan,  I. Lotan,  
 L. A. Martinez-Martinez,  P. E. Maslen,  N. Nair,  D. P. O'Neill,  
 D. Neuhauser,  E. Neuscamman,  C. M. Oana,  R. Olivares-Amaya,  R. Olson,  
 T. M. Perrine,  B. Peters,  P. A. Pieniazek,  A. Prociuk,  Y. M. Rhee,  
 J. Ritchie,  M. A. Rohrdanz,  E. Rosta,  N. J. Russ,  H. F. Schaefer III,  
 M. W. Schmidt,  N. E. Schultz,  S. Sharma,  N. Shenvi,  C. D. Sherrill,  
 A. C. Simmonett,  A. Sodt,  T. Stein,  D. Stuck,  K. S. Thanthiriwatte,  
 V. Vanovschi,  L. Vogt,  Tao Wang,  A. Warshel,  M. A. Watson,  
 C. F. Williams,  Q. Wu,  X. Xu,  Jun Yang,  W. Zhang,  Yan Zhao

 Please cite Q-Chem as follows:
 Y. Shao et al., Mol. Phys. 113, 184-215 (2015)
 DOI: 10.1080/00268976.2014.952696

 Q-Chem 5.4.0 for Intel X86 EM64T Linux

 Parts of Q-Chem use Armadillo 9.800.1 (Horizon Scraper).
 http://arma.sourceforge.net/

 Q-Chem begins on Thu Feb 22 08:10:27 2024  

 Host: 
0

     Scratch files written to /expanse/lustre/scratch/selhajj/temp_project/qcscratch/28873509/qchem3534375//
 May1621 |scratch|qcdevops|jenkins|workspace|build_RNUM    
 Processing $rem in /cm/shared/apps/spack/cpu/opt/spack/linux-centos8-zen2/gcc-10.2.0/qchem-5.4-akfmr7b3t57bfs6qan3padb2wnb2i7cl/config/preferences:
 Processing $rem in /home/selhajj/.qchemrc:

 Checking the input file for inconsistencies... 
 Q-Chem warning in module libgen/CheckREMs.C, line 172:

 Found a $solvent section, which is only used for PCM and Kirkwood-Onsager solvation models

	...done.

--------------------------------------------------------------
User input:
--------------------------------------------------------------
$molecule
-2 1
C                  3.7655890000      0.1397920000     -0.1979730000
C                  2.7365840000      0.1270690000      0.9551200000
C                  1.2999130000      0.2456950000      0.5257610000
C                  0.5854660000     -0.9838800000      0.3145800000
O                  1.1674670000     -2.1090780000      0.4509010000
C                 -0.8407040000     -0.8578050000     -0.0522990000
C                 -1.6701680000     -1.9936090000     -0.2865370000
O                 -1.2106960000     -3.3045770000     -0.1939850000
C                 -3.0020940000     -1.8211360000     -0.6301310000
O                 -3.8011370000     -2.9600490000     -0.8597870000
C                 -3.5541840000     -0.5522310000     -0.7646670000
O                 -4.8899410000     -0.3917920000     -1.1261140000
C                 -2.8159590000      0.6089860000     -0.5601050000
C                 -1.4333940000      0.4566540000     -0.1876450000
C                 -0.6544290000      1.6346820000      0.0386210000
C                  0.6721250000      1.5063820000      0.3881790000
O                  1.3998840000      2.6867680000      0.6010320000
O                 -1.2189220000      2.8888800000     -0.1030980000
O                 -3.4520070000      1.7634420000     -0.7243870000
H                  3.5580760000     -0.6919820000     -0.8761300000
H                  3.7111040000      1.0685190000     -0.7774700000
H                  4.7967770000      0.0343980000      0.1793090000
H                  2.8318790000     -0.8326810000      1.4750710000
H                  3.0195410000      0.9097720000      1.6864880000
H                 -1.9597260000     -3.8484400000     -0.4658530000
H                  2.2740280000      2.4136140000      0.8935480000
H                 -2.1653860000      2.7078180000     -0.3648070000
H                 -4.6513210000     -2.6177010000     -1.1589580000
H                 -4.9341960000      0.5933460000     -1.1377900000
$end
$rem
MAX_SCF_CYCLES=200
BASIS  =  6-311++G(d,p)
GUI  =  2
JOB_TYPE  =  SP
METHOD  =  B3LYP
SOLVENT_METHOD = COSMO
$end
$solvent
dielectric 37.219
opticaldielectric 1.43
$end





--------------------------------------------------------------
 ----------------------------------------------------------------
             Standard Nuclear Orientation (Angstroms)
    I     Atom           X                Y                Z
 ----------------------------------------------------------------
    1      C      -4.4065867198    -1.0717063789     0.9696666465
    2      C      -3.6632669715    -0.8202201547    -0.3618238950
    3      C      -2.2691817168    -0.2741325465    -0.2177424323
    4      C      -1.1998798079    -1.2344896343    -0.1831837469
    5      O      -1.4426091879    -2.4842508661    -0.2337646702
    6      C       0.1700588329    -0.6863228118    -0.0981118334
    7      C       1.3241474325    -1.5227550099    -0.0608374923
    8      O       1.2589372605    -2.9129807335    -0.0974101521
    9      C       2.5877537475    -0.9584614227     0.0210311239
   10      O       3.7133735296    -1.8068848715     0.0596597852
   11      C       2.7601393196     0.4198995968     0.0795744134
   12      O       4.0343170749     0.9743717964     0.1778749595
   13      C       1.6898291862     1.3081809913     0.0542946580
   14      C       0.3673110847     0.7474560011    -0.0454591666
   15      C      -0.7502769545     1.6392369810    -0.0836219906
   16      C      -2.0229174998     1.1185502262    -0.1711922264
   17      O      -3.0906381795     2.0279472947    -0.2061234811
   18      O      -0.5605845331     3.0073838604    -0.0208514024
   19      O       1.9800527825     2.6025637337     0.1225432500
   20      H      -3.8375100434    -1.7848590868     1.5716396530
   21      H      -4.5143482191    -0.1496126810     1.5522899384
   22      H      -5.4147156607    -1.4852133380     0.7979508135
   23      H      -3.5730902209    -1.7819900695    -0.8789476970
   24      H      -4.2989906203    -0.1776711458    -1.0025843924
   25      H       2.1720646462    -3.2057984025     0.0084260576
   26      H      -3.8862254197     1.5025596910    -0.3298783185
   27      H       0.4294513691     3.1186689547     0.0463326133
   28      H       4.4675999249    -1.2221274545     0.1964793089
   29      H       3.7901946679     1.9294267949     0.2073013629
 ----------------------------------------------------------------
 Molecular Point Group                 C1    NOp =  1
 Largest Abelian Subgroup              C1    NOp =  1
 Nuclear Repulsion Energy =        1462.90623123 hartrees
 There are       70 alpha and       70 beta electrons
 Requested basis set is 6-311++G(d,p)
 There are 164 shells and 488 basis functions

 Total QAlloc Memory Limit   8000 MB
 Mega-Array Size       188 MB
 MEM_STATIC part       192 MB
 A cutoff of  1.0D-08 yielded   9181 shell pairs
 There are     84320 function pairs (     90235 Cartesian)
 Smallest overlap matrix eigenvalue = 1.35E-07

 Q-Chem warning in module stvman/mkSTV.C, line 323:

 Overlap eigenvalue is smaller than square root of threshold
 Use THRESH >= 12 to get rid of this warning

 Linear dependence detected in AO basis
 Tighter screening thresholds may be required for diffuse basis sets
 Use S2THRESH > 14 and THRESH = 14 in case of SCF convergence issues
 Number of orthogonalized atomic orbitals = 482
 Maximum deviation from orthogonality = 1.712E-10

 Scale SEOQF with 1.000000e-02/1.000000e-01/1.000000e-01

 Standard Electronic Orientation quadrupole field applied
 Nucleus-field energy     =     0.0000000321 hartrees
 Guess from superposition of atomic densities
 Warning:  Energy on first SCF cycle will be non-variational
 SAD guess density has 138.000000 electrons

 -----------------------------------------------------------------------
  General SCF calculation program by
  Eric Jon Sundstrom, Paul Horn, Yuezhi Mao, Dmitri Zuev, Alec White,
  David Stuck, Shaama M.S., Shane Yost, Joonho Lee, David Small,
  Daniel Levine, Susi Lehtola, Hugh Burton, Evgeny Epifanovsky,
  Bang C. Huynh
 -----------------------------------------------------------------------
 Exchange:     0.2000 Hartree-Fock + 0.0800 Slater + 0.7200 B88
 Correlation:  0.1900 VWN1RPA + 0.8100 LYP
 Using SG-1 standard quadrature grid
 using 8 threads for integral computing
 -------------------------------------------------------
 OpenMP Integral computing Module                
 Release: version 1.0, May 2013, Q-Chem Inc. Pittsburgh 
 -------------------------------------------------------
 A restricted SCF calculation will be
 performed using DIIS
 SCF converges when DIIS error is below 1.0e-05
 ---------------------------------------
  Cycle       Energy         DIIS error
 ---------------------------------------
    1    -994.2961814175      2.99e-02  
    2    -989.6694227646      4.29e-03  
    3    -984.0115767088      1.10e-02  
    4    -989.7021075525      4.00e-03  
    5    -990.1039970161      1.18e-03  
    6    -990.1227918171      9.84e-04  
    7    -990.1518721636      3.34e-04  
    8    -990.1547217096      1.65e-04  
    9    -990.1553427185      8.02e-05  
   10    -990.1554984693      3.07e-05  
   11    -990.1555257150      1.86e-05  
   12    -990.1555379987      6.91e-06  Convergence criterion met
 ---------------------------------------
 SCF time:   CPU 386.65s  wall 49.00s 
 SCF   energy in the final basis set =     -990.1555379987
 Total energy in the final basis set =     -990.1555379987
 Exchange:     0.2000 Hartree-Fock + 0.0800 Slater + 0.7200 B88
 Correlation:  0.1900 VWN1RPA + 0.8100 LYP
 Using SG-1 standard quadrature grid
 in get_qchem_info
 IBasis=      401111
 IBasis=      401111
 USING 1082 GRID
 MICHARGE=          -2
 Set epsilon to    37.2190017700195     
==== cosmo data ====
outfile: 312-an-COSMO.out.cosmo.0
phsran:    0.00000D+00
ampran:    0.10000D-04
volume:   1840.4150810
area:    893.6719074
routf:      0.8500000
rsolv [a.u]:      2.4566438
disex:     10.0000000
disex2:   4276.6962371
fepsi:      0.9731320
eps :    37.2190018
lcavity:     1
nppa:  1082
nspa:    92
nsph:    32
maxnps:  2068
natoms:    29
Atom   Radius [a.u.] nuc. charge
    1      3.7794520    6
    2      3.7794520    6
    3      3.7794520    6
    4      3.7794520    6
    5      3.2503287    8
    6      3.7794520    6
    7      3.7794520    6
    8      3.2503287    8
    9      3.7794520    6
   10      3.2503287    8
   11      3.7794520    6
   12      3.2503287    8
   13      3.7794520    6
   14      3.7794520    6
   15      3.7794520    6
   16      3.7794520    6
   17      3.2503287    8
   18      3.2503287    8
   19      3.2503287    8
   20      2.4566438    1
   21      2.4566438    1
   22      2.4566438    1
   23      2.4566438    1
   24      2.4566438    1
   25      2.4566438    1
   26      2.4566438    1
   27      2.4566438    1
   28      2.4566438    1
   29      2.4566438    1
=== end cosmo data ===
 number of segments:         1107
 f_epsilon=  0.973132003749614     
Ediel:   -0.2562418
 A restricted SCF calculation will be
 performed using Roothaan-Hall, DIIS
 SCF converges when DIIS error is below 1.0e-05
 ---------------------------------------
  Cycle       Energy         DIIS error
 ---------------------------------------
 number of segments:         1107
 f_epsilon=  0.973132003749614     
Ediel:   -0.2994693
    1    -990.4117841314      3.74e-04  Roothaan Step
 ---------------------------------------
  Cycle       Energy         DIIS error
 ---------------------------------------
 number of segments:         1107
 f_epsilon=  0.973132003749614     
Ediel:   -0.2856888
    1    -990.4291621705      3.71e-04  
 number of segments:         1107
 f_epsilon=  0.973132003749614     
Ediel:   -0.2937686
    2    -990.4224990304      6.57e-04  
 number of segments:         1107
 f_epsilon=  0.973132003749614     
Ediel:   -0.2944400
    3    -990.4332802584      8.90e-05  
 number of segments:         1107
 f_epsilon=  0.973132003749614     
Ediel:   -0.2945188
    4    -990.4334749009      2.67e-05  
 number of segments:         1107
 f_epsilon=  0.973132003749614     
Ediel:   -0.2946460
    5    -990.4334916181      1.22e-05  
    6    -990.4334953871      2.95e-06  Convergence criterion met
 ---------------------------------------
 SCF time:   CPU 248.93s  wall 32.00s 
before final oc correction, ETot:      -990.4334953871
 number of outlayer segments:          475
SCF energy after oc correction:      -990.4453885904
 SCF   energy in the final basis set =     -990.4453885904
 Total energy in the final basis set =     -990.4334953871
 
 --------------------------------------------------------------
 
                    Orbital Energies (a.u.)
 --------------------------------------------------------------
 
 Alpha MOs
 -- Occupied --
-19.1474 -19.1349 -19.1335 -19.1300 -19.1049 -19.0567 -19.0251 -10.2071
-10.2048 -10.1972 -10.1943 -10.1922 -10.1898 -10.1850 -10.1551 -10.1524
-10.1517 -10.1459 -10.1300  -1.0606  -1.0406  -1.0389  -1.0252  -1.0126
 -0.9521  -0.9503  -0.8234  -0.7833  -0.7515  -0.7066  -0.6993  -0.6648
 -0.6228  -0.6041  -0.5808  -0.5584  -0.5494  -0.5215  -0.5165  -0.4848
 -0.4836  -0.4603  -0.4428  -0.4310  -0.4294  -0.4137  -0.4092  -0.4029
 -0.3957  -0.3874  -0.3804  -0.3733  -0.3671  -0.3635  -0.3583  -0.3563
 -0.3538  -0.3412  -0.3344  -0.3285  -0.3221  -0.3196  -0.3148  -0.2685
 -0.2424  -0.2311  -0.2006  -0.1946  -0.1796  -0.1229
 -- Virtual --
 -0.0071   0.0012   0.0131   0.0183   0.0240   0.0258   0.0288   0.0295
  0.0454   0.0513   0.0522   0.0592   0.0602   0.0685   0.0796   0.0823
  0.0863   0.0883   0.0903   0.0932   0.0976   0.1014   0.1103   0.1154
  0.1237   0.1240   0.1281   0.1297   0.1304   0.1353   0.1397   0.1464
  0.1501   0.1506   0.1535   0.1549   0.1579   0.1605   0.1639   0.1700
  0.1757   0.1787   0.1818   0.1893   0.1947   0.1988   0.2002   0.2038
  0.2093   0.2126   0.2151   0.2244   0.2267   0.2339   0.2362   0.2415
  0.2455   0.2495   0.2528   0.2563   0.2623   0.2682   0.2694   0.2735
  0.2776   0.2802   0.2839   0.2898   0.2919   0.2946   0.2974   0.3031
  0.3047   0.3086   0.3107   0.3158   0.3184   0.3225   0.3245   0.3281
  0.3350   0.3403   0.3438   0.3465   0.3536   0.3595   0.3616   0.3640
  0.3716   0.3735   0.3758   0.3807   0.3874   0.3903   0.4029   0.4091
  0.4125   0.4199   0.4266   0.4321   0.4347   0.4422   0.4486   0.4601
  0.4701   0.4776   0.4854   0.4940   0.4997   0.5064   0.5290   0.5328
  0.5365   0.5534   0.5605   0.5668   0.5868   0.5914   0.6013   0.6085
  0.6198   0.6262   0.6301   0.6328   0.6404   0.6493   0.6574   0.6602
  0.6654   0.6749   0.6758   0.6827   0.6856   0.6958   0.6973   0.7198
  0.7245   0.7283   0.7320   0.7391   0.7550   0.7625   0.7745   0.7842
  0.8020   0.8127   0.8263   0.8398   0.8598   0.8632   0.8777   0.8904
  0.9015   0.9141   0.9204   0.9317   0.9513   0.9578   0.9813   0.9949
  1.0012   1.0041   1.0124   1.0142   1.0203   1.0387   1.0527   1.0587
  1.0716   1.0862   1.0914   1.0980   1.1125   1.1202   1.1310   1.1414
  1.1484   1.1700   1.1790   1.1847   1.1927   1.2042   1.2101   1.2157
  1.2266   1.2352   1.2367   1.2410   1.2462   1.2562   1.2609   1.2634
  1.2669   1.2836   1.2863   1.2924   1.3011   1.3035   1.3177   1.3273
  1.3368   1.3502   1.3743   1.4100   1.4148   1.4204   1.4326   1.4423
  1.4461   1.4631   1.4639   1.5014   1.5194   1.5299   1.5352   1.5404
  1.5444   1.5846   1.5911   1.6074   1.6093   1.6230   1.6348   1.6446
  1.6575   1.6627   1.6690   1.6847   1.6893   1.7196   1.7275   1.7397
  1.7627   1.7696   1.7784   1.7946   1.8070   1.8147   1.8183   1.8281
  1.8342   1.8521   1.8568   1.8792   1.8963   1.9039   1.9110   1.9258
  1.9369   1.9425   1.9496   1.9740   1.9961   2.0042   2.0151   2.0296
  2.0425   2.0710   2.0976   2.1240   2.1279   2.1436   2.1507   2.1808
  2.1861   2.1964   2.2185   2.2380   2.2434   2.2585   2.2818   2.2915
  2.3104   2.3284   2.3459   2.3590   2.3682   2.4060   2.4352   2.4583
  2.4775   2.5001   2.5260   2.5474   2.5831   2.6042   2.6107   2.6152
  2.6322   2.6417   2.6647   2.6973   2.7070   2.7159   2.7384   2.7568
  2.7610   2.7789   2.7964   2.8015   2.8130   2.8575   2.8631   2.8729
  2.8884   2.8980   2.9314   2.9418   2.9465   2.9993   3.0158   3.0270
  3.0449   3.0723   3.0747   3.0853   3.0994   3.1058   3.1204   3.1258
  3.1395   3.1459   3.1481   3.1513   3.1621   3.1691   3.1852   3.1910
  3.1971   3.2061   3.2229   3.2292   3.2508   3.2796   3.3062   3.3296
  3.3411   3.3746   3.4097   3.4364   3.4413   3.4630   3.4722   3.5017
  3.5144   3.5548   3.5901   3.6122   3.6351   3.7660   3.7830   3.8058
  3.8076   3.8252   3.8609   3.8749   3.9046   3.9224   3.9352   3.9592
  3.9831   3.9974   4.1800   4.1966   4.2094   4.2348   4.2876   4.3209
  4.3403   4.4587   4.8832   4.9039   4.9741   5.0171   5.0248   5.0679
  5.0834   5.1362   5.1590   5.3221   5.3524   5.4161   5.4731   5.4917
  5.5345   5.5888   5.6452   5.7073   5.7383   5.7812   5.8158   5.8442
  5.8681  23.5027  23.7351  23.8959  23.9167  23.9311  23.9552  23.9984
 24.0053  24.0354  24.0417  24.1353  24.1562  49.9016  49.9511  49.9681
 50.0015  50.0316  50.1036  50.1385
 --------------------------------------------------------------
 
          Ground-State Mulliken Net Atomic Charges

     Atom                 Charge (a.u.)
  ----------------------------------------
      1 C                    -0.600769
      2 C                    -0.162242
      3 C                     1.261535
      4 C                    -0.428687
      5 O                    -0.663337
      6 C                     0.549975
      7 C                    -0.296341
      8 O                    -0.333144
      9 C                    -0.346668
     10 O                    -0.398597
     11 C                    -0.169798
     12 O                    -0.405985
     13 C                    -0.379110
     14 C                     0.876791
     15 C                    -0.499852
     16 C                    -0.777293
     17 O                    -0.353186
     18 O                    -0.531188
     19 O                    -0.744938
     20 H                     0.170647
     21 H                     0.141982
     22 H                     0.132657
     23 H                     0.175196
     24 H                     0.124917
     25 H                     0.308058
     26 H                     0.308809
     27 H                     0.399439
     28 H                     0.324273
     29 H                     0.316856
  ----------------------------------------
  Sum of atomic charges =    -2.000000

 -----------------------------------------------------------------
                    Cartesian Multipole Moments
 -----------------------------------------------------------------
    Charge (ESU x 10^10)
                -9.6064
    Dipole Moment (Debye)
         X      -0.0106      Y      -1.3654      Z       0.8168
       Tot       1.5911
    Quadrupole Moments (Debye-Ang)
        XX    -140.3920     XY     -11.8216     YY    -182.5793
        XZ       0.8874     YZ      -3.0650     ZZ    -120.4174
    Octopole Moments (Debye-Ang^2)
       XXX     -28.9692    XXY     -20.0345    XYY      46.2397
       YYY     -22.3380    XXZ      -3.7936    XYZ      -1.4639
       YYZ       8.6860    XZZ       8.1539    YZZ       1.2936
       ZZZ       0.8592
    Hexadecapole Moments (Debye-Ang^3)
      XXXX   -4479.2860   XXXY    -149.1153   XXYY   -1275.4289
      XYYY    -100.3985   YYYY   -2663.0245   XXXZ      68.5515
      XXYZ     -11.5588   XYYZ      -4.8372   YYYZ     -20.3606
      XXZZ    -820.0583   XYZZ     -17.2947   YYZZ    -412.4670
      XZZZ       8.3779   YZZZ      -0.5835   ZZZZ    -220.0494
 -----------------------------------------------------------------
 Total job time:  83.87s(wall), 643.24s(cpu) 
 Thu Feb 22 08:11:51 2024

        *************************************************************
        *                                                           *
        *  Thank you very much for using Q-Chem.  Have a nice day.  *
        *                                                           *
        *************************************************************


