 Entering Gaussian System, Link 0=g16
 Input=220-rad.com
 Output=220-rad.log
 Initial command:
 /sysapps/ubuntu-applications/gaussian/Gaussian/AVX2/g16/l1.exe "/scratch/selhajj1/4407339/Gau-2239100.inp" -scrdir="/scratch/selhajj1/4407339/"
 Entering Link 1 = /sysapps/ubuntu-applications/gaussian/Gaussian/AVX2/g16/l1.exe PID=   2239105.
  
 Copyright (c) 1988,1990,1992,1993,1995,1998,2003,2009,2016,
            Gaussian, Inc.  All Rights Reserved.
  
 This is part of the Gaussian(R) 16 program.  It is based on
 the Gaussian(R) 09 system (copyright 2009, Gaussian, Inc.),
 the Gaussian(R) 03 system (copyright 2003, Gaussian, Inc.),
 the Gaussian(R) 98 system (copyright 1998, Gaussian, Inc.),
 the Gaussian(R) 94 system (copyright 1995, Gaussian, Inc.),
 the Gaussian 92(TM) system (copyright 1992, Gaussian, Inc.),
 the Gaussian 90(TM) system (copyright 1990, Gaussian, Inc.),
 the Gaussian 88(TM) system (copyright 1988, Gaussian, Inc.),
 the Gaussian 86(TM) system (copyright 1986, Carnegie Mellon
 University), and the Gaussian 82(TM) system (copyright 1983,
 Carnegie Mellon University). Gaussian is a federally registered
 trademark of Gaussian, Inc.
  
 This software contains proprietary and confidential information,
 including trade secrets, belonging to Gaussian, Inc.
  
 This software is provided under written license and may be
 used, copied, transmitted, or stored only in accord with that
 written license.
  
 The following legend is applicable only to US Government
 contracts under FAR:
  
                    RESTRICTED RIGHTS LEGEND
  
 Use, reproduction and disclosure by the US Government is
 subject to restrictions as set forth in subparagraphs (a)
 and (c) of the Commercial Computer Software - Restricted
 Rights clause in FAR 52.227-19.
  
 Gaussian, Inc.
 340 Quinnipiac St., Bldg. 40, Wallingford CT 06492
  
  
 ---------------------------------------------------------------
 Warning -- This program may not be used in any manner that
 competes with the business of Gaussian, Inc. or will provide
 assistance to any competitor of Gaussian, Inc.  The licensee
 of this program is prohibited from giving any competitor of
 Gaussian, Inc. access to this program.  By using this program,
 the user acknowledges that Gaussian, Inc. is engaged in the
 business of creating and licensing software in the field of
 computational chemistry and represents and warrants to the
 licensee that it is not a competitor of Gaussian, Inc. and that
 it will not use this program in any manner prohibited above.
 ---------------------------------------------------------------
  

 Cite this work as:
 Gaussian 16, Revision A.03,
 M. J. Frisch, G. W. Trucks, H. B. Schlegel, G. E. Scuseria, 
 M. A. Robb, J. R. Cheeseman, G. Scalmani, V. Barone, 
 G. A. Petersson, H. Nakatsuji, X. Li, M. Caricato, A. V. Marenich, 
 J. Bloino, B. G. Janesko, R. Gomperts, B. Mennucci, H. P. Hratchian, 
 J. V. Ortiz, A. F. Izmaylov, J. L. Sonnenberg, D. Williams-Young, 
 F. Ding, F. Lipparini, F. Egidi, J. Goings, B. Peng, A. Petrone, 
 T. Henderson, D. Ranasinghe, V. G. Zakrzewski, J. Gao, N. Rega, 
 G. Zheng, W. Liang, M. Hada, M. Ehara, K. Toyota, R. Fukuda, 
 J. Hasegawa, M. Ishida, T. Nakajima, Y. Honda, O. Kitao, H. Nakai, 
 T. Vreven, K. Throssell, J. A. Montgomery, Jr., J. E. Peralta, 
 F. Ogliaro, M. J. Bearpark, J. J. Heyd, E. N. Brothers, K. N. Kudin, 
 V. N. Staroverov, T. A. Keith, R. Kobayashi, J. Normand, 
 K. Raghavachari, A. P. Rendell, J. C. Burant, S. S. Iyengar, 
 J. Tomasi, M. Cossi, J. M. Millam, M. Klene, C. Adamo, R. Cammi, 
 J. W. Ochterski, R. L. Martin, K. Morokuma, O. Farkas, 
 J. B. Foresman, and D. J. Fox, Gaussian, Inc., Wallingford CT, 2016.
 
 ******************************************
 Gaussian 16:  ES64L-G16RevA.03 25-Dec-2016
                10-Feb-2024 
 ******************************************
 %chk=220-rad.chk
 %nproc=8
 Will use up to    8 processors via shared memory.
 %mem=30GB
 ----------------------------------------------------------------------
 #P UB3LYP/6-311++G(d,p) nosym opt freq SCRF=(PCM,Solvent=n,n-DiMethylF
 ormamide)
 ----------------------------------------------------------------------
 1/18=20,19=15,26=3,38=1/1,3;
 2/9=110,12=2,15=1,17=6,18=5,40=1/2;
 3/5=4,6=6,7=1111,11=2,25=1,30=1,70=2201,71=1,72=148,74=-5,116=2/1,2,3;
 4//1;
 5/5=2,38=5,53=148/2;
 6/7=2,8=2,9=2,10=2,28=1/1;
 7/30=1/1,2,3,16;
 1/18=20,19=15,26=3/3(2);
 2/9=110,15=1/2;
 99//99;
 2/9=110,15=1/2;
 3/5=4,6=6,7=1111,11=2,25=1,30=1,70=2205,71=1,72=148,74=-5,116=2/1,2,3;
 4/5=5,16=3,69=1/1;
 5/5=2,38=5,53=148/2;
 7/30=1/1,2,3,16;
 1/18=20,19=15,26=3/3(-5);
 2/9=110,15=1/2;
 6/7=2,8=2,9=2,10=2,19=2,28=1/1;
 99/9=1/99;
 Leave Link    1 at Sat Feb 10 21:58:18 2024, MaxMem=  4026531840 cpu:               1.4 elap:               0.2
 (Enter /sysapps/ubuntu-applications/gaussian/Gaussian/AVX2/g16/l101.exe)
 -------
 Radical
 -------
 Symbolic Z-matrix:
 Charge = -1 Multiplicity = 2
 C                     4.97906  -2.70551   0.01174 
 C                     5.69728  -1.75445  -0.68537 
 C                     5.06084  -0.66978  -1.33139 
 C                     3.57862  -2.60203   0.09772 
 C                     2.91781  -1.51579  -0.54448 
 C                     3.69108  -0.56821  -1.25562 
 C                     2.8436   -3.6216    0.85855 
 C                     1.3846   -3.45443   0.9035 
 C                     0.72834  -2.36636   0.25973 
 C                     1.46574  -1.35053  -0.49063 
 C                     0.62021  -4.39908   1.61246 
 C                    -0.68     -2.26632   0.34996 
 C                    -1.42268  -3.18861   1.05006 
 O                     3.4212   -4.56159   1.43694 
 O                     0.88593  -0.39109  -1.05445 
 H                     5.46532  -3.54376   0.49485 
 H                    -2.5011   -3.11525   1.11091 
 H                     3.16231   0.24268  -1.74181 
 H                     1.13266  -5.22728   2.08572 
 H                    -1.15411  -1.43417  -0.15627 
 C                    -0.75164  -4.25997   1.68315 
 S                     7.47326  -1.86077  -0.73021 
 S                    -1.69924  -5.42458   2.63876 
 O                    -0.89527  -6.62903   2.86414 
 O                    -3.05856  -5.53776   2.10096 
 N                    -1.91122  -4.59431   4.12137 
 H                    -1.11438  -4.76622   4.72889 
 H                    -2.76297  -4.94513   4.55199 
 O                     7.88355  -3.21778  -0.35866 
 O                     7.98916  -1.2467   -1.95763 
 N                     7.93621  -0.76673   0.50311 
 H                     5.6502    0.0515   -1.88321 
 H                     8.86718  -0.42497   0.27844 
 H                     7.94476  -1.24383   1.40081 
 
 ITRead=  0  0  0  0  0  0  0  0  0  0  0  0  0  0  0  0  0  0  0  0
 ITRead=  0  0  0  0  0  0  0  0  0  0  0  0  0  0
 MicOpt= -1 -1 -1 -1 -1 -1 -1 -1 -1 -1 -1 -1 -1 -1 -1 -1 -1 -1 -1 -1
 MicOpt= -1 -1 -1 -1 -1 -1 -1 -1 -1 -1 -1 -1 -1 -1
 NAtoms=     34 NQM=       34 NQMF=       0 NMMI=      0 NMMIF=      0
                NMic=       0 NMicF=      0.
                    Isotopes and Nuclear Properties:
 (Nuclear quadrupole moments (NQMom) in fm**2, nuclear magnetic moments (NMagM)
  in nuclear magnetons)

  Atom         1           2           3           4           5           6           7           8           9          10
 IAtWgt=          12          12          12          12          12          12          12          12          12          12
 AtmWgt=  12.0000000  12.0000000  12.0000000  12.0000000  12.0000000  12.0000000  12.0000000  12.0000000  12.0000000  12.0000000
 NucSpn=           0           0           0           0           0           0           0           0           0           0
 AtZEff=  -0.0000000  -0.0000000  -0.0000000  -0.0000000  -0.0000000  -0.0000000  -0.0000000  -0.0000000  -0.0000000  -0.0000000
 NQMom=    0.0000000   0.0000000   0.0000000   0.0000000   0.0000000   0.0000000   0.0000000   0.0000000   0.0000000   0.0000000
 NMagM=    0.0000000   0.0000000   0.0000000   0.0000000   0.0000000   0.0000000   0.0000000   0.0000000   0.0000000   0.0000000
 AtZNuc=   6.0000000   6.0000000   6.0000000   6.0000000   6.0000000   6.0000000   6.0000000   6.0000000   6.0000000   6.0000000

  Atom        11          12          13          14          15          16          17          18          19          20
 IAtWgt=          12          12          12          16          16           1           1           1           1           1
 AtmWgt=  12.0000000  12.0000000  12.0000000  15.9949146  15.9949146   1.0078250   1.0078250   1.0078250   1.0078250   1.0078250
 NucSpn=           0           0           0           0           0           1           1           1           1           1
 AtZEff=  -0.0000000  -0.0000000  -0.0000000  -0.0000000  -0.0000000  -0.0000000  -0.0000000  -0.0000000  -0.0000000  -0.0000000
 NQMom=    0.0000000   0.0000000   0.0000000   0.0000000   0.0000000   0.0000000   0.0000000   0.0000000   0.0000000   0.0000000
 NMagM=    0.0000000   0.0000000   0.0000000   0.0000000   0.0000000   2.7928460   2.7928460   2.7928460   2.7928460   2.7928460
 AtZNuc=   6.0000000   6.0000000   6.0000000   8.0000000   8.0000000   1.0000000   1.0000000   1.0000000   1.0000000   1.0000000

  Atom        21          22          23          24          25          26          27          28          29          30
 IAtWgt=          12          32          32          16          16          14           1           1          16          16
 AtmWgt=  12.0000000  31.9720718  31.9720718  15.9949146  15.9949146  14.0030740   1.0078250   1.0078250  15.9949146  15.9949146
 NucSpn=           0           0           0           0           0           2           1           1           0           0
 AtZEff=  -0.0000000  -0.0000000  -0.0000000  -0.0000000  -0.0000000  -0.0000000  -0.0000000  -0.0000000  -0.0000000  -0.0000000
 NQMom=    0.0000000   0.0000000   0.0000000   0.0000000   0.0000000   2.0440000   0.0000000   0.0000000   0.0000000   0.0000000
 NMagM=    0.0000000   0.0000000   0.0000000   0.0000000   0.0000000   0.4037610   2.7928460   2.7928460   0.0000000   0.0000000
 AtZNuc=   6.0000000  16.0000000  16.0000000   8.0000000   8.0000000   7.0000000   1.0000000   1.0000000   8.0000000   8.0000000

  Atom        31          32          33          34
 IAtWgt=          14           1           1           1
 AtmWgt=  14.0030740   1.0078250   1.0078250   1.0078250
 NucSpn=           2           1           1           1
 AtZEff=  -0.0000000  -0.0000000  -0.0000000  -0.0000000
 NQMom=    2.0440000   0.0000000   0.0000000   0.0000000
 NMagM=    0.4037610   2.7928460   2.7928460   2.7928460
 AtZNuc=   7.0000000   1.0000000   1.0000000   1.0000000
 Leave Link  101 at Sat Feb 10 21:58:19 2024, MaxMem=  4026531840 cpu:               3.2 elap:               0.4
 (Enter /sysapps/ubuntu-applications/gaussian/Gaussian/AVX2/g16/l103.exe)

 GradGradGradGradGradGradGradGradGradGradGradGradGradGradGradGradGradGrad
 Berny optimization.
 Initialization pass.
                           ----------------------------
                           !    Initial Parameters    !
                           ! (Angstroms and Degrees)  !
 --------------------------                            --------------------------
 ! Name  Definition              Value          Derivative Info.                !
 --------------------------------------------------------------------------------
 ! R1    R(1,2)                  1.3807         estimate D2E/DX2                !
 ! R2    R(1,4)                  1.4069         estimate D2E/DX2                !
 ! R3    R(1,16)                 1.0828         estimate D2E/DX2                !
 ! R4    R(2,3)                  1.4138         estimate D2E/DX2                !
 ! R5    R(2,22)                 1.7797         estimate D2E/DX2                !
 ! R6    R(3,6)                  1.3756         estimate D2E/DX2                !
 ! R7    R(3,32)                 1.0826         estimate D2E/DX2                !
 ! R8    R(4,5)                  1.4244         estimate D2E/DX2                !
 ! R9    R(4,7)                  1.4692         estimate D2E/DX2                !
 ! R10   R(5,6)                  1.4148         estimate D2E/DX2                !
 ! R11   R(5,10)                 1.4624         estimate D2E/DX2                !
 ! R12   R(6,18)                 1.0833         estimate D2E/DX2                !
 ! R13   R(7,8)                  1.4692         estimate D2E/DX2                !
 ! R14   R(7,14)                 1.2457         estimate D2E/DX2                !
 ! R15   R(8,9)                  1.4244         estimate D2E/DX2                !
 ! R16   R(8,11)                 1.4069         estimate D2E/DX2                !
 ! R17   R(9,10)                 1.4624         estimate D2E/DX2                !
 ! R18   R(9,12)                 1.4148         estimate D2E/DX2                !
 ! R19   R(10,15)                1.2548         estimate D2E/DX2                !
 ! R20   R(11,19)                1.0828         estimate D2E/DX2                !
 ! R21   R(11,21)                1.3807         estimate D2E/DX2                !
 ! R22   R(12,13)                1.3756         estimate D2E/DX2                !
 ! R23   R(12,20)                1.0833         estimate D2E/DX2                !
 ! R24   R(13,17)                1.0826         estimate D2E/DX2                !
 ! R25   R(13,21)                1.4138         estimate D2E/DX2                !
 ! R26   R(21,23)                1.7797         estimate D2E/DX2                !
 ! R27   R(22,29)                1.4656         estimate D2E/DX2                !
 ! R28   R(22,30)                1.4662         estimate D2E/DX2                !
 ! R29   R(22,31)                1.7124         estimate D2E/DX2                !
 ! R30   R(23,24)                1.4656         estimate D2E/DX2                !
 ! R31   R(23,25)                1.4662         estimate D2E/DX2                !
 ! R32   R(23,26)                1.7124         estimate D2E/DX2                !
 ! R33   R(26,27)                1.0166         estimate D2E/DX2                !
 ! R34   R(26,28)                1.0169         estimate D2E/DX2                !
 ! R35   R(31,33)                1.0169         estimate D2E/DX2                !
 ! R36   R(31,34)                1.0166         estimate D2E/DX2                !
 ! A1    A(2,1,4)              119.867          estimate D2E/DX2                !
 ! A2    A(2,1,16)             121.6617         estimate D2E/DX2                !
 ! A3    A(4,1,16)             118.4698         estimate D2E/DX2                !
 ! A4    A(1,2,3)              121.6682         estimate D2E/DX2                !
 ! A5    A(1,2,22)             119.3842         estimate D2E/DX2                !
 ! A6    A(3,2,22)             118.9159         estimate D2E/DX2                !
 ! A7    A(2,3,6)              118.6669         estimate D2E/DX2                !
 ! A8    A(2,3,32)             119.9311         estimate D2E/DX2                !
 ! A9    A(6,3,32)             121.3962         estimate D2E/DX2                !
 ! A10   A(1,4,5)              119.3623         estimate D2E/DX2                !
 ! A11   A(1,4,7)              118.5929         estimate D2E/DX2                !
 ! A12   A(5,4,7)              122.0439         estimate D2E/DX2                !
 ! A13   A(4,5,6)              118.9348         estimate D2E/DX2                !
 ! A14   A(4,5,10)             122.019          estimate D2E/DX2                !
 ! A15   A(6,5,10)             119.0462         estimate D2E/DX2                !
 ! A16   A(3,6,5)              121.4986         estimate D2E/DX2                !
 ! A17   A(3,6,18)             121.1034         estimate D2E/DX2                !
 ! A18   A(5,6,18)             117.3979         estimate D2E/DX2                !
 ! A19   A(4,7,8)              115.7008         estimate D2E/DX2                !
 ! A20   A(4,7,14)             122.1492         estimate D2E/DX2                !
 ! A21   A(8,7,14)             122.1478         estimate D2E/DX2                !
 ! A22   A(7,8,9)              122.0459         estimate D2E/DX2                !
 ! A23   A(7,8,11)             118.5911         estimate D2E/DX2                !
 ! A24   A(9,8,11)             119.3621         estimate D2E/DX2                !
 ! A25   A(8,9,10)             122.0169         estimate D2E/DX2                !
 ! A26   A(8,9,12)             118.9347         estimate D2E/DX2                !
 ! A27   A(10,9,12)            119.0483         estimate D2E/DX2                !
 ! A28   A(5,10,9)             116.1712         estimate D2E/DX2                !
 ! A29   A(5,10,15)            121.9141         estimate D2E/DX2                !
 ! A30   A(9,10,15)            121.9147         estimate D2E/DX2                !
 ! A31   A(8,11,19)            118.4689         estimate D2E/DX2                !
 ! A32   A(8,11,21)            119.8675         estimate D2E/DX2                !
 ! A33   A(19,11,21)           121.6621         estimate D2E/DX2                !
 ! A34   A(9,12,13)            121.4989         estimate D2E/DX2                !
 ! A35   A(9,12,20)            117.3988         estimate D2E/DX2                !
 ! A36   A(13,12,20)           121.1022         estimate D2E/DX2                !
 ! A37   A(12,13,17)           121.3966         estimate D2E/DX2                !
 ! A38   A(12,13,21)           118.6662         estimate D2E/DX2                !
 ! A39   A(17,13,21)           119.9314         estimate D2E/DX2                !
 ! A40   A(11,21,13)           121.6683         estimate D2E/DX2                !
 ! A41   A(11,21,23)           119.3797         estimate D2E/DX2                !
 ! A42   A(13,21,23)           118.9201         estimate D2E/DX2                !
 ! A43   A(2,22,29)            109.1654         estimate D2E/DX2                !
 ! A44   A(2,22,30)            110.3158         estimate D2E/DX2                !
 ! A45   A(2,22,31)            102.3255         estimate D2E/DX2                !
 ! A46   A(29,22,30)           120.1005         estimate D2E/DX2                !
 ! A47   A(29,22,31)           109.4685         estimate D2E/DX2                !
 ! A48   A(30,22,31)           103.8998         estimate D2E/DX2                !
 ! A49   A(21,23,24)           109.1641         estimate D2E/DX2                !
 ! A50   A(21,23,25)           110.3157         estimate D2E/DX2                !
 ! A51   A(21,23,26)           102.3287         estimate D2E/DX2                !
 ! A52   A(24,23,25)           120.1025         estimate D2E/DX2                !
 ! A53   A(24,23,26)           109.4645         estimate D2E/DX2                !
 ! A54   A(25,23,26)           103.9003         estimate D2E/DX2                !
 ! A55   A(23,26,27)           109.7776         estimate D2E/DX2                !
 ! A56   A(23,26,28)           107.6418         estimate D2E/DX2                !
 ! A57   A(27,26,28)           110.1899         estimate D2E/DX2                !
 ! A58   A(22,31,33)           107.6444         estimate D2E/DX2                !
 ! A59   A(22,31,34)           109.78           estimate D2E/DX2                !
 ! A60   A(33,31,34)           110.1895         estimate D2E/DX2                !
 ! D1    D(4,1,2,3)             -0.4093         estimate D2E/DX2                !
 ! D2    D(4,1,2,22)           177.5196         estimate D2E/DX2                !
 ! D3    D(16,1,2,3)           179.134          estimate D2E/DX2                !
 ! D4    D(16,1,2,22)           -2.937          estimate D2E/DX2                !
 ! D5    D(2,1,4,5)              0.3129         estimate D2E/DX2                !
 ! D6    D(2,1,4,7)           -179.3573         estimate D2E/DX2                !
 ! D7    D(16,1,4,5)          -179.2449         estimate D2E/DX2                !
 ! D8    D(16,1,4,7)             1.0849         estimate D2E/DX2                !
 ! D9    D(1,2,3,6)              0.0845         estimate D2E/DX2                !
 ! D10   D(1,2,3,32)          -179.0548         estimate D2E/DX2                !
 ! D11   D(22,2,3,6)          -177.8539         estimate D2E/DX2                !
 ! D12   D(22,2,3,32)            3.0068         estimate D2E/DX2                !
 ! D13   D(1,2,22,29)           18.3363         estimate D2E/DX2                !
 ! D14   D(1,2,22,30)          152.3509         estimate D2E/DX2                !
 ! D15   D(1,2,22,31)          -97.5834         estimate D2E/DX2                !
 ! D16   D(3,2,22,29)         -163.6774         estimate D2E/DX2                !
 ! D17   D(3,2,22,30)          -29.6629         estimate D2E/DX2                !
 ! D18   D(3,2,22,31)           80.4029         estimate D2E/DX2                !
 ! D19   D(2,3,6,5)              0.3367         estimate D2E/DX2                !
 ! D20   D(2,3,6,18)          -179.5502         estimate D2E/DX2                !
 ! D21   D(32,3,6,5)           179.4628         estimate D2E/DX2                !
 ! D22   D(32,3,6,18)           -0.424          estimate D2E/DX2                !
 ! D23   D(1,4,5,6)              0.0926         estimate D2E/DX2                !
 ! D24   D(1,4,5,10)          -179.8908         estimate D2E/DX2                !
 ! D25   D(7,4,5,6)            179.751          estimate D2E/DX2                !
 ! D26   D(7,4,5,10)            -0.2324         estimate D2E/DX2                !
 ! D27   D(1,4,7,8)           -179.8182         estimate D2E/DX2                !
 ! D28   D(1,4,7,14)             0.7126         estimate D2E/DX2                !
 ! D29   D(5,4,7,8)              0.5209         estimate D2E/DX2                !
 ! D30   D(5,4,7,14)          -178.9483         estimate D2E/DX2                !
 ! D31   D(4,5,6,3)             -0.4233         estimate D2E/DX2                !
 ! D32   D(4,5,6,18)           179.4676         estimate D2E/DX2                !
 ! D33   D(10,5,6,3)           179.5605         estimate D2E/DX2                !
 ! D34   D(10,5,6,18)           -0.5486         estimate D2E/DX2                !
 ! D35   D(4,5,10,9)            -0.0795         estimate D2E/DX2                !
 ! D36   D(4,5,10,15)          179.8278         estimate D2E/DX2                !
 ! D37   D(6,5,10,9)           179.9372         estimate D2E/DX2                !
 ! D38   D(6,5,10,15)           -0.1555         estimate D2E/DX2                !
 ! D39   D(4,7,8,9)             -0.5266         estimate D2E/DX2                !
 ! D40   D(4,7,8,11)           179.8113         estimate D2E/DX2                !
 ! D41   D(14,7,8,9)           178.9426         estimate D2E/DX2                !
 ! D42   D(14,7,8,11)           -0.7195         estimate D2E/DX2                !
 ! D43   D(7,8,9,10)             0.244          estimate D2E/DX2                !
 ! D44   D(7,8,9,12)          -179.744          estimate D2E/DX2                !
 ! D45   D(11,8,9,10)          179.9036         estimate D2E/DX2                !
 ! D46   D(11,8,9,12)           -0.0844         estimate D2E/DX2                !
 ! D47   D(7,8,11,19)           -1.0944         estimate D2E/DX2                !
 ! D48   D(7,8,11,21)          179.3478         estimate D2E/DX2                !
 ! D49   D(9,8,11,19)          179.2343         estimate D2E/DX2                !
 ! D50   D(9,8,11,21)           -0.3235         estimate D2E/DX2                !
 ! D51   D(8,9,10,5)             0.0738         estimate D2E/DX2                !
 ! D52   D(8,9,10,15)         -179.8335         estimate D2E/DX2                !
 ! D53   D(12,9,10,5)         -179.9382         estimate D2E/DX2                !
 ! D54   D(12,9,10,15)           0.1544         estimate D2E/DX2                !
 ! D55   D(8,9,12,13)            0.424          estimate D2E/DX2                !
 ! D56   D(8,9,12,20)         -179.4651         estimate D2E/DX2                !
 ! D57   D(10,9,12,13)        -179.5643         estimate D2E/DX2                !
 ! D58   D(10,9,12,20)           0.5466         estimate D2E/DX2                !
 ! D59   D(8,11,21,13)           0.4136         estimate D2E/DX2                !
 ! D60   D(8,11,21,23)        -177.5098         estimate D2E/DX2                !
 ! D61   D(19,11,21,13)       -179.1297         estimate D2E/DX2                !
 ! D62   D(19,11,21,23)          2.947          estimate D2E/DX2                !
 ! D63   D(9,12,13,17)        -179.4656         estimate D2E/DX2                !
 ! D64   D(9,12,13,21)          -0.3438         estimate D2E/DX2                !
 ! D65   D(20,12,13,17)          0.4195         estimate D2E/DX2                !
 ! D66   D(20,12,13,21)        179.5413         estimate D2E/DX2                !
 ! D67   D(12,13,21,11)         -0.0798         estimate D2E/DX2                !
 ! D68   D(12,13,21,23)        177.8527         estimate D2E/DX2                !
 ! D69   D(17,13,21,11)        179.0552         estimate D2E/DX2                !
 ! D70   D(17,13,21,23)         -3.0123         estimate D2E/DX2                !
 ! D71   D(11,21,23,24)        -18.3957         estimate D2E/DX2                !
 ! D72   D(11,21,23,25)       -152.4118         estimate D2E/DX2                !
 ! D73   D(11,21,23,26)         97.5205         estimate D2E/DX2                !
 ! D74   D(13,21,23,24)        163.6235         estimate D2E/DX2                !
 ! D75   D(13,21,23,25)         29.6075         estimate D2E/DX2                !
 ! D76   D(13,21,23,26)        -80.4602         estimate D2E/DX2                !
 ! D77   D(2,22,31,33)        -153.6698         estimate D2E/DX2                !
 ! D78   D(2,22,31,34)          86.3792         estimate D2E/DX2                !
 ! D79   D(29,22,31,33)         90.6302         estimate D2E/DX2                !
 ! D80   D(29,22,31,34)        -29.3208         estimate D2E/DX2                !
 ! D81   D(30,22,31,33)        -38.8239         estimate D2E/DX2                !
 ! D82   D(30,22,31,34)       -158.7749         estimate D2E/DX2                !
 ! D83   D(21,23,26,27)        -86.3787         estimate D2E/DX2                !
 ! D84   D(21,23,26,28)        153.6728         estimate D2E/DX2                !
 ! D85   D(24,23,26,27)         29.3198         estimate D2E/DX2                !
 ! D86   D(24,23,26,28)        -90.6287         estimate D2E/DX2                !
 ! D87   D(25,23,26,27)        158.7742         estimate D2E/DX2                !
 ! D88   D(25,23,26,28)         38.8256         estimate D2E/DX2                !
 --------------------------------------------------------------------------------
 Trust Radius=3.00D-01 FncErr=1.00D-07 GrdErr=1.00D-06 EigMax=2.50D+02 EigMin=1.00D-04
 Number of steps in this run=    194 maximum allowed number of steps=    204.
 GradGradGradGradGradGradGradGradGradGradGradGradGradGradGradGradGradGrad

 Leave Link  103 at Sat Feb 10 21:58:19 2024, MaxMem=  4026531840 cpu:               0.3 elap:               0.1
 (Enter /sysapps/ubuntu-applications/gaussian/Gaussian/AVX2/g16/l202.exe)
                          Input orientation:                          
 ---------------------------------------------------------------------
 Center     Atomic      Atomic             Coordinates (Angstroms)
 Number     Number       Type             X           Y           Z
 ---------------------------------------------------------------------
      1          6           0        4.979056   -2.705514    0.011740
      2          6           0        5.697277   -1.754447   -0.685368
      3          6           0        5.060837   -0.669776   -1.331390
      4          6           0        3.578623   -2.602026    0.097718
      5          6           0        2.917807   -1.515788   -0.544480
      6          6           0        3.691075   -0.568206   -1.255618
      7          6           0        2.843600   -3.621600    0.858551
      8          6           0        1.384599   -3.454426    0.903495
      9          6           0        0.728337   -2.366358    0.259729
     10          6           0        1.465742   -1.350528   -0.490634
     11          6           0        0.620208   -4.399080    1.612464
     12          6           0       -0.679998   -2.266321    0.349959
     13          6           0       -1.422675   -3.188612    1.050061
     14          8           0        3.421196   -4.561588    1.436941
     15          8           0        0.885931   -0.391085   -1.054452
     16          1           0        5.465323   -3.543757    0.494845
     17          1           0       -2.501103   -3.115249    1.110906
     18          1           0        3.162308    0.242682   -1.741812
     19          1           0        1.132661   -5.227282    2.085718
     20          1           0       -1.154107   -1.434171   -0.156269
     21          6           0       -0.751640   -4.259975    1.683154
     22         16           0        7.473256   -1.860770   -0.730214
     23         16           0       -1.699242   -5.424576    2.638756
     24          8           0       -0.895268   -6.629033    2.864139
     25          8           0       -3.058557   -5.537757    2.100960
     26          7           0       -1.911217   -4.594315    4.121367
     27          1           0       -1.114383   -4.766218    4.728885
     28          1           0       -2.762972   -4.945131    4.551986
     29          8           0        7.883550   -3.217782   -0.358660
     30          8           0        7.989158   -1.246703   -1.957625
     31          7           0        7.936206   -0.766728    0.503112
     32          1           0        5.650204    0.051495   -1.883213
     33          1           0        8.867180   -0.424969    0.278436
     34          1           0        7.944759   -1.243834    1.400812
 ---------------------------------------------------------------------
                    Distance matrix (angstroms):
                    1          2          3          4          5
     1  C    0.000000
     2  C    1.380699   0.000000
     3  C    2.440270   1.413829   0.000000
     4  C    1.406881   2.412532   2.823632   0.000000
     5  C    2.444090   2.793253   2.434654   1.424433   0.000000
     6  C    2.798781   2.399416   1.375611   2.445524   1.414769
     7  C    2.473151   3.743450   4.292464   1.469237   2.531491
     8  C    3.778388   4.900368   5.124813   2.487891   2.864555
     9  C    4.271433   5.094900   4.917378   2.864597   2.482740
    10  C    3.798913   4.255227   3.754331   2.525207   1.462431
    11  C    4.942675   6.168529   6.503320   3.778370   4.271386
    12  C    5.686139   6.481015   6.191371   4.279273   3.782528
    13  C    6.503357   7.467413   7.351991   5.124844   4.917386
    14  O    2.811252   4.191036   5.049582   2.378694   3.668287
    15  O    4.821516   5.014382   4.193352   3.669652   2.377719
    16  H    1.082819   2.156000   3.429068   2.145741   3.417995
    17  H    7.571580   8.502459   8.314330   6.184902   5.887543
    18  H    3.881672   3.395683   2.146028   3.413144   2.141402
    19  H    5.045340   6.369868   6.919397   4.102054   4.886704
    20  H    6.265798   6.879243   6.371086   4.881304   4.091192
    21  C    6.168537   7.312735   7.467389   4.900365   5.094876
    22  S    2.735895   1.779724   2.756745   4.050074   4.572267
    23  S    7.674254   8.901019   9.168907   6.502270   6.835844
    24  O    7.618259   8.934329   9.412247   6.624619   7.232116
    25  O    8.774375   9.936885  10.069897   7.528855   7.674081
    26  N    8.242115   9.437093   9.682154   7.092060   7.386943
    27  H    7.976713   9.207802   9.572936   6.939434   7.391362
    28  H    9.250336  10.449218  10.681983   8.096078   8.366935
    29  O    2.972491   2.651014   3.925079   4.372623   5.252610
    30  O    3.881655   2.670049   3.049603   5.051154   5.271431
    31  N    3.570024   2.720455   3.412117   4.745650   5.181010
    32  H    3.412094   2.167597   1.082633   3.905984   3.422656
    33  H    4.515476   3.569974   4.140014   5.721981   6.104270
    34  H    3.586283   3.108705   4.013910   4.754564   5.397070
                    6          7          8          9         10
     6  C    0.000000
     7  C    3.809349   0.000000
     8  C    4.279237   1.469235   0.000000
     9  C    3.782518   2.531513   1.424432   0.000000
    10  C    2.479785   2.979356   2.525186   1.462437   0.000000
    11  C    5.686098   2.473122   1.406877   2.444083   3.798897
    12  C    4.956587   3.809356   2.445518   1.414764   2.479813
    13  C    6.191375   4.292465   2.823637   2.434662   3.754364
    14  O    4.823879   1.245684   2.378676   3.668290   4.224956
    15  O    2.817920   4.234179   3.669644   2.377732   1.254832
    16  H    3.881492   2.647975   4.102107   4.886776   4.666698
    17  H    7.101474   5.374563   3.905988   3.422663   4.627638
    18  H    1.083291   4.668633   4.881240   4.091145   2.642366
    19  H    6.278296   2.647917   2.145727   3.417982   4.666664
    20  H    5.043238   4.668658   3.413145   2.141407   2.642424
    21  C    6.480992   3.743427   2.412529   2.793252   4.255234
    22  S    4.031335   5.201770   6.502345   6.835901   6.033902
    23  S    8.234440   5.201660   4.050024   4.572265   6.033910
    24  O    8.645263   5.200593   4.372648   5.252565   6.685169
    25  O    9.028875   6.328562   5.051319   5.271477   6.687191
    26  N    8.746839   5.848113   4.745150   5.181051   6.572409
    27  H    8.748143   5.652899   4.753874   5.397064   6.750360
    28  H    9.723192   6.843014   5.721541   6.104325   7.498747
    29  O    5.040003   5.200555   6.624606   7.232178   6.685231
    30  O    4.407572   6.328329   7.528629   7.673969   6.687137
    31  N    4.599313   5.849040   7.092784   7.387248   6.572310
    32  H    2.148509   5.374563   6.184869   5.887528   4.627598
    33  H    5.400546   6.843866   8.096748   8.367204   7.498627
    34  H    5.060328   5.654170   6.940442   7.391811   6.750305
                   11         12         13         14         15
    11  C    0.000000
    12  C    2.798770   0.000000
    13  C    2.440267   1.375621   0.000000
    14  O    2.811183   4.823855   5.049537   0.000000
    15  O    4.821522   2.817980   4.193423   5.479754   0.000000
    16  H    5.045373   6.278360   6.919459   2.470219   5.771524
    17  H    3.412091   2.148521   1.082632   6.105065   4.856114
    18  H    6.265732   5.043205   6.371060   5.766498   2.460898
    19  H    1.082819   3.881479   3.429067   2.470112   5.771511
    20  H    3.881661   1.083291   2.146025   5.766494   2.460999
    21  C    1.380693   2.399416   1.413829   4.190961   5.014423
    22  S    7.674335   8.234488   9.168977   5.330119   6.757067
    23  S    2.735830   4.031380   2.756805   5.329915   6.757140
    24  O    2.972549   5.039911   3.924988   4.994305   7.578919
    25  O    3.881820   4.407476   3.049423   6.586427   7.211369
    26  N    3.569429   4.599889   3.412857   5.970079   7.230510
    27  H    3.585481   5.060945   4.014677   5.608052   7.522635
    28  H    4.514960   5.401096   4.140680   6.935023   8.092341
    29  O    7.618197   8.645332   9.412288   4.994257   7.578985
    30  O    8.774078   9.028778  10.069746   6.586184   7.211355
    31  N    8.243086   8.747068   9.682630   5.971458   7.230041
    32  H    7.571541   7.101464   8.314325   6.105115   4.856029
    33  H    9.251256   9.723389  10.682427   6.936317   8.091852
    34  H    7.978059   8.748497   9.573610   5.609939   7.522138
                   16         17         18         19         20
    16  H    0.000000
    17  H    8.001693   0.000000
    18  H    4.964235   7.175509   0.000000
    19  H    4.912952   4.314532   6.977819   0.000000
    20  H    6.977905   2.499231   4.894611   4.964222   0.000000
    21  C    6.369904   2.167599   6.879193   2.155999   3.395677
    22  S    2.892233  10.220141   4.902256   7.711421   8.656950
    23  S    7.711344   2.882759   8.656897   2.892136   4.902313
    24  O    7.455843   4.242548   9.214075   2.585216   6.014686
    25  O    8.900122   2.675725   9.320919   4.202730   5.055831
    26  N    8.286657   3.405654   9.138603   3.716141   5.371955
    27  H    7.919219   4.211705   9.233043   3.499731   5.913446
    28  H    9.280575   3.906159  10.081381   4.619312   6.089577
    29  O    2.585063  10.488620   6.014819   7.455708   9.214200
    30  O    4.202477  11.088414   5.056019   8.899729   9.320908
    31  N    3.717152  10.715521   5.371098   8.287907   9.138602
    32  H    4.314531   9.243204   2.499235   8.001631   7.175527
    33  H    4.620206  11.711894   6.088738   9.281770  10.081352
    34  H    3.501146  10.616133   5.912500   7.920962   9.233098
                   21         22         23         24         25
    21  C    0.000000
    22  S    8.901092   0.000000
    23  S    1.779725  10.401221   0.000000
    24  O    2.650998  10.280462   1.465568   0.000000
    25  O    2.670048  11.508904   1.466210   2.540304   0.000000
    26  N    2.720530  10.912307   1.712426   2.598625   2.507691
    27  H    3.108752  10.582577   2.268068   2.644876   3.358731
    28  H    3.570027  11.924566   2.240946   3.028642   2.538918
    29  O    8.934298   1.465563  10.280289   9.954432  11.452586
    30  O    9.936631   1.466210  11.508538  11.452157  12.527460
    31  N    9.437899   1.712409  10.913220  10.859834  12.091346
    32  H    8.502432   2.882652  10.220074  10.488566  11.088548
    33  H   10.449986   2.240965  11.925454  11.852496  13.102877
    34  H    9.208918   2.268082  10.583849  10.454079  11.832199
                   26         27         28         29         30
    26  N    0.000000
    27  H    1.016648   0.000000
    28  H    1.016854   1.667678   0.000000
    29  O   10.858312  10.451965  11.851017   0.000000
    30  O   12.090413  11.830928  13.101973   2.540275   0.000000
    31  N   11.167539  10.759472  12.178869   2.598671   2.507670
    32  H   10.715112  10.615547  11.711515   4.242672   2.676109
    33  H   12.178892  11.759445  13.189220   3.028733   2.538925
    34  H   10.759526  10.273817  11.759464   2.644988   3.358732
                   31         32         33         34
    31  N    0.000000
    32  H    3.404386   0.000000
    33  H    1.016854   3.904956   0.000000
    34  H    1.016646   4.210425   1.667672   0.000000
 Symmetry turned off by external request.
 Stoichiometry    C14H10N2O6S2(1-,2)
 Framework group  C1[X(C14H10N2O6S2)]
 Deg. of freedom    96
 Full point group                 C1      NOp   1
 Rotational constants (GHZ):           0.5496351           0.0844711           0.0756569
 Leave Link  202 at Sat Feb 10 21:58:19 2024, MaxMem=  4026531840 cpu:               0.4 elap:               0.1
 (Enter /sysapps/ubuntu-applications/gaussian/Gaussian/AVX2/g16/l301.exe)
 Standard basis: 6-311++G(d,p) (5D, 7F)
 Ernie: Thresh=  0.10000D-02 Tol=  0.10000D-05 Strict=F.
   614 basis functions,   982 primitive gaussians,   638 cartesian basis functions
    95 alpha electrons       94 beta electrons
       nuclear repulsion energy      2289.1691150096 Hartrees.
 IExCor=  402 DFT=T Ex+Corr=B3LYP ExCW=0 ScaHFX=  0.200000
 ScaDFX=  0.800000  0.720000  1.000000  0.810000 ScalE2=  1.000000  1.000000
 IRadAn=      5 IRanWt=     -1 IRanGd=            0 ICorTp=0 IEmpDi=  4
 NAtoms=   34 NActive=   34 NUniq=   34 SFac= 1.00D+00 NAtFMM=   60 NAOKFM=F Big=F
 Integral buffers will be    131072 words long.
 Raffenetti 2 integral format.
 Two-electron integral symmetry is turned off.
 ------------------------------------------------------------------------------
 Polarizable Continuum Model (PCM)
 =================================
 Model                : PCM.
 Atomic radii         : UFF (Universal Force Field).
 Polarization charges : Total charges.
 Charge compensation  : None.
 Solution method      : On-the-fly selection.
 Cavity type          : Scaled VdW (van der Waals Surface) (Alpha=1.100).
 Cavity algorithm     : GePol (No added spheres)
                        Default sphere list used, NSphG=   34.
                        Lebedev-Laikov grids with approx.  5.0 points / Ang**2.
                        Smoothing algorithm: York/Karplus (Gamma=1.0000).
                        Polarization charges: spherical gaussians, with
                                              point-specific exponents (IZeta= 3).
                        Self-potential: point-specific (ISelfS= 7).
                        Self-field    : sphere-specific E.n sum rule (ISelfD= 2).
 1st derivatives      : Analytical E(r).r(x)/FMM algorithm (CHGder, D1EAlg=3).
                        Cavity 1st derivative terms included.
 Solvent              : n,n-DiMethylFormamide, Eps=  37.219000 Eps(inf)=   2.046330
 ------------------------------------------------------------------------------
 GePol: Number of generator spheres                  =      34
 GePol: Total number of spheres                      =      34
 GePol: Number of exposed spheres                    =      34 (100.00%)
 GePol: Number of points                             =    2888
 GePol: Average weight of points                     =       0.13
 GePol: Minimum weight of points                     =   0.62D-11
 GePol: Maximum weight of points                     =    0.20577
 GePol: Number of points with low weight             =     157
 GePol: Fraction of low-weight points (<1% of avg)   =       5.44%
 GePol: Cavity surface area                          =    379.094 Ang**2
 GePol: Cavity volume                                =    416.662 Ang**3
 Leave Link  301 at Sat Feb 10 21:58:19 2024, MaxMem=  4026531840 cpu:               0.9 elap:               0.2
 (Enter /sysapps/ubuntu-applications/gaussian/Gaussian/AVX2/g16/l302.exe)
 NPDir=0 NMtPBC=     1 NCelOv=     1 NCel=       1 NClECP=     1 NCelD=      1
         NCelK=      1 NCelE2=     1 NClLst=     1 CellRange=     0.0.
 One-electron integrals computed using PRISM.
 NBasis=   614 RedAO= T EigKep=  1.03D-06  NBF=   614
 NBsUse=   606 1.00D-06 EigRej=  6.00D-07 NBFU=   606
 Precomputing XC quadrature grid using
 IXCGrd= 4 IRadAn=           5 IRanWt=          -1 IRanGd=           0 AccXCQ= 0.00D+00.
 Generated NRdTot=       0 NPtTot=           0 NUsed=           0 NTot=          32
 NSgBfM=   620   620   620   620   620 MxSgAt=    34 MxSgA2=    34.
 Leave Link  302 at Sat Feb 10 21:58:23 2024, MaxMem=  4026531840 cpu:              16.9 elap:               4.2
 (Enter /sysapps/ubuntu-applications/gaussian/Gaussian/AVX2/g16/l303.exe)
 DipDrv:  MaxL=1.
 Leave Link  303 at Sat Feb 10 21:58:24 2024, MaxMem=  4026531840 cpu:               1.5 elap:               0.4
 (Enter /sysapps/ubuntu-applications/gaussian/Gaussian/AVX2/g16/l401.exe)
 ExpMin= 3.60D-02 ExpMax= 9.34D+04 ExpMxC= 3.17D+03 IAcc=3 IRadAn=         5 AccDes= 0.00D+00
 Harris functional with IExCor=  402 and IRadAn=       5 diagonalized for initial guess.
 HarFok:  IExCor=  402 AccDes= 0.00D+00 IRadAn=         5 IDoV= 1 UseB2=F ITyADJ=14
 ICtDFT=  3500011 ScaDFX=  1.000000  1.000000  1.000000  1.000000
 FoFCou: FMM=F IPFlag=           0 FMFlag=      100000 FMFlg1=           0
         NFxFlg=           0 DoJE=T BraDBF=F KetDBF=T FulRan=T
         wScrn=  0.000000 ICntrl=       500 IOpCl=  0 I1Cent=   200000004 NGrid=           0
         NMat0=    1 NMatS0=      1 NMatT0=    0 NMatD0=    1 NMtDS0=    0 NMtDT0=    0
 Symmetry not used in FoFCou.
 Harris En= -1897.31310263997    
 JPrj=0 DoOrth=F DoCkMO=F.
 Initial guess <Sx>= 0.0000 <Sy>= 0.0000 <Sz>= 0.5000 <S**2>= 0.7500 S= 0.5000
 Leave Link  401 at Sat Feb 10 21:58:30 2024, MaxMem=  4026531840 cpu:              47.4 elap:               6.4
 (Enter /sysapps/ubuntu-applications/gaussian/Gaussian/AVX2/g16/l502.exe)
 Two-electron integral symmetry not used.
 UHF open shell SCF:
 Using DIIS extrapolation, IDIIS=  1040.
 NGot=  4026531840 LenX=  4025708232 LenY=  4025300550
 Requested convergence on RMS density matrix=1.00D-08 within 128 cycles.
 Requested convergence on MAX density matrix=1.00D-06.
 Requested convergence on             energy=1.00D-06.
 No special actions if energy rises.
 Fock matrices will be formed incrementally for  20 cycles.

 Cycle   1  Pass 1  IDiag  1:
 FoFJK:  IHMeth= 1 ICntrl=       0 DoSepK=F KAlg= 0 I1Cent=           0 FoldK=F
 IRaf= 760000000 NMat=       1 IRICut=       1 DoRegI=T DoRafI=F ISym2E= 0 IDoP0=0 IntGTp=1.
 FoFCou: FMM=F IPFlag=           0 FMFlag=      100000 FMFlg1=           0
         NFxFlg=           0 DoJE=F BraDBF=F KetDBF=F FulRan=T
         wScrn=  0.000000 ICntrl=         0 IOpCl=  1 I1Cent=           0 NGrid=           0
         NMat0=    1 NMatS0=      1 NMatT0=    0 NMatD0=    1 NMtDS0=    0 NMtDT0=    0
 Symmetry not used in FoFCou.
 Inv3:  Mode=1 IEnd=    25021632.
 Iteration    1 A*A^-1 deviation from unit magnitude is 3.22D-15 for    362.
 Iteration    1 A*A^-1 deviation from orthogonality  is 1.92D-15 for   1991    645.
 Iteration    1 A^-1*A deviation from unit magnitude is 2.89D-15 for    569.
 Iteration    1 A^-1*A deviation from orthogonality  is 2.05D-15 for   1812    347.
 E= -1896.17866136448    
 DIIS: error= 4.44D-02 at cycle   1 NSaved=   1.
 NSaved= 1 IEnMin= 1 EnMin= -1896.17866136448     IErMin= 1 ErrMin= 4.44D-02
 ErrMax= 4.44D-02  0.00D+00 EMaxC= 1.00D-01 BMatC= 5.57D+00 BMatP= 5.57D+00
 IDIUse=3 WtCom= 5.56D-01 WtEn= 4.44D-01
 Coeff-Com:  0.100D+01
 Coeff-En:   0.100D+01
 Coeff:      0.100D+01
 Gap=     0.074 Goal=   None    Shift=    0.000
 Gap=     0.176 Goal=   None    Shift=    0.000
 GapD=    0.074 DampG=0.500 DampE=0.500 DampFc=0.2500 IDamp=-1.
 Damping current iteration by 2.50D-01
 RMSDP=2.10D-01 MaxDP=1.77D+01              OVMax= 3.98D-01

 Cycle   2  Pass 1  IDiag  1:
 RMSU=  3.22D-02    CP:  1.38D+00
 E= -1896.52389916820     Delta-E=       -0.345237803723 Rises=F Damp=T
 DIIS: error= 1.62D-02 at cycle   2 NSaved=   2.
 NSaved= 2 IEnMin= 2 EnMin= -1896.52389916820     IErMin= 2 ErrMin= 1.62D-02
 ErrMax= 1.62D-02  0.00D+00 EMaxC= 1.00D-01 BMatC= 8.91D-01 BMatP= 5.57D+00
 IDIUse=3 WtCom= 8.38D-01 WtEn= 1.62D-01
 Coeff-Com: -0.502D+00 0.150D+01
 Coeff-En:   0.000D+00 0.100D+01
 Coeff:     -0.421D+00 0.142D+01
 Gap=     0.121 Goal=   None    Shift=    0.000
 Gap=     0.191 Goal=   None    Shift=    0.000
 RMSDP=2.48D-02 MaxDP=2.61D+00 DE=-3.45D-01 OVMax= 3.32D-01

 Cycle   3  Pass 1  IDiag  1:
 RMSU=  8.86D-03    CP:  1.19D+00  7.14D-01
 E= -1897.07352699889     Delta-E=       -0.549627830690 Rises=F Damp=F
 DIIS: error= 1.50D-02 at cycle   3 NSaved=   3.
 NSaved= 3 IEnMin= 3 EnMin= -1897.07352699889     IErMin= 3 ErrMin= 1.50D-02
 ErrMax= 1.50D-02  0.00D+00 EMaxC= 1.00D-01 BMatC= 3.38D-01 BMatP= 8.91D-01
 IDIUse=3 WtCom= 8.50D-01 WtEn= 1.50D-01
 Coeff-Com: -0.301D+00 0.808D+00 0.494D+00
 Coeff-En:   0.000D+00 0.000D+00 0.100D+01
 Coeff:     -0.256D+00 0.686D+00 0.570D+00
 Gap=     0.076 Goal=   None    Shift=    0.000
 Gap=     0.172 Goal=   None    Shift=    0.000
 RMSDP=1.18D-02 MaxDP=9.27D-01 DE=-5.50D-01 OVMax= 1.08D-01

 Cycle   4  Pass 1  IDiag  1:
 RMSU=  3.51D-03    CP:  1.27D+00  9.14D-01  6.89D-01
 E= -1897.13265479599     Delta-E=       -0.059127797099 Rises=F Damp=F
 DIIS: error= 8.12D-03 at cycle   4 NSaved=   4.
 NSaved= 4 IEnMin= 4 EnMin= -1897.13265479599     IErMin= 4 ErrMin= 8.12D-03
 ErrMax= 8.12D-03  0.00D+00 EMaxC= 1.00D-01 BMatC= 9.81D-02 BMatP= 3.38D-01
 IDIUse=3 WtCom= 9.19D-01 WtEn= 8.12D-02
 Coeff-Com: -0.810D-01 0.199D+00 0.356D+00 0.526D+00
 Coeff-En:   0.000D+00 0.000D+00 0.236D+00 0.764D+00
 Coeff:     -0.744D-01 0.183D+00 0.347D+00 0.545D+00
 Gap=     0.084 Goal=   None    Shift=    0.000
 Gap=     0.147 Goal=   None    Shift=    0.000
 RMSDP=2.56D-03 MaxDP=2.26D-01 DE=-5.91D-02 OVMax= 4.82D-02

 Cycle   5  Pass 1  IDiag  1:
 RMSU=  1.16D-03    CP:  1.25D+00  8.95D-01  7.67D-01  6.57D-01
 E= -1897.15322485864     Delta-E=       -0.020570062649 Rises=F Damp=F
 DIIS: error= 2.18D-03 at cycle   5 NSaved=   5.
 NSaved= 5 IEnMin= 5 EnMin= -1897.15322485864     IErMin= 5 ErrMin= 2.18D-03
 ErrMax= 2.18D-03  0.00D+00 EMaxC= 1.00D-01 BMatC= 3.99D-03 BMatP= 9.81D-02
 IDIUse=3 WtCom= 9.78D-01 WtEn= 2.18D-02
 Coeff-Com: -0.131D-01 0.243D-01 0.124D+00 0.268D+00 0.597D+00
 Coeff-En:   0.000D+00 0.000D+00 0.000D+00 0.000D+00 0.100D+01
 Coeff:     -0.129D-01 0.238D-01 0.121D+00 0.262D+00 0.605D+00
 Gap=     0.082 Goal=   None    Shift=    0.000
 Gap=     0.144 Goal=   None    Shift=    0.000
 RMSDP=1.63D-03 MaxDP=1.97D-01 DE=-2.06D-02 OVMax= 1.49D-02

 Cycle   6  Pass 1  IDiag  1:
 RMSU=  5.71D-04    CP:  1.24D+00  8.84D-01  7.66D-01  6.85D-01  9.88D-01
 E= -1897.15400545015     Delta-E=       -0.000780591507 Rises=F Damp=F
 DIIS: error= 6.30D-04 at cycle   6 NSaved=   6.
 NSaved= 6 IEnMin= 6 EnMin= -1897.15400545015     IErMin= 6 ErrMin= 6.30D-04
 ErrMax= 6.30D-04  0.00D+00 EMaxC= 1.00D-01 BMatC= 6.38D-04 BMatP= 3.99D-03
 IDIUse=3 WtCom= 9.94D-01 WtEn= 6.30D-03
 Coeff-Com: -0.172D-02 0.316D-03 0.437D-01 0.108D+00 0.355D+00 0.495D+00
 Coeff-En:   0.000D+00 0.000D+00 0.000D+00 0.000D+00 0.262D-01 0.974D+00
 Coeff:     -0.171D-02 0.314D-03 0.435D-01 0.107D+00 0.353D+00 0.498D+00
 Gap=     0.083 Goal=   None    Shift=    0.000
 Gap=     0.145 Goal=   None    Shift=    0.000
 RMSDP=3.00D-04 MaxDP=3.04D-02 DE=-7.81D-04 OVMax= 3.72D-03

 Cycle   7  Pass 1  IDiag  1:
 RMSU=  1.87D-04    CP:  1.24D+00  8.88D-01  7.66D-01  6.88D-01  9.84D-01
                    CP:  7.85D-01
 E= -1897.15412272997     Delta-E=       -0.000117279828 Rises=F Damp=F
 DIIS: error= 3.07D-04 at cycle   7 NSaved=   7.
 NSaved= 7 IEnMin= 7 EnMin= -1897.15412272997     IErMin= 7 ErrMin= 3.07D-04
 ErrMax= 3.07D-04  0.00D+00 EMaxC= 1.00D-01 BMatC= 7.95D-05 BMatP= 6.38D-04
 IDIUse=3 WtCom= 9.97D-01 WtEn= 3.07D-03
 Coeff-Com:  0.117D-02-0.324D-02 0.463D-02 0.148D-01 0.101D+00 0.281D+00
 Coeff-Com:  0.600D+00
 Coeff-En:   0.000D+00 0.000D+00 0.000D+00 0.000D+00 0.000D+00 0.000D+00
 Coeff-En:   0.100D+01
 Coeff:      0.116D-02-0.323D-02 0.461D-02 0.148D-01 0.101D+00 0.280D+00
 Coeff:      0.602D+00
 Gap=     0.083 Goal=   None    Shift=    0.000
 Gap=     0.145 Goal=   None    Shift=    0.000
 RMSDP=1.52D-04 MaxDP=1.24D-02 DE=-1.17D-04 OVMax= 2.01D-03

 Cycle   8  Pass 1  IDiag  1:
 RMSU=  6.17D-05    CP:  1.24D+00  8.84D-01  7.72D-01  6.90D-01  9.59D-01
                    CP:  8.05D-01  7.85D-01
 E= -1897.15414368891     Delta-E=       -0.000020958933 Rises=F Damp=F
 DIIS: error= 1.58D-04 at cycle   8 NSaved=   8.
 NSaved= 8 IEnMin= 8 EnMin= -1897.15414368891     IErMin= 8 ErrMin= 1.58D-04
 ErrMax= 1.58D-04  0.00D+00 EMaxC= 1.00D-01 BMatC= 1.54D-05 BMatP= 7.95D-05
 IDIUse=3 WtCom= 9.98D-01 WtEn= 1.58D-03
 Coeff-Com:  0.132D-02-0.236D-02-0.740D-02-0.170D-01-0.266D-01 0.143D-01
 Coeff-Com:  0.302D+00 0.736D+00
 Coeff-En:   0.000D+00 0.000D+00 0.000D+00 0.000D+00 0.000D+00 0.000D+00
 Coeff-En:   0.000D+00 0.100D+01
 Coeff:      0.132D-02-0.236D-02-0.739D-02-0.170D-01-0.265D-01 0.142D-01
 Coeff:      0.301D+00 0.736D+00
 Gap=     0.084 Goal=   None    Shift=    0.000
 Gap=     0.145 Goal=   None    Shift=    0.000
 RMSDP=5.61D-05 MaxDP=3.54D-03 DE=-2.10D-05 OVMax= 1.63D-03

 Cycle   9  Pass 1  IDiag  1:
 RMSU=  2.66D-05    CP:  1.24D+00  8.85D-01  7.71D-01  6.87D-01  9.84D-01
                    CP:  8.23D-01  8.98D-01  9.42D-01
 E= -1897.15414968518     Delta-E=       -0.000005996274 Rises=F Damp=F
 DIIS: error= 8.79D-05 at cycle   9 NSaved=   9.
 NSaved= 9 IEnMin= 9 EnMin= -1897.15414968518     IErMin= 9 ErrMin= 8.79D-05
 ErrMax= 8.79D-05  0.00D+00 EMaxC= 1.00D-01 BMatC= 5.63D-06 BMatP= 1.54D-05
 IDIUse=1 WtCom= 1.00D+00 WtEn= 0.00D+00
 Coeff-Com:  0.399D-03-0.220D-03-0.592D-02-0.160D-01-0.524D-01-0.906D-01
 Coeff-Com:  0.431D-02 0.467D+00 0.694D+00
 Coeff:      0.399D-03-0.220D-03-0.592D-02-0.160D-01-0.524D-01-0.906D-01
 Coeff:      0.431D-02 0.467D+00 0.694D+00
 Gap=     0.084 Goal=   None    Shift=    0.000
 Gap=     0.145 Goal=   None    Shift=    0.000
 RMSDP=2.92D-05 MaxDP=2.72D-03 DE=-6.00D-06 OVMax= 8.37D-04

 Cycle  10  Pass 1  IDiag  1:
 RMSU=  1.71D-05    CP:  1.24D+00  8.85D-01  7.71D-01  6.86D-01  9.85D-01
                    CP:  8.17D-01  9.19D-01  1.14D+00  1.18D+00
 E= -1897.15415203399     Delta-E=       -0.000002348806 Rises=F Damp=F
 DIIS: error= 3.01D-05 at cycle  10 NSaved=  10.
 NSaved=10 IEnMin=10 EnMin= -1897.15415203399     IErMin=10 ErrMin= 3.01D-05
 ErrMax= 3.01D-05  0.00D+00 EMaxC= 1.00D-01 BMatC= 8.75D-07 BMatP= 5.63D-06
 IDIUse=1 WtCom= 1.00D+00 WtEn= 0.00D+00
 Coeff-Com: -0.734D-04 0.394D-03-0.131D-02-0.457D-02-0.218D-01-0.524D-01
 Coeff-Com: -0.510D-01 0.926D-01 0.349D+00 0.689D+00
 Coeff:     -0.734D-04 0.394D-03-0.131D-02-0.457D-02-0.218D-01-0.524D-01
 Coeff:     -0.510D-01 0.926D-01 0.349D+00 0.689D+00
 Gap=     0.084 Goal=   None    Shift=    0.000
 Gap=     0.145 Goal=   None    Shift=    0.000
 RMSDP=1.55D-05 MaxDP=2.02D-03 DE=-2.35D-06 OVMax= 3.55D-04

 Cycle  11  Pass 1  IDiag  1:
 RMSU=  7.11D-06    CP:  1.24D+00  8.85D-01  7.71D-01  6.86D-01  9.84D-01
                    CP:  8.24D-01  9.29D-01  1.19D+00  1.34D+00  9.14D-01
 E= -1897.15415233828     Delta-E=       -0.000000304291 Rises=F Damp=F
 DIIS: error= 1.22D-05 at cycle  11 NSaved=  11.
 NSaved=11 IEnMin=11 EnMin= -1897.15415233828     IErMin=11 ErrMin= 1.22D-05
 ErrMax= 1.22D-05  0.00D+00 EMaxC= 1.00D-01 BMatC= 2.39D-07 BMatP= 8.75D-07
 IDIUse=1 WtCom= 1.00D+00 WtEn= 0.00D+00
 Coeff-Com: -0.775D-04 0.176D-03 0.385D-03 0.455D-03-0.263D-02-0.135D-01
 Coeff-Com: -0.293D-01-0.395D-01 0.641D-01 0.407D+00 0.613D+00
 Coeff:     -0.775D-04 0.176D-03 0.385D-03 0.455D-03-0.263D-02-0.135D-01
 Coeff:     -0.293D-01-0.395D-01 0.641D-01 0.407D+00 0.613D+00
 Gap=     0.084 Goal=   None    Shift=    0.000
 Gap=     0.145 Goal=   None    Shift=    0.000
 RMSDP=8.70D-06 MaxDP=9.72D-04 DE=-3.04D-07 OVMax= 1.38D-04

 Cycle  12  Pass 1  IDiag  1:
 RMSU=  4.19D-06    CP:  1.24D+00  8.85D-01  7.71D-01  6.86D-01  9.82D-01
                    CP:  8.19D-01  9.35D-01  1.18D+00  1.39D+00  9.65D-01
                    CP:  1.03D+00
 E= -1897.15415240863     Delta-E=       -0.000000070354 Rises=F Damp=F
 DIIS: error= 3.32D-06 at cycle  12 NSaved=  12.
 NSaved=12 IEnMin=12 EnMin= -1897.15415240863     IErMin=12 ErrMin= 3.32D-06
 ErrMax= 3.32D-06  0.00D+00 EMaxC= 1.00D-01 BMatC= 2.17D-08 BMatP= 2.39D-07
 IDIUse=1 WtCom= 1.00D+00 WtEn= 0.00D+00
 Coeff-Com: -0.120D-04 0.133D-04 0.297D-03 0.651D-03 0.117D-02-0.615D-03
 Coeff-Com: -0.749D-02-0.267D-01-0.963D-02 0.959D-01 0.277D+00 0.669D+00
 Coeff:     -0.120D-04 0.133D-04 0.297D-03 0.651D-03 0.117D-02-0.615D-03
 Coeff:     -0.749D-02-0.267D-01-0.963D-02 0.959D-01 0.277D+00 0.669D+00
 Gap=     0.084 Goal=   None    Shift=    0.000
 Gap=     0.145 Goal=   None    Shift=    0.000
 RMSDP=3.85D-06 MaxDP=3.14D-04 DE=-7.04D-08 OVMax= 5.07D-05

 Cycle  13  Pass 1  IDiag  1:
 RMSU=  1.49D-06    CP:  1.24D+00  8.85D-01  7.71D-01  6.86D-01  9.83D-01
                    CP:  8.22D-01  9.32D-01  1.20D+00  1.40D+00  1.00D+00
                    CP:  1.12D+00  5.78D-01
 E= -1897.15415241449     Delta-E=       -0.000000005854 Rises=F Damp=F
 DIIS: error= 2.38D-06 at cycle  13 NSaved=  13.
 NSaved=13 IEnMin=13 EnMin= -1897.15415241449     IErMin=13 ErrMin= 2.38D-06
 ErrMax= 2.38D-06  0.00D+00 EMaxC= 1.00D-01 BMatC= 1.02D-08 BMatP= 2.17D-08
 IDIUse=1 WtCom= 1.00D+00 WtEn= 0.00D+00
 Coeff-Com:  0.924D-05-0.252D-04 0.118D-03 0.326D-03 0.148D-02 0.295D-02
 Coeff-Com:  0.255D-02-0.787D-02-0.208D-01-0.386D-01 0.376D-01 0.459D+00
 Coeff-Com:  0.563D+00
 Coeff:      0.924D-05-0.252D-04 0.118D-03 0.326D-03 0.148D-02 0.295D-02
 Coeff:      0.255D-02-0.787D-02-0.208D-01-0.386D-01 0.376D-01 0.459D+00
 Coeff:      0.563D+00
 Gap=     0.084 Goal=   None    Shift=    0.000
 Gap=     0.145 Goal=   None    Shift=    0.000
 RMSDP=1.88D-06 MaxDP=1.47D-04 DE=-5.85D-09 OVMax= 1.82D-05

 Cycle  14  Pass 1  IDiag  1:
 RMSU=  5.94D-07    CP:  1.24D+00  8.85D-01  7.71D-01  6.86D-01  9.83D-01
                    CP:  8.21D-01  9.34D-01  1.19D+00  1.41D+00  9.98D-01
                    CP:  1.12D+00  7.26D-01  5.73D-01
 E= -1897.15415241751     Delta-E=       -0.000000003025 Rises=F Damp=F
 DIIS: error= 1.21D-06 at cycle  14 NSaved=  14.
 NSaved=14 IEnMin=14 EnMin= -1897.15415241751     IErMin=14 ErrMin= 1.21D-06
 ErrMax= 1.21D-06  0.00D+00 EMaxC= 1.00D-01 BMatC= 1.44D-09 BMatP= 1.02D-08
 IDIUse=1 WtCom= 1.00D+00 WtEn= 0.00D+00
 Coeff-Com:  0.558D-05-0.128D-04 0.120D-04 0.598D-04 0.609D-03 0.157D-02
 Coeff-Com:  0.258D-02 0.351D-03-0.773D-02-0.381D-01-0.357D-01 0.104D+00
 Coeff-Com:  0.287D+00 0.685D+00
 Coeff:      0.558D-05-0.128D-04 0.120D-04 0.598D-04 0.609D-03 0.157D-02
 Coeff:      0.258D-02 0.351D-03-0.773D-02-0.381D-01-0.357D-01 0.104D+00
 Coeff:      0.287D+00 0.685D+00
 Gap=     0.084 Goal=   None    Shift=    0.000
 Gap=     0.145 Goal=   None    Shift=    0.000
 RMSDP=5.06D-07 MaxDP=4.95D-05 DE=-3.02D-09 OVMax= 1.73D-05

 Cycle  15  Pass 1  IDiag  1:
 RMSU=  2.35D-07    CP:  1.24D+00  8.85D-01  7.71D-01  6.86D-01  9.83D-01
                    CP:  8.21D-01  9.33D-01  1.19D+00  1.41D+00  1.01D+00
                    CP:  1.14D+00  7.25D-01  6.78D-01  8.44D-01
 E= -1897.15415241835     Delta-E=       -0.000000000844 Rises=F Damp=F
 DIIS: error= 6.36D-07 at cycle  15 NSaved=  15.
 NSaved=15 IEnMin=15 EnMin= -1897.15415241835     IErMin=15 ErrMin= 6.36D-07
 ErrMax= 6.36D-07  0.00D+00 EMaxC= 1.00D-01 BMatC= 4.73D-10 BMatP= 1.44D-09
 IDIUse=1 WtCom= 1.00D+00 WtEn= 0.00D+00
 Coeff-Com: -0.793D-06 0.257D-05-0.480D-04-0.111D-03-0.266D-03-0.313D-03
 Coeff-Com:  0.664D-03 0.328D-02 0.475D-02-0.749D-02-0.373D-01-0.119D+00
 Coeff-Com: -0.612D-01 0.382D+00 0.835D+00
 Coeff:     -0.793D-06 0.257D-05-0.480D-04-0.111D-03-0.266D-03-0.313D-03
 Coeff:      0.664D-03 0.328D-02 0.475D-02-0.749D-02-0.373D-01-0.119D+00
 Coeff:     -0.612D-01 0.382D+00 0.835D+00
 Gap=     0.084 Goal=   None    Shift=    0.000
 Gap=     0.145 Goal=   None    Shift=    0.000
 RMSDP=2.22D-07 MaxDP=1.12D-05 DE=-8.44D-10 OVMax= 1.37D-05

 Cycle  16  Pass 1  IDiag  1:
 RMSU=  1.11D-07    CP:  1.24D+00  8.85D-01  7.71D-01  6.86D-01  9.83D-01
                    CP:  8.21D-01  9.33D-01  1.19D+00  1.41D+00  1.00D+00
                    CP:  1.14D+00  7.26D-01  7.37D-01  9.70D-01  1.01D+00
 E= -1897.15415241880     Delta-E=       -0.000000000445 Rises=F Damp=F
 DIIS: error= 3.55D-07 at cycle  16 NSaved=  16.
 NSaved=16 IEnMin=16 EnMin= -1897.15415241880     IErMin=16 ErrMin= 3.55D-07
 ErrMax= 3.55D-07  0.00D+00 EMaxC= 1.00D-01 BMatC= 8.46D-11 BMatP= 4.73D-10
 IDIUse=1 WtCom= 1.00D+00 WtEn= 0.00D+00
 Coeff-Com: -0.241D-05 0.438D-05-0.111D-04-0.298D-04-0.187D-03-0.408D-03
 Coeff-Com: -0.368D-03 0.184D-03 0.262D-02 0.711D-02 0.225D-02-0.440D-01
 Coeff-Com: -0.849D-01-0.857D-01 0.156D+00 0.105D+01
 Coeff:     -0.241D-05 0.438D-05-0.111D-04-0.298D-04-0.187D-03-0.408D-03
 Coeff:     -0.368D-03 0.184D-03 0.262D-02 0.711D-02 0.225D-02-0.440D-01
 Coeff:     -0.849D-01-0.857D-01 0.156D+00 0.105D+01
 Gap=     0.084 Goal=   None    Shift=    0.000
 Gap=     0.145 Goal=   None    Shift=    0.000
 RMSDP=1.62D-07 MaxDP=8.30D-06 DE=-4.45D-10 OVMax= 8.79D-06

 Cycle  17  Pass 1  IDiag  1:
 RMSU=  5.73D-08    CP:  1.24D+00  8.85D-01  7.71D-01  6.86D-01  9.83D-01
                    CP:  8.21D-01  9.34D-01  1.19D+00  1.41D+00  1.00D+00
                    CP:  1.14D+00  7.18D-01  7.30D-01  1.06D+00  1.17D+00
                    CP:  1.17D+00
 E= -1897.15415241896     Delta-E=       -0.000000000159 Rises=F Damp=F
 DIIS: error= 2.05D-07 at cycle  17 NSaved=  17.
 NSaved=17 IEnMin=17 EnMin= -1897.15415241896     IErMin=17 ErrMin= 2.05D-07
 ErrMax= 2.05D-07  0.00D+00 EMaxC= 1.00D-01 BMatC= 5.90D-11 BMatP= 8.46D-11
 IDIUse=1 WtCom= 1.00D+00 WtEn= 0.00D+00
 Coeff-Com: -0.141D-05 0.251D-05 0.753D-05 0.134D-04-0.560D-04-0.199D-03
 Coeff-Com: -0.455D-03-0.930D-03 0.402D-03 0.765D-02 0.147D-01 0.904D-02
 Coeff-Com: -0.414D-01-0.189D+00-0.186D+00 0.725D+00 0.661D+00
 Coeff:     -0.141D-05 0.251D-05 0.753D-05 0.134D-04-0.560D-04-0.199D-03
 Coeff:     -0.455D-03-0.930D-03 0.402D-03 0.765D-02 0.147D-01 0.904D-02
 Coeff:     -0.414D-01-0.189D+00-0.186D+00 0.725D+00 0.661D+00
 Gap=     0.084 Goal=   None    Shift=    0.000
 Gap=     0.145 Goal=   None    Shift=    0.000
 RMSDP=1.28D-07 MaxDP=1.10D-05 DE=-1.59D-10 OVMax= 5.24D-06

 Cycle  18  Pass 1  IDiag  1:
 RMSU=  4.24D-08    CP:  1.24D+00  8.85D-01  7.71D-01  6.86D-01  9.83D-01
                    CP:  8.21D-01  9.34D-01  1.19D+00  1.41D+00  1.00D+00
                    CP:  1.14D+00  7.10D-01  7.45D-01  1.06D+00  1.29D+00
                    CP:  1.48D+00  9.10D-01
 E= -1897.15415241898     Delta-E=       -0.000000000018 Rises=F Damp=F
 DIIS: error= 7.38D-08 at cycle  18 NSaved=  18.
 NSaved=18 IEnMin=18 EnMin= -1897.15415241898     IErMin=18 ErrMin= 7.38D-08
 ErrMax= 7.38D-08  0.00D+00 EMaxC= 1.00D-01 BMatC= 1.13D-11 BMatP= 5.90D-11
 IDIUse=1 WtCom= 1.00D+00 WtEn= 0.00D+00
 Coeff-Com:  0.334D-06-0.505D-06 0.700D-05 0.152D-04 0.232D-04-0.215D-06
 Coeff-Com: -0.157D-03-0.577D-03-0.490D-03 0.193D-02 0.732D-02 0.167D-01
 Coeff-Com:  0.162D-02-0.697D-01-0.142D+00 0.839D-01 0.378D+00 0.724D+00
 Coeff:      0.334D-06-0.505D-06 0.700D-05 0.152D-04 0.232D-04-0.215D-06
 Coeff:     -0.157D-03-0.577D-03-0.490D-03 0.193D-02 0.732D-02 0.167D-01
 Coeff:      0.162D-02-0.697D-01-0.142D+00 0.839D-01 0.378D+00 0.724D+00
 Gap=     0.084 Goal=   None    Shift=    0.000
 Gap=     0.145 Goal=   None    Shift=    0.000
 RMSDP=6.75D-08 MaxDP=6.51D-06 DE=-1.77D-11 OVMax= 3.34D-06

 Cycle  19  Pass 1  IDiag  1:
 RMSU=  1.56D-08    CP:  1.24D+00  8.85D-01  7.71D-01  6.86D-01  9.83D-01
                    CP:  8.21D-01  9.34D-01  1.19D+00  1.41D+00  1.00D+00
                    CP:  1.14D+00  7.15D-01  7.39D-01  1.06D+00  1.29D+00
                    CP:  1.58D+00  1.02D+00  9.20D-01
 E= -1897.15415241895     Delta-E=        0.000000000025 Rises=F Damp=F
 DIIS: error= 5.25D-08 at cycle  19 NSaved=  19.
 NSaved=19 IEnMin=18 EnMin= -1897.15415241898     IErMin=19 ErrMin= 5.25D-08
 ErrMax= 5.25D-08  0.00D+00 EMaxC= 1.00D-01 BMatC= 3.83D-12 BMatP= 1.13D-11
 IDIUse=1 WtCom= 1.00D+00 WtEn= 0.00D+00
 Coeff-Com:  0.527D-06-0.804D-06 0.382D-05 0.849D-05 0.259D-04 0.327D-04
 Coeff-Com: -0.349D-04-0.249D-03-0.384D-03 0.543D-04 0.268D-02 0.101D-01
 Coeff-Com:  0.773D-02-0.174D-01-0.693D-01-0.648D-01 0.156D+00 0.491D+00
 Coeff-Com:  0.485D+00
 Coeff:      0.527D-06-0.804D-06 0.382D-05 0.849D-05 0.259D-04 0.327D-04
 Coeff:     -0.349D-04-0.249D-03-0.384D-03 0.543D-04 0.268D-02 0.101D-01
 Coeff:      0.773D-02-0.174D-01-0.693D-01-0.648D-01 0.156D+00 0.491D+00
 Coeff:      0.485D+00
 Gap=     0.084 Goal=   None    Shift=    0.000
 Gap=     0.145 Goal=   None    Shift=    0.000
 RMSDP=2.17D-08 MaxDP=1.84D-06 DE= 2.55D-11 OVMax= 6.53D-07

 Cycle  20  Pass 1  IDiag  1:
 RMSU=  7.94D-09    CP:  1.24D+00  8.85D-01  7.71D-01  6.86D-01  9.83D-01
                    CP:  8.21D-01  9.34D-01  1.19D+00  1.41D+00  1.00D+00
                    CP:  1.14D+00  7.14D-01  7.40D-01  1.06D+00  1.31D+00
                    CP:  1.59D+00  1.07D+00  1.03D+00  7.17D-01
 E= -1897.15415241895     Delta-E=       -0.000000000001 Rises=F Damp=F
 DIIS: error= 1.53D-08 at cycle  20 NSaved=  20.
 NSaved=20 IEnMin=18 EnMin= -1897.15415241898     IErMin=20 ErrMin= 1.53D-08
 ErrMax= 1.53D-08  0.00D+00 EMaxC= 1.00D-01 BMatC= 1.50D-13 BMatP= 3.83D-12
 IDIUse=1 WtCom= 1.00D+00 WtEn= 0.00D+00
 Coeff-Com:  0.147D-06-0.217D-06-0.649D-07-0.166D-06 0.462D-05 0.110D-04
 Coeff-Com:  0.202D-04 0.360D-04-0.561D-06-0.406D-03-0.694D-03-0.246D-03
 Coeff-Com:  0.175D-02 0.871D-02 0.997D-02-0.405D-01-0.217D-01-0.503D-04
 Coeff-Com:  0.117D+00 0.926D+00
 Coeff:      0.147D-06-0.217D-06-0.649D-07-0.166D-06 0.462D-05 0.110D-04
 Coeff:      0.202D-04 0.360D-04-0.561D-06-0.406D-03-0.694D-03-0.246D-03
 Coeff:      0.175D-02 0.871D-02 0.997D-02-0.405D-01-0.217D-01-0.503D-04
 Coeff:      0.117D+00 0.926D+00
 Gap=     0.084 Goal=   None    Shift=    0.000
 Gap=     0.145 Goal=   None    Shift=    0.000
 RMSDP=7.14D-09 MaxDP=6.64D-07 DE=-9.09D-13 OVMax= 7.07D-07

 Error on total polarization charges =  0.02086
 SCF Done:  E(UB3LYP) =  -1897.15415242     A.U. after   20 cycles
            NFock= 20  Conv=0.71D-08     -V/T= 2.0028
 <Sx>= 0.0000 <Sy>= 0.0000 <Sz>= 0.5000 <S**2>= 0.7594 S= 0.5047
 <L.S>=  0.00000000000    
 KE= 1.891886993946D+03 PE=-9.066568463352D+03 EE= 2.988358201977D+03
 Annihilation of the first spin contaminant:
 S**2 before annihilation     0.7594,   after     0.7500
 Leave Link  502 at Sat Feb 10 22:11:36 2024, MaxMem=  4026531840 cpu:            6222.4 elap:             785.5
 (Enter /sysapps/ubuntu-applications/gaussian/Gaussian/AVX2/g16/l601.exe)
 Copying SCF densities to generalized density rwf, IOpCl= 1 IROHF=0.

 **********************************************************************

            Population analysis using the SCF density.

 **********************************************************************

 Alpha  occ. eigenvalues --  -89.07972 -89.07969 -19.13333 -19.13329 -19.13294
 Alpha  occ. eigenvalues --  -19.13291 -19.09460 -19.08912 -14.34728 -14.34723
 Alpha  occ. eigenvalues --  -10.24579 -10.23702 -10.22131 -10.22130 -10.20079
 Alpha  occ. eigenvalues --  -10.20079 -10.19798 -10.19798 -10.19343 -10.19342
 Alpha  occ. eigenvalues --  -10.19298 -10.19297 -10.18804 -10.18803  -8.14152
 Alpha  occ. eigenvalues --   -8.14149  -6.10432  -6.10429  -6.10410  -6.10407
 Alpha  occ. eigenvalues --   -6.10227  -6.10224  -1.13541  -1.13537  -1.02618
 Alpha  occ. eigenvalues --   -1.02615  -1.02519  -1.01612  -0.91491  -0.91485
 Alpha  occ. eigenvalues --   -0.88699  -0.87983  -0.81718  -0.78446  -0.77800
 Alpha  occ. eigenvalues --   -0.77042  -0.71331  -0.68616  -0.68005  -0.63408
 Alpha  occ. eigenvalues --   -0.62761  -0.60557  -0.57898  -0.56200  -0.55995
 Alpha  occ. eigenvalues --   -0.53325  -0.53122  -0.52494  -0.52129  -0.51102
 Alpha  occ. eigenvalues --   -0.49761  -0.49550  -0.48251  -0.46755  -0.46388
 Alpha  occ. eigenvalues --   -0.44974  -0.44598  -0.44260  -0.43953  -0.43651
 Alpha  occ. eigenvalues --   -0.42948  -0.41216  -0.39636  -0.39473  -0.39245
 Alpha  occ. eigenvalues --   -0.37587  -0.37378  -0.37009  -0.36489  -0.36132
 Alpha  occ. eigenvalues --   -0.34826  -0.34770  -0.33683  -0.33577  -0.32607
 Alpha  occ. eigenvalues --   -0.32540  -0.30581  -0.30530  -0.28425  -0.27990
 Alpha  occ. eigenvalues --   -0.27628  -0.27001  -0.26212  -0.25250  -0.15978
 Alpha virt. eigenvalues --   -0.07597  -0.06010  -0.02393  -0.01188  -0.00824
 Alpha virt. eigenvalues --    0.00148   0.00780   0.01489   0.01766   0.02693
 Alpha virt. eigenvalues --    0.03062   0.03520   0.03816   0.03963   0.04595
 Alpha virt. eigenvalues --    0.04952   0.05095   0.05388   0.05601   0.05907
 Alpha virt. eigenvalues --    0.06166   0.06368   0.06429   0.07068   0.07759
 Alpha virt. eigenvalues --    0.07810   0.07933   0.08395   0.08427   0.08866
 Alpha virt. eigenvalues --    0.08921   0.09381   0.09480   0.09782   0.10242
 Alpha virt. eigenvalues --    0.10399   0.10736   0.11215   0.11418   0.11494
 Alpha virt. eigenvalues --    0.11806   0.12225   0.12786   0.13181   0.13487
 Alpha virt. eigenvalues --    0.13532   0.13627   0.14271   0.14464   0.14777
 Alpha virt. eigenvalues --    0.15079   0.15553   0.15784   0.15858   0.16730
 Alpha virt. eigenvalues --    0.16870   0.17122   0.17416   0.17973   0.18280
 Alpha virt. eigenvalues --    0.18734   0.19146   0.19153   0.19387   0.19728
 Alpha virt. eigenvalues --    0.20073   0.20260   0.20360   0.21073   0.21220
 Alpha virt. eigenvalues --    0.21811   0.22175   0.22429   0.22794   0.23029
 Alpha virt. eigenvalues --    0.23335   0.23381   0.24130   0.24321   0.24401
 Alpha virt. eigenvalues --    0.24654   0.24908   0.25635   0.25921   0.26037
 Alpha virt. eigenvalues --    0.26178   0.26784   0.26983   0.27022   0.27510
 Alpha virt. eigenvalues --    0.27730   0.28129   0.28652   0.29070   0.29221
 Alpha virt. eigenvalues --    0.29885   0.30309   0.30519   0.30532   0.30891
 Alpha virt. eigenvalues --    0.31116   0.31300   0.31708   0.31714   0.31908
 Alpha virt. eigenvalues --    0.31998   0.32397   0.32585   0.32929   0.33019
 Alpha virt. eigenvalues --    0.33837   0.33985   0.34381   0.35007   0.35032
 Alpha virt. eigenvalues --    0.35497   0.35646   0.36320   0.36920   0.37246
 Alpha virt. eigenvalues --    0.37303   0.37665   0.38942   0.39520   0.40247
 Alpha virt. eigenvalues --    0.40318   0.40796   0.40995   0.41496   0.41672
 Alpha virt. eigenvalues --    0.43074   0.43265   0.43490   0.44121   0.45244
 Alpha virt. eigenvalues --    0.45664   0.46011   0.46926   0.48519   0.48654
 Alpha virt. eigenvalues --    0.49480   0.49918   0.50289   0.53483   0.53624
 Alpha virt. eigenvalues --    0.54566   0.54676   0.55235   0.55499   0.55800
 Alpha virt. eigenvalues --    0.56727   0.57294   0.58265   0.59100   0.59962
 Alpha virt. eigenvalues --    0.60124   0.61250   0.61369   0.61604   0.63247
 Alpha virt. eigenvalues --    0.63467   0.63831   0.64280   0.64853   0.65377
 Alpha virt. eigenvalues --    0.65720   0.65735   0.66302   0.67641   0.68190
 Alpha virt. eigenvalues --    0.68905   0.69280   0.71076   0.72527   0.72596
 Alpha virt. eigenvalues --    0.72887   0.74028   0.74320   0.74856   0.75086
 Alpha virt. eigenvalues --    0.75499   0.75934   0.77474   0.78647   0.80044
 Alpha virt. eigenvalues --    0.80225   0.82221   0.82406   0.82460   0.83614
 Alpha virt. eigenvalues --    0.84863   0.85050   0.85281   0.86175   0.86314
 Alpha virt. eigenvalues --    0.87137   0.87983   0.88496   0.88854   0.89366
 Alpha virt. eigenvalues --    0.90161   0.91958   0.91962   0.92288   0.92824
 Alpha virt. eigenvalues --    0.93079   0.94217   0.94236   0.94893   0.96344
 Alpha virt. eigenvalues --    0.96747   0.97803   0.99031   0.99448   1.00250
 Alpha virt. eigenvalues --    1.00257   1.00660   1.00979   1.01600   1.02380
 Alpha virt. eigenvalues --    1.03173   1.04673   1.04926   1.05679   1.05780
 Alpha virt. eigenvalues --    1.06217   1.07813   1.08622   1.09203   1.10151
 Alpha virt. eigenvalues --    1.10351   1.11708   1.12944   1.13867   1.14827
 Alpha virt. eigenvalues --    1.15486   1.16236   1.16575   1.16721   1.17428
 Alpha virt. eigenvalues --    1.17852   1.18542   1.18895   1.20144   1.20171
 Alpha virt. eigenvalues --    1.21362   1.21513   1.22489   1.23402   1.23578
 Alpha virt. eigenvalues --    1.24565   1.24856   1.25930   1.26422   1.26675
 Alpha virt. eigenvalues --    1.29152   1.29627   1.30880   1.31155   1.31406
 Alpha virt. eigenvalues --    1.32551   1.34418   1.35574   1.36028   1.38066
 Alpha virt. eigenvalues --    1.42693   1.46014   1.46295   1.47491   1.48094
 Alpha virt. eigenvalues --    1.49514   1.50134   1.51749   1.51939   1.52322
 Alpha virt. eigenvalues --    1.52935   1.54225   1.55925   1.58419   1.59934
 Alpha virt. eigenvalues --    1.60723   1.60837   1.62452   1.62827   1.63986
 Alpha virt. eigenvalues --    1.65522   1.66200   1.66383   1.67423   1.68389
 Alpha virt. eigenvalues --    1.70135   1.70929   1.71332   1.73410   1.73454
 Alpha virt. eigenvalues --    1.74612   1.74615   1.76637   1.76861   1.78367
 Alpha virt. eigenvalues --    1.78947   1.79076   1.83262   1.84718   1.84744
 Alpha virt. eigenvalues --    1.85886   1.88085   1.88804   1.89877   1.90404
 Alpha virt. eigenvalues --    1.91091   1.91624   1.91869   1.92872   1.93498
 Alpha virt. eigenvalues --    1.94040   1.95002   1.95063   1.95767   1.96163
 Alpha virt. eigenvalues --    1.97812   1.98145   1.99529   2.02701   2.03033
 Alpha virt. eigenvalues --    2.04125   2.04650   2.05740   2.06394   2.07616
 Alpha virt. eigenvalues --    2.08369   2.08492   2.13392   2.13661   2.16112
 Alpha virt. eigenvalues --    2.17824   2.19297   2.20453   2.21335   2.24401
 Alpha virt. eigenvalues --    2.26974   2.32225   2.32466   2.34940   2.35989
 Alpha virt. eigenvalues --    2.37517   2.38721   2.40134   2.43199   2.43540
 Alpha virt. eigenvalues --    2.45359   2.45541   2.47425   2.50808   2.54352
 Alpha virt. eigenvalues --    2.54848   2.55044   2.56957   2.57926   2.59952
 Alpha virt. eigenvalues --    2.62330   2.62836   2.65934   2.66850   2.67556
 Alpha virt. eigenvalues --    2.68605   2.71130   2.72345   2.73084   2.73472
 Alpha virt. eigenvalues --    2.73739   2.74610   2.75242   2.75729   2.77650
 Alpha virt. eigenvalues --    2.78027   2.78269   2.78642   2.79399   2.80975
 Alpha virt. eigenvalues --    2.81229   2.81299   2.81949   2.83814   2.84419
 Alpha virt. eigenvalues --    2.85399   2.85646   2.86434   2.86742   2.87783
 Alpha virt. eigenvalues --    2.88376   2.88487   2.88876   2.89698   2.90188
 Alpha virt. eigenvalues --    2.91186   2.91541   2.93477   2.93987   2.95143
 Alpha virt. eigenvalues --    2.95347   2.95608   2.98646   2.99397   2.99622
 Alpha virt. eigenvalues --    3.01095   3.01769   3.03759   3.07196   3.07509
 Alpha virt. eigenvalues --    3.09979   3.10133   3.11593   3.12232   3.12829
 Alpha virt. eigenvalues --    3.14082   3.16205   3.21311   3.21849   3.23309
 Alpha virt. eigenvalues --    3.27294   3.27415   3.32549   3.32852   3.35160
 Alpha virt. eigenvalues --    3.35952   3.36097   3.43941   3.45312   3.47156
 Alpha virt. eigenvalues --    3.48068   3.52338   3.54390   3.55286   3.57031
 Alpha virt. eigenvalues --    3.57511   3.57971   3.58173   3.58687   3.66597
 Alpha virt. eigenvalues --    3.76626   3.78095   3.81108   3.84384   3.87913
 Alpha virt. eigenvalues --    3.93811   3.94377   4.06482   4.08851   4.18285
 Alpha virt. eigenvalues --    4.21342   4.26615   4.27102   4.27241   4.30363
 Alpha virt. eigenvalues --    4.47901   4.67658   4.67667   4.79691   4.82626
 Alpha virt. eigenvalues --    4.84302   5.01236   5.01517   5.03406   5.03729
 Alpha virt. eigenvalues --    5.06799   5.07566   5.07938   5.08045   5.09470
 Alpha virt. eigenvalues --    5.09584   5.14273   5.14536   5.27035   5.28702
 Alpha virt. eigenvalues --    5.28792   5.29794   5.75008   5.83207   8.16225
 Alpha virt. eigenvalues --    8.16457  17.33660  17.34050  17.40149  17.41306
 Alpha virt. eigenvalues --   17.52905  17.53466  23.49788  23.65229  23.88864
 Alpha virt. eigenvalues --   23.91051  23.91427  23.92684  23.94961  23.95681
 Alpha virt. eigenvalues --   23.99132  24.02721  24.09745  24.09993  24.17124
 Alpha virt. eigenvalues --   24.17230  35.52461  35.52581  49.86957  49.87410
 Alpha virt. eigenvalues --   49.90468  49.90693  50.05258  50.10750 189.27073
 Alpha virt. eigenvalues --  189.27326
  Beta  occ. eigenvalues --  -89.07973 -89.07970 -19.13327 -19.13323 -19.13293
  Beta  occ. eigenvalues --  -19.13289 -19.08961 -19.08277 -14.34723 -14.34719
  Beta  occ. eigenvalues --  -10.24470 -10.23545 -10.22066 -10.22066 -10.20114
  Beta  occ. eigenvalues --  -10.20113 -10.19735 -10.19734 -10.19248 -10.19247
  Beta  occ. eigenvalues --  -10.19203 -10.19202 -10.18804 -10.18804  -8.14152
  Beta  occ. eigenvalues --   -8.14149  -6.10430  -6.10427  -6.10409  -6.10406
  Beta  occ. eigenvalues --   -6.10229  -6.10226  -1.13529  -1.13526  -1.02609
  Beta  occ. eigenvalues --   -1.02605  -1.01663  -1.00505  -0.91475  -0.91470
  Beta  occ. eigenvalues --   -0.88462  -0.87868  -0.81317  -0.78289  -0.77568
  Beta  occ. eigenvalues --   -0.76897  -0.70979  -0.68479  -0.67545  -0.63245
  Beta  occ. eigenvalues --   -0.62591  -0.60482  -0.57710  -0.56016  -0.55929
  Beta  occ. eigenvalues --   -0.53278  -0.53068  -0.52440  -0.52037  -0.51038
  Beta  occ. eigenvalues --   -0.49667  -0.49314  -0.48175  -0.46702  -0.46353
  Beta  occ. eigenvalues --   -0.44946  -0.44563  -0.44024  -0.43543  -0.42754
  Beta  occ. eigenvalues --   -0.42475  -0.40871  -0.39346  -0.38925  -0.37510
  Beta  occ. eigenvalues --   -0.37345  -0.37339  -0.36931  -0.35985  -0.35510
  Beta  occ. eigenvalues --   -0.34807  -0.34686  -0.33638  -0.33553  -0.32563
  Beta  occ. eigenvalues --   -0.32513  -0.30486  -0.30154  -0.27681  -0.26754
  Beta  occ. eigenvalues --   -0.26423  -0.26418  -0.25715  -0.24695
  Beta virt. eigenvalues --   -0.10170  -0.06838  -0.05007  -0.02162  -0.01175
  Beta virt. eigenvalues --   -0.00820   0.00644   0.00982   0.01526   0.01775
  Beta virt. eigenvalues --    0.02775   0.03091   0.03525   0.03856   0.04040
  Beta virt. eigenvalues --    0.05002   0.05080   0.05410   0.05476   0.05748
  Beta virt. eigenvalues --    0.06173   0.06396   0.06445   0.06761   0.07195
  Beta virt. eigenvalues --    0.07785   0.07886   0.08000   0.08471   0.08490
  Beta virt. eigenvalues --    0.08896   0.08973   0.09419   0.09502   0.09829
  Beta virt. eigenvalues --    0.10287   0.10428   0.10757   0.11248   0.11533
  Beta virt. eigenvalues --    0.11565   0.11988   0.12267   0.12822   0.13264
  Beta virt. eigenvalues --    0.13494   0.13595   0.13645   0.14318   0.14541
  Beta virt. eigenvalues --    0.14783   0.15117   0.15584   0.15890   0.15918
  Beta virt. eigenvalues --    0.16817   0.16919   0.17162   0.17419   0.18020
  Beta virt. eigenvalues --    0.18325   0.18819   0.19168   0.19216   0.19529
  Beta virt. eigenvalues --    0.19940   0.20102   0.20365   0.20558   0.21139
  Beta virt. eigenvalues --    0.21231   0.21917   0.22296   0.22445   0.22870
  Beta virt. eigenvalues --    0.23057   0.23405   0.23698   0.24231   0.24324
  Beta virt. eigenvalues --    0.24436   0.24717   0.24926   0.25739   0.25974
  Beta virt. eigenvalues --    0.26232   0.26265   0.26813   0.27004   0.27095
  Beta virt. eigenvalues --    0.27562   0.27760   0.28206   0.28729   0.29124
  Beta virt. eigenvalues --    0.29254   0.29912   0.30439   0.30558   0.30643
  Beta virt. eigenvalues --    0.30921   0.31263   0.31466   0.31758   0.31895
  Beta virt. eigenvalues --    0.32028   0.32114   0.32585   0.32597   0.33015
  Beta virt. eigenvalues --    0.33036   0.33909   0.34044   0.34422   0.35025
  Beta virt. eigenvalues --    0.35072   0.35566   0.35681   0.36418   0.36972
  Beta virt. eigenvalues --    0.37306   0.37309   0.37726   0.39002   0.39642
  Beta virt. eigenvalues --    0.40276   0.40439   0.40886   0.41027   0.41561
  Beta virt. eigenvalues --    0.41830   0.43173   0.43303   0.43524   0.44188
  Beta virt. eigenvalues --    0.45265   0.45753   0.46062   0.46959   0.48641
  Beta virt. eigenvalues --    0.48671   0.49555   0.50052   0.50403   0.53545
  Beta virt. eigenvalues --    0.53767   0.54716   0.54759   0.55368   0.55811
  Beta virt. eigenvalues --    0.55890   0.56778   0.57389   0.58318   0.59293
  Beta virt. eigenvalues --    0.60020   0.60190   0.61311   0.61657   0.61670
  Beta virt. eigenvalues --    0.63423   0.63517   0.63968   0.64341   0.65006
  Beta virt. eigenvalues --    0.65753   0.65890   0.65931   0.66434   0.67723
  Beta virt. eigenvalues --    0.68347   0.68976   0.69580   0.71122   0.72645
  Beta virt. eigenvalues --    0.72648   0.73047   0.74130   0.74367   0.75083
  Beta virt. eigenvalues --    0.75173   0.75645   0.75974   0.77553   0.78869
  Beta virt. eigenvalues --    0.80059   0.80321   0.82256   0.82458   0.82514
  Beta virt. eigenvalues --    0.83649   0.84904   0.85089   0.85373   0.86217
  Beta virt. eigenvalues --    0.86343   0.87198   0.88082   0.88559   0.88950
  Beta virt. eigenvalues --    0.89445   0.90222   0.92098   0.92127   0.92420
  Beta virt. eigenvalues --    0.92901   0.93157   0.94304   0.94318   0.94938
  Beta virt. eigenvalues --    0.96740   0.96989   0.98010   0.99092   0.99675
  Beta virt. eigenvalues --    1.00296   1.00456   1.00781   1.01109   1.01768
  Beta virt. eigenvalues --    1.02554   1.03249   1.04806   1.04949   1.05722
  Beta virt. eigenvalues --    1.05990   1.06387   1.08083   1.08734   1.09340
  Beta virt. eigenvalues --    1.10332   1.11088   1.11993   1.13063   1.13914
  Beta virt. eigenvalues --    1.15195   1.15709   1.16344   1.16600   1.16834
  Beta virt. eigenvalues --    1.17888   1.17964   1.18573   1.18925   1.20229
  Beta virt. eigenvalues --    1.20243   1.21410   1.21668   1.23405   1.23568
[...]
 00000214,-0.00000159,0.00055907,-0.00000284,-0.00020567,-0.00000792,-0
 .00000624,-0.00000045,0.00002422,-0.00001966,0.00001044,-0.00012900,0.
 00055989,-0.00027919,0.09742337,-0.39825256,0.14845518,-0.00050798,-0.
 00061088,0.00043923,0.00001208,0.00024408,-0.00014498,0.00022740,0.000
 14211,-0.00002919,0.00016390,0.00005337,-0.00014283,0.00000552,0.00000
 223,0.00001671,-0.00001223,-0.00000265,-0.00004247,-0.11202980,0.43455
 738,0.00148761,0.00148436,-0.00092354,0.00207198,0.00492976,0.00544614
 ,-0.00095000,0.00015538,0.00237479,-0.00117656,-0.00099780,0.00017983,
 0.00074618,-0.00021591,0.00016692,-0.00034570,0.00001028,-0.00036960,-
 0.00089722,0.00085489,-0.00053126,0.00058221,-0.00012426,0.00017347,0.
 00001375,0.00043553,-0.00026834,-0.00044371,-0.00033951,0.00026379,-0.
 00014350,-0.00003923,0.00001857,-0.00007957,-0.00009816,0.00007816,-0.
 00015695,0.00019916,-0.00012091,0.00054748,-0.00065435,0.00034521,-0.0
 0003706,0.00011560,-0.00004873,-0.00030295,-0.00095597,0.00077192,-0.0
 0000466,-0.00000078,-0.00000127,-0.00020233,-0.00017225,-0.00022048,0.
 00000129,-0.00000047,-0.00000105,-0.00001226,0.00000739,-0.00000439,0.
 00009770,-0.00022483,0.00011670,-0.04081544,0.14104531,-0.13264093,0.0
 0019809,0.00022984,-0.00019304,-0.00000395,-0.00009342,0.00006411,-0.0
 0008486,-0.00005115,0.00001956,-0.00006341,-0.00002071,0.00006246,-0.0
 0000440,-0.00000240,-0.00000696,0.00000414,0.00000201,0.00001648,0.046
 25773,-0.16672928,0.12545011,-0.00204983,0.00700305,-0.00059548,-0.002
 62948,-0.00817559,0.02597333,0.00030947,-0.00176482,0.00151943,-0.0035
 4828,-0.00210900,-0.00085527,0.00133392,-0.00120667,0.00064026,-0.0008
 0851,-0.00049529,-0.00014260,-0.00245458,0.00281340,-0.00197886,0.0015
 3961,-0.00086368,0.00067749,0.00007336,0.00150602,-0.00101102,-0.00067
 410,-0.00115508,0.00109848,-0.00035908,0.00006158,0.00003964,-0.000299
 07,-0.00039830,0.00022595,-0.00054761,0.00074812,-0.00033449,0.0011799
 2,-0.00221163,0.00119143,-0.00067997,0.00083476,-0.00045977,0.00039944
 ,0.00051991,0.00070698,-0.00002685,-0.00000502,0.00000388,-0.00024446,
 0.00005154,-0.00003792,0.00003118,0.00001382,-0.00000272,-0.00004562,0
 .00003596,-0.00001931,0.00011039,-0.00095144,0.00043245,-0.11223005,-0
 .02890198,0.11790421,0.00090806,0.00103120,-0.00077769,-0.00003625,-0.
 00040276,0.00025144,-0.00041101,-0.00024148,0.00005349,-0.00029505,-0.
 00008153,0.00026301,-0.00000987,-0.00000760,-0.00002949,0.00002424,0.0
 0000318,0.00007588,0.01486786,0.00660926,-0.00650862,0.09314472,0.0010
 2090,0.00003627,-0.00016390,0.00061241,0.00750715,0.00148641,-0.000460
 30,-0.00156567,0.00128549,-0.00064670,0.00022116,-0.00064200,0.0006785
 4,-0.00001218,0.00007513,-0.00076425,0.00045192,-0.00081082,-0.0005868
 1,0.00055496,-0.00032143,0.00054468,-0.00004608,0.00009181,0.00005180,
 0.00036227,-0.00026288,-0.00046403,-0.00006764,0.00018097,-0.00016039,
 -0.00006040,0.00002317,-0.00008266,-0.00007390,0.00005756,-0.00014097,
 0.00020672,-0.00010022,0.00031436,-0.00052503,0.00027386,-0.00005129,0
 .00008904,-0.00005127,0.00041124,0.00056912,0.00011715,-0.00000241,0.0
 0000051,-0.00000063,-0.00016601,-0.00006288,-0.00006276,0.00000638,0.0
 0000348,-0.00000002,-0.00001193,0.00000674,-0.00000239,0.00011747,-0.0
 0020473,0.00007383,-0.02620824,-0.09319332,0.08441897,0.00017850,0.000
 16688,-0.00013385,-0.00001380,-0.00006768,0.00004858,-0.00007470,-0.00
 004061,0.00000711,-0.00005471,-0.00001133,0.00004842,-0.00000155,-0.00
 000221,-0.00000584,0.00000536,0.00000080,0.00001415,-0.00699870,-0.003
 32134,0.03481711,0.02857204,0.08176897,0.00437283,-0.00311029,0.000487
 41,-0.00280994,0.00660078,-0.00687225,0.00003046,0.00308341,-0.0006168
 9,0.00119495,0.00107651,-0.00031414,-0.00108480,0.00024317,-0.00020688
 ,0.00120866,-0.00076642,0.00064954,0.00157015,-0.00156690,0.00098320,-
 0.00087244,0.00067287,-0.00038549,-0.00016417,-0.00096143,0.00066417,0
 .00051277,0.00068754,-0.00061840,0.00023095,-0.00004007,-0.00002812,0.
 00024504,0.00025216,-0.00015706,0.00031119,-0.00050290,0.00023387,-0.0
 0053559,0.00121080,-0.00065750,0.00046476,-0.00055327,0.00031457,-0.00
 046866,-0.00078745,0.00013389,0.00001700,0.00000047,-0.00000315,0.0003
 3749,0.00000423,0.00000561,-0.00002243,-0.00000827,0.00000093,0.000027
 26,-0.00002243,0.00000824,-0.00005571,0.00061547,-0.00027921,0.1110223
 1,0.08384789,-0.42611324,-0.00056500,-0.00063502,0.00044743,0.00002632
 ,0.00024515,-0.00014484,0.00025877,0.00014724,-0.00002371,0.00018344,0
 .00005250,-0.00015448,0.00000406,0.00000257,0.00001796,-0.00001500,-0.
 00000121,-0.00004751,0.00833467,0.00262166,-0.01075818,-0.13238134,-0.
 09198615,0.48117546,0.00032635,0.00254145,-0.00503780,-0.01003991,-0.0
 1829485,-0.01119589,-0.00098822,-0.00299539,0.00077467,-0.00313755,0.0
 0124081,0.00228856,0.00134248,-0.00121693,0.00060375,-0.00063425,0.000
 30667,0.00047526,-0.00215684,0.00300087,-0.00121799,0.00157282,-0.0009
 2910,0.00008135,0.00002389,0.00144836,-0.00082670,-0.00085227,-0.00118
 054,0.00051596,-0.00038372,-0.00002606,0.00003117,-0.00022835,-0.00031
 256,0.00027939,-0.00054104,0.00066159,-0.00035150,0.00124102,-0.002089
 21,0.00125075,-0.00051442,0.00065617,-0.00033278,0.00001467,-0.0004386
 4,-0.00082658,-0.00002201,-0.00000475,0.00000228,-0.00022499,0.0001087
 6,0.00008315,0.00002285,0.00000737,-0.00001529,-0.00004475,0.00002951,
 -0.00002210,0.00019068,-0.00079670,0.00044293,-0.08301890,-0.06145670,
 -0.02168312,0.00081111,0.00090805,-0.00069355,-0.00003403,-0.00035853,
 0.00022854,-0.00036425,-0.00021218,0.00004695,-0.00025941,-0.00007058,
 0.00023332,-0.00000924,-0.00000709,-0.00002667,0.00002152,0.00000250,0
 .00006534,0.01234792,0.00201448,-0.00064337,0.00888730,0.00527215,0.01
 083902,0.49278483,-0.00044263,0.00068509,-0.00160192,-0.00065138,-0.00
 220554,-0.00384488,-0.00115974,-0.00143696,0.00130470,-0.00112029,0.00
 065898,0.00072491,0.00052842,-0.00048772,0.00004303,-0.00056416,0.0005
 1407,-0.00003008,-0.00106403,0.00131078,-0.00052623,0.00080847,-0.0004
 1198,0.00007518,-0.00000015,0.00068289,-0.00044528,-0.00037802,-0.0004
 6346,0.00032283,-0.00020090,-0.00001289,0.00006764,-0.00011576,-0.0001
 6680,0.00011054,-0.00026958,0.00034590,-0.00016080,0.00053565,-0.00096
 973,0.00059282,-0.00028170,0.00033917,-0.00015257,0.00030703,0.0000542
 8,-0.00072209,-0.00001040,-0.00000329,-0.00000092,-0.00018787,0.000035
 16,0.00003593,0.00001207,0.00000391,-0.00000897,-0.00002211,0.00001305
 ,-0.00001317,0.00009595,-0.00039992,0.00019497,-0.01978852,-0.11248451
 ,-0.02511636,0.00039604,0.00041570,-0.00034093,-0.00002329,-0.00016528
 ,0.00010776,-0.00017582,-0.00009767,0.00002429,-0.00012615,-0.00002716
 ,0.00011768,-0.00000457,-0.00000629,-0.00001248,0.00001198,0.00000022,
 0.00003240,-0.01202544,-0.02491945,-0.01517616,-0.00123686,0.00732994,
 0.00544210,0.17571720,0.21503280,-0.00196497,0.00055983,-0.00010274,0.
 00358904,-0.00107337,0.00893247,-0.00036010,0.00071140,0.00014151,-0.0
 0001727,-0.00093394,-0.00040566,-0.00021303,-0.00002118,0.00030576,0.0
 0030952,-0.00023739,-0.00056582,0.00007848,0.00004222,-0.00007778,-0.0
 0018031,-0.00006933,0.00018264,0.00002384,-0.00001718,0.00000465,0.000
 23551,-0.00014935,0.00004751,0.00006185,0.00004802,-0.00004096,-0.0000
 0440,0.00000461,0.00002662,0.00001583,-0.00002634,-0.00000926,-0.00012
 281,0.00004257,-0.00001809,-0.00011667,0.00012946,-0.00005301,0.000170
 64,0.00029382,0.00019788,-0.00000345,-0.00000134,0.00000099,-0.0000066
 3,-0.00001444,-0.00004260,0.00000310,-0.00000107,-0.00000136,0.0000002
 0,-0.00000038,-0.00000318,-0.00008809,-0.00002046,0.00002215,0.0006604
 5,-0.04606450,-0.10401845,0.00002937,0.00004158,-0.00004928,-0.0000008
 0,-0.00001202,0.00001262,-0.00001548,-0.00000868,0.00000799,-0.0000149
 8,0.00000056,0.00001780,-0.00000149,-0.00000221,-0.00000116,0.00000069
 ,-0.00000122,0.00000498,-0.00218004,0.00429877,0.00766993,-0.00705280,
 -0.02793946,-0.03820664,-0.08693853,-0.05491005,0.61773403,-0.00142959
 ,0.00306198,-0.00109096,0.01103224,0.00985180,-0.00759831,-0.13806786,
 -0.10157605,0.07779956,-0.00075168,0.00018030,-0.00021350,-0.00465234,
 0.00245122,0.00015029,-0.01218982,-0.02209736,0.01606193,0.00012022,0.
 00020068,-0.00024859,-0.00002118,0.00011393,-0.00002267,-0.00069793,0.
 00000250,-0.00002238,0.00043744,-0.00127488,0.00076927,0.00001965,-0.0
 0001049,0.00001172,0.00007997,-0.00012743,0.00008178,-0.00008705,-0.00
 004011,0.00003997,0.00017042,-0.00022687,0.00013003,-0.00010101,0.0001
 4015,-0.00003667,0.00055806,0.00050419,-0.00031408,-0.00001169,-0.0000
 1527,0.00001036,0.00137193,-0.00016099,-0.00074392,-0.00000265,-0.0000
 0384,0.00000223,0.00000407,0.00001057,-0.00000928,-0.00002653,0.000032
 40,-0.00002444,-0.00055336,0.00129502,-0.00112955,0.00002946,0.0000396
 1,-0.00002842,-0.00000402,-0.00001930,0.00001080,-0.00001791,-0.000013
 76,0.00000232,-0.00001127,-0.00000359,0.00001334,-0.00000082,-0.000000
 32,-0.00000091,0.00000196,-0.00000112,0.00000242,0.00038964,-0.0003645
 7,0.00024404,0.00003589,-0.00024979,-0.00004418,-0.00007963,0.00003516
 ,0.00018547,0.14437022,0.00392078,-0.00092049,0.00351787,-0.01307532,-
 0.01227411,0.00948816,-0.10158270,-0.18219560,0.10715962,0.00027971,-0
 .00005670,-0.00052600,0.00195307,0.00308761,0.00321787,0.00335517,0.00
 648147,-0.00173415,-0.00015668,-0.00012789,-0.00048969,0.00009944,0.00
 000585,0.00007183,-0.00001236,-0.00017700,-0.00037340,-0.00003769,0.00
 027077,-0.00013151,-0.00005542,0.00000971,0.00004154,0.00001972,0.0000
 2200,0.00002265,-0.00003596,0.00004716,0.00001980,-0.00006922,-0.00012
 583,0.00013488,-0.00001291,0.00000805,0.00019190,-0.00072586,-0.000283
 47,0.00057094,0.00000055,-0.00000187,-0.00000545,-0.00056412,-0.000994
 72,-0.00265227,0.00000492,0.00000213,-0.00000480,-0.00000379,-0.000002
 60,-0.00000713,0.00003097,-0.00002572,0.00000722,-0.00152828,-0.002121
 70,0.00134049,0.00002926,0.00002995,-0.00002355,-0.00000247,-0.0000147
 9,0.00000868,-0.00001528,-0.00000935,-0.00000024,-0.00000778,-0.000003
 31,0.00000820,-0.00000040,-0.00000036,-0.00000071,0.00000068,0.0000001
 1,0.00000215,0.00030622,0.00036076,-0.00024890,-0.00044855,0.00122147,
 -0.00103086,-0.00002232,0.00016183,-0.00017568,0.10831695,0.18761610,-
 0.00147618,0.00370423,0.00323322,0.00708814,0.00677215,-0.00490262,0.0
 7766069,0.10743273,-0.11237897,-0.00030435,-0.00056979,-0.00054175,0.0
 0029032,0.00306203,0.00640584,-0.00008160,0.00131149,0.00345402,0.0000
 3763,-0.00049207,-0.00059134,-0.00007031,0.00010666,0.00011474,-0.0000
 3005,-0.00041458,-0.00049301,0.00001468,0.00007485,0.00007022,0.000043
 60,0.00003722,0.00003020,0.00000073,0.00005239,0.00002844,0.00004523,-
 0.00000979,0.00005881,0.00002072,0.00014956,-0.00002749,0.00006217,0.0
 0014668,0.00019752,0.00041829,0.00040319,0.00015751,0.00000066,-0.0000
 0338,-0.00000656,-0.00044323,-0.00266662,-0.00345009,-0.00000332,-0.00
 000395,-0.00000263,0.00000049,-0.00000881,-0.00000878,-0.00002167,0.00
 002850,-0.00002146,0.00063776,0.00033597,-0.00156161,-0.00003555,-0.00
 003735,0.00002762,0.00000232,0.00001610,-0.00001149,0.00001478,0.00000
 928,-0.00000277,0.00001174,0.00000139,-0.00001131,0.00000054,0.0000008
 8,0.00000129,-0.00000089,-0.00000079,-0.00000313,-0.00012206,-0.000153
 18,0.00018795,0.00026575,-0.00017608,0.00003155,-0.00006561,-0.0004443
 3,0.00037053,-0.08398530,-0.11846700,0.10973496,0.00024688,0.00031242,
 -0.00076691,-0.00068140,-0.00271540,-0.00078594,0.00034155,-0.00044164
 ,0.00015695,-0.00050786,0.00018722,0.00039093,0.00018505,-0.00023464,0
 .00000651,-0.00001480,0.00003374,0.00011311,-0.00021676,0.00036188,-0.
 00017933,0.00017161,-0.00007581,-0.00003054,-0.00001127,0.00010832,-0.
 00008367,-0.00012369,-0.00003589,0.00007403,-0.00005171,-0.00000718,0.
 00001962,-0.00001303,-0.00002494,0.00002083,-0.00005546,0.00005210,-0.
 00003595,0.00016036,-0.00024013,0.00014696,-0.00001662,0.00003089,-0.0
 0001900,-0.00004101,-0.00008946,-0.00010180,-0.00000139,-0.00000022,0.
 00000022,-0.00000738,0.00000448,-0.00000343,0.00000223,0.00000059,-0.0
 0000207,-0.00000508,0.00000253,-0.00000147,0.00003518,-0.00004922,0.00
 004287,-0.01130340,0.00028817,0.00166065,0.00006067,0.00006781,-0.0000
 5324,-0.00000300,-0.00002801,0.00001724,-0.00002827,-0.00001683,0.0000
 0272,-0.00001822,-0.00000464,0.00001881,-0.00000086,-0.00000126,-0.000
 00197,0.00000131,0.00000005,0.00000513,0.00037147,0.00341822,0.0008489
 9,0.00190081,0.00179287,0.00101109,-0.37193184,-0.11459101,0.10965161,
 -0.00000852,0.00009562,-0.00005565,0.37984997,-0.00005403,0.00010430,-
 0.00008589,-0.00015244,-0.00001185,-0.00174862,0.00016069,-0.00020264,
 0.00004811,0.00010300,-0.00004490,0.00014820,0.00032638,0.00020241,-0.
 00014457,-0.00048815,0.00014708,0.00025301,-0.00016386,0.00004019,0.00
 002811,0.00011940,-0.00005027,-0.00003910,0.00007762,0.00012079,-0.000
 04931,-0.00025258,-0.00009436,-0.00000143,-0.00004234,-0.00001314,0.00
 001516,-0.00005671,-0.00001727,0.00002160,-0.00000790,0.00005947,-0.00
 003559,0.00006745,-0.00004229,0.00002685,0.00003786,0.00000489,-0.0000
 1058,0.00000711,-0.00007844,-0.00005155,0.00000025,0.00000077,-0.00000
 145,-0.00002489,0.00001316,0.00004352,-0.00000048,-0.00000065,-0.00000
 010,-0.00000172,-0.00000020,0.00000059,0.00004184,-0.00004236,0.000024
 21,-0.03026440,-0.01568626,0.00208718,0.00001599,0.00001707,-0.0000135
 0,0.00000030,-0.00000725,0.00000520,-0.00000522,-0.00000345,0.00000099
 ,-0.00000275,-0.00000212,0.00000242,-0.00000031,-0.00000006,-0.0000005
 6,-0.00000030,0.00000070,0.00000116,0.00280958,-0.00213615,-0.00121885
 ,0.00294361,0.00128950,0.00266149,-0.07631115,-0.03172408,0.01396537,-
 0.00004037,-0.00003897,-0.00015226,0.10710488,0.05142948,-0.00014419,0
 .00051936,-0.00091228,-0.00201930,-0.00385387,-0.00234386,-0.00010817,
 -0.00061359,0.00016542,-0.00068093,0.00034276,0.00061516,0.00025890,-0
 .00031271,0.00005642,-0.00010818,0.00013687,0.00023894,-0.00047041,0.0
 0065701,-0.00027051,0.00033943,-0.00019598,-0.00000785,-0.00001558,0.0
 0028788,-0.00017433,-0.00016839,-0.00020622,0.00010445,-0.00008940,-0.
 00000674,0.00001431,-0.00003952,-0.00006443,0.00005131,-0.00011854,0.0
 0013728,-0.00006594,0.00027035,-0.00045383,0.00027667,-0.00010415,0.00
 012333,-0.00006158,0.00000255,-0.00008547,-0.00024156,-0.00000437,-0.0
 0000085,-0.00000009,-0.00005294,0.00001180,-0.00000296,0.00000502,0.00
 000153,-0.00000368,-0.00000932,0.00000627,-0.00000458,0.00004625,-0.00
 016101,0.00008884,-0.02120440,-0.00344514,0.00787611,0.00016620,0.0001
 8228,-0.00013979,-0.00000761,-0.00007250,0.00004540,-0.00007615,-0.000
 04300,0.00000916,-0.00005310,-0.00001313,0.00004780,-0.00000179,-0.000
 00212,-0.00000532,0.00000444,0.00000057,0.00001342,0.00117799,-0.00025
 723,-0.00011097,0.00175523,0.00184880,0.00012974,0.09436569,0.01539416
 ,-0.08664487,0.00000599,0.00003381,-0.00008279,-0.10802403,-0.01873328
 ,0.08712166,-0.00074412,0.00004616,0.00008369,0.00019526,-0.00103788,0
 .00053211,-0.00019734,0.00020818,-0.00011217,-0.00004996,-0.00015899,0
 .00012816,-0.00005509,-0.00001981,0.00004673,0.00011134,0.00002038,-0.
 00008060,0.00003615,-0.00001500,-0.00000739,-0.00007529,-0.00000826,0.
 00001145,0.00000109,-0.00004193,0.00001707,0.00005599,0.00001055,0.000
 01585,0.00001428,0.00001387,-0.00000212,0.00000511,0.00000576,-0.00001
 021,0.00001580,-0.00002132,0.00001014,-0.00003491,0.00004601,-0.000009
 86,-0.00000837,0.00000745,-0.00000329,0.00002715,-0.00002761,-0.000028
 20,-0.00000017,-0.00000006,0.00000006,-0.00001223,-0.00000483,-0.00000
 969,0.00000026,-0.00000179,-0.00000089,0.00000092,-0.00000133,-0.00000
 059,-0.00001988,0.00001898,-0.00000462,-0.00111429,0.01083592,-0.00593
 299,-0.00001956,-0.00002189,0.00000814,0.00000106,0.00000906,-0.000004
 12,0.00000863,0.00000491,0.00000087,0.00000529,0.00000335,-0.00000273,
 -0.00000061,-0.00000139,0.00000088,-0.00000043,-0.00000029,-0.00000066
 ,0.00013269,-0.00089399,-0.00022463,0.00260348,-0.00243943,-0.00318395
 ,-0.04412184,-0.02400758,-0.01573372,0.00009367,-0.00005598,0.00007952
 ,0.00171447,-0.00594637,0.03510240,0.04143144,-0.00027859,0.00019946,0
 .00001249,-0.00008811,-0.00088172,0.00091886,0.00011148,0.00004079,-0.
 00000155,-0.00003810,-0.00010294,0.00002461,-0.00004771,-0.00005341,0.
 00003096,0.00015707,-0.00000838,0.00000877,0.00002860,0.00001562,-0.00
 003004,-0.00004207,0.00001823,0.00000336,-0.00002358,-0.00004899,0.000
 04105,0.00005014,0.00004936,-0.00005460,0.00000271,-0.00000049,-0.0000
 1305,0.00002213,0.00001592,-0.00000473,0.00000808,-0.00003153,0.000009
 40,-0.00000742,0.00001117,-0.00000876,0.00001125,-0.00003443,0.0000165
 6,-0.00002109,-0.00003338,0.00003896,0.00000050,-0.00000002,0.00000042
 ,0.00000923,-0.00000755,-0.00001439,0.00000004,0.00000016,-0.00000006,
 0.00000098,-0.00000002,0.00000113,-0.00000149,0.00003098,-0.00000963,0
 .00117457,0.00165041,-0.03115067,-0.00001987,-0.00001708,0.00001675,0.
 00000160,0.00000603,-0.00000398,0.00000773,0.00000352,-0.00000138,0.00
 000612,-0.00000017,-0.00000580,0.00000028,0.00000093,0.00000045,-0.000
 00057,0.00000018,-0.00000205,0.00009964,0.00169912,0.00307777,-0.00209
 016,-0.00253190,-0.00749533,-0.02719266,-0.05160105,0.11154139,-0.0000
 1038,0.00004948,-0.00004530,0.00469450,-0.00323311,0.00883740,0.023475
 16,0.05479480,-0.00025234,-0.00010114,0.00011624,-0.00004062,-0.000703
 28,0.00040714,0.00009196,0.00030223,-0.00007031,0.00012880,-0.00012097
 ,0.00001023,-0.00010679,0.00003020,0.00000013,0.00014321,-0.00003433,-
 0.00001054,0.00015655,-0.00014355,0.00009778,-0.00013319,0.00005963,-0
 .00003378,-0.00002009,-0.00013082,0.00008694,0.00008095,0.00011705,-0.
 00006623,0.00002597,0.00000486,0.00000544,0.00003125,0.00002584,-0.000
 03083,0.00004061,-0.00005763,0.00004192,-0.00007824,0.00013926,-0.0000
 9157,0.00004700,-0.00006785,0.00003391,-0.00003716,-0.00003301,0.00007
 052,0.00000189,0.00000050,0.00000015,0.00002571,-0.00000809,-0.0000150
 1,-0.00000100,-0.00000009,0.00000056,0.00000306,-0.00000223,0.00000184
 ,-0.00001738,0.00006760,-0.00005357,-0.00265317,0.00361183,-0.01938592
 ,-0.00006711,-0.00007361,0.00006305,0.00000213,0.00002863,-0.00001987,
 0.00002864,0.00001640,-0.00000532,0.00002143,0.00000536,-0.00002031,0.
 00000124,0.00000117,0.00000218,-0.00000152,-0.00000031,-0.00000573,0.0
 0093604,0.00311071,0.00279357,-0.00089092,-0.00220880,0.00030414,0.017
 26938,0.07891629,-0.40543922,-0.00000839,0.00003374,-0.00000662,-0.004
 04327,0.00295348,-0.00578185,-0.01068463,-0.08573903,0.42700095\\0.000
 00442,-0.00000020,0.00000625,-0.00002107,0.00001375,-0.00000388,0.0000
 2274,-0.00000685,0.00000452,0.00000725,-0.00002255,0.00001591,-0.00000
 205,0.00002163,-0.00001488,-0.00001750,-0.00001022,0.00000296,-0.00002
 947,0.00004768,-0.00003201,0.00001761,-0.00002053,0.00000898,-0.000020
 21,0.00001305,-0.00000483,0.00001198,-0.00002786,0.00000263,0.00000075
 ,-0.00000034,0.00000679,0.00001605,0.00000209,-0.00000798,-0.00000556,
 -0.00002119,0.00001312,0.00001946,-0.00002645,0.00002188,-0.00000781,0
 .00000807,-0.00000837,-0.00000056,0.00000288,0.00000333,0.00000088,-0.
 00000173,-0.00000129,-0.00000037,-0.00000353,-0.00000579,0.00000297,0.
 00000189,0.00000327,-0.00000185,-0.00000669,-0.00000588,0.00000119,0.0
 0002299,-0.00000853,0.00001403,0.00001347,-0.00001541,-0.00000103,-0.0
 0000554,-0.00001516,0.00001310,-0.00001063,0.00001674,-0.00000896,-0.0
 0000511,-0.00000233,-0.00000112,0.00001561,0.00000191,0.00000117,-0.00
 000138,0.00000377,0.00000107,-0.00000244,0.00000177,-0.00000104,-0.000
 00680,0.00001117,-0.00000003,-0.00000358,-0.00000651,-0.00001288,0.000
 01430,0.00001033,-0.00000310,-0.00000274,-0.00000654,-0.00000029,0.000
 00092,-0.00000157,0.00000024,0.00000798,0.00000563\\\@


 EXPERIENCE IS A WONDERFUL THING.  IT ENABLES
 YOU TO RECOGNIZE A MISTAKE WHEN YOU MAKE IT AGAIN.
           - BACK OF A SUGAR PACKET
 Job cpu time:       0 days 22 hours 19 minutes 41.6 seconds.
 Elapsed time:       0 days  2 hours 48 minutes  3.2 seconds.
 File lengths (MBytes):  RWF=   2671 Int=      0 D2E=      0 Chk=     53 Scr=      1
 Normal termination of Gaussian 16 at Sun Feb 11 03:38:43 2024.
