 Entering Gaussian System, Link 0=g16
 Input=027-PCM.com
 Output=027-PCM.log
 Initial command:
 /sysapps/ubuntu-applications/gaussian/Gaussian/AVX2/g16/l1.exe "/scratch/selhajj1/4304238/Gau-1106640.inp" -scrdir="/scratch/selhajj1/4304238/"
 Entering Link 1 = /sysapps/ubuntu-applications/gaussian/Gaussian/AVX2/g16/l1.exe PID=   1106660.
  
 Copyright (c) 1988,1990,1992,1993,1995,1998,2003,2009,2016,
            Gaussian, Inc.  All Rights Reserved.
  
 This is part of the Gaussian(R) 16 program.  It is based on
 the Gaussian(R) 09 system (copyright 2009, Gaussian, Inc.),
 the Gaussian(R) 03 system (copyright 2003, Gaussian, Inc.),
 the Gaussian(R) 98 system (copyright 1998, Gaussian, Inc.),
 the Gaussian(R) 94 system (copyright 1995, Gaussian, Inc.),
 the Gaussian 92(TM) system (copyright 1992, Gaussian, Inc.),
 the Gaussian 90(TM) system (copyright 1990, Gaussian, Inc.),
 the Gaussian 88(TM) system (copyright 1988, Gaussian, Inc.),
 the Gaussian 86(TM) system (copyright 1986, Carnegie Mellon
 University), and the Gaussian 82(TM) system (copyright 1983,
 Carnegie Mellon University). Gaussian is a federally registered
 trademark of Gaussian, Inc.
  
 This software contains proprietary and confidential information,
 including trade secrets, belonging to Gaussian, Inc.
  
 This software is provided under written license and may be
 used, copied, transmitted, or stored only in accord with that
 written license.
  
 The following legend is applicable only to US Government
 contracts under FAR:
  
                    RESTRICTED RIGHTS LEGEND
  
 Use, reproduction and disclosure by the US Government is
 subject to restrictions as set forth in subparagraphs (a)
 and (c) of the Commercial Computer Software - Restricted
 Rights clause in FAR 52.227-19.
  
 Gaussian, Inc.
 340 Quinnipiac St., Bldg. 40, Wallingford CT 06492
  
  
 ---------------------------------------------------------------
 Warning -- This program may not be used in any manner that
 competes with the business of Gaussian, Inc. or will provide
 assistance to any competitor of Gaussian, Inc.  The licensee
 of this program is prohibited from giving any competitor of
 Gaussian, Inc. access to this program.  By using this program,
 the user acknowledges that Gaussian, Inc. is engaged in the
 business of creating and licensing software in the field of
 computational chemistry and represents and warrants to the
 licensee that it is not a competitor of Gaussian, Inc. and that
 it will not use this program in any manner prohibited above.
 ---------------------------------------------------------------
  

 Cite this work as:
 Gaussian 16, Revision A.03,
 M. J. Frisch, G. W. Trucks, H. B. Schlegel, G. E. Scuseria, 
 M. A. Robb, J. R. Cheeseman, G. Scalmani, V. Barone, 
 G. A. Petersson, H. Nakatsuji, X. Li, M. Caricato, A. V. Marenich, 
 J. Bloino, B. G. Janesko, R. Gomperts, B. Mennucci, H. P. Hratchian, 
 J. V. Ortiz, A. F. Izmaylov, J. L. Sonnenberg, D. Williams-Young, 
 F. Ding, F. Lipparini, F. Egidi, J. Goings, B. Peng, A. Petrone, 
 T. Henderson, D. Ranasinghe, V. G. Zakrzewski, J. Gao, N. Rega, 
 G. Zheng, W. Liang, M. Hada, M. Ehara, K. Toyota, R. Fukuda, 
 J. Hasegawa, M. Ishida, T. Nakajima, Y. Honda, O. Kitao, H. Nakai, 
 T. Vreven, K. Throssell, J. A. Montgomery, Jr., J. E. Peralta, 
 F. Ogliaro, M. J. Bearpark, J. J. Heyd, E. N. Brothers, K. N. Kudin, 
 V. N. Staroverov, T. A. Keith, R. Kobayashi, J. Normand, 
 K. Raghavachari, A. P. Rendell, J. C. Burant, S. S. Iyengar, 
 J. Tomasi, M. Cossi, J. M. Millam, M. Klene, C. Adamo, R. Cammi, 
 J. W. Ochterski, R. L. Martin, K. Morokuma, O. Farkas, 
 J. B. Foresman, and D. J. Fox, Gaussian, Inc., Wallingford CT, 2016.
 
 ******************************************
 Gaussian 16:  ES64L-G16RevA.03 25-Dec-2016
                21-Jan-2024 
 ******************************************
 %chk=027-PCM.chk
 %nproc=8
 Will use up to    8 processors via shared memory.
 %mem=30GB
 ----------------------------------------------------------------
 #P UB3LYP/6-311++G(d,p) SCRF=(PCM,Solvent=n,n-DiMethylFormamide)
 ----------------------------------------------------------------
 1/38=1,172=1/1;
 2/12=2,17=6,18=5,40=1/2;
 3/5=4,6=6,7=1111,11=2,25=1,30=1,70=2201,72=148,74=-5,116=2/1,2,3;
 4//1;
 5/5=2,38=5,53=148/2;
 6/7=2,8=2,9=2,10=2,28=1/1;
 99/5=1,9=1/99;
 Leave Link    1 at Sun Jan 21 06:50:45 2024, MaxMem=  4026531840 cpu:               0.3 elap:               0.1
 (Enter /sysapps/ubuntu-applications/gaussian/Gaussian/AVX2/g16/l101.exe)
 ------------------
 Quinone PCM in DMF
 ------------------
 Symbolic Z-matrix:
 Charge =  0 Multiplicity = 1
 C                     0.64135  -1.70872  -0.92423 
 C                    -0.55671  -1.14216  -0.21919 
 C                    -0.47548   0.01388   0.46546 
 C                     0.81657   0.78023   0.551 
 C                     1.99531   0.18322  -0.14911 
 C                     1.94384  -0.96384  -0.85197 
 O                     0.56589  -2.74861  -1.54324 
 O                     0.88712   1.82331   1.15605 
 Br                   -2.13774  -2.16061  -0.37488 
 Br                   -1.92712   0.79996   1.37758 
 Br                    3.59804   1.19453   0.02975 
 C                     3.10263  -1.60754  -1.55781 
 C                     3.84007  -2.63225  -0.66647 
 C                     5.01359  -3.29425  -1.39615 
 C                     5.76168  -4.31597  -0.53259 
 C                     6.93733  -4.98345  -1.25553 
 C                     7.67946  -6.00347  -0.38723 
 H                     3.80251  -0.83464  -1.87975 
 H                     2.7249   -2.11974  -2.44495 
 H                     3.13093  -3.40023  -0.34095 
 H                     4.20362  -2.12924   0.23618 
 H                     5.71505  -2.52001  -1.73213 
 H                     4.64273  -3.78752  -2.30328 
 H                     5.05924  -5.08922  -0.19593 
 H                     6.13014  -3.82277   0.37622 
 H                     7.63927  -4.21082  -1.59211 
 H                     6.56906  -5.47604  -2.16357 
 H                     8.08989  -5.53356   0.51214 
 H                     8.51051  -6.46091  -0.93104 
 H                     7.01154  -6.80804  -0.0638 
 
 ITRead=  0  0  0  0  0  0  0  0  0  0  0  0  0  0  0  0  0  0  0  0
 ITRead=  0  0  0  0  0  0  0  0  0  0
 MicOpt= -1 -1 -1 -1 -1 -1 -1 -1 -1 -1 -1 -1 -1 -1 -1 -1 -1 -1 -1 -1
 MicOpt= -1 -1 -1 -1 -1 -1 -1 -1 -1 -1
 NAtoms=     30 NQM=       30 NQMF=       0 NMMI=      0 NMMIF=      0
                NMic=       0 NMicF=      0.
                    Isotopes and Nuclear Properties:
 (Nuclear quadrupole moments (NQMom) in fm**2, nuclear magnetic moments (NMagM)
  in nuclear magnetons)

  Atom         1           2           3           4           5           6           7           8           9          10
 IAtWgt=          12          12          12          12          12          12          16          16          79          79
 AtmWgt=  12.0000000  12.0000000  12.0000000  12.0000000  12.0000000  12.0000000  15.9949146  15.9949146  78.9183361  78.9183361
 NucSpn=           0           0           0           0           0           0           0           0           3           3
 AtZEff=  -0.0000000  -0.0000000  -0.0000000  -0.0000000  -0.0000000  -0.0000000  -0.0000000  -0.0000000  -0.0000000  -0.0000000
 NQMom=    0.0000000   0.0000000   0.0000000   0.0000000   0.0000000   0.0000000   0.0000000   0.0000000  31.3000000  31.3000000
 NMagM=    0.0000000   0.0000000   0.0000000   0.0000000   0.0000000   0.0000000   0.0000000   0.0000000   2.1063990   2.1063990
 AtZNuc=   6.0000000   6.0000000   6.0000000   6.0000000   6.0000000   6.0000000   8.0000000   8.0000000  35.0000000  35.0000000

  Atom        11          12          13          14          15          16          17          18          19          20
 IAtWgt=          79          12          12          12          12          12          12           1           1           1
 AtmWgt=  78.9183361  12.0000000  12.0000000  12.0000000  12.0000000  12.0000000  12.0000000   1.0078250   1.0078250   1.0078250
 NucSpn=           3           0           0           0           0           0           0           1           1           1
 AtZEff=  -0.0000000  -0.0000000  -0.0000000  -0.0000000  -0.0000000  -0.0000000  -0.0000000  -0.0000000  -0.0000000  -0.0000000
 NQMom=   31.3000000   0.0000000   0.0000000   0.0000000   0.0000000   0.0000000   0.0000000   0.0000000   0.0000000   0.0000000
 NMagM=    2.1063990   0.0000000   0.0000000   0.0000000   0.0000000   0.0000000   0.0000000   2.7928460   2.7928460   2.7928460
 AtZNuc=  35.0000000   6.0000000   6.0000000   6.0000000   6.0000000   6.0000000   6.0000000   1.0000000   1.0000000   1.0000000

  Atom        21          22          23          24          25          26          27          28          29          30
 IAtWgt=           1           1           1           1           1           1           1           1           1           1
 AtmWgt=   1.0078250   1.0078250   1.0078250   1.0078250   1.0078250   1.0078250   1.0078250   1.0078250   1.0078250   1.0078250
 NucSpn=           1           1           1           1           1           1           1           1           1           1
 AtZEff=  -0.0000000  -0.0000000  -0.0000000  -0.0000000  -0.0000000  -0.0000000  -0.0000000  -0.0000000  -0.0000000  -0.0000000
 NQMom=    0.0000000   0.0000000   0.0000000   0.0000000   0.0000000   0.0000000   0.0000000   0.0000000   0.0000000   0.0000000
 NMagM=    2.7928460   2.7928460   2.7928460   2.7928460   2.7928460   2.7928460   2.7928460   2.7928460   2.7928460   2.7928460
 AtZNuc=   1.0000000   1.0000000   1.0000000   1.0000000   1.0000000   1.0000000   1.0000000   1.0000000   1.0000000   1.0000000
 Leave Link  101 at Sun Jan 21 06:50:45 2024, MaxMem=  4026531840 cpu:               0.8 elap:               0.2
 (Enter /sysapps/ubuntu-applications/gaussian/Gaussian/AVX2/g16/l202.exe)
                          Input orientation:                          
 ---------------------------------------------------------------------
 Center     Atomic      Atomic             Coordinates (Angstroms)
 Number     Number       Type             X           Y           Z
 ---------------------------------------------------------------------
      1          6           0        0.641353   -1.708717   -0.924231
      2          6           0       -0.556711   -1.142163   -0.219185
      3          6           0       -0.475477    0.013878    0.465461
      4          6           0        0.816574    0.780233    0.551000
      5          6           0        1.995312    0.183216   -0.149114
      6          6           0        1.943843   -0.963842   -0.851972
      7          8           0        0.565892   -2.748608   -1.543241
      8          8           0        0.887122    1.823305    1.156051
      9         35           0       -2.137739   -2.160607   -0.374881
     10         35           0       -1.927120    0.799957    1.377581
     11         35           0        3.598036    1.194526    0.029748
     12          6           0        3.102630   -1.607539   -1.557805
     13          6           0        3.840070   -2.632250   -0.666467
     14          6           0        5.013594   -3.294253   -1.396150
     15          6           0        5.761685   -4.315972   -0.532593
     16          6           0        6.937325   -4.983450   -1.255530
     17          6           0        7.679459   -6.003466   -0.387232
     18          1           0        3.802514   -0.834642   -1.879753
     19          1           0        2.724900   -2.119739   -2.444949
     20          1           0        3.130927   -3.400225   -0.340947
     21          1           0        4.203619   -2.129244    0.236180
     22          1           0        5.715048   -2.520014   -1.732130
     23          1           0        4.642731   -3.787515   -2.303283
     24          1           0        5.059240   -5.089222   -0.195930
     25          1           0        6.130140   -3.822773    0.376219
     26          1           0        7.639269   -4.210820   -1.592113
     27          1           0        6.569058   -5.476044   -2.163572
     28          1           0        8.089888   -5.533557    0.512144
     29          1           0        8.510506   -6.460905   -0.931039
     30          1           0        7.011543   -6.808044   -0.063797
 ---------------------------------------------------------------------
                    Distance matrix (angstroms):
                    1          2          3          4          5
     1  C    0.000000
     2  C    1.501143   0.000000
     3  C    2.479090   1.346020   0.000000
     4  C    2.898600   2.484895   1.504664   0.000000
     5  C    2.452228   2.876519   2.551701   1.495330   0.000000
     6  C    1.502179   2.585534   2.923128   2.506165   1.346254
     7  O    1.212535   2.365170   3.570807   4.111132   3.547171
     8  O    4.106477   3.573504   2.368041   1.207917   2.370956
     9  Br   2.868683   1.887093   2.863158   4.270101   4.756741
    10  Br   4.264837   2.863479   1.886041   2.865568   4.254015
    11  Br   4.252161   4.773259   4.263483   2.860048   1.903540
    12  C    2.543529   3.924188   4.418761   3.921041   2.533252
    13  C    3.339333   4.663915   5.187215   4.718982   3.405530
    14  C    4.674732   6.086463   6.673772   6.165047   4.770526
    15  C    5.759250   7.077670   7.658061   7.183286   5.880078
    16  C    7.104428   8.484696   9.104105   8.599255   7.234783
    17  C    8.262456   9.565302  10.170472   9.695259   8.404836
    18  H    3.416134   4.674922   4.951891   4.175191   2.701319
    19  H    2.612028   4.083950   4.823403   4.585549   3.332680
    20  H    3.065844   4.325777   5.031157   4.860867   3.763970
    21  H    3.770031   4.882871   5.151648   4.476186   3.220643
    22  H    5.201277   6.597154   7.040782   6.332406   4.863109
    23  H    4.715317   6.194800   6.950726   6.606870   5.236027
    24  H    5.610344   6.864308   7.557259   7.280702   6.098233
    25  H    6.023885   7.228703   7.639505   7.032226   5.781066
    26  H    7.461730   8.858650   9.377142   8.720821   7.296852
    27  H    7.132069   8.563863   9.310023   8.921938   7.550127
    28  H    8.495484   9.725372  10.204984   9.631539   8.382280
    29  H    9.192764  10.536137  11.163374  10.668979   9.338282
    30  H    8.205047   9.455412  10.142692   9.815170   8.605090
                    6          7          8          9         10
     6  C    0.000000
     7  O    2.358387   0.000000
     8  O    3.594023   5.318999   0.000000
     9  Br   4.280090   3.003403   5.231165   0.000000
    10  Br   4.802733   5.228635   3.002711   3.446799   0.000000
    11  Br   2.858730   5.216943   3.002162   6.657309   5.700850
    12  C    1.501777   2.781599   4.903487   5.400617   6.301660
    13  C    2.532523   3.391536   5.647428   6.003471   7.015601
    14  C    3.892341   4.483460   7.052014   7.312298   8.522303
    15  C    5.090648   5.520354   8.018953   8.189711   9.430759
    16  C    6.423003   6.758140   9.420859   9.544672  10.906854
    17  C    7.649254   7.907799  10.477400  10.542537  11.903255
    18  H    2.127836   3.775212   4.977981   6.269723   6.790497
    19  H    2.117480   2.422781   5.647320   5.285084   6.691610
    20  H    2.757948   2.906806   5.878854   5.412638   6.795492
    21  H    2.765651   4.096707   5.240988   6.370808   6.889773
    22  H    4.173528   5.157688   7.107382   7.977315   8.893551
    23  H    4.166945   4.275232   7.586362   7.234662   8.817970
    24  H    5.211032   5.242509   8.186419   7.772086   9.271871
    25  H    5.216035   5.983228   7.744390   8.466686   9.343008
    26  H    6.597617   7.223096   9.463327  10.063544  11.200124
    27  H    6.593396   6.622818   9.827756   9.486825  11.140601
    28  H    7.779266   8.281972  10.315904  10.805922  11.882880
    29  H    8.564170   8.790497  11.449894  11.497260  12.922611
    30  H    7.775442   7.759780  10.653485  10.266684  11.826197
                   11         12         13         14         15
    11  Br   0.000000
    12  C    3.258423   0.000000
    13  C    3.897116   1.545424   0.000000
    14  C    4.917939   2.554001   1.532268   0.000000
    15  C    5.946696   3.931570   2.558407   1.532736   0.000000
    16  C    7.139340   5.117913   3.932954   2.563962   1.533067
    17  C    8.285106   6.453044   5.117028   3.932504   2.558637
    18  H    2.793838   1.091264   2.169071   2.783931   4.215786
    19  H    4.227392   1.091812   2.160849   2.778054   4.207447
    20  H    4.633286   2.166857   1.094821   2.160814   2.792169
    21  H    3.384788   2.168579   1.095424   2.162824   2.792913
    22  H    4.624258   2.772675   2.159578   1.097436   2.160215
    23  H    5.599567   2.771271   2.158256   1.097150   2.160247
    24  H    6.455349   4.219614   2.782893   2.159751   1.097582
    25  H    5.630709   4.220607   2.783695   2.160394   1.097699
    26  H    6.941164   5.230616   4.216944   2.787950   2.158463
    27  H    7.624574   5.229571   4.216143   2.787224   2.158173
    28  H    8.104106   6.676155   5.278983   4.256719   2.827458
    29  H    9.146644   7.293361   6.044962   4.740507   3.509347
    30  H    8.700684   6.675096   5.278135   4.256018   2.827072
                   16         17         18         19         20
    16  C    0.000000
    17  C    1.531384   0.000000
    18  H    5.237299   6.631370   0.000000
    19  H    5.230687   6.623080   1.769795   0.000000
    20  H    4.222763   5.241007   3.066133   2.496263   0.000000
    21  H    4.224315   5.242109   2.512778   3.061887   1.760436
    22  H    2.790990   4.219253   2.553440   3.099890   3.063959
    23  H    2.791632   4.219408   3.099161   2.545510   2.507251
    24  H    2.158968   2.781724   4.745110   4.396028   2.567515
    25  H    2.159010   2.781846   4.408648   4.738668   3.112580
    26  H    1.096800   2.160309   5.118789   5.408417   4.748434
    27  H    1.096727   2.160219   5.410816   5.110920   4.410412
    28  H    2.180755   1.094597   6.795774   7.012963   5.465360
    29  H    2.182445   1.093442   7.397302   7.389918   6.217382
    30  H    2.180569   1.094563   7.019765   6.784202   5.171965
                   21         22         23         24         25
    21  H    0.000000
    22  H    2.512243   0.000000
    23  H    3.064564   1.755744   0.000000
    24  H    3.111314   3.064445   2.511744   0.000000
    25  H    2.568878   2.512890   3.064859   1.754444   0.000000
    26  H    4.413537   2.565357   3.108728   3.062265   2.510454
    27  H    4.749230   3.107022   2.565421   2.510139   3.062106
    28  H    5.173837   4.445005   4.781023   3.143824   2.604970
    29  H    6.218920   4.897648   4.897933   3.785913   3.786133
    30  H    5.464942   4.780318   4.444116   2.604476   3.143617
                   26         27         28         29         30
    26  H    0.000000
    27  H    1.752914   0.000000
    28  H    2.525983   3.078261   0.000000
    29  H    2.501790   2.501661   1.766259   0.000000
    30  H    3.078208   2.525682   1.766027   1.766212   0.000000
 Stoichiometry    C12H13Br3O2
 Framework group  C1[X(C12H13Br3O2)]
 Deg. of freedom    84
 Full point group                 C1      NOp   1
 Largest Abelian subgroup         C1      NOp   1
 Largest concise Abelian subgroup C1      NOp   1
                         Standard orientation:                         
 ---------------------------------------------------------------------
 Center     Atomic      Atomic             Coordinates (Angstroms)
 Number     Number       Type             X           Y           Z
 ---------------------------------------------------------------------
      1          6           0       -0.265513   -1.069276   -0.673723
      2          6           0       -1.691737   -0.972553   -0.215510
      3          6           0       -2.223440    0.208546    0.150642
      4          6           0       -1.410181    1.474012    0.115770
      5          6           0        0.010824    1.343112   -0.331021
      6          6           0        0.568363    0.179512   -0.715190
      7          8           0        0.211180   -2.133426   -1.006275
      8          8           0       -1.890205    2.535868    0.433736
      9         35           0       -2.644174   -2.601595   -0.201163
     10         35           0       -4.003388    0.424124    0.735845
     11         35           0        0.981633    2.980447   -0.319835
     12          6           0        1.992245   -0.002117   -1.156672
     13          6           0        2.928573   -0.378978    0.013627
     14          6           0        4.377368   -0.574746   -0.445191
     15          6           0        5.326667   -0.949875    0.698220
     16          6           0        6.778501   -1.148074    0.247453
     17          6           0        7.720967   -1.523438    1.394621
     18          1           0        2.344931    0.919259   -1.623081
     19          1           0        2.023171   -0.798375   -1.903043
     20          1           0        2.564956   -1.299516    0.481627
     21          1           0        2.886242    0.406063    0.776433
     22          1           0        4.733284    0.345642   -0.925375
     23          1           0        4.409845   -1.355526   -1.215298
     24          1           0        4.969335   -1.869710    1.178745
     25          1           0        5.291785   -0.169892    1.469811
     26          1           0        7.135634   -0.228987   -0.232866
     27          1           0        6.813164   -1.927289   -0.523541
     28          1           0        7.734895   -0.746722    2.165764
     29          1           0        8.746785   -1.657714    1.040668
     30          1           0        7.409849   -2.457653    1.872655
 ---------------------------------------------------------------------
 Rotational constants (GHZ):           0.2920857           0.1097531           0.0839469
 Leave Link  202 at Sun Jan 21 06:50:45 2024, MaxMem=  4026531840 cpu:               0.3 elap:               0.1
 (Enter /sysapps/ubuntu-applications/gaussian/Gaussian/AVX2/g16/l301.exe)
 Standard basis: 6-311++G(d,p) (5D, 7F)
 Ernie: Thresh=  0.10000D-02 Tol=  0.10000D-05 Strict=F.
 There are   566 symmetry adapted cartesian basis functions of A   symmetry.
 There are   543 symmetry adapted basis functions of A   symmetry.
   543 basis functions,   903 primitive gaussians,   566 cartesian basis functions
   103 alpha electrons      103 beta electrons
       nuclear repulsion energy      2442.9312999565 Hartrees.
 IExCor=  402 DFT=T Ex+Corr=B3LYP ExCW=0 ScaHFX=  0.200000
 ScaDFX=  0.800000  0.720000  1.000000  0.810000 ScalE2=  1.000000  1.000000
 IRadAn=      5 IRanWt=     -1 IRanGd=            0 ICorTp=0 IEmpDi=  4
 NAtoms=   30 NActive=   30 NUniq=   30 SFac= 1.00D+00 NAtFMM=   60 NAOKFM=F Big=F
 Integral buffers will be    131072 words long.
 Raffenetti 2 integral format.
 Two-electron integral symmetry is turned on.
 ------------------------------------------------------------------------------
 Polarizable Continuum Model (PCM)
 =================================
 Model                : PCM.
 Atomic radii         : UFF (Universal Force Field).
 Polarization charges : Total charges.
 Charge compensation  : None.
 Solution method      : On-the-fly selection.
 Cavity type          : Scaled VdW (van der Waals Surface) (Alpha=1.100).
 Cavity algorithm     : GePol (No added spheres)
                        Default sphere list used, NSphG=   30.
                        Lebedev-Laikov grids with approx.  5.0 points / Ang**2.
                        Smoothing algorithm: York/Karplus (Gamma=1.0000).
                        Polarization charges: spherical gaussians, with
                                              point-specific exponents (IZeta= 3).
                        Self-potential: point-specific (ISelfS= 7).
                        Self-field    : sphere-specific E.n sum rule (ISelfD= 2).
 Solvent              : n,n-DiMethylFormamide, Eps=  37.219000 Eps(inf)=   2.046330
 ------------------------------------------------------------------------------
 GePol: Number of generator spheres                  =      30
 GePol: Total number of spheres                      =      30
 GePol: Number of exposed spheres                    =      30 (100.00%)
 GePol: Number of points                             =    2733
 GePol: Average weight of points                     =       0.13
 GePol: Minimum weight of points                     =   0.53D-10
 GePol: Maximum weight of points                     =    0.20577
 GePol: Number of points with low weight             =     139
 GePol: Fraction of low-weight points (<1% of avg)   =       5.09%
 GePol: Cavity surface area                          =    362.290 Ang**2
 GePol: Cavity volume                                =    389.543 Ang**3
 Leave Link  301 at Sun Jan 21 06:50:45 2024, MaxMem=  4026531840 cpu:               0.6 elap:               0.2
 (Enter /sysapps/ubuntu-applications/gaussian/Gaussian/AVX2/g16/l302.exe)
 NPDir=0 NMtPBC=     1 NCelOv=     1 NCel=       1 NClECP=     1 NCelD=      1
         NCelK=      1 NCelE2=     1 NClLst=     1 CellRange=     0.0.
 One-electron integrals computed using PRISM.
 One-electron integral symmetry used in STVInt
 NBasis=   543 RedAO= T EigKep=  1.04D-06  NBF=   543
 NBsUse=   542 1.00D-06 EigRej=  7.03D-07 NBFU=   542
 Precomputing XC quadrature grid using
 IXCGrd= 4 IRadAn=           5 IRanWt=          -1 IRanGd=           0 AccXCQ= 0.00D+00.
 Generated NRdTot=       0 NPtTot=           0 NUsed=           0 NTot=          32
 NSgBfM=   531   531   531   531   531 MxSgAt=    30 MxSgA2=    30.
 Leave Link  302 at Sun Jan 21 06:50:47 2024, MaxMem=  4026531840 cpu:               8.6 elap:               1.6
 (Enter /sysapps/ubuntu-applications/gaussian/Gaussian/AVX2/g16/l303.exe)
 DipDrv:  MaxL=1.
 Leave Link  303 at Sun Jan 21 06:50:47 2024, MaxMem=  4026531840 cpu:               0.7 elap:               0.2
 (Enter /sysapps/ubuntu-applications/gaussian/Gaussian/AVX2/g16/l401.exe)
 ExpMin= 3.50D-02 ExpMax= 4.40D+05 ExpMxC= 1.51D+04 IAcc=3 IRadAn=         5 AccDes= 0.00D+00
 Harris functional with IExCor=  402 and IRadAn=       5 diagonalized for initial guess.
 HarFok:  IExCor=  402 AccDes= 0.00D+00 IRadAn=         5 IDoV= 1 UseB2=F ITyADJ=14
 ICtDFT=  3500011 ScaDFX=  1.000000  1.000000  1.000000  1.000000
 FoFCou: FMM=F IPFlag=           0 FMFlag=      100000 FMFlg1=           0
         NFxFlg=           0 DoJE=T BraDBF=F KetDBF=T FulRan=T
         wScrn=  0.000000 ICntrl=       500 IOpCl=  0 I1Cent=   200000004 NGrid=           0
         NMat0=    1 NMatS0=      1 NMatT0=    0 NMatD0=    1 NMtDS0=    0 NMtDT0=    0
 Petite list used in FoFCou.
 Harris En= -8338.39323957443    
 JPrj=0 DoOrth=F DoCkMO=F.
 Initial guess <Sx>= 0.0000 <Sy>= 0.0000 <Sz>= 0.0000 <S**2>=-0.0000 S=-0.0000
 Leave Link  401 at Sun Jan 21 06:50:50 2024, MaxMem=  4026531840 cpu:              18.2 elap:               2.4
 (Enter /sysapps/ubuntu-applications/gaussian/Gaussian/AVX2/g16/l502.exe)
 Integral symmetry usage will be decided dynamically.
 UHF open shell SCF:
 Using DIIS extrapolation, IDIIS=  1040.
 NGot=  4026531840 LenX=  4025881353 LenY=  4025560431
 Requested convergence on RMS density matrix=1.00D-08 within 128 cycles.
 Requested convergence on MAX density matrix=1.00D-06.
 Requested convergence on             energy=1.00D-06.
 No special actions if energy rises.
 Fock matrices will be formed incrementally for  20 cycles.

 Cycle   1  Pass 1  IDiag  1:
 FoFJK:  IHMeth= 1 ICntrl=       0 DoSepK=F KAlg= 0 I1Cent=           0 FoldK=F
 IRaf= 760000000 NMat=       1 IRICut=       1 DoRegI=T DoRafI=F ISym2E= 0 IDoP0=0 IntGTp=1.
 FoFCou: FMM=F IPFlag=           0 FMFlag=      100000 FMFlg1=           0
         NFxFlg=           0 DoJE=F BraDBF=F KetDBF=F FulRan=T
         wScrn=  0.000000 ICntrl=         0 IOpCl=  1 I1Cent=           0 NGrid=           0
         NMat0=    1 NMatS0=      1 NMatT0=    0 NMatD0=    1 NMtDS0=    0 NMtDT0=    0
 Symmetry not used in FoFCou.
 Inv3:  Mode=1 IEnd=    22407867.
 Iteration    1 A*A^-1 deviation from unit magnitude is 3.89D-15 for     98.
 Iteration    1 A*A^-1 deviation from orthogonality  is 1.51D-15 for   1180    232.
 Iteration    1 A^-1*A deviation from unit magnitude is 3.66D-15 for     98.
 Iteration    1 A^-1*A deviation from orthogonality  is 1.73D-15 for   1803    450.
 E= -8337.62345056609    
 DIIS: error= 6.90D-02 at cycle   1 NSaved=   1.
 NSaved= 1 IEnMin= 1 EnMin= -8337.62345056609     IErMin= 1 ErrMin= 6.90D-02
 ErrMax= 6.90D-02  0.00D+00 EMaxC= 1.00D-01 BMatC= 1.62D+01 BMatP= 1.62D+01
 IDIUse=3 WtCom= 3.10D-01 WtEn= 6.90D-01
 Coeff-Com:  0.100D+01
 Coeff-En:   0.100D+01
 Coeff:      0.100D+01
 Gap=     0.156 Goal=   None    Shift=    0.000
 Gap=     0.156 Goal=   None    Shift=    0.000
 GapD=    0.156 DampG=1.000 DampE=0.500 DampFc=0.5000 IDamp=-1.
 Damping current iteration by 5.00D-01
 RMSDP=2.33D-02 MaxDP=1.52D+00              OVMax= 2.38D-01

 Cycle   2  Pass 1  IDiag  1:
 RMSU=  1.04D-02    CP:  9.03D-01
 E= -8337.79285712880     Delta-E=       -0.169406562703 Rises=F Damp=T
 DIIS: error= 3.34D-02 at cycle   2 NSaved=   2.
 NSaved= 2 IEnMin= 2 EnMin= -8337.79285712880     IErMin= 2 ErrMin= 3.34D-02
 ErrMax= 3.34D-02  0.00D+00 EMaxC= 1.00D-01 BMatC= 2.52D+00 BMatP= 1.62D+01
 IDIUse=3 WtCom= 6.66D-01 WtEn= 3.34D-01
 Coeff-Com: -0.282D+00 0.128D+01
 Coeff-En:   0.283D+00 0.717D+00
 Coeff:     -0.932D-01 0.109D+01
 Gap=     0.174 Goal=   None    Shift=    0.000
 Gap=     0.174 Goal=   None    Shift=    0.000
 RMSDP=1.58D-02 MaxDP=2.35D+00 DE=-1.69D-01 OVMax= 3.42D-01

 Cycle   3  Pass 1  IDiag  1:
 RMSU=  8.88D-03    CP:  6.70D-01  6.02D-01
 E= -8337.86625405127     Delta-E=       -0.073396922471 Rises=F Damp=F
 DIIS: error= 2.65D-02 at cycle   3 NSaved=   3.
 NSaved= 3 IEnMin= 3 EnMin= -8337.86625405127     IErMin= 3 ErrMin= 2.65D-02
 ErrMax= 2.65D-02  0.00D+00 EMaxC= 1.00D-01 BMatC= 1.46D+00 BMatP= 2.52D+00
 IDIUse=3 WtCom= 7.35D-01 WtEn= 2.65D-01
 Coeff-Com: -0.237D+00 0.665D+00 0.572D+00
 Coeff-En:   0.000D+00 0.396D+00 0.604D+00
 Coeff:     -0.174D+00 0.594D+00 0.581D+00
 Gap=     0.119 Goal=   None    Shift=    0.000
 Gap=     0.119 Goal=   None    Shift=    0.000
 RMSDP=8.54D-03 MaxDP=1.60D+00 DE=-7.34D-02 OVMax= 1.72D-01

 Cycle   4  Pass 1  IDiag  1:
 RMSU=  2.99D-03    CP:  7.66D-01  1.10D+00  6.32D-01
 E= -8338.03383167422     Delta-E=       -0.167577622953 Rises=F Damp=F
 DIIS: error= 1.60D-02 at cycle   4 NSaved=   4.
 NSaved= 4 IEnMin= 4 EnMin= -8338.03383167422     IErMin= 4 ErrMin= 1.60D-02
 ErrMax= 1.60D-02  0.00D+00 EMaxC= 1.00D-01 BMatC= 5.48D-01 BMatP= 1.46D+00
 IDIUse=3 WtCom= 8.40D-01 WtEn= 1.60D-01
 Coeff-Com: -0.110D+00 0.264D+00 0.419D+00 0.427D+00
 Coeff-En:   0.000D+00 0.000D+00 0.315D+00 0.685D+00
 Coeff:     -0.925D-01 0.222D+00 0.402D+00 0.468D+00
 Gap=     0.151 Goal=   None    Shift=    0.000
 Gap=     0.151 Goal=   None    Shift=    0.000
 RMSDP=5.31D-03 MaxDP=1.01D+00 DE=-1.68D-01 OVMax= 1.05D-01

 Cycle   5  Pass 1  IDiag  1:
 RMSU=  1.28D-03    CP:  6.92D-01  8.85D-01  7.57D-01  2.85D-01
 E= -8338.13153516974     Delta-E=       -0.097703495525 Rises=F Damp=F
 DIIS: error= 2.37D-03 at cycle   5 NSaved=   5.
 NSaved= 5 IEnMin= 5 EnMin= -8338.13153516974     IErMin= 5 ErrMin= 2.37D-03
 ErrMax= 2.37D-03  0.00D+00 EMaxC= 1.00D-01 BMatC= 1.92D-02 BMatP= 5.48D-01
 IDIUse=3 WtCom= 9.76D-01 WtEn= 2.37D-02
 Coeff-Com: -0.191D-01 0.455D-01 0.124D+00 0.235D+00 0.615D+00
 Coeff-En:   0.000D+00 0.000D+00 0.000D+00 0.860D-02 0.991D+00
 Coeff:     -0.186D-01 0.444D-01 0.121D+00 0.229D+00 0.624D+00
 Gap=     0.121 Goal=   None    Shift=    0.000
 Gap=     0.121 Goal=   None    Shift=    0.000
 RMSDP=1.18D-03 MaxDP=2.19D-01 DE=-9.77D-02 OVMax= 1.50D-02

 Cycle   6  Pass 1  IDiag  1:
 RMSU=  3.38D-04    CP:  7.07D-01  8.95D-01  7.79D-01  5.15D-01  6.95D-01
 E= -8338.13578023673     Delta-E=       -0.004245066986 Rises=F Damp=F
 DIIS: error= 6.85D-04 at cycle   6 NSaved=   6.
 NSaved= 6 IEnMin= 6 EnMin= -8338.13578023673     IErMin= 6 ErrMin= 6.85D-04
 ErrMax= 6.85D-04  0.00D+00 EMaxC= 1.00D-01 BMatC= 1.50D-03 BMatP= 1.92D-02
 IDIUse=3 WtCom= 9.93D-01 WtEn= 6.85D-03
 Coeff-Com:  0.678D-03-0.126D-02 0.184D-01 0.685D-01 0.344D+00 0.570D+00
 Coeff-En:   0.000D+00 0.000D+00 0.000D+00 0.000D+00 0.429D-01 0.957D+00
 Coeff:      0.673D-03-0.126D-02 0.183D-01 0.680D-01 0.342D+00 0.573D+00
 Gap=     0.122 Goal=   None    Shift=    0.000
 Gap=     0.122 Goal=   None    Shift=    0.000
 RMSDP=2.60D-04 MaxDP=5.61D-02 DE=-4.25D-03 OVMax= 5.71D-03

 Cycle   7  Pass 1  IDiag  1:
 RMSU=  1.20D-04    CP:  7.04D-01  8.86D-01  7.76D-01  4.84D-01  7.66D-01
                    CP:  6.65D-01
 E= -8338.13615761287     Delta-E=       -0.000377376138 Rises=F Damp=F
 DIIS: error= 2.25D-04 at cycle   7 NSaved=   7.
 NSaved= 7 IEnMin= 7 EnMin= -8338.13615761287     IErMin= 7 ErrMin= 2.25D-04
 ErrMax= 2.25D-04  0.00D+00 EMaxC= 1.00D-01 BMatC= 1.60D-04 BMatP= 1.50D-03
 IDIUse=3 WtCom= 9.98D-01 WtEn= 2.25D-03
 Coeff-Com:  0.236D-02-0.510D-02-0.209D-02 0.145D-01 0.139D+00 0.330D+00
 Coeff-Com:  0.521D+00
 Coeff-En:   0.000D+00 0.000D+00 0.000D+00 0.000D+00 0.000D+00 0.000D+00
 Coeff-En:   0.100D+01
 Coeff:      0.236D-02-0.509D-02-0.208D-02 0.145D-01 0.139D+00 0.329D+00
 Coeff:      0.522D+00
 Gap=     0.122 Goal=   None    Shift=    0.000
 Gap=     0.122 Goal=   None    Shift=    0.000
 RMSDP=7.65D-05 MaxDP=8.53D-03 DE=-3.77D-04 OVMax= 1.66D-03

 Cycle   8  Pass 1  IDiag  1:
 RMSU=  3.67D-05    CP:  7.04D-01  8.89D-01  7.75D-01  4.81D-01  7.83D-01
                    CP:  7.61D-01  7.19D-01
 E= -8338.13619351166     Delta-E=       -0.000035898795 Rises=F Damp=F
 DIIS: error= 6.04D-05 at cycle   8 NSaved=   8.
 NSaved= 8 IEnMin= 8 EnMin= -8338.13619351166     IErMin= 8 ErrMin= 6.04D-05
 ErrMax= 6.04D-05  0.00D+00 EMaxC= 1.00D-01 BMatC= 1.09D-05 BMatP= 1.60D-04
 IDIUse=1 WtCom= 1.00D+00 WtEn= 0.00D+00
 Coeff-Com:  0.111D-02-0.240D-02-0.152D-02 0.407D-02 0.572D-01 0.152D+00
 Coeff-Com:  0.291D+00 0.498D+00
 Coeff:      0.111D-02-0.240D-02-0.152D-02 0.407D-02 0.572D-01 0.152D+00
 Coeff:      0.291D+00 0.498D+00
 Gap=     0.122 Goal=   None    Shift=    0.000
 Gap=     0.122 Goal=   None    Shift=    0.000
 RMSDP=1.73D-05 MaxDP=1.97D-03 DE=-3.59D-05 OVMax= 6.68D-04

 Cycle   9  Pass 1  IDiag  1:
 RMSU=  1.17D-05    CP:  7.04D-01  8.89D-01  7.76D-01  4.82D-01  7.81D-01
                    CP:  7.60D-01  7.30D-01  7.69D-01
 E= -8338.13619536625     Delta-E=       -0.000001854583 Rises=F Damp=F
 DIIS: error= 2.76D-05 at cycle   9 NSaved=   9.
 NSaved= 9 IEnMin= 9 EnMin= -8338.13619536625     IErMin= 9 ErrMin= 2.76D-05
 ErrMax= 2.76D-05  0.00D+00 EMaxC= 1.00D-01 BMatC= 2.00D-06 BMatP= 1.09D-05
 IDIUse=1 WtCom= 1.00D+00 WtEn= 0.00D+00
 Coeff-Com:  0.319D-03-0.697D-03-0.526D-03 0.137D-04 0.144D-01 0.483D-01
 Coeff-Com:  0.110D+00 0.318D+00 0.511D+00
 Coeff:      0.319D-03-0.697D-03-0.526D-03 0.137D-04 0.144D-01 0.483D-01
 Coeff:      0.110D+00 0.318D+00 0.511D+00
 Gap=     0.122 Goal=   None    Shift=    0.000
 Gap=     0.122 Goal=   None    Shift=    0.000
 RMSDP=6.40D-06 MaxDP=6.13D-04 DE=-1.85D-06 OVMax= 2.53D-04

 Cycle  10  Pass 1  IDiag  1:
 RMSU=  4.18D-06    CP:  7.04D-01  8.88D-01  7.76D-01  4.82D-01  7.81D-01
                    CP:  7.59D-01  7.38D-01  7.91D-01  6.49D-01
 E= -8338.13619574372     Delta-E=       -0.000000377477 Rises=F Damp=F
 DIIS: error= 7.04D-06 at cycle  10 NSaved=  10.
 NSaved=10 IEnMin=10 EnMin= -8338.13619574372     IErMin=10 ErrMin= 7.04D-06
 ErrMax= 7.04D-06  0.00D+00 EMaxC= 1.00D-01 BMatC= 1.78D-07 BMatP= 2.00D-06
 IDIUse=1 WtCom= 1.00D+00 WtEn= 0.00D+00
 Coeff-Com:  0.684D-04-0.154D-03-0.108D-03-0.483D-03 0.170D-02 0.102D-01
 Coeff-Com:  0.284D-01 0.124D+00 0.299D+00 0.537D+00
 Coeff:      0.684D-04-0.154D-03-0.108D-03-0.483D-03 0.170D-02 0.102D-01
 Coeff:      0.284D-01 0.124D+00 0.299D+00 0.537D+00
 Gap=     0.122 Goal=   None    Shift=    0.000
 Gap=     0.122 Goal=   None    Shift=    0.000
 RMSDP=2.60D-06 MaxDP=3.11D-04 DE=-3.77D-07 OVMax= 4.35D-05

 Cycle  11  Pass 1  IDiag  1:
 RMSU=  1.34D-06    CP:  7.04D-01  8.88D-01  7.76D-01  4.82D-01  7.81D-01
                    CP:  7.59D-01  7.37D-01  7.94D-01  7.13D-01  7.71D-01
 E= -8338.13619577819     Delta-E=       -0.000000034470 Rises=F Damp=F
 DIIS: error= 1.65D-06 at cycle  11 NSaved=  11.
 NSaved=11 IEnMin=11 EnMin= -8338.13619577819     IErMin=11 ErrMin= 1.65D-06
 ErrMax= 1.65D-06  0.00D+00 EMaxC= 1.00D-01 BMatC= 1.39D-08 BMatP= 1.78D-07
 IDIUse=1 WtCom= 1.00D+00 WtEn= 0.00D+00
 Coeff-Com:  0.109D-04-0.257D-04-0.150D-04-0.220D-03-0.500D-03 0.279D-03
 Coeff-Com:  0.212D-02 0.279D-01 0.960D-01 0.278D+00 0.596D+00
 Coeff:      0.109D-04-0.257D-04-0.150D-04-0.220D-03-0.500D-03 0.279D-03
 Coeff:      0.212D-02 0.279D-01 0.960D-01 0.278D+00 0.596D+00
 Gap=     0.122 Goal=   None    Shift=    0.000
 Gap=     0.122 Goal=   None    Shift=    0.000
 RMSDP=8.15D-07 MaxDP=8.28D-05 DE=-3.45D-08 OVMax= 3.35D-05

 Cycle  12  Pass 1  IDiag  1:
 RMSU=  4.61D-07    CP:  7.04D-01  8.88D-01  7.76D-01  4.82D-01  7.81D-01
                    CP:  7.60D-01  7.38D-01  7.91D-01  7.13D-01  8.51D-01
                    CP:  8.86D-01
 E= -8338.13619578123     Delta-E=       -0.000000003034 Rises=F Damp=F
 DIIS: error= 9.76D-07 at cycle  12 NSaved=  12.
 NSaved=12 IEnMin=12 EnMin= -8338.13619578123     IErMin=12 ErrMin= 9.76D-07
 ErrMax= 9.76D-07  0.00D+00 EMaxC= 1.00D-01 BMatC= 2.18D-09 BMatP= 1.39D-08
 IDIUse=1 WtCom= 1.00D+00 WtEn= 0.00D+00
 Coeff-Com: -0.437D-05 0.876D-05-0.484D-06-0.608D-04-0.499D-03-0.107D-02
 Coeff-Com: -0.243D-02-0.261D-03 0.120D-01 0.747D-01 0.330D+00 0.587D+00
 Coeff:     -0.437D-05 0.876D-05-0.484D-06-0.608D-04-0.499D-03-0.107D-02
 Coeff:     -0.243D-02-0.261D-03 0.120D-01 0.747D-01 0.330D+00 0.587D+00
 Gap=     0.122 Goal=   None    Shift=    0.000
 Gap=     0.122 Goal=   None    Shift=    0.000
 RMSDP=2.24D-07 MaxDP=1.82D-05 DE=-3.03D-09 OVMax= 5.15D-06

 Cycle  13  Pass 1  IDiag  1:
 RMSU=  1.33D-07    CP:  7.04D-01  8.88D-01  7.76D-01  4.82D-01  7.81D-01
                    CP:  7.60D-01  7.38D-01  7.93D-01  7.16D-01  8.53D-01
                    CP:  9.78D-01  8.90D-01
 E= -8338.13619578158     Delta-E=       -0.000000000355 Rises=F Damp=F
 DIIS: error= 2.37D-07 at cycle  13 NSaved=  13.
 NSaved=13 IEnMin=13 EnMin= -8338.13619578158     IErMin=13 ErrMin= 2.37D-07
 ErrMax= 2.37D-07  0.00D+00 EMaxC= 1.00D-01 BMatC= 2.68D-10 BMatP= 2.18D-09
 IDIUse=1 WtCom= 1.00D+00 WtEn= 0.00D+00
 Coeff-Com: -0.426D-05 0.902D-05 0.131D-05-0.552D-05-0.192D-03-0.508D-03
 Coeff-Com: -0.135D-02-0.273D-02-0.488D-02 0.414D-02 0.111D+00 0.309D+00
 Coeff-Com:  0.586D+00
 Coeff:     -0.426D-05 0.902D-05 0.131D-05-0.552D-05-0.192D-03-0.508D-03
 Coeff:     -0.135D-02-0.273D-02-0.488D-02 0.414D-02 0.111D+00 0.309D+00
 Coeff:      0.586D+00
 Gap=     0.122 Goal=   None    Shift=    0.000
 Gap=     0.122 Goal=   None    Shift=    0.000
 RMSDP=1.24D-07 MaxDP=8.84D-06 DE=-3.55D-10 OVMax= 7.40D-06

 Cycle  14  Pass 1  IDiag  1:
 RMSU=  6.31D-08    CP:  7.04D-01  8.88D-01  7.76D-01  4.82D-01  7.81D-01
                    CP:  7.60D-01  7.38D-01  7.94D-01  7.18D-01  8.57D-01
                    CP:  9.85D-01  9.24D-01  7.44D-01
 E= -8338.13619578180     Delta-E=       -0.000000000222 Rises=F Damp=F
 DIIS: error= 1.40D-07 at cycle  14 NSaved=  14.
 NSaved=14 IEnMin=14 EnMin= -8338.13619578180     IErMin=14 ErrMin= 1.40D-07
 ErrMax= 1.40D-07  0.00D+00 EMaxC= 1.00D-01 BMatC= 4.22D-11 BMatP= 2.68D-10
 IDIUse=1 WtCom= 1.00D+00 WtEn= 0.00D+00
 Coeff-Com: -0.158D-05 0.341D-05 0.105D-05 0.303D-05-0.532D-04-0.169D-03
 Coeff-Com: -0.496D-03-0.145D-02-0.383D-02-0.643D-02 0.198D-01 0.601D-01
 Coeff-Com:  0.325D+00 0.608D+00
 Coeff:     -0.158D-05 0.341D-05 0.105D-05 0.303D-05-0.532D-04-0.169D-03
 Coeff:     -0.496D-03-0.145D-02-0.383D-02-0.643D-02 0.198D-01 0.601D-01
 Coeff:      0.325D+00 0.608D+00
 Gap=     0.122 Goal=   None    Shift=    0.000
 Gap=     0.122 Goal=   None    Shift=    0.000
 RMSDP=4.39D-08 MaxDP=2.90D-06 DE=-2.22D-10 OVMax= 1.06D-06

 Cycle  15  Pass 1  IDiag  1:
 RMSU=  1.91D-08    CP:  7.04D-01  8.88D-01  7.76D-01  4.82D-01  7.81D-01
                    CP:  7.60D-01  7.38D-01  7.94D-01  7.17D-01  8.60D-01
                    CP:  9.97D-01  9.27D-01  8.72D-01  9.40D-01
 E= -8338.13619578178     Delta-E=        0.000000000024 Rises=F Damp=F
 DIIS: error= 2.69D-08 at cycle  15 NSaved=  15.
 NSaved=15 IEnMin=14 EnMin= -8338.13619578180     IErMin=15 ErrMin= 2.69D-08
 ErrMax= 2.69D-08  0.00D+00 EMaxC= 1.00D-01 BMatC= 4.14D-12 BMatP= 4.22D-11
 IDIUse=1 WtCom= 1.00D+00 WtEn= 0.00D+00
 Coeff-Com:  0.504D-08 0.163D-07 0.274D-06 0.213D-05 0.561D-05 0.212D-05
 Coeff-Com: -0.378D-04-0.283D-03-0.120D-02-0.426D-02-0.632D-02-0.251D-01
 Coeff-Com:  0.930D-01 0.265D+00 0.679D+00
 Coeff:      0.504D-08 0.163D-07 0.274D-06 0.213D-05 0.561D-05 0.212D-05
 Coeff:     -0.378D-04-0.283D-03-0.120D-02-0.426D-02-0.632D-02-0.251D-01
 Coeff:      0.930D-01 0.265D+00 0.679D+00
 Gap=     0.122 Goal=   None    Shift=    0.000
 Gap=     0.122 Goal=   None    Shift=    0.000
 RMSDP=1.57D-08 MaxDP=1.86D-06 DE= 2.36D-11 OVMax= 6.66D-07

 Cycle  16  Pass 1  IDiag  1:
 RMSU=  8.36D-09    CP:  7.04D-01  8.88D-01  7.76D-01  4.82D-01  7.81D-01
                    CP:  7.60D-01  7.38D-01  7.94D-01  7.17D-01  8.60D-01
                    CP:  1.00D+00  9.27D-01  9.04D-01  9.92D-01  9.83D-01
 E= -8338.13619578181     Delta-E=       -0.000000000033 Rises=F Damp=F
 DIIS: error= 1.50D-08 at cycle  16 NSaved=  16.
 NSaved=16 IEnMin=16 EnMin= -8338.13619578181     IErMin=16 ErrMin= 1.50D-08
 ErrMax= 1.50D-08  0.00D+00 EMaxC= 1.00D-01 BMatC= 7.69D-13 BMatP= 4.14D-12
 IDIUse=1 WtCom= 1.00D+00 WtEn= 0.00D+00
 Coeff-Com:  0.115D-06-0.231D-06 0.194D-06 0.693D-06 0.677D-05 0.157D-04
 Coeff-Com:  0.190D-04-0.830D-05-0.281D-03-0.166D-02-0.406D-02-0.193D-01
 Coeff-Com:  0.298D-01 0.871D-01 0.407D+00 0.501D+00
 Coeff:      0.115D-06-0.231D-06 0.194D-06 0.693D-06 0.677D-05 0.157D-04
 Coeff:      0.190D-04-0.830D-05-0.281D-03-0.166D-02-0.406D-02-0.193D-01
 Coeff:      0.298D-01 0.871D-01 0.407D+00 0.501D+00
 Gap=     0.122 Goal=   None    Shift=    0.000
 Gap=     0.122 Goal=   None    Shift=    0.000
 RMSDP=5.07D-09 MaxDP=3.99D-07 DE=-3.27D-11 OVMax= 1.90D-07

 Error on total polarization charges =  0.02313
 SCF Done:  E(UB3LYP) =  -8338.13619578     A.U. after   16 cycles
            NFock= 16  Conv=0.51D-08     -V/T= 2.0014
 <Sx>= 0.0000 <Sy>= 0.0000 <Sz>= 0.0000 <S**2>=-0.0000 S=-0.0000
 <L.S>=  0.00000000000    
 KE= 8.326240691538D+03 PE=-2.477510897340D+04 EE= 5.667800786128D+03
 Annihilation of the first spin contaminant:
 S**2 before annihilation    -0.0000,   after     0.0000
 Leave Link  502 at Sun Jan 21 06:54:30 2024, MaxMem=  4026531840 cpu:            1752.3 elap:             220.4
 (Enter /sysapps/ubuntu-applications/gaussian/Gaussian/AVX2/g16/l601.exe)
 Copying SCF densities to generalized density rwf, IOpCl= 1 IROHF=0.

 **********************************************************************

            Population analysis using the SCF density.

 **********************************************************************

 Orbital symmetries:
 Alpha Orbitals:
       Occupied  (A) (A) (A) (A) (A) (A) (A) (A) (A) (A) (A) (A)
                 (A) (A) (A) (A) (A) (A) (A) (A) (A) (A) (A) (A)
                 (A) (A) (A) (A) (A) (A) (A) (A) (A) (A) (A) (A)
                 (A) (A) (A) (A) (A) (A) (A) (A) (A) (A) (A) (A)
                 (A) (A) (A) (A) (A) (A) (A) (A) (A) (A) (A) (A)
                 (A) (A) (A) (A) (A) (A) (A) (A) (A) (A) (A) (A)
                 (A) (A) (A) (A) (A) (A) (A) (A) (A) (A) (A) (A)
                 (A) (A) (A) (A) (A) (A) (A) (A) (A) (A) (A) (A)
                 (A) (A) (A) (A) (A) (A) (A)
       Virtual   (A) (A) (A) (A) (A) (A) (A) (A) (A) (A) (A) (A)
                 (A) (A) (A) (A) (A) (A) (A) (A) (A) (A) (A) (A)
                 (A) (A) (A) (A) (A) (A) (A) (A) (A) (A) (A) (A)
                 (A) (A) (A) (A) (A) (A) (A) (A) (A) (A) (A) (A)
                 (A) (A) (A) (A) (A) (A) (A) (A) (A) (A) (A) (A)
                 (A) (A) (A) (A) (A) (A) (A) (A) (A) (A) (A) (A)
                 (A) (A) (A) (A) (A) (A) (A) (A) (A) (A) (A) (A)
                 (A) (A) (A) (A) (A) (A) (A) (A) (A) (A) (A) (A)
                 (A) (A) (A) (A) (A) (A) (A) (A) (A) (A) (A) (A)
                 (A) (A) (A) (A) (A) (A) (A) (A) (A) (A) (A) (A)
                 (A) (A) (A) (A) (A) (A) (A) (A) (A) (A) (A) (A)
                 (A) (A) (A) (A) (A) (A) (A) (A) (A) (A) (A) (A)
                 (A) (A) (A) (A) (A) (A) (A) (A) (A) (A) (A) (A)
                 (A) (A) (A) (A) (A) (A) (A) (A) (A) (A) (A) (A)
                 (A) (A) (A) (A) (A) (A) (A) (A) (A) (A) (A) (A)
                 (A) (A) (A) (A) (A) (A) (A) (A) (A) (A) (A) (A)
                 (A) (A) (A) (A) (A) (A) (A) (A) (A) (A) (A) (A)
                 (A) (A) (A) (A) (A) (A) (A) (A) (A) (A) (A) (A)
                 (A) (A) (A) (A) (A) (A) (A) (A) (A) (A) (A) (A)
                 (A) (A) (A) (A) (A) (A) (A) (A) (A) (A) (A) (A)
                 (A) (A) (A) (A) (A) (A) (A) (A) (A) (A) (A) (A)
                 (A) (A) (A) (A) (A) (A) (A) (A) (A) (A) (A) (A)
                 (A) (A) (A) (A) (A) (A) (A) (A) (A) (A) (A) (A)
                 (A) (A) (A) (A) (A) (A) (A) (A) (A) (A) (A) (A)
                 (A) (A) (A) (A) (A) (A) (A) (A) (A) (A) (A) (A)
                 (A) (A) (A) (A) (A) (A) (A) (A) (A) (A) (A) (A)
                 (A) (A) (A) (A) (A) (A) (A) (A) (A) (A) (A) (A)
                 (A) (A) (A) (A) (A) (A) (A) (A) (A) (A) (A) (A)
                 (A) (A) (A) (A) (A) (A) (A) (A) (A) (A) (A) (A)
                 (A) (A) (A) (A) (A) (A) (A) (A) (A) (A) (A) (A)
                 (A) (A) (A) (A) (A) (A) (A) (A) (A) (A) (A) (A)
                 (A) (A) (A) (A) (A) (A) (A) (A) (A) (A) (A) (A)
                 (A) (A) (A) (A) (A) (A) (A) (A) (A) (A) (A) (A)
                 (A) (A) (A) (A) (A) (A) (A) (A) (A) (A) (A) (A)
                 (A) (A) (A) (A) (A) (A) (A) (A) (A) (A) (A) (A)
                 (A) (A) (A) (A) (A) (A) (A) (A) (A) (A) (A) (A)
                 (A) (A) (A) (A) (A) (A) (A)
 Beta  Orbitals:
       Occupied  (A) (A) (A) (A) (A) (A) (A) (A) (A) (A) (A) (A)
                 (A) (A) (A) (A) (A) (A) (A) (A) (A) (A) (A) (A)
                 (A) (A) (A) (A) (A) (A) (A) (A) (A) (A) (A) (A)
                 (A) (A) (A) (A) (A) (A) (A) (A) (A) (A) (A) (A)
                 (A) (A) (A) (A) (A) (A) (A) (A) (A) (A) (A) (A)
                 (A) (A) (A) (A) (A) (A) (A) (A) (A) (A) (A) (A)
                 (A) (A) (A) (A) (A) (A) (A) (A) (A) (A) (A) (A)
                 (A) (A) (A) (A) (A) (A) (A) (A) (A) (A) (A) (A)
                 (A) (A) (A) (A) (A) (A) (A)
       Virtual   (A) (A) (A) (A) (A) (A) (A) (A) (A) (A) (A) (A)
                 (A) (A) (A) (A) (A) (A) (A) (A) (A) (A) (A) (A)
                 (A) (A) (A) (A) (A) (A) (A) (A) (A) (A) (A) (A)
                 (A) (A) (A) (A) (A) (A) (A) (A) (A) (A) (A) (A)
                 (A) (A) (A) (A) (A) (A) (A) (A) (A) (A) (A) (A)
                 (A) (A) (A) (A) (A) (A) (A) (A) (A) (A) (A) (A)
                 (A) (A) (A) (A) (A) (A) (A) (A) (A) (A) (A) (A)
                 (A) (A) (A) (A) (A) (A) (A) (A) (A) (A) (A) (A)
                 (A) (A) (A) (A) (A) (A) (A) (A) (A) (A) (A) (A)
                 (A) (A) (A) (A) (A) (A) (A) (A) (A) (A) (A) (A)
                 (A) (A) (A) (A) (A) (A) (A) (A) (A) (A) (A) (A)
                 (A) (A) (A) (A) (A) (A) (A) (A) (A) (A) (A) (A)
                 (A) (A) (A) (A) (A) (A) (A) (A) (A) (A) (A) (A)
                 (A) (A) (A) (A) (A) (A) (A) (A) (A) (A) (A) (A)
                 (A) (A) (A) (A) (A) (A) (A) (A) (A) (A) (A) (A)
                 (A) (A) (A) (A) (A) (A) (A) (A) (A) (A) (A) (A)
                 (A) (A) (A) (A) (A) (A) (A) (A) (A) (A) (A) (A)
                 (A) (A) (A) (A) (A) (A) (A) (A) (A) (A) (A) (A)
                 (A) (A) (A) (A) (A) (A) (A) (A) (A) (A) (A) (A)
                 (A) (A) (A) (A) (A) (A) (A) (A) (A) (A) (A) (A)
                 (A) (A) (A) (A) (A) (A) (A) (A) (A) (A) (A) (A)
                 (A) (A) (A) (A) (A) (A) (A) (A) (A) (A) (A) (A)
                 (A) (A) (A) (A) (A) (A) (A) (A) (A) (A) (A) (A)
                 (A) (A) (A) (A) (A) (A) (A) (A) (A) (A) (A) (A)
                 (A) (A) (A) (A) (A) (A) (A) (A) (A) (A) (A) (A)
                 (A) (A) (A) (A) (A) (A) (A) (A) (A) (A) (A) (A)
                 (A) (A) (A) (A) (A) (A) (A) (A) (A) (A) (A) (A)
                 (A) (A) (A) (A) (A) (A) (A) (A) (A) (A) (A) (A)
                 (A) (A) (A) (A) (A) (A) (A) (A) (A) (A) (A) (A)
                 (A) (A) (A) (A) (A) (A) (A) (A) (A) (A) (A) (A)
                 (A) (A) (A) (A) (A) (A) (A) (A) (A) (A) (A) (A)
                 (A) (A) (A) (A) (A) (A) (A) (A) (A) (A) (A) (A)
                 (A) (A) (A) (A) (A) (A) (A) (A) (A) (A) (A) (A)
                 (A) (A) (A) (A) (A) (A) (A) (A) (A) (A) (A) (A)
                 (A) (A) (A) (A) (A) (A) (A) (A) (A) (A) (A) (A)
                 (A) (A) (A) (A) (A) (A) (A) (A) (A) (A) (A) (A)
                 (A) (A) (A) (A) (A) (A) (A)
 The electronic state is 1-A.
 Alpha  occ. eigenvalues -- -482.86059-482.86008-482.85365 -62.51322 -62.51271
 Alpha  occ. eigenvalues --  -62.50635 -56.33378 -56.33327 -56.32983 -56.32933
 Alpha  occ. eigenvalues --  -56.32929 -56.32879 -56.32682 -56.32295 -56.32251
 Alpha  occ. eigenvalues --  -19.16168 -19.16078 -10.31771 -10.31319 -10.28173
 Alpha  occ. eigenvalues --  -10.28033 -10.27101 -10.23980 -10.18965 -10.17667
 Alpha  occ. eigenvalues --  -10.16659 -10.16337 -10.16274 -10.15604  -8.72292
 Alpha  occ. eigenvalues --   -8.72241  -8.71605  -6.55493  -6.55439  -6.54776
 Alpha  occ. eigenvalues --   -6.54169  -6.54121  -6.54015  -6.53965  -6.53483
 Alpha  occ. eigenvalues --   -6.53360  -2.66580  -2.66527  -2.66226  -2.66175
 Alpha  occ. eigenvalues --   -2.66109  -2.66056  -2.65865  -2.65516  -2.65423
 Alpha  occ. eigenvalues --   -2.65054  -2.65052  -2.65006  -2.65004  -2.64395
 Alpha  occ. eigenvalues --   -2.64393  -1.10073  -1.09670  -0.91112  -0.87816
 Alpha  occ. eigenvalues --   -0.82955  -0.81851  -0.80456  -0.78648  -0.75504
 Alpha  occ. eigenvalues --   -0.72311  -0.70412  -0.65910  -0.61892  -0.61241
 Alpha  occ. eigenvalues --   -0.59077  -0.57882  -0.56771  -0.50897  -0.49213
 Alpha  occ. eigenvalues --   -0.48491  -0.48234  -0.46093  -0.45675  -0.44907
 Alpha  occ. eigenvalues --   -0.44716  -0.44425  -0.43233  -0.42429  -0.40474
 Alpha  occ. eigenvalues --   -0.40209  -0.39604  -0.38155  -0.36557  -0.35721
 Alpha  occ. eigenvalues --   -0.35318  -0.33662  -0.33210  -0.33174  -0.33143
 Alpha  occ. eigenvalues --   -0.32485  -0.32420  -0.31662  -0.31233  -0.30936
 Alpha  occ. eigenvalues --   -0.29494  -0.29241  -0.27372
 Alpha virt. eigenvalues --   -0.15202  -0.05776  -0.05034  -0.03127  -0.02143
 Alpha virt. eigenvalues --   -0.00666  -0.00119  -0.00018   0.00882   0.01074
 Alpha virt. eigenvalues --    0.01588   0.02250   0.02601   0.03363   0.03855
 Alpha virt. eigenvalues --    0.04085   0.04456   0.04482   0.05244   0.05324
 Alpha virt. eigenvalues --    0.05789   0.05987   0.06239   0.06749   0.06987
 Alpha virt. eigenvalues --    0.07283   0.07842   0.08035   0.08569   0.08704
 Alpha virt. eigenvalues --    0.08934   0.09143   0.09602   0.10465   0.10683
 Alpha virt. eigenvalues --    0.11014   0.11628   0.11783   0.12345   0.12541
 Alpha virt. eigenvalues --    0.12789   0.12862   0.13178   0.13350   0.13873
 Alpha virt. eigenvalues --    0.13920   0.14444   0.14839   0.14906   0.15252
 Alpha virt. eigenvalues --    0.15367   0.15701   0.16181   0.16662   0.16831
 Alpha virt. eigenvalues --    0.17005   0.17029   0.17567   0.17693   0.17908
 Alpha virt. eigenvalues --    0.18424   0.18552   0.18852   0.18989   0.19816
 Alpha virt. eigenvalues --    0.20244   0.20282   0.20469   0.20812   0.21300
 Alpha virt. eigenvalues --    0.21488   0.21696   0.21941   0.22169   0.22522
 Alpha virt. eigenvalues --    0.22937   0.23242   0.23614   0.24172   0.24744
 Alpha virt. eigenvalues --    0.25247   0.25444   0.25699   0.26383   0.26834
 Alpha virt. eigenvalues --    0.27045   0.27542   0.28018   0.29125   0.29714
 Alpha virt. eigenvalues --    0.29977   0.30143   0.30647   0.31115   0.31274
 Alpha virt. eigenvalues --    0.32057   0.32155   0.32737   0.33020   0.33499
 Alpha virt. eigenvalues --    0.33936   0.34675   0.35620   0.35753   0.36428
 Alpha virt. eigenvalues --    0.37068   0.37539   0.38189   0.38943   0.40034
 Alpha virt. eigenvalues --    0.40732   0.40974   0.41614   0.42361   0.43077
 Alpha virt. eigenvalues --    0.43241   0.43931   0.44359   0.44822   0.45187
 Alpha virt. eigenvalues --    0.45514   0.47097   0.47485   0.49090   0.49956
 Alpha virt. eigenvalues --    0.50574   0.51310   0.51979   0.52054   0.54070
 Alpha virt. eigenvalues --    0.55428   0.56351   0.56475   0.57337   0.57672
 Alpha virt. eigenvalues --    0.58037   0.59628   0.60271   0.60580   0.61106
 Alpha virt. eigenvalues --    0.61823   0.62283   0.62559   0.62860   0.63608
 Alpha virt. eigenvalues --    0.63928   0.65294   0.65416   0.66018   0.66709
 Alpha virt. eigenvalues --    0.67659   0.67938   0.68360   0.68857   0.69546
 Alpha virt. eigenvalues --    0.69699   0.69940   0.70085   0.70634   0.71234
 Alpha virt. eigenvalues --    0.71757   0.73142   0.73730   0.74231   0.74378
 Alpha virt. eigenvalues --    0.75141   0.75373   0.76021   0.76686   0.77424
 Alpha virt. eigenvalues --    0.78667   0.78902   0.78976   0.80154   0.80628
 Alpha virt. eigenvalues --    0.81032   0.81402   0.83492   0.84936   0.86067
 Alpha virt. eigenvalues --    0.86804   0.87712   0.88598   0.89704   0.90881
 Alpha virt. eigenvalues --    0.93261   0.93727   0.94276   0.95239   0.96585
 Alpha virt. eigenvalues --    0.97634   0.98349   1.00942   1.01728   1.02639
 Alpha virt. eigenvalues --    1.03719   1.04448   1.05106   1.06334   1.08080
 Alpha virt. eigenvalues --    1.08771   1.09764   1.12591   1.13991   1.14847
 Alpha virt. eigenvalues --    1.16937   1.18480   1.20467   1.21517   1.22325
 Alpha virt. eigenvalues --    1.22604   1.24346   1.25205   1.25799   1.26023
 Alpha virt. eigenvalues --    1.26862   1.28115   1.28761   1.29172   1.30838
 Alpha virt. eigenvalues --    1.33964   1.36214   1.42136   1.44917   1.46429
 Alpha virt. eigenvalues --    1.46576   1.48884   1.49004   1.51020   1.54275
 Alpha virt. eigenvalues --    1.56003   1.57098   1.58052   1.58743   1.59846
 Alpha virt. eigenvalues --    1.60227   1.61128   1.61573   1.62511   1.63552
 Alpha virt. eigenvalues --    1.64419   1.65012   1.66135   1.66644   1.67527
 Alpha virt. eigenvalues --    1.68335   1.70594   1.70956   1.72290   1.72537
 Alpha virt. eigenvalues --    1.73656   1.74178   1.74851   1.75959   1.77223
 Alpha virt. eigenvalues --    1.77728   1.78902   1.80639   1.80812   1.82691
 Alpha virt. eigenvalues --    1.84049   1.85218   1.86590   1.88146   1.89054
 Alpha virt. eigenvalues --    1.90164   1.92615   1.95710   1.97723   2.00727
 Alpha virt. eigenvalues --    2.02433   2.02809   2.04100   2.04606   2.06287
 Alpha virt. eigenvalues --    2.08077   2.08512   2.10591   2.11811   2.13446
 Alpha virt. eigenvalues --    2.15139   2.15284   2.16463   2.17660   2.19490
 Alpha virt. eigenvalues --    2.20965   2.21861   2.23122   2.24185   2.26388
 Alpha virt. eigenvalues --    2.27127   2.28216   2.29271   2.30395   2.31417
 Alpha virt. eigenvalues --    2.34530   2.35209   2.37143   2.37550   2.39435
 Alpha virt. eigenvalues --    2.41427   2.42685   2.43835   2.47665   2.48900
 Alpha virt. eigenvalues --    2.53013   2.54570   2.54833   2.56533   2.57543
 Alpha virt. eigenvalues --    2.58490   2.59207   2.60738   2.61667   2.64627
 Alpha virt. eigenvalues --    2.65402   2.66658   2.69084   2.70632   2.71670
 Alpha virt. eigenvalues --    2.72721   2.74100   2.74514   2.76790   2.77570
 Alpha virt. eigenvalues --    2.81052   2.81619   2.81716   2.82797   2.85021
 Alpha virt. eigenvalues --    2.85918   2.88236   2.89184   2.91713   2.93469
 Alpha virt. eigenvalues --    2.94413   2.95720   2.96196   2.97942   3.01136
 Alpha virt. eigenvalues --    3.01811   3.03490   3.05566   3.05858   3.06718
 Alpha virt. eigenvalues --    3.08152   3.12911   3.19210   3.20855   3.24487
 Alpha virt. eigenvalues --    3.30942   3.32525   3.33501   3.40655   3.47057
 Alpha virt. eigenvalues --    3.48145   3.52276   3.54487   3.57732   3.75048
 Alpha virt. eigenvalues --    3.77797   3.78927   3.81481   3.81515   3.83330
 Alpha virt. eigenvalues --    3.84737   3.87236   3.90165   3.98865   4.06761
 Alpha virt. eigenvalues --    4.10980   4.11751   4.12133   4.12217   4.15355
 Alpha virt. eigenvalues --    4.17485   4.17817   4.18474   4.18593   4.21011
 Alpha virt. eigenvalues --    4.22426   4.24141   4.26269   4.31406   4.34311
 Alpha virt. eigenvalues --    4.37869   4.40249   4.41445   4.51753   4.57690
 Alpha virt. eigenvalues --    4.60713   4.69860   5.01858   5.04931   5.19534
 Alpha virt. eigenvalues --    5.24279   5.67504   5.76945   6.70843   6.78429
 Alpha virt. eigenvalues --    6.80173   7.52454   7.55641   7.57935   7.65367
 Alpha virt. eigenvalues --    7.67427   7.71166   7.72886   7.76030   7.79163
 Alpha virt. eigenvalues --   23.41372  23.61369  23.79748  23.85694  23.87666
 Alpha virt. eigenvalues --   23.89260  23.90605  23.91124  23.94385  23.98450
 Alpha virt. eigenvalues --   24.07038  24.13908  47.96833  48.03330  48.04483
 Alpha virt. eigenvalues --   49.97192  50.01898 289.72051 289.75412 289.77649
 Alpha virt. eigenvalues --  289.85038 289.87353 289.91471 289.93756 289.98155
 Alpha virt. eigenvalues --  290.011281020.773601020.853271020.86792
  Beta  occ. eigenvalues -- -482.86059-482.86008-482.85365 -62.51322 -62.51271
  Beta  occ. eigenvalues --  -62.50635 -56.33378 -56.33327 -56.32983 -56.32933
  Beta  occ. eigenvalues --  -56.32929 -56.32879 -56.32682 -56.32295 -56.32251
  Beta  occ. eigenvalues --  -19.16168 -19.16078 -10.31771 -10.31319 -10.28173
  Beta  occ. eigenvalues --  -10.28033 -10.27101 -10.23980 -10.18965 -10.17667
  Beta  occ. eigenvalues --  -10.16659 -10.16337 -10.16274 -10.15604  -8.72292
  Beta  occ. eigenvalues --   -8.72241  -8.71605  -6.55493  -6.55439  -6.54776
  Beta  occ. eigenvalues --   -6.54169  -6.54121  -6.54015  -6.53965  -6.53483
  Beta  occ. eigenvalues --   -6.53360  -2.66580  -2.66527  -2.66226  -2.66175
  Beta  occ. eigenvalues --   -2.66109  -2.66056  -2.65865  -2.65516  -2.65423
  Beta  occ. eigenvalues --   -2.65054  -2.65052  -2.65006  -2.65004  -2.64395
  Beta  occ. eigenvalues --   -2.64393  -1.10073  -1.09670  -0.91112  -0.87816
  Beta  occ. eigenvalues --   -0.82955  -0.81851  -0.80456  -0.78648  -0.75504
  Beta  occ. eigenvalues --   -0.72311  -0.70412  -0.65910  -0.61892  -0.61241
  Beta  occ. eigenvalues --   -0.59077  -0.57882  -0.56771  -0.50897  -0.49213
  Beta  occ. eigenvalues --   -0.48491  -0.48234  -0.46093  -0.45675  -0.44907
  Beta  occ. eigenvalues --   -0.44716  -0.44425  -0.43233  -0.42429  -0.40474
  Beta  occ. eigenvalues --   -0.40209  -0.39604  -0.38155  -0.36557  -0.35721
  Beta  occ. eigenvalues --   -0.35318  -0.33662  -0.33210  -0.33174  -0.33143
  Beta  occ. eigenvalues --   -0.32485  -0.32420  -0.31662  -0.31233  -0.30936
  Beta  occ. eigenvalues --   -0.29494  -0.29241  -0.27372
  Beta virt. eigenvalues --   -0.15202  -0.05776  -0.05034  -0.03127  -0.02143
  Beta virt. eigenvalues --   -0.00666  -0.00119  -0.00018   0.00882   0.01074
  Beta virt. eigenvalues --    0.01588   0.02250   0.02601   0.03363   0.03855
  Beta virt. eigenvalues --    0.04085   0.04456   0.04482   0.05244   0.05324
  Beta virt. eigenvalues --    0.05789   0.05987   0.06239   0.06749   0.06987
  Beta virt. eigenvalues --    0.07283   0.07842   0.08035   0.08569   0.08704
  Beta virt. eigenvalues --    0.08934   0.09143   0.09602   0.10465   0.10683
  Beta virt. eigenvalues --    0.11014   0.11628   0.11783   0.12345   0.12541
  Beta virt. eigenvalues --    0.12789   0.12862   0.13178   0.13350   0.13873
  Beta virt. eigenvalues --    0.13920   0.14444   0.14839   0.14906   0.15252
  Beta virt. eigenvalues --    0.15367   0.15701   0.16181   0.16662   0.16831
  Beta virt. eigenvalues --    0.17005   0.17029   0.17567   0.17693   0.17908
  Beta virt. eigenvalues --    0.18424   0.18552   0.18852   0.18989   0.19816
  Beta virt. eigenvalues --    0.20244   0.20282   0.20469   0.20812   0.21300
  Beta virt. eigenvalues --    0.21488   0.21696   0.21941   0.22169   0.22522
  Beta virt. eigenvalues --    0.22937   0.23242   0.23614   0.24172   0.24744
  Beta virt. eigenvalues --    0.25247   0.25444   0.25699   0.26383   0.26834
  Beta virt. eigenvalues --    0.27045   0.27542   0.28018   0.29125   0.29714
  Beta virt. eigenvalues --    0.29977   0.30143   0.30647   0.31115   0.31274
  Beta virt. eigenvalues --    0.32057   0.32155   0.32737   0.33020   0.33499
  Beta virt. eigenvalues --    0.33936   0.34675   0.35620   0.35753   0.36428
  Beta virt. eigenvalues --    0.37068   0.37539   0.38189   0.38943   0.40034
  Beta virt. eigenvalues --    0.40732   0.40974   0.41614   0.42361   0.43077
  Beta virt. eigenvalues --    0.43241   0.43931   0.44359   0.44822   0.45187
  Beta virt. eigenvalues --    0.45514   0.47097   0.47485   0.49090   0.49956
  Beta virt. eigenvalues --    0.50574   0.51310   0.51979   0.52054   0.54070
  Beta virt. eigenvalues --    0.55428   0.56351   0.56475   0.57337   0.57672
  Beta virt. eigenvalues --    0.58037   0.59628   0.60271   0.60580   0.61106
  Beta virt. eigenvalues --    0.61823   0.62283   0.62559   0.62860   0.63608
  Beta virt. eigenvalues --    0.63928   0.65294   0.65416   0.66018   0.66709
  Beta virt. eigenvalues --    0.67659   0.67938   0.68360   0.68857   0.69546
  Beta virt. eigenvalues --    0.69699   0.69940   0.70085   0.70634   0.71234
  Beta virt. eigenvalues --    0.71757   0.73142   0.73730   0.74231   0.74378
  Beta virt. eigenvalues --    0.75141   0.75373   0.76021   0.76686   0.77424
  Beta virt. eigenvalues --    0.78667   0.78902   0.78976   0.80154   0.80628
  Beta virt. eigenvalues --    0.81032   0.81402   0.83492   0.84936   0.86067
  Beta virt. eigenvalues --    0.86804   0.87712   0.88598   0.89704   0.90881
  Beta virt. eigenvalues --    0.93261   0.93727   0.94276   0.95239   0.96585
  Beta virt. eigenvalues --    0.97634   0.98349   1.00942   1.01728   1.02639
  Beta virt. eigenvalues --    1.03719   1.04448   1.05106   1.06334   1.08080
  Beta virt. eigenvalues --    1.08771   1.09764   1.12591   1.13991   1.14847
  Beta virt. eigenvalues --    1.16937   1.18480   1.20467   1.21517   1.22325
  Beta virt. eigenvalues --    1.22604   1.24346   1.25205   1.25799   1.26023
  Beta virt. eigenvalues --    1.26862   1.28115   1.28761   1.29172   1.30838
  Beta virt. eigenvalues --    1.33964   1.36214   1.42136   1.44917   1.46429
  Beta virt. eigenvalues --    1.46576   1.48884   1.49004   1.51020   1.54275
  Beta virt. eigenvalues --    1.56003   1.57098   1.58052   1.58743   1.59846
  Beta virt. eigenvalues --    1.60227   1.61128   1.61573   1.62511   1.63552
  Beta virt. eigenvalues --    1.64419   1.65012   1.66135   1.66644   1.67527
  Beta virt. eigenvalues --    1.68335   1.70594   1.70956   1.72290   1.72537
  Beta virt. eigenvalues --    1.73656   1.74178   1.74851   1.75959   1.77223
  Beta virt. eigenvalues --    1.77728   1.78902   1.80639   1.80812   1.82691
  Beta virt. eigenvalues --    1.84049   1.85218   1.86590   1.88146   1.89054
  Beta virt. eigenvalues --    1.90164   1.92615   1.95710   1.97723   2.00727
  Beta virt. eigenvalues --    2.02433   2.02809   2.04100   2.04606   2.06287
  Beta virt. eigenvalues --    2.08077   2.08512   2.10591   2.11811   2.13446
  Beta virt. eigenvalues --    2.15139   2.15284   2.16463   2.17660   2.19490
  Beta virt. eigenvalues --    2.20965   2.21861   2.23122   2.24185   2.26388
  Beta virt. eigenvalues --    2.27127   2.28216   2.29271   2.30395   2.31417
  Beta virt. eigenvalues --    2.34530   2.35209   2.37143   2.37550   2.39435
  Beta virt. eigenvalues --    2.41427   2.42685   2.43835   2.47665   2.48900
  Beta virt. eigenvalues --    2.53013   2.54570   2.54833   2.56533   2.57543
  Beta virt. eigenvalues --    2.58490   2.59207   2.60738   2.61667   2.64627
  Beta virt. eigenvalues --    2.65402   2.66658   2.69084   2.70632   2.71670
  Beta virt. eigenvalues --    2.72721   2.74100   2.74514   2.76790   2.77570
  Beta virt. eigenvalues --    2.81052   2.81619   2.81716   2.82797   2.85021
  Beta virt. eigenvalues --    2.85918   2.88236   2.89184   2.91713   2.93469
  Beta virt. eigenvalues --    2.94413   2.95720   2.96196   2.97942   3.01136
  Beta virt. eigenvalues --    3.01811   3.03490   3.05566   3.05858   3.06718
  Beta virt. eigenvalues --    3.08152   3.12911   3.19210   3.20855   3.24487
  Beta virt. eigenvalues --    3.30942   3.32525   3.33501   3.40655   3.47057
  Beta virt. eigenvalues --    3.48145   3.52276   3.54487   3.57732   3.75048
  Beta virt. eigenvalues --    3.77797   3.78927   3.81481   3.81515   3.83330
  Beta virt. eigenvalues --    3.84737   3.87236   3.90165   3.98865   4.06761
  Beta virt. eigenvalues --    4.10980   4.11751   4.12133   4.12217   4.15355
  Beta virt. eigenvalues --    4.17485   4.17817   4.18474   4.18593   4.21011
  Beta virt. eigenvalues --    4.22426   4.24141   4.26269   4.31406   4.34311
  Beta virt. eigenvalues --    4.37869   4.40249   4.41445   4.51753   4.57690
  Beta virt. eigenvalues --    4.60713   4.69860   5.01858   5.04931   5.19534
  Beta virt. eigenvalues --    5.24279   5.67504   5.76945   6.70843   6.78429
  Beta virt. eigenvalues --    6.80173   7.52454   7.55641   7.57935   7.65367
  Beta virt. eigenvalues --    7.67427   7.71166   7.72886   7.76030   7.79163
  Beta virt. eigenvalues --   23.41372  23.61369  23.79748  23.85694  23.87666
  Beta virt. eigenvalues --   23.89260  23.90605  23.91124  23.94385  23.98450
  Beta virt. eigenvalues --   24.07038  24.13908  47.96833  48.03330  48.04483
  Beta virt. eigenvalues --   49.97192  50.01898 289.72051 289.75412 289.77649
  Beta virt. eigenvalues --  289.85038 289.87353 289.91471 289.93756 289.98155
  Beta virt. eigenvalues --  290.011281020.773601020.853271020.86792
          Condensed to atoms (all electrons):
               1          2          3          4          5          6
     1  C   15.077475  -2.791525  -0.263150  -0.259406  -5.048736   1.912617
     2  C   -2.791525  14.475857  -2.588865  -0.292100   3.548046  -4.855099
     3  C   -0.263150  -2.588865  13.660686  -1.633997  -5.390141   1.309948
     4  C   -0.259406  -0.292100  -1.633997   9.531104   0.426659  -1.682303
     5  C   -5.048736   3.548046  -5.390141   0.426659  18.524056  -3.972405
     6  C    1.912617  -4.855099   1.309948  -1.682303  -3.972405  20.313177
     7  O    0.653124  -0.274753  -0.072385  -0.056619   0.001172  -0.184673
     8  O   -0.122498  -0.081878  -0.122648   0.688593  -0.249427   0.024559
     9  Br  -0.056564   0.309887  -0.041227   0.126522   0.060176  -0.108670
    10  Br   0.169997  -0.036412   0.233645  -0.109827  -0.096313   0.048013
    11  Br   0.229111   0.086946  -0.160232  -0.046104  -0.100773   0.138577
    12  C   -2.690775  -1.480635   0.429209  -0.171545  -1.796093  -7.045376
    13  C    0.497811   0.319039   0.079285   0.134814  -0.185594  -0.936867
    14  C   -0.235707  -0.051457  -0.012035   0.034589   0.108449  -0.211464
    15  C   -0.014623   0.021559   0.005571   0.014128  -0.072965  -0.878396
    16  C   -0.001742   0.001407  -0.000792   0.001653   0.006839   0.001925
    17  C   -0.002913  -0.000264  -0.000021   0.000254   0.000238  -0.006872
    18  H    0.034179   0.016869  -0.018097  -0.047578  -0.082208  -0.073622
    19  H   -0.101215  -0.061046   0.015295   0.003321   0.052975   0.171416
    20  H    0.056694  -0.038901   0.009981  -0.011710  -0.096265   0.044813
    21  H   -0.091039  -0.011159   0.010199  -0.003332   0.136871   0.000327
    22  H   -0.021053  -0.004322  -0.001789   0.008977   0.034721  -0.035727
    23  H    0.023153   0.004131  -0.000156  -0.002833  -0.017087  -0.035367
    24  H   -0.011034   0.000895  -0.001122   0.001980   0.014893  -0.004912
    25  H    0.009986  -0.000421  -0.000578  -0.000766  -0.012695  -0.006371
    26  H   -0.000999   0.000183   0.000015  -0.000008   0.001676   0.000246
    27  H    0.001541  -0.000195   0.000071  -0.000094  -0.001927   0.000622
    28  H    0.000012  -0.000005   0.000017  -0.000015  -0.000056   0.000565
    29  H   -0.000026   0.000005  -0.000003   0.000013   0.000047  -0.000621
    30  H    0.000023   0.000006   0.000004  -0.000023  -0.000067   0.000495
               7          8          9         10         11         12
     1  C    0.653124  -0.122498  -0.056564   0.169997   0.229111  -2.690775
     2  C   -0.274753  -0.081878   0.309887  -0.036412   0.086946  -1.480635
     3  C   -0.072385  -0.122648  -0.041227   0.233645  -0.160232   0.429209
     4  C   -0.056619   0.688593   0.126522  -0.109827  -0.046104  -0.171545
     5  C    0.001172  -0.249427   0.060176  -0.096313  -0.100773  -1.796093
     6  C   -0.184673   0.024559  -0.108670   0.048013   0.138577  -7.045376
     7  O    8.009075   0.000783  -0.056812   0.003082   0.000972   0.167777
     8  O    0.000783   8.067804   0.003458  -0.054491  -0.066032   0.064995
     9  Br  -0.056812   0.003458  34.907280  -0.031642   0.000378  -0.093597
    10  Br   0.003082  -0.054491  -0.031642  34.896160  -0.006765  -0.005566
    11  Br   0.000972  -0.066032   0.000378  -0.006765  34.974934  -0.107498
    12  C    0.167777   0.064995  -0.093597  -0.005566  -0.107498  19.070579
    13  C    0.018181   0.007248   0.007543  -0.003736   0.005223  -0.463648
    14  C   -0.007423   0.000127  -0.005462   0.000212   0.027716   0.282499
    15  C    0.005473   0.000326  -0.001275  -0.000102   0.009673   0.066615
    16  C    0.000471   0.000001   0.000011  -0.000006   0.002180  -0.223364
    17  C    0.000028   0.000000  -0.000029   0.000000   0.000340  -0.017062
    18  H    0.013033   0.000064   0.000673   0.000541   0.015595   0.458830
    19  H   -0.028395   0.000224  -0.001732   0.000573  -0.000374   0.341121
    20  H   -0.009022  -0.000080  -0.003241   0.000309   0.003581  -0.042864
    21  H   -0.000049   0.000412   0.000245   0.000159  -0.007669  -0.001074
    22  H   -0.001184  -0.000130  -0.000007  -0.000014  -0.002360   0.038321
    23  H    0.000802   0.000021   0.000157  -0.000036  -0.000455   0.015978
    24  H    0.000485   0.000001   0.000076  -0.000006  -0.000020   0.007697
    25  H   -0.000098  -0.000000   0.000026  -0.000003  -0.000865   0.000195
    26  H    0.000039   0.000002  -0.000003  -0.000000  -0.000056   0.001538
    27  H   -0.000036  -0.000001   0.000006   0.000001  -0.000060   0.003554
    28  H   -0.000000  -0.000000   0.000000   0.000000  -0.000000   0.000181
    29  H    0.000003   0.000000  -0.000000  -0.000000   0.000015  -0.001852
    30  H   -0.000006  -0.000000  -0.000002  -0.000000  -0.000005  -0.000305
              13         14         15         16         17         18
     1  C    0.497811  -0.235707  -0.014623  -0.001742  -0.002913   0.034179
     2  C    0.319039  -0.051457   0.021559   0.001407  -0.000264   0.016869
     3  C    0.079285  -0.012035   0.005571  -0.000792  -0.000021  -0.018097
     4  C    0.134814   0.034589   0.014128   0.001653   0.000254  -0.047578
     5  C   -0.185594   0.108449  -0.072965   0.006839   0.000238  -0.082208
     6  C   -0.936867  -0.211464  -0.878396   0.001925  -0.006872  -0.073622
     7  O    0.018181  -0.007423   0.005473   0.000471   0.000028   0.013033
     8  O    0.007248   0.000127   0.000326   0.000001   0.000000   0.000064
     9  Br   0.007543  -0.005462  -0.001275   0.000011  -0.000029   0.000673
    10  Br  -0.003736   0.000212  -0.000102  -0.000006   0.000000   0.000541
    11  Br   0.005223   0.027716   0.009673   0.002180   0.000340   0.015595
    12  C   -0.463648   0.282499   0.066615  -0.223364  -0.017062   0.458830
    13  C    8.515561  -1.710242   0.148023  -0.391679  -0.151731  -0.084360
    14  C   -1.710242   8.066454  -0.910542   0.279470  -0.084719   0.028470
    15  C    0.148023  -0.910542   7.542556  -0.379595   0.133690   0.012261
    16  C   -0.391679   0.279470  -0.379595   6.192874   0.078760  -0.000438
    17  C   -0.151731  -0.084719   0.133690   0.078760   5.625260   0.000080
    18  H   -0.084360   0.028470   0.012261  -0.000438   0.000080   0.596870
    19  H   -0.102693  -0.019236  -0.017537  -0.006826   0.000228  -0.043285
    20  H    0.433563  -0.049343  -0.004668  -0.006573   0.000147   0.018377
    21  H    0.537120  -0.214722  -0.009947  -0.027595  -0.006853  -0.025327
    22  H   -0.113071   0.529437  -0.103667   0.007315  -0.000425  -0.013253
    23  H   -0.068203   0.492441  -0.087046   0.015438  -0.003073   0.004232
    24  H   -0.000327  -0.074978   0.452459  -0.064200   0.006019  -0.002968
    25  H   -0.027467  -0.060232   0.455515  -0.044376   0.013203   0.004905
    26  H    0.009941  -0.019888  -0.042538   0.415971  -0.050301   0.000375
    27  H    0.012627  -0.020200  -0.045359   0.415483  -0.050456   0.000501
    28  H    0.002332  -0.004100  -0.029697  -0.023066   0.402695  -0.000185
    29  H   -0.005769   0.000751   0.016376  -0.032515   0.384814   0.000011
    30  H   -0.001355  -0.003786  -0.031224  -0.021284   0.406191   0.000053
              19         20         21         22         23         24
     1  C   -0.101215   0.056694  -0.091039  -0.021053   0.023153  -0.011034
     2  C   -0.061046  -0.038901  -0.011159  -0.004322   0.004131   0.000895
     3  C    0.015295   0.009981   0.010199  -0.001789  -0.000156  -0.001122
     4  C    0.003321  -0.011710  -0.003332   0.008977  -0.002833   0.001980
     5  C    0.052975  -0.096265   0.136871   0.034721  -0.017087   0.014893
     6  C    0.171416   0.044813   0.000327  -0.035727  -0.035367  -0.004912
     7  O   -0.028395  -0.009022  -0.000049  -0.001184   0.000802   0.000485
     8  O    0.000224  -0.000080   0.000412  -0.000130   0.000021   0.000001
     9  Br  -0.001732  -0.003241   0.000245  -0.000007   0.000157   0.000076
    10  Br   0.000573   0.000309   0.000159  -0.000014  -0.000036  -0.000006
    11  Br  -0.000374   0.003581  -0.007669  -0.002360  -0.000455  -0.000020
    12  C    0.341121  -0.042864  -0.001074   0.038321   0.015978   0.007697
    13  C   -0.102693   0.433563   0.537120  -0.113071  -0.068203  -0.000327
    14  C   -0.019236  -0.049343  -0.214722   0.529437   0.492441  -0.074978
    15  C   -0.017537  -0.004668  -0.009947  -0.103667  -0.087046   0.452459
    16  C   -0.006826  -0.006573  -0.027595   0.007315   0.015438  -0.064200
    17  C    0.000228   0.000147  -0.006853  -0.000425  -0.003073   0.006019
    18  H   -0.043285   0.018377  -0.025327  -0.013253   0.004232  -0.002968
    19  H    0.559368  -0.015200   0.023811   0.004680  -0.004767   0.002967
    20  H   -0.015200   0.622075  -0.101385   0.012277  -0.019635  -0.001864
    21  H    0.023811  -0.101385   0.669655  -0.020517   0.015980   0.005222
    22  H    0.004680   0.012277  -0.020517   0.646433  -0.097646   0.026229
    23  H   -0.004767  -0.019635   0.015980  -0.097646   0.634365  -0.029908
    24  H    0.002967  -0.001864   0.005222   0.026229  -0.029908   0.649825
    25  H   -0.002708   0.004752  -0.004587  -0.029658   0.024447  -0.101459
    26  H    0.000501   0.001710   0.000433   0.011120  -0.004659   0.017337
    27  H    0.000009  -0.000218   0.001633  -0.004864   0.013181  -0.021835
    28  H    0.000068  -0.000664   0.001454  -0.000415   0.001326   0.000607
    29  H   -0.000104   0.000028  -0.000362   0.000126   0.000339  -0.001853
    30  H   -0.000044   0.001260  -0.000538   0.001231  -0.000598   0.006016
              25         26         27         28         29         30
     1  C    0.009986  -0.000999   0.001541   0.000012  -0.000026   0.000023
     2  C   -0.000421   0.000183  -0.000195  -0.000005   0.000005   0.000006
     3  C   -0.000578   0.000015   0.000071   0.000017  -0.000003   0.000004
     4  C   -0.000766  -0.000008  -0.000094  -0.000015   0.000013  -0.000023
     5  C   -0.012695   0.001676  -0.001927  -0.000056   0.000047  -0.000067
     6  C   -0.006371   0.000246   0.000622   0.000565  -0.000621   0.000495
     7  O   -0.000098   0.000039  -0.000036  -0.000000   0.000003  -0.000006
     8  O   -0.000000   0.000002  -0.000001  -0.000000   0.000000  -0.000000
     9  Br   0.000026  -0.000003   0.000006   0.000000  -0.000000  -0.000002
    10  Br  -0.000003  -0.000000   0.000001   0.000000  -0.000000  -0.000000
    11  Br  -0.000865  -0.000056  -0.000060  -0.000000   0.000015  -0.000005
    12  C    0.000195   0.001538   0.003554   0.000181  -0.001852  -0.000305
    13  C   -0.027467   0.009941   0.012627   0.002332  -0.005769  -0.001355
    14  C   -0.060232  -0.019888  -0.020200  -0.004100   0.000751  -0.003786
    15  C    0.455515  -0.042538  -0.045359  -0.029697   0.016376  -0.031224
    16  C   -0.044376   0.415971   0.415483  -0.023066  -0.032515  -0.021284
    17  C    0.013203  -0.050301  -0.050456   0.402695   0.384814   0.406191
    18  H    0.004905   0.000375   0.000501  -0.000185   0.000011   0.000053
    19  H   -0.002708   0.000501   0.000009   0.000068  -0.000104  -0.000044
    20  H    0.004752   0.001710  -0.000218  -0.000664   0.000028   0.001260
    21  H   -0.004587   0.000433   0.001633   0.001454  -0.000362  -0.000538
    22  H   -0.029658   0.011120  -0.004864  -0.000415   0.000126   0.001231
    23  H    0.024447  -0.004659   0.013181   0.001326   0.000339  -0.000598
    24  H   -0.101459   0.017337  -0.021835   0.000607  -0.001853   0.006016
    25  H    0.650365  -0.022841   0.018056   0.005825  -0.000725   0.000026
    26  H   -0.022841   0.621956  -0.069184  -0.015204  -0.003360   0.012141
    27  H    0.018056  -0.069184   0.620822   0.011900  -0.003470  -0.015403
    28  H    0.005825  -0.015204   0.011900   0.586247  -0.024422  -0.056404
    29  H   -0.000725  -0.003360  -0.003470  -0.024422   0.552199  -0.023576
    30  H    0.000026   0.012141  -0.015403  -0.056404  -0.023576   0.585921
          Atomic-Atomic Spin Densities.
               1          2          3          4          5          6
     1  C    0.000000  -0.000000   0.000000  -0.000000  -0.000000   0.000000
     2  C   -0.000000   0.000000  -0.000000   0.000000   0.000000  -0.000000
     3  C    0.000000  -0.000000   0.000000  -0.000000  -0.000000   0.000000
     4  C   -0.000000   0.000000  -0.000000   0.000000   0.000000  -0.000000
     5  C   -0.000000   0.000000  -0.000000   0.000000   0.000000  -0.000000
     6  C    0.000000  -0.000000   0.000000  -0.000000  -0.000000   0.000000
     7  O   -0.000000   0.000000   0.000000  -0.000000   0.000000  -0.000000
     8  O   -0.000000   0.000000  -0.000000  -0.000000   0.000000   0.000000
     9  Br  -0.000000   0.000000  -0.000000   0.000000   0.000000  -0.000000
    10  Br   0.000000  -0.000000   0.000000  -0.000000  -0.000000   0.000000
    11  Br   0.000000   0.000000   0.000000   0.000000  -0.000000  -0.000000
    12  C    0.000000   0.000000   0.000000  -0.000000  -0.000000   0.000000
    13  C    0.000000  -0.000000   0.000000  -0.000000  -0.000000  -0.000000
    14  C   -0.000000   0.000000  -0.000000  -0.000000   0.000000   0.000000
    15  C    0.000000   0.000000   0.000000  -0.000000  -0.000000   0.000000
    16  C   -0.000000   0.000000  -0.000000   0.000000   0.000000   0.000000
    17  C   -0.000000   0.000000  -0.000000  -0.000000   0.000000   0.000000
    18  H    0.000000  -0.000000   0.000000   0.000000  -0.000000   0.000000
[...]
    28  H    0.000000   0.000000  -0.000000  -0.000000   0.000000  -0.000000
    29  H    0.000000  -0.000000  -0.000000   0.000000   0.000000   0.000000
    30  H    0.000000  -0.000000   0.000000  -0.000000   0.000000  -0.000000
 Mulliken charges and spin densities:
               1          2
     1  C   -0.952720   0.000000
     2  C   -0.215794   0.000000
     3  C    0.553312  -0.000000
     4  C   -0.654348   0.000000
     5  C    0.205934  -0.000000
     6  C    2.071446   0.000000
     7  O   -0.183046  -0.000000
     8  O   -0.161431  -0.000000
     9  Br  -0.016175   0.000000
    10  Br  -0.007770  -0.000000
    11  Br   0.004026   0.000000
    12  C   -0.807836  -0.000000
    13  C   -0.481571   0.000000
    14  C   -0.155081  -0.000000
    15  C   -0.255045  -0.000000
    16  C   -0.195746  -0.000000
    17  C   -0.677229   0.000000
    18  H    0.185403   0.000000
    19  H    0.228603   0.000000
    20  H    0.192064   0.000000
    21  H    0.122633   0.000000
    22  H    0.129236  -0.000000
    23  H    0.125475  -0.000000
    24  H    0.123778  -0.000000
    25  H    0.128550  -0.000000
    26  H    0.133854  -0.000000
    27  H    0.133295  -0.000000
    28  H    0.141004  -0.000000
    29  H    0.143930   0.000000
    30  H    0.141251  -0.000000
 Sum of Mulliken charges =  -0.00000  -0.00000
 Mulliken charges and spin densities with hydrogens summed into heavy atoms:
               1          2
     1  C   -0.952720   0.000000
     2  C   -0.215794   0.000000
     3  C    0.553312  -0.000000
     4  C   -0.654348   0.000000
     5  C    0.205934  -0.000000
     6  C    2.071446   0.000000
     7  O   -0.183046  -0.000000
     8  O   -0.161431  -0.000000
     9  Br  -0.016175   0.000000
    10  Br  -0.007770  -0.000000
    11  Br   0.004026   0.000000
    12  C   -0.393830  -0.000000
    13  C   -0.166873   0.000000
    14  C    0.099630  -0.000000
    15  C   -0.002718  -0.000000
    16  C    0.071402  -0.000000
    17  C   -0.251044   0.000000
 Electronic spatial extent (au):  <R**2>=          11561.8729
 Charge=             -0.0000 electrons
 Dipole moment (field-independent basis, Debye):
    X=              2.1524    Y=             -0.8004    Z=             -0.4686  Tot=              2.3437
 Quadrupole moment (field-independent basis, Debye-Ang):
   XX=           -134.0557   YY=           -152.2604   ZZ=           -139.4611
   XY=              7.8165   XZ=             -0.4862   YZ=             -4.1710
 Traceless Quadrupole moment (field-independent basis, Debye-Ang):
   XX=              7.8700   YY=            -10.3347   ZZ=              2.4647
   XY=              7.8165   XZ=             -0.4862   YZ=             -4.1710
 Octapole moment (field-independent basis, Debye-Ang**2):
  XXX=           -191.7239  YYY=             10.9497  ZZZ=              3.0519  XYY=            -46.0382
  XXY=             -3.0270  XXZ=             -3.5026  XZZ=            -66.2474  YZZ=             11.9612
  YYZ=              3.2503  XYZ=              3.9497
 Hexadecapole moment (field-independent basis, Debye-Ang**3):
 XXXX=         -10148.1241 YYYY=          -2731.5074 ZZZZ=           -546.1597 XXXY=            313.2557
 XXXZ=           -203.5663 YYYX=            390.8054 YYYZ=            -29.1226 ZZZX=           -109.9063
 ZZZY=             12.3985 XXYY=          -2149.6233 XXZZ=          -1832.7477 YYZZ=           -556.1940
 XXYZ=             18.5515 YYXZ=            -22.8951 ZZXY=             90.4511
 N-N= 2.442931299956D+03 E-N=-2.477510897504D+04  KE= 8.326240691538D+03
                          Isotropic Fermi Contact Couplings
        Atom                 a.u.       MegaHertz       Gauss      10(-4) cm-1
     1  C(13)             -0.00000      -0.00000      -0.00000      -0.00000
     2  C(13)              0.00000       0.00000       0.00000       0.00000
     3  C(13)             -0.00000      -0.00000      -0.00000      -0.00000
     4  C(13)             -0.00000      -0.00000      -0.00000      -0.00000
     5  C(13)             -0.00000      -0.00000      -0.00000      -0.00000
     6  C(13)              0.00000       0.00000       0.00000       0.00000
     7  O(17)             -0.00000       0.00000       0.00000       0.00000
     8  O(17)              0.00000      -0.00000      -0.00000      -0.00000
     9  Br(79)             0.00000       0.00000       0.00000       0.00000
    10  Br(79)             0.00000       0.00000       0.00000       0.00000
    11  Br(79)            -0.00000      -0.00000      -0.00000      -0.00000
    12  C(13)              0.00000       0.00000       0.00000       0.00000
    13  C(13)              0.00000       0.00000       0.00000       0.00000
    14  C(13)             -0.00000      -0.00000      -0.00000      -0.00000
    15  C(13)             -0.00000      -0.00000      -0.00000      -0.00000
    16  C(13)              0.00000       0.00000       0.00000       0.00000
    17  C(13)              0.00000       0.00000       0.00000       0.00000
    18  H(1)               0.00000       0.00000       0.00000       0.00000
    19  H(1)               0.00000       0.00000       0.00000       0.00000
    20  H(1)               0.00000       0.00000       0.00000       0.00000
    21  H(1)               0.00000       0.00000       0.00000       0.00000
    22  H(1)              -0.00000      -0.00000      -0.00000      -0.00000
    23  H(1)              -0.00000      -0.00000      -0.00000      -0.00000
    24  H(1)              -0.00000      -0.00000      -0.00000      -0.00000
    25  H(1)              -0.00000      -0.00000      -0.00000      -0.00000
    26  H(1)              -0.00000      -0.00000      -0.00000      -0.00000
    27  H(1)              -0.00000      -0.00000      -0.00000      -0.00000
    28  H(1)              -0.00000      -0.00000      -0.00000      -0.00000
    29  H(1)              -0.00000      -0.00000      -0.00000      -0.00000
    30  H(1)              -0.00000      -0.00000      -0.00000      -0.00000
 --------------------------------------------------------
       Center         ----  Spin Dipole Couplings  ----
                      3XX-RR        3YY-RR        3ZZ-RR
 --------------------------------------------------------
     1   Atom        0.000000      0.000000     -0.000000
     2   Atom       -0.000000     -0.000000      0.000000
     3   Atom        0.000000      0.000000     -0.000000
     4   Atom       -0.000000     -0.000000      0.000000
     5   Atom       -0.000000      0.000000     -0.000000
     6   Atom        0.000000      0.000000     -0.000000
     7   Atom       -0.000000      0.000000      0.000000
     8   Atom        0.000000      0.000000     -0.000000
     9   Atom       -0.000000      0.000000     -0.000000
    10   Atom        0.000000      0.000000     -0.000000
    11   Atom       -0.000000      0.000000      0.000000
    12   Atom        0.000000     -0.000000     -0.000000
    13   Atom       -0.000000      0.000000     -0.000000
    14   Atom       -0.000000      0.000000     -0.000000
    15   Atom       -0.000000      0.000000      0.000000
    16   Atom        0.000000     -0.000000     -0.000000
    17   Atom       -0.000000      0.000000      0.000000
    18   Atom       -0.000000      0.000000     -0.000000
    19   Atom       -0.000000     -0.000000      0.000000
    20   Atom        0.000000     -0.000000     -0.000000
    21   Atom       -0.000000      0.000000      0.000000
    22   Atom        0.000000     -0.000000     -0.000000
    23   Atom        0.000000     -0.000000     -0.000000
    24   Atom        0.000000     -0.000000      0.000000
    25   Atom        0.000000     -0.000000     -0.000000
    26   Atom        0.000000      0.000000     -0.000000
    27   Atom        0.000000      0.000000     -0.000000
    28   Atom       -0.000000      0.000000      0.000000
    29   Atom        0.000000     -0.000000     -0.000000
    30   Atom       -0.000000      0.000000      0.000000
 --------------------------------------------------------
                        XY            XZ            YZ
 --------------------------------------------------------
     1   Atom        0.000000     -0.000000     -0.000000
     2   Atom        0.000000      0.000000     -0.000000
     3   Atom        0.000000     -0.000000      0.000000
     4   Atom        0.000000      0.000000     -0.000000
     5   Atom       -0.000000     -0.000000      0.000000
     6   Atom        0.000000     -0.000000     -0.000000
     7   Atom        0.000000      0.000000      0.000000
     8   Atom        0.000000      0.000000      0.000000
     9   Atom        0.000000      0.000000     -0.000000
    10   Atom       -0.000000     -0.000000      0.000000
    11   Atom        0.000000      0.000000     -0.000000
    12   Atom        0.000000     -0.000000      0.000000
    13   Atom       -0.000000      0.000000     -0.000000
    14   Atom        0.000000     -0.000000     -0.000000
    15   Atom       -0.000000      0.000000     -0.000000
    16   Atom       -0.000000      0.000000     -0.000000
    17   Atom       -0.000000     -0.000000     -0.000000
    18   Atom       -0.000000     -0.000000     -0.000000
    19   Atom        0.000000      0.000000      0.000000
    20   Atom        0.000000     -0.000000     -0.000000
    21   Atom       -0.000000     -0.000000      0.000000
    22   Atom       -0.000000      0.000000      0.000000
    23   Atom       -0.000000      0.000000     -0.000000
    24   Atom       -0.000000     -0.000000      0.000000
    25   Atom       -0.000000     -0.000000     -0.000000
    26   Atom        0.000000      0.000000     -0.000000
    27   Atom       -0.000000     -0.000000      0.000000
    28   Atom        0.000000      0.000000      0.000000
    29   Atom        0.000000     -0.000000     -0.000000
    30   Atom        0.000000     -0.000000     -0.000000
 --------------------------------------------------------


 ---------------------------------------------------------------------------------
              Anisotropic Spin Dipole Couplings in Principal Axis System
 ---------------------------------------------------------------------------------

       Atom             a.u.   MegaHertz   Gauss  10(-4) cm-1        Axes

              Baa    -0.0000    -0.000    -0.000    -0.000  0.2408 -0.0426  0.9696
     1 C(13)  Bbb    -0.0000    -0.000    -0.000    -0.000 -0.5305  0.8308  0.1683
              Bcc     0.0000     0.000     0.000     0.000  0.8127  0.5550 -0.1775
 
              Baa    -0.0000    -0.000    -0.000    -0.000 -0.6500  0.7494  0.1263
     2 C(13)  Bbb     0.0000     0.000     0.000     0.000  0.5297  0.3275  0.7824
              Bcc     0.0000     0.000     0.000     0.000 -0.5449 -0.5755  0.6098
 
              Baa    -0.0000    -0.000    -0.000    -0.000  0.5265 -0.3420  0.7783
     3 C(13)  Bbb     0.0000     0.000     0.000     0.000 -0.6073  0.4894  0.6259
              Bcc     0.0000     0.000     0.000     0.000  0.5950  0.8022 -0.0499
 
              Baa    -0.0000    -0.000    -0.000    -0.000 -0.6625  0.6951  0.2793
     4 C(13)  Bbb     0.0000     0.000     0.000     0.000  0.4530  0.0748  0.8884
              Bcc     0.0000     0.000     0.000     0.000  0.5966  0.7150 -0.3644
 
              Baa    -0.0000    -0.000    -0.000    -0.000  0.9192  0.3471  0.1861
     5 C(13)  Bbb    -0.0000    -0.000    -0.000    -0.000 -0.0648 -0.3327  0.9408
              Bcc     0.0000     0.000     0.000     0.000 -0.3885  0.8768  0.2834
 
              Baa    -0.0000    -0.000    -0.000    -0.000 -0.6079  0.7540  0.2490
     6 C(13)  Bbb    -0.0000    -0.000    -0.000    -0.000  0.1921 -0.1647  0.9675
              Bcc     0.0000     0.000     0.000     0.000  0.7704  0.6359 -0.0447
 
              Baa    -0.0000     0.000     0.000     0.000  0.8739 -0.4765 -0.0964
     7 O(17)  Bbb     0.0000    -0.000    -0.000    -0.000 -0.0009 -0.1998  0.9798
              Bcc     0.0000    -0.000    -0.000    -0.000  0.4861  0.8562  0.1751
 
              Baa    -0.0000     0.000     0.000     0.000 -0.3061 -0.3545  0.8835
     8 O(17)  Bbb    -0.0000     0.000     0.000     0.000 -0.5650  0.8146  0.1311
              Bcc     0.0000    -0.000    -0.000    -0.000  0.7662  0.4590  0.4497
 
              Baa    -0.0000    -0.000    -0.000    -0.000 -0.2902  0.1911  0.9377
     9 Br(79) Bbb    -0.0000    -0.000    -0.000    -0.000  0.8732 -0.3480  0.3412
              Bcc     0.0000     0.000     0.000     0.000  0.3915  0.9178 -0.0659
 
              Baa    -0.0000    -0.000    -0.000    -0.000  0.6005  0.5000  0.6240
    10 Br(79) Bbb    -0.0000    -0.000    -0.000    -0.000 -0.3055 -0.5777  0.7569
              Bcc     0.0000     0.000     0.000     0.000  0.7390 -0.6452 -0.1942
 
              Baa    -0.0000    -0.000    -0.000    -0.000  0.8946 -0.4307 -0.1193
    11 Br(79) Bbb     0.0000     0.000     0.000     0.000  0.2121  0.1743  0.9616
              Bcc     0.0000     0.000     0.000     0.000  0.3933  0.8855 -0.2473
 
              Baa    -0.0000    -0.000    -0.000    -0.000  0.1713 -0.6134  0.7710
    12 C(13)  Bbb     0.0000     0.000     0.000     0.000 -0.3267  0.7029  0.6318
              Bcc     0.0000     0.000     0.000     0.000  0.9295  0.3601  0.0800
 
              Baa    -0.0000    -0.000    -0.000    -0.000  0.8075 -0.0519 -0.5876
    13 C(13)  Bbb     0.0000     0.000     0.000     0.000  0.4421  0.7127  0.5446
              Bcc     0.0000     0.000     0.000     0.000 -0.3905  0.6995 -0.5985
 
              Baa    -0.0000    -0.000    -0.000    -0.000  0.7795 -0.6240  0.0543
    14 C(13)  Bbb    -0.0000    -0.000    -0.000    -0.000  0.2715  0.4147  0.8685
              Bcc     0.0000     0.000     0.000     0.000  0.5645  0.6623 -0.4926
 
              Baa    -0.0000    -0.000    -0.000    -0.000  0.7024 -0.1351 -0.6988
    15 C(13)  Bbb    -0.0000    -0.000    -0.000    -0.000  0.4677  0.8276  0.3102
              Bcc     0.0000     0.000     0.000     0.000  0.5365 -0.5448  0.6445
 
              Baa    -0.0000    -0.000    -0.000    -0.000 -0.1964  0.4885  0.8502
    16 C(13)  Bbb    -0.0000    -0.000    -0.000    -0.000  0.2853  0.8580 -0.4271
              Bcc     0.0000     0.000     0.000     0.000  0.9381 -0.1587  0.3079
 
              Baa    -0.0000    -0.000    -0.000    -0.000  0.8144  0.1298  0.5656
    17 C(13)  Bbb     0.0000     0.000     0.000     0.000 -0.1497  0.9887 -0.0112
              Bcc     0.0000     0.000     0.000     0.000 -0.5606 -0.0755  0.8246
 
              Baa    -0.0000    -0.000    -0.000    -0.000  0.9656  0.1433  0.2168
    18 H(1)   Bbb    -0.0000    -0.000    -0.000    -0.000 -0.2389  0.1603  0.9577
              Bcc     0.0000     0.000     0.000     0.000 -0.1025  0.9766 -0.1891
 
              Baa    -0.0000    -0.000    -0.000    -0.000 -0.3430 -0.6602  0.6682
    19 H(1)   Bbb    -0.0000    -0.000    -0.000    -0.000  0.8385 -0.5358 -0.0989
              Bcc     0.0000     0.000     0.000     0.000  0.4233  0.5263  0.7374
 
              Baa    -0.0000    -0.000    -0.000    -0.000  0.0249  0.6634  0.7478
    20 H(1)   Bbb     0.0000     0.000     0.000     0.000  0.8324 -0.4280  0.3521
              Bcc     0.0000     0.000     0.000     0.000  0.5537  0.6137 -0.5628
 
              Baa    -0.0000    -0.000    -0.000    -0.000  0.9138  0.3723 -0.1625
    21 H(1)   Bbb    -0.0000    -0.000    -0.000    -0.000  0.3649 -0.5763  0.7313
              Bcc     0.0000     0.000     0.000     0.000 -0.1786  0.7275  0.6625
 
              Baa    -0.0000    -0.000    -0.000    -0.000  0.4401  0.6589 -0.6101
    22 H(1)   Bbb     0.0000     0.000     0.000     0.000 -0.1710  0.7285  0.6634
              Bcc     0.0000     0.000     0.000     0.000  0.8815 -0.1876  0.4333
 
              Baa    -0.0000    -0.000    -0.000    -0.000 -0.2846  0.3226  0.9027
    23 H(1)   Bbb    -0.0000    -0.000    -0.000    -0.000  0.4975  0.8546 -0.1485
              Bcc     0.0000     0.000     0.000     0.000  0.8194 -0.4068  0.4038
 
              Baa    -0.0000    -0.000    -0.000    -0.000  0.2033  0.9503 -0.2357
    24 H(1)   Bbb     0.0000     0.000     0.000     0.000  0.2465  0.1833  0.9517
              Bcc     0.0000     0.000     0.000     0.000  0.9476 -0.2515 -0.1970
 
              Baa    -0.0000    -0.000    -0.000    -0.000  0.0416  0.7989  0.6001
    25 H(1)   Bbb     0.0000     0.000     0.000     0.000  0.8130  0.3221 -0.4851
              Bcc     0.0000     0.000     0.000     0.000  0.5808 -0.5081  0.6361
 
              Baa    -0.0000    -0.000    -0.000    -0.000 -0.2244  0.1955  0.9547
    26 H(1)   Bbb    -0.0000    -0.000    -0.000    -0.000 -0.3471  0.8994 -0.2657
              Bcc     0.0000     0.000     0.000     0.000  0.9106  0.3910  0.1340
 
              Baa    -0.0000    -0.000    -0.000    -0.000  0.1352 -0.2294  0.9639
    27 H(1)   Bbb    -0.0000    -0.000    -0.000    -0.000  0.6882  0.7216  0.0752
              Bcc     0.0000     0.000     0.000     0.000  0.7128 -0.6532 -0.2554
 
              Baa    -0.0000    -0.000    -0.000    -0.000  0.7979 -0.5868  0.1379
    28 H(1)   Bbb    -0.0000    -0.000    -0.000    -0.000 -0.4289 -0.3918  0.8140
              Bcc     0.0000     0.000     0.000     0.000  0.4236  0.7086  0.5643
 
              Baa    -0.0000    -0.000    -0.000    -0.000  0.0680  0.1566  0.9853
    29 H(1)   Bbb    -0.0000    -0.000    -0.000    -0.000 -0.0828  0.9851 -0.1508
              Bcc     0.0000     0.000     0.000     0.000  0.9942  0.0713 -0.0800
 
              Baa    -0.0000    -0.000    -0.000    -0.000  0.9205  0.0415  0.3885
    30 H(1)   Bbb    -0.0000    -0.000    -0.000    -0.000 -0.3427  0.5629  0.7521
              Bcc     0.0000     0.000     0.000     0.000  0.1875  0.8255 -0.5324
 

 ---------------------------------------------------------------------------------

 No NMR shielding tensors so no spin-rotation constants.
 Leave Link  601 at Sun Jan 21 06:54:31 2024, MaxMem=  4026531840 cpu:               8.3 elap:               1.3
 (Enter /sysapps/ubuntu-applications/gaussian/Gaussian/AVX2/g16/l9999.exe)
 1\1\GINC-ACIDSCN028\SP\UB3LYP\6-311++G(d,p)\C12H13Br3O2\SELHAJJ1\21-Ja
 n-2024\0\\#P UB3LYP/6-311++G(d,p) SCRF=(PCM,Solvent=n,n-DiMethylFormam
 ide)\\Quinone PCM in DMF\\0,1\C,0,0.641353,-1.708717,-0.924231\C,0,-0.
 556711,-1.142163,-0.219185\C,0,-0.475477,0.013878,0.465461\C,0,0.81657
 4,0.780233,0.551\C,0,1.995312,0.183216,-0.149114\C,0,1.943843,-0.96384
 2,-0.851972\O,0,0.565892,-2.748608,-1.543241\O,0,0.887122,1.823305,1.1
 56051\Br,0,-2.137739,-2.160607,-0.374881\Br,0,-1.92712,0.799957,1.3775
 81\Br,0,3.598036,1.194526,0.029748\C,0,3.10263,-1.607539,-1.557805\C,0
 ,3.84007,-2.63225,-0.666467\C,0,5.013594,-3.294253,-1.39615\C,0,5.7616
 85,-4.315972,-0.532593\C,0,6.937325,-4.98345,-1.25553\C,0,7.679459,-6.
 003466,-0.387232\H,0,3.802514,-0.834642,-1.879753\H,0,2.7249,-2.119739
 ,-2.444949\H,0,3.130927,-3.400225,-0.340947\H,0,4.203619,-2.129244,0.2
 3618\H,0,5.715048,-2.520014,-1.73213\H,0,4.642731,-3.787515,-2.303283\
 H,0,5.05924,-5.089222,-0.19593\H,0,6.13014,-3.822773,0.376219\H,0,7.63
 9269,-4.21082,-1.592113\H,0,6.569058,-5.476044,-2.163572\H,0,8.089888,
 -5.533557,0.512144\H,0,8.510506,-6.460905,-0.931039\H,0,7.011543,-6.80
 8044,-0.063797\\Version=ES64L-G16RevA.03\State=1-A\HF=-8338.1361958\S2
 =0.\S2-1=0.\S2A=0.\RMSD=5.066e-09\Dipole=0.6008679,-0.5828779,-0.38660
 46\Quadrupole=7.537413,-7.5862587,0.0488457,-1.5515914,-2.5690973,-5.0
 639895\PG=C01 [X(C12H13Br3O2)]\\@


 TWO ROADS DIVERGED IN A WOOD, AND I--
 I TOOK THE ONE LESS TRAVELED BY,
 AND THAT HAS MADE ALL THE DIFFERENCE.

                       -- ROBERT FROST
 Job cpu time:       0 days  0 hours 29 minutes 51.0 seconds.
 Elapsed time:       0 days  0 hours  3 minutes 46.6 seconds.
 File lengths (MBytes):  RWF=    410 Int=      0 D2E=      0 Chk=     23 Scr=      1
 Normal termination of Gaussian 16 at Sun Jan 21 06:54:31 2024.
