 Entering Gaussian System, Link 0=g16
 Input=038-rad.com
 Output=038-rad.log
 Initial command:
 /sysapps/ubuntu-applications/gaussian/Gaussian/AVX2/g16/l1.exe "/scratch/selhajj1/4406376/Gau-1947178.inp" -scrdir="/scratch/selhajj1/4406376/"
 Entering Link 1 = /sysapps/ubuntu-applications/gaussian/Gaussian/AVX2/g16/l1.exe PID=   1947188.
  
 Copyright (c) 1988,1990,1992,1993,1995,1998,2003,2009,2016,
            Gaussian, Inc.  All Rights Reserved.
  
 This is part of the Gaussian(R) 16 program.  It is based on
 the Gaussian(R) 09 system (copyright 2009, Gaussian, Inc.),
 the Gaussian(R) 03 system (copyright 2003, Gaussian, Inc.),
 the Gaussian(R) 98 system (copyright 1998, Gaussian, Inc.),
 the Gaussian(R) 94 system (copyright 1995, Gaussian, Inc.),
 the Gaussian 92(TM) system (copyright 1992, Gaussian, Inc.),
 the Gaussian 90(TM) system (copyright 1990, Gaussian, Inc.),
 the Gaussian 88(TM) system (copyright 1988, Gaussian, Inc.),
 the Gaussian 86(TM) system (copyright 1986, Carnegie Mellon
 University), and the Gaussian 82(TM) system (copyright 1983,
 Carnegie Mellon University). Gaussian is a federally registered
 trademark of Gaussian, Inc.
  
 This software contains proprietary and confidential information,
 including trade secrets, belonging to Gaussian, Inc.
  
 This software is provided under written license and may be
 used, copied, transmitted, or stored only in accord with that
 written license.
  
 The following legend is applicable only to US Government
 contracts under FAR:
  
                    RESTRICTED RIGHTS LEGEND
  
 Use, reproduction and disclosure by the US Government is
 subject to restrictions as set forth in subparagraphs (a)
 and (c) of the Commercial Computer Software - Restricted
 Rights clause in FAR 52.227-19.
  
 Gaussian, Inc.
 340 Quinnipiac St., Bldg. 40, Wallingford CT 06492
  
  
 ---------------------------------------------------------------
 Warning -- This program may not be used in any manner that
 competes with the business of Gaussian, Inc. or will provide
 assistance to any competitor of Gaussian, Inc.  The licensee
 of this program is prohibited from giving any competitor of
 Gaussian, Inc. access to this program.  By using this program,
 the user acknowledges that Gaussian, Inc. is engaged in the
 business of creating and licensing software in the field of
 computational chemistry and represents and warrants to the
 licensee that it is not a competitor of Gaussian, Inc. and that
 it will not use this program in any manner prohibited above.
 ---------------------------------------------------------------
  

 Cite this work as:
 Gaussian 16, Revision A.03,
 M. J. Frisch, G. W. Trucks, H. B. Schlegel, G. E. Scuseria, 
 M. A. Robb, J. R. Cheeseman, G. Scalmani, V. Barone, 
 G. A. Petersson, H. Nakatsuji, X. Li, M. Caricato, A. V. Marenich, 
 J. Bloino, B. G. Janesko, R. Gomperts, B. Mennucci, H. P. Hratchian, 
 J. V. Ortiz, A. F. Izmaylov, J. L. Sonnenberg, D. Williams-Young, 
 F. Ding, F. Lipparini, F. Egidi, J. Goings, B. Peng, A. Petrone, 
 T. Henderson, D. Ranasinghe, V. G. Zakrzewski, J. Gao, N. Rega, 
 G. Zheng, W. Liang, M. Hada, M. Ehara, K. Toyota, R. Fukuda, 
 J. Hasegawa, M. Ishida, T. Nakajima, Y. Honda, O. Kitao, H. Nakai, 
 T. Vreven, K. Throssell, J. A. Montgomery, Jr., J. E. Peralta, 
 F. Ogliaro, M. J. Bearpark, J. J. Heyd, E. N. Brothers, K. N. Kudin, 
 V. N. Staroverov, T. A. Keith, R. Kobayashi, J. Normand, 
 K. Raghavachari, A. P. Rendell, J. C. Burant, S. S. Iyengar, 
 J. Tomasi, M. Cossi, J. M. Millam, M. Klene, C. Adamo, R. Cammi, 
 J. W. Ochterski, R. L. Martin, K. Morokuma, O. Farkas, 
 J. B. Foresman, and D. J. Fox, Gaussian, Inc., Wallingford CT, 2016.
 
 ******************************************
 Gaussian 16:  ES64L-G16RevA.03 25-Dec-2016
                10-Feb-2024 
 ******************************************
 %chk=038-rad.chk
 %nproc=8
 Will use up to    8 processors via shared memory.
 %mem=30GB
 ----------------------------------------------------------------------
 #P UB3LYP/6-311++G(d,p) nosym opt freq SCRF=(PCM,Solvent=n,n-DiMethylF
 ormamide)
 ----------------------------------------------------------------------
 1/18=20,19=15,26=3,38=1/1,3;
 2/9=110,12=2,15=1,17=6,18=5,40=1/2;
 3/5=4,6=6,7=1111,11=2,25=1,30=1,70=2201,71=1,72=148,74=-5,116=2/1,2,3;
 4//1;
 5/5=2,38=5,53=148/2;
 6/7=2,8=2,9=2,10=2,28=1/1;
 7/30=1/1,2,3,16;
 1/18=20,19=15,26=3/3(2);
 2/9=110,15=1/2;
 99//99;
 2/9=110,15=1/2;
 3/5=4,6=6,7=1111,11=2,25=1,30=1,70=2205,71=1,72=148,74=-5,116=2/1,2,3;
 4/5=5,16=3,69=1/1;
 5/5=2,38=5,53=148/2;
 7/30=1/1,2,3,16;
 1/18=20,19=15,26=3/3(-5);
 2/9=110,15=1/2;
 6/7=2,8=2,9=2,10=2,19=2,28=1/1;
 99/9=1/99;
 Leave Link    1 at Sat Feb 10 10:01:34 2024, MaxMem=  4026531840 cpu:               1.3 elap:               0.2
 (Enter /sysapps/ubuntu-applications/gaussian/Gaussian/AVX2/g16/l101.exe)
 -------
 Radical
 -------
 Symbolic Z-matrix:
 Charge = -1 Multiplicity = 2
 C                     2.91966   0.25956  -0.07936 
 C                     1.42272   0.10685  -0.0275 
 C                     0.81791  -0.96841   0.57435 
 C                    -0.615    -1.15178   0.64545 
 O                    -1.14121  -2.15742   1.20924 
 C                    -1.42272  -0.10682   0.02744 
 C                    -0.81794   0.96838  -0.57442 
 C                     0.61501   1.15174  -0.64554 
 O                     1.14115   2.1574   -1.20939 
 C                    -2.91967  -0.25954   0.07945 
 H                     3.4179   -0.58038   0.41399 
 H                     3.23657   1.19159   0.40169 
 H                     3.27276   0.32241  -1.11468 
 H                     1.4177   -1.74997   1.03648 
 H                    -1.41766   1.74997  -1.03659 
 H                    -3.27262  -0.32247   1.11481 
 H                    -3.41793   0.58043  -0.41382 
 H                    -3.23664  -1.19155  -0.40159 
 
 ITRead=  0  0  0  0  0  0  0  0  0  0  0  0  0  0  0  0  0  0
 MicOpt= -1 -1 -1 -1 -1 -1 -1 -1 -1 -1 -1 -1 -1 -1 -1 -1 -1 -1
 NAtoms=     18 NQM=       18 NQMF=       0 NMMI=      0 NMMIF=      0
                NMic=       0 NMicF=      0.
                    Isotopes and Nuclear Properties:
 (Nuclear quadrupole moments (NQMom) in fm**2, nuclear magnetic moments (NMagM)
  in nuclear magnetons)

  Atom         1           2           3           4           5           6           7           8           9          10
 IAtWgt=          12          12          12          12          16          12          12          12          16          12
 AtmWgt=  12.0000000  12.0000000  12.0000000  12.0000000  15.9949146  12.0000000  12.0000000  12.0000000  15.9949146  12.0000000
 NucSpn=           0           0           0           0           0           0           0           0           0           0
 AtZEff=  -0.0000000  -0.0000000  -0.0000000  -0.0000000  -0.0000000  -0.0000000  -0.0000000  -0.0000000  -0.0000000  -0.0000000
 NQMom=    0.0000000   0.0000000   0.0000000   0.0000000   0.0000000   0.0000000   0.0000000   0.0000000   0.0000000   0.0000000
 NMagM=    0.0000000   0.0000000   0.0000000   0.0000000   0.0000000   0.0000000   0.0000000   0.0000000   0.0000000   0.0000000
 AtZNuc=   6.0000000   6.0000000   6.0000000   6.0000000   8.0000000   6.0000000   6.0000000   6.0000000   8.0000000   6.0000000

  Atom        11          12          13          14          15          16          17          18
 IAtWgt=           1           1           1           1           1           1           1           1
 AtmWgt=   1.0078250   1.0078250   1.0078250   1.0078250   1.0078250   1.0078250   1.0078250   1.0078250
 NucSpn=           1           1           1           1           1           1           1           1
 AtZEff=  -0.0000000  -0.0000000  -0.0000000  -0.0000000  -0.0000000  -0.0000000  -0.0000000  -0.0000000
 NQMom=    0.0000000   0.0000000   0.0000000   0.0000000   0.0000000   0.0000000   0.0000000   0.0000000
 NMagM=    2.7928460   2.7928460   2.7928460   2.7928460   2.7928460   2.7928460   2.7928460   2.7928460
 AtZNuc=   1.0000000   1.0000000   1.0000000   1.0000000   1.0000000   1.0000000   1.0000000   1.0000000
 Leave Link  101 at Sat Feb 10 10:01:34 2024, MaxMem=  4026531840 cpu:               3.3 elap:               0.5
 (Enter /sysapps/ubuntu-applications/gaussian/Gaussian/AVX2/g16/l103.exe)

 GradGradGradGradGradGradGradGradGradGradGradGradGradGradGradGradGradGrad
 Berny optimization.
 Initialization pass.
                           ----------------------------
                           !    Initial Parameters    !
                           ! (Angstroms and Degrees)  !
 --------------------------                            --------------------------
 ! Name  Definition              Value          Derivative Info.                !
 --------------------------------------------------------------------------------
 ! R1    R(1,2)                  1.5056         estimate D2E/DX2                !
 ! R2    R(1,11)                 1.0941         estimate D2E/DX2                !
 ! R3    R(1,12)                 1.0957         estimate D2E/DX2                !
 ! R4    R(1,13)                 1.0957         estimate D2E/DX2                !
 ! R5    R(2,3)                  1.3727         estimate D2E/DX2                !
 ! R6    R(2,8)                  1.4581         estimate D2E/DX2                !
 ! R7    R(3,4)                  1.4463         estimate D2E/DX2                !
 ! R8    R(3,14)                 1.0882         estimate D2E/DX2                !
 ! R9    R(4,5)                  1.2673         estimate D2E/DX2                !
 ! R10   R(4,6)                  1.4582         estimate D2E/DX2                !
 ! R11   R(6,7)                  1.3726         estimate D2E/DX2                !
 ! R12   R(6,10)                 1.5056         estimate D2E/DX2                !
 ! R13   R(7,8)                  1.4464         estimate D2E/DX2                !
 ! R14   R(7,15)                 1.0882         estimate D2E/DX2                !
 ! R15   R(8,9)                  1.2673         estimate D2E/DX2                !
 ! R16   R(10,16)                1.0957         estimate D2E/DX2                !
 ! R17   R(10,17)                1.0941         estimate D2E/DX2                !
 ! R18   R(10,18)                1.0957         estimate D2E/DX2                !
 ! A1    A(2,1,11)             111.0602         estimate D2E/DX2                !
 ! A2    A(2,1,12)             111.0221         estimate D2E/DX2                !
 ! A3    A(2,1,13)             111.0249         estimate D2E/DX2                !
 ! A4    A(11,1,12)            108.8654         estimate D2E/DX2                !
 ! A5    A(11,1,13)            108.8656         estimate D2E/DX2                !
 ! A6    A(12,1,13)            105.8338         estimate D2E/DX2                !
 ! A7    A(1,2,3)              122.1835         estimate D2E/DX2                !
 ! A8    A(1,2,8)              117.6105         estimate D2E/DX2                !
 ! A9    A(3,2,8)              120.206          estimate D2E/DX2                !
 ! A10   A(2,3,4)              123.8752         estimate D2E/DX2                !
 ! A11   A(2,3,14)             120.3952         estimate D2E/DX2                !
 ! A12   A(4,3,14)             115.7296         estimate D2E/DX2                !
 ! A13   A(3,4,5)              122.2652         estimate D2E/DX2                !
 ! A14   A(3,4,6)              115.9183         estimate D2E/DX2                !
 ! A15   A(5,4,6)              121.8165         estimate D2E/DX2                !
 ! A16   A(4,6,7)              120.2066         estimate D2E/DX2                !
 ! A17   A(4,6,10)             117.6071         estimate D2E/DX2                !
 ! A18   A(7,6,10)             122.1863         estimate D2E/DX2                !
 ! A19   A(6,7,8)              123.8748         estimate D2E/DX2                !
 ! A20   A(6,7,15)             120.3992         estimate D2E/DX2                !
 ! A21   A(8,7,15)             115.7261         estimate D2E/DX2                !
 ! A22   A(2,8,7)              115.9191         estimate D2E/DX2                !
 ! A23   A(2,8,9)              121.82           estimate D2E/DX2                !
 ! A24   A(7,8,9)              122.2609         estimate D2E/DX2                !
 ! A25   A(6,10,16)            111.023          estimate D2E/DX2                !
 ! A26   A(6,10,17)            111.0592         estimate D2E/DX2                !
 ! A27   A(6,10,18)            111.0231         estimate D2E/DX2                !
 ! A28   A(16,10,17)           108.8696         estimate D2E/DX2                !
 ! A29   A(16,10,18)           105.8319         estimate D2E/DX2                !
 ! A30   A(17,10,18)           108.8655         estimate D2E/DX2                !
 ! D1    D(11,1,2,3)            -0.0038         estimate D2E/DX2                !
 ! D2    D(11,1,2,8)           179.9933         estimate D2E/DX2                !
 ! D3    D(12,1,2,3)          -121.2813         estimate D2E/DX2                !
 ! D4    D(12,1,2,8)            58.7158         estimate D2E/DX2                !
 ! D5    D(13,1,2,3)           121.2758         estimate D2E/DX2                !
 ! D6    D(13,1,2,8)           -58.7271         estimate D2E/DX2                !
 ! D7    D(1,2,3,4)            179.9942         estimate D2E/DX2                !
 ! D8    D(1,2,3,14)            -0.0054         estimate D2E/DX2                !
 ! D9    D(8,2,3,4)             -0.0028         estimate D2E/DX2                !
 ! D10   D(8,2,3,14)           179.9975         estimate D2E/DX2                !
 ! D11   D(1,2,8,7)           -179.9936         estimate D2E/DX2                !
 ! D12   D(1,2,8,9)              0.0036         estimate D2E/DX2                !
 ! D13   D(3,2,8,7)              0.0036         estimate D2E/DX2                !
 ! D14   D(3,2,8,9)           -179.9992         estimate D2E/DX2                !
 ! D15   D(2,3,4,5)            179.9986         estimate D2E/DX2                !
 ! D16   D(2,3,4,6)              0.0001         estimate D2E/DX2                !
 ! D17   D(14,3,4,5)            -0.0018         estimate D2E/DX2                !
 ! D18   D(14,3,4,6)           179.9998         estimate D2E/DX2                !
 ! D19   D(3,4,6,7)              0.0016         estimate D2E/DX2                !
 ! D20   D(3,4,6,10)          -179.9998         estimate D2E/DX2                !
 ! D21   D(5,4,6,7)           -179.9968         estimate D2E/DX2                !
 ! D22   D(5,4,6,10)             0.0017         estimate D2E/DX2                !
 ! D23   D(4,6,7,8)             -0.0006         estimate D2E/DX2                !
 ! D24   D(4,6,7,15)           179.9982         estimate D2E/DX2                !
 ! D25   D(10,6,7,8)          -179.9991         estimate D2E/DX2                !
 ! D26   D(10,6,7,15)           -0.0002         estimate D2E/DX2                !
 ! D27   D(4,6,10,16)           58.7216         estimate D2E/DX2                !
 ! D28   D(4,6,10,17)         -179.9958         estimate D2E/DX2                !
 ! D29   D(4,6,10,18)          -58.7183         estimate D2E/DX2                !
 ! D30   D(7,6,10,16)         -121.2798         estimate D2E/DX2                !
 ! D31   D(7,6,10,17)            0.0028         estimate D2E/DX2                !
 ! D32   D(7,6,10,18)          121.2802         estimate D2E/DX2                !
 ! D33   D(6,7,8,2)             -0.002          estimate D2E/DX2                !
 ! D34   D(6,7,8,9)           -179.9991         estimate D2E/DX2                !
 ! D35   D(15,7,8,2)           179.9991         estimate D2E/DX2                !
 ! D36   D(15,7,8,9)             0.002          estimate D2E/DX2                !
 --------------------------------------------------------------------------------
 Trust Radius=3.00D-01 FncErr=1.00D-07 GrdErr=1.00D-06 EigMax=2.50D+02 EigMin=1.00D-04
 Number of steps in this run=     94 maximum allowed number of steps=    108.
 GradGradGradGradGradGradGradGradGradGradGradGradGradGradGradGradGradGrad

 Leave Link  103 at Sat Feb 10 10:01:35 2024, MaxMem=  4026531840 cpu:               0.3 elap:               0.1
 (Enter /sysapps/ubuntu-applications/gaussian/Gaussian/AVX2/g16/l202.exe)
                          Input orientation:                          
 ---------------------------------------------------------------------
 Center     Atomic      Atomic             Coordinates (Angstroms)
 Number     Number       Type             X           Y           Z
 ---------------------------------------------------------------------
      1          6           0        2.919663    0.259563   -0.079357
      2          6           0        1.422719    0.106845   -0.027499
      3          6           0        0.817914   -0.968407    0.574351
      4          6           0       -0.614995   -1.151784    0.645446
      5          8           0       -1.141207   -2.157424    1.209237
      6          6           0       -1.422721   -0.106817    0.027438
      7          6           0       -0.817938    0.968381   -0.574423
      8          6           0        0.615010    1.151743   -0.645535
      9          8           0        1.141148    2.157401   -1.209388
     10          6           0       -2.919667   -0.259535    0.079448
     11          1           0        3.417896   -0.580378    0.413991
     12          1           0        3.236569    1.191594    0.401689
     13          1           0        3.272762    0.322414   -1.114679
     14          1           0        1.417699   -1.749968    1.036478
     15          1           0       -1.417661    1.749966   -1.036592
     16          1           0       -3.272616   -0.322469    1.114812
     17          1           0       -3.417930    0.580426   -0.413822
     18          1           0       -3.236643   -1.191551   -0.401594
 ---------------------------------------------------------------------
                    Distance matrix (angstroms):
                    1          2          3          4          5
     1  C    0.000000
     2  C    1.505607   0.000000
     3  C    2.520435   1.372654   0.000000
     4  C    3.874409   2.487826   1.446344   0.000000
     5  O    4.898262   3.637327   2.378024   1.267309   0.000000
     6  C    4.359121   2.853979   2.462092   1.458188   2.383461
     7  C    3.836297   2.462095   2.783315   2.454458   3.613392
     8  C    2.535344   1.458141   2.454451   2.913036   4.180319
     9  O    2.835820   2.383469   3.613431   4.180329   5.447624
    10  C    5.864508   4.359127   3.836266   2.535345   2.835723
    11  H    1.094134   2.155904   2.633664   4.079741   4.889265
    12  H    1.095681   2.156603   3.247354   4.515018   5.570725
    13  H    1.095683   2.156638   3.247356   4.515081   5.570754
    14  H    2.745760   2.140053   1.088182   2.154664   2.596895
    15  H    4.685081   3.433056   3.870721   3.448721   4.515293
    16  H    6.333176   4.851325   4.176334   2.823299   2.814051
    17  H    6.354518   4.879079   4.617114   3.461076   3.913261
    18  H    6.333220   4.851333   4.176325   2.823280   2.813990
                    6          7          8          9         10
     6  C    0.000000
     7  C    1.372607   0.000000
     8  C    2.487813   1.446381   0.000000
     9  O    3.637286   2.378017   1.267320   0.000000
    10  C    1.505615   2.520434   3.874435   4.898254   0.000000
    11  H    4.879063   4.617132   3.461070   3.913358   6.354492
    12  H    4.851280   4.176320   2.823267   2.814097   6.333155
    13  H    4.851415   4.176479   2.823390   2.814236   6.333307
    14  H    3.433088   3.870723   3.448682   4.515299   4.685087
    15  H    2.140053   1.088183   2.154657   2.596799   2.745844
    16  H    2.156618   3.247345   4.515059   5.570725   1.095679
    17  H    2.155892   2.633678   4.079792   4.889271   1.094128
    18  H    2.156625   3.247354   4.515060   5.570733   1.095687
                   11         12         13         14         15
    11  H    0.000000
    12  H    1.781268   0.000000
    13  H    1.781272   1.748186   0.000000
    14  H    2.399212   3.516253   3.516177   0.000000
    15  H    5.560333   4.903294   4.903475   4.958470   0.000000
    16  H    6.732059   6.720894   6.944673   4.903361   3.516303
    17  H    6.982926   6.732083   6.732246   5.560343   2.399321
    18  H    6.732132   6.944575   6.721081   4.903344   3.516311
                   16         17         18
    16  H    0.000000
    17  H    1.781308   0.000000
    18  H    1.748166   1.781268   0.000000
 Symmetry turned off by external request.
 Stoichiometry    C8H8O2(1-,2)
 Framework group  C1[X(C8H8O2)]
 Deg. of freedom    48
 Full point group                 C1      NOp   1
 Rotational constants (GHZ):           2.3335767           1.0938071           0.7515544
 Leave Link  202 at Sat Feb 10 10:01:35 2024, MaxMem=  4026531840 cpu:               0.2 elap:               0.0
 (Enter /sysapps/ubuntu-applications/gaussian/Gaussian/AVX2/g16/l301.exe)
 Standard basis: 6-311++G(d,p) (5D, 7F)
 Ernie: Thresh=  0.10000D-02 Tol=  0.10000D-05 Strict=F.
   276 basis functions,   432 primitive gaussians,   286 cartesian basis functions
    37 alpha electrons       36 beta electrons
       nuclear repulsion energy       488.9467527218 Hartrees.
 IExCor=  402 DFT=T Ex+Corr=B3LYP ExCW=0 ScaHFX=  0.200000
 ScaDFX=  0.800000  0.720000  1.000000  0.810000 ScalE2=  1.000000  1.000000
 IRadAn=      5 IRanWt=     -1 IRanGd=            0 ICorTp=0 IEmpDi=  4
 NAtoms=   18 NActive=   18 NUniq=   18 SFac= 1.00D+00 NAtFMM=   60 NAOKFM=F Big=F
 Integral buffers will be    131072 words long.
 Raffenetti 2 integral format.
 Two-electron integral symmetry is turned off.
 ------------------------------------------------------------------------------
 Polarizable Continuum Model (PCM)
 =================================
 Model                : PCM.
 Atomic radii         : UFF (Universal Force Field).
 Polarization charges : Total charges.
 Charge compensation  : None.
 Solution method      : On-the-fly selection.
 Cavity type          : Scaled VdW (van der Waals Surface) (Alpha=1.100).
 Cavity algorithm     : GePol (No added spheres)
                        Default sphere list used, NSphG=   18.
                        Lebedev-Laikov grids with approx.  5.0 points / Ang**2.
                        Smoothing algorithm: York/Karplus (Gamma=1.0000).
                        Polarization charges: spherical gaussians, with
                                              point-specific exponents (IZeta= 3).
                        Self-potential: point-specific (ISelfS= 7).
                        Self-field    : sphere-specific E.n sum rule (ISelfD= 2).
 1st derivatives      : Analytical E(r).r(x)/FMM algorithm (CHGder, D1EAlg=3).
                        Cavity 1st derivative terms included.
 Solvent              : n,n-DiMethylFormamide, Eps=  37.219000 Eps(inf)=   2.046330
 ------------------------------------------------------------------------------
 Spheres list:
 ISph  on   Nord     Re0    Alpha      Xe            Ye            Ze
    1   C      1    1.9255  1.100      2.919663      0.259563     -0.079357
    2   C      2    1.9255  1.100      1.422719      0.106845     -0.027499
    3   C      3    1.9255  1.100      0.817914     -0.968407      0.574351
    4   C      4    1.9255  1.100     -0.614995     -1.151784      0.645446
    5   O      5    1.7500  1.100     -1.141207     -2.157424      1.209237
    6   C      6    1.9255  1.100     -1.422721     -0.106817      0.027438
    7   C      7    1.9255  1.100     -0.817938      0.968381     -0.574423
    8   C      8    1.9255  1.100      0.615010      1.151743     -0.645535
    9   O      9    1.7500  1.100      1.141148      2.157401     -1.209388
   10   C     10    1.9255  1.100     -2.919667     -0.259535      0.079448
   11   H     11    1.4430  1.100      3.417896     -0.580378      0.413991
   12   H     12    1.4430  1.100      3.236569      1.191594      0.401689
   13   H     13    1.4430  1.100      3.272762      0.322414     -1.114679
   14   H     14    1.4430  1.100      1.417699     -1.749968      1.036478
   15   H     15    1.4430  1.100     -1.417661      1.749966     -1.036592
   16   H     16    1.4430  1.100     -3.272616     -0.322469      1.114812
   17   H     17    1.4430  1.100     -3.417930      0.580426     -0.413822
   18   H     18    1.4430  1.100     -3.236643     -1.191551     -0.401594
 ------------------------------------------------------------------------------
 GePol: Number of generator spheres                  =      18
 GePol: Total number of spheres                      =      18
 GePol: Number of exposed spheres                    =      18 (100.00%)
 GePol: Number of points                             =    1538
 GePol: Average weight of points                     =       0.13
 GePol: Minimum weight of points                     =   0.29D-11
 GePol: Maximum weight of points                     =    0.20577
 GePol: Number of points with low weight             =     112
 GePol: Fraction of low-weight points (<1% of avg)   =       7.28%
 GePol: Cavity surface area                          =    202.777 Ang**2
 GePol: Cavity volume                                =    202.032 Ang**3
 Leave Link  301 at Sat Feb 10 10:01:35 2024, MaxMem=  4026531840 cpu:               0.7 elap:               0.3
 (Enter /sysapps/ubuntu-applications/gaussian/Gaussian/AVX2/g16/l302.exe)
 NPDir=0 NMtPBC=     1 NCelOv=     1 NCel=       1 NClECP=     1 NCelD=      1
         NCelK=      1 NCelE2=     1 NClLst=     1 CellRange=     0.0.
 One-electron integrals computed using PRISM.
 NBasis=   276 RedAO= T EigKep=  1.73D-06  NBF=   276
 NBsUse=   276 1.00D-06 EigRej= -1.00D+00 NBFU=   276
 Precomputing XC quadrature grid using
 IXCGrd= 4 IRadAn=           5 IRanWt=          -1 IRanGd=           0 AccXCQ= 0.00D+00.
 Generated NRdTot=       0 NPtTot=           0 NUsed=           0 NTot=          32
 NSgBfM=   286   286   286   286   286 MxSgAt=    18 MxSgA2=    18.
 Leave Link  302 at Sat Feb 10 10:01:35 2024, MaxMem=  4026531840 cpu:               2.6 elap:               0.4
 (Enter /sysapps/ubuntu-applications/gaussian/Gaussian/AVX2/g16/l303.exe)
 DipDrv:  MaxL=1.
 Leave Link  303 at Sat Feb 10 10:01:36 2024, MaxMem=  4026531840 cpu:               1.5 elap:               0.3
 (Enter /sysapps/ubuntu-applications/gaussian/Gaussian/AVX2/g16/l401.exe)
 ExpMin= 3.60D-02 ExpMax= 8.59D+03 ExpMxC= 1.30D+03 IAcc=3 IRadAn=         5 AccDes= 0.00D+00
 Harris functional with IExCor=  402 and IRadAn=       5 diagonalized for initial guess.
 HarFok:  IExCor=  402 AccDes= 0.00D+00 IRadAn=         5 IDoV= 1 UseB2=F ITyADJ=14
 ICtDFT=  3500011 ScaDFX=  1.000000  1.000000  1.000000  1.000000
 FoFCou: FMM=F IPFlag=           0 FMFlag=      100000 FMFlg1=           0
         NFxFlg=           0 DoJE=T BraDBF=F KetDBF=T FulRan=T
         wScrn=  0.000000 ICntrl=       500 IOpCl=  0 I1Cent=   200000004 NGrid=           0
         NMat0=    1 NMatS0=      1 NMatT0=    0 NMatD0=    1 NMtDS0=    0 NMtDT0=    0
 Symmetry not used in FoFCou.
 Harris En= -460.504932530003    
 JPrj=0 DoOrth=F DoCkMO=F.
 Initial guess <Sx>= 0.0000 <Sy>= 0.0000 <Sz>= 0.5000 <S**2>= 0.7500 S= 0.5000
 Leave Link  401 at Sat Feb 10 10:01:37 2024, MaxMem=  4026531840 cpu:              10.5 elap:               1.5
 (Enter /sysapps/ubuntu-applications/gaussian/Gaussian/AVX2/g16/l502.exe)
 Two-electron integral symmetry not used.
 UHF open shell SCF:
 Using DIIS extrapolation, IDIIS=  1040.
 NGot=  4026531840 LenX=  4026363800 LenY=  4026281563
 Requested convergence on RMS density matrix=1.00D-08 within 128 cycles.
 Requested convergence on MAX density matrix=1.00D-06.
 Requested convergence on             energy=1.00D-06.
 No special actions if energy rises.
 Fock matrices will be formed incrementally for  20 cycles.

 Cycle   1  Pass 1  IDiag  1:
 FoFJK:  IHMeth= 1 ICntrl=       0 DoSepK=F KAlg= 0 I1Cent=           0 FoldK=F
 IRaf= 940000000 NMat=       1 IRICut=       1 DoRegI=T DoRafI=F ISym2E= 0 IDoP0=0 IntGTp=1.
 FoFCou: FMM=F IPFlag=           0 FMFlag=      100000 FMFlg1=           0
         NFxFlg=           0 DoJE=F BraDBF=F KetDBF=F FulRan=T
         wScrn=  0.000000 ICntrl=         0 IOpCl=  1 I1Cent=           0 NGrid=           0
         NMat0=    1 NMatS0=      1 NMatT0=    0 NMatD0=    1 NMtDS0=    0 NMtDT0=    0
 Symmetry not used in FoFCou.
 Inv3:  Mode=1 IEnd=     7096332.
 Iteration    1 A*A^-1 deviation from unit magnitude is 3.00D-15 for    743.
 Iteration    1 A*A^-1 deviation from orthogonality  is 1.98D-15 for   1164     65.
 Iteration    1 A^-1*A deviation from unit magnitude is 3.22D-15 for    743.
 Iteration    1 A^-1*A deviation from orthogonality  is 2.22D-15 for   1305    906.
 E= -460.028697517592    
 DIIS: error= 4.99D-02 at cycle   1 NSaved=   1.
 NSaved= 1 IEnMin= 1 EnMin= -460.028697517592     IErMin= 1 ErrMin= 4.99D-02
 ErrMax= 4.99D-02  0.00D+00 EMaxC= 1.00D-01 BMatC= 1.64D+00 BMatP= 1.64D+00
 IDIUse=3 WtCom= 5.01D-01 WtEn= 4.99D-01
 Coeff-Com:  0.100D+01
 Coeff-En:   0.100D+01
 Coeff:      0.100D+01
 Gap=     0.142 Goal=   None    Shift=    0.000
 Gap=     0.157 Goal=   None    Shift=    0.000
 GapD=    0.142 DampG=1.000 DampE=0.500 DampFc=0.5000 IDamp=-1.
 Damping current iteration by 5.00D-01
 RMSDP=7.16D-02 MaxDP=3.52D+00              OVMax= 2.84D-01

 Cycle   2  Pass 1  IDiag  1:
 RMSU=  3.57D-02    CP:  1.06D+00
 E= -460.147832048062     Delta-E=       -0.119134530471 Rises=F Damp=T
 DIIS: error= 1.91D-02 at cycle   2 NSaved=   2.
 NSaved= 2 IEnMin= 2 EnMin= -460.147832048062     IErMin= 2 ErrMin= 1.91D-02
 ErrMax= 1.91D-02  0.00D+00 EMaxC= 1.00D-01 BMatC= 1.74D-01 BMatP= 1.64D+00
 IDIUse=3 WtCom= 8.09D-01 WtEn= 1.91D-01
 Coeff-Com:  0.169D+00 0.831D+00
 Coeff-En:   0.273D+00 0.727D+00
 Coeff:      0.189D+00 0.811D+00
 Gap=     0.159 Goal=   None    Shift=    0.000
 Gap=     0.239 Goal=   None    Shift=    0.000
 RMSDP=3.47D-02 MaxDP=2.03D+00 DE=-1.19D-01 OVMax= 2.49D-01

 Cycle   3  Pass 1  IDiag  1:
 RMSU=  6.83D-03    CP:  7.75D-01  1.24D-01
 E= -460.340814562795     Delta-E=       -0.192982514733 Rises=F Damp=F
 DIIS: error= 2.35D-02 at cycle   3 NSaved=   3.
 NSaved= 3 IEnMin= 3 EnMin= -460.340814562795     IErMin= 2 ErrMin= 1.91D-02
 ErrMax= 2.35D-02  0.00D+00 EMaxC= 1.00D-01 BMatC= 1.93D-01 BMatP= 1.74D-01
 IDIUse=2 WtCom= 0.00D+00 WtEn= 1.00D+00
 Coeff-En:   0.000D+00 0.000D+00 0.100D+01
 Coeff:      0.000D+00 0.000D+00 0.100D+01
 Gap=     0.158 Goal=   None    Shift=    0.000
 Gap=     0.187 Goal=   None    Shift=    0.000
 RMSDP=1.36D-02 MaxDP=9.02D-01 DE=-1.93D-01 OVMax= 2.45D-01

 Cycle   4  Pass 1  IDiag  1:
 RMSU=  8.54D-03    CP:  9.60D-01  2.79D-01  6.49D-01
 E= -460.189196437372     Delta-E=        0.151618125422 Rises=F Damp=F
 DIIS: error= 5.82D-02 at cycle   4 NSaved=   4.
 NSaved= 4 IEnMin= 3 EnMin= -460.340814562795     IErMin= 2 ErrMin= 1.91D-02
 ErrMax= 5.82D-02  0.00D+00 EMaxC= 1.00D-01 BMatC= 9.76D-01 BMatP= 1.74D-01
 IDIUse=2 WtCom= 0.00D+00 WtEn= 1.00D+00
 Coeff-En:   0.000D+00 0.000D+00 0.776D+00 0.224D+00
 Coeff:      0.000D+00 0.000D+00 0.776D+00 0.224D+00
 Gap=     0.149 Goal=   None    Shift=    0.000
 Gap=     0.135 Goal=   None    Shift=    0.000
 RMSDP=9.40D-03 MaxDP=6.84D-01 DE= 1.52D-01 OVMax= 1.23D-01

 Cycle   5  Pass 1  IDiag  1:
 RMSU=  1.04D-03    CP:  8.28D-01  1.44D-01  8.22D-01  4.23D-01
 E= -460.367996997739     Delta-E=       -0.178800560367 Rises=F Damp=F
 DIIS: error= 1.45D-02 at cycle   5 NSaved=   5.
 NSaved= 5 IEnMin= 5 EnMin= -460.367996997739     IErMin= 5 ErrMin= 1.45D-02
 ErrMax= 1.45D-02  0.00D+00 EMaxC= 1.00D-01 BMatC= 6.28D-02 BMatP= 1.74D-01
 IDIUse=3 WtCom= 8.55D-01 WtEn= 1.45D-01
 Coeff-Com: -0.940D-02 0.345D-01 0.257D+00-0.112D+00 0.830D+00
 Coeff-En:   0.000D+00 0.000D+00 0.288D+00 0.000D+00 0.712D+00
 Coeff:     -0.803D-02 0.294D-01 0.262D+00-0.958D-01 0.813D+00
 Gap=     0.156 Goal=   None    Shift=    0.000
 Gap=     0.143 Goal=   None    Shift=    0.000
 RMSDP=2.66D-03 MaxDP=1.98D-01 DE=-1.79D-01 OVMax= 4.16D-02

 Cycle   6  Pass 1  IDiag  1:
 RMSU=  2.84D-04    CP:  7.85D-01  1.21D-01  8.77D-01  2.54D-01  1.14D+00
 E= -460.380642652253     Delta-E=       -0.012645654514 Rises=F Damp=F
 DIIS: error= 8.83D-04 at cycle   6 NSaved=   6.
 NSaved= 6 IEnMin= 6 EnMin= -460.380642652253     IErMin= 6 ErrMin= 8.83D-04
 ErrMax= 8.83D-04  0.00D+00 EMaxC= 1.00D-01 BMatC= 2.00D-04 BMatP= 6.28D-02
 IDIUse=3 WtCom= 9.91D-01 WtEn= 8.83D-03
 Coeff-Com: -0.539D-02 0.982D-02 0.678D-01-0.519D-01 0.330D+00 0.650D+00
 Coeff-En:   0.000D+00 0.000D+00 0.000D+00 0.000D+00 0.000D+00 0.100D+01
 Coeff:     -0.535D-02 0.973D-02 0.672D-01-0.514D-01 0.327D+00 0.653D+00
 Gap=     0.154 Goal=   None    Shift=    0.000
 Gap=     0.142 Goal=   None    Shift=    0.000
 RMSDP=8.69D-05 MaxDP=6.40D-03 DE=-1.26D-02 OVMax= 4.10D-03

 Cycle   7  Pass 1  IDiag  1:
 RMSU=  6.43D-05    CP:  7.86D-01  1.21D-01  8.79D-01  2.57D-01  1.13D+00
                    CP:  9.99D-01
 E= -460.380686923008     Delta-E=       -0.000044270755 Rises=F Damp=F
 DIIS: error= 3.05D-04 at cycle   7 NSaved=   7.
 NSaved= 7 IEnMin= 7 EnMin= -460.380686923008     IErMin= 7 ErrMin= 3.05D-04
 ErrMax= 3.05D-04  0.00D+00 EMaxC= 1.00D-01 BMatC= 2.13D-05 BMatP= 2.00D-04
 IDIUse=3 WtCom= 9.97D-01 WtEn= 3.05D-03
 Coeff-Com:  0.533D-03-0.454D-02-0.221D-01 0.468D-02-0.472D-01 0.248D+00
 Coeff-Com:  0.821D+00
 Coeff-En:   0.000D+00 0.000D+00 0.000D+00 0.000D+00 0.000D+00 0.000D+00
 Coeff-En:   0.100D+01
 Coeff:      0.532D-03-0.453D-02-0.220D-01 0.466D-02-0.471D-01 0.247D+00
 Coeff:      0.821D+00
 Gap=     0.154 Goal=   None    Shift=    0.000
 Gap=     0.142 Goal=   None    Shift=    0.000
 RMSDP=8.25D-05 MaxDP=5.55D-03 DE=-4.43D-05 OVMax= 1.69D-03

 Cycle   8  Pass 1  IDiag  1:
 RMSU=  3.12D-05    CP:  7.85D-01  1.19D-01  8.79D-01  2.55D-01  1.15D+00
                    CP:  1.00D+00  1.11D+00
 E= -460.380694988580     Delta-E=       -0.000008065572 Rises=F Damp=F
 DIIS: error= 8.73D-05 at cycle   8 NSaved=   8.
 NSaved= 8 IEnMin= 8 EnMin= -460.380694988580     IErMin= 8 ErrMin= 8.73D-05
 ErrMax= 8.73D-05  0.00D+00 EMaxC= 1.00D-01 BMatC= 3.49D-06 BMatP= 2.13D-05
 IDIUse=1 WtCom= 1.00D+00 WtEn= 0.00D+00
 Coeff-Com:  0.118D-02-0.309D-02-0.220D-01 0.981D-02-0.780D-01-0.596D-01
 Coeff-Com:  0.323D+00 0.828D+00
 Coeff:      0.118D-02-0.309D-02-0.220D-01 0.981D-02-0.780D-01-0.596D-01
 Coeff:      0.323D+00 0.828D+00
 Gap=     0.155 Goal=   None    Shift=    0.000
 Gap=     0.142 Goal=   None    Shift=    0.000
 RMSDP=3.10D-05 MaxDP=2.31D-03 DE=-8.07D-06 OVMax= 9.79D-04

 Cycle   9  Pass 1  IDiag  1:
 RMSU=  1.75D-05    CP:  7.85D-01  1.19D-01  8.79D-01  2.54D-01  1.16D+00
                    CP:  1.00D+00  1.15D+00  1.04D+00
 E= -460.380696493865     Delta-E=       -0.000001505285 Rises=F Damp=F
 DIIS: error= 3.81D-05 at cycle   9 NSaved=   9.
 NSaved= 9 IEnMin= 9 EnMin= -460.380696493865     IErMin= 9 ErrMin= 3.81D-05
 ErrMax= 3.81D-05  0.00D+00 EMaxC= 1.00D-01 BMatC= 1.09D-06 BMatP= 3.49D-06
 IDIUse=1 WtCom= 1.00D+00 WtEn= 0.00D+00
 Coeff-Com:  0.317D-03-0.116D-03-0.571D-02 0.234D-02-0.232D-01-0.970D-01
 Coeff-Com: -0.254D-01 0.469D+00 0.680D+00
 Coeff:      0.317D-03-0.116D-03-0.571D-02 0.234D-02-0.232D-01-0.970D-01
 Coeff:     -0.254D-01 0.469D+00 0.680D+00
 Gap=     0.154 Goal=   None    Shift=    0.000
 Gap=     0.142 Goal=   None    Shift=    0.000
 RMSDP=1.15D-05 MaxDP=7.42D-04 DE=-1.51D-06 OVMax= 4.01D-04

 Cycle  10  Pass 1  IDiag  1:
 RMSU=  7.90D-06    CP:  7.85D-01  1.19D-01  8.79D-01  2.54D-01  1.16D+00
                    CP:  1.02D+00  1.22D+00  1.05D+00  9.54D-01
 E= -460.380696864512     Delta-E=       -0.000000370646 Rises=F Damp=F
 DIIS: error= 8.00D-06 at cycle  10 NSaved=  10.
 NSaved=10 IEnMin=10 EnMin= -460.380696864512     IErMin=10 ErrMin= 8.00D-06
 ErrMax= 8.00D-06  0.00D+00 EMaxC= 1.00D-01 BMatC= 2.61D-08 BMatP= 1.09D-06
 IDIUse=1 WtCom= 1.00D+00 WtEn= 0.00D+00
 Coeff-Com: -0.245D-04 0.225D-03 0.241D-03-0.140D-03-0.545D-04-0.181D-01
 Coeff-Com: -0.262D-01 0.482D-01 0.154D+00 0.842D+00
 Coeff:     -0.245D-04 0.225D-03 0.241D-03-0.140D-03-0.545D-04-0.181D-01
 Coeff:     -0.262D-01 0.482D-01 0.154D+00 0.842D+00
 Gap=     0.154 Goal=   None    Shift=    0.000
 Gap=     0.142 Goal=   None    Shift=    0.000
 RMSDP=4.72D-06 MaxDP=2.27D-04 DE=-3.71D-07 OVMax= 8.33D-05

 Cycle  11  Pass 1  IDiag  1:
 RMSU=  2.39D-06    CP:  7.85D-01  1.19D-01  8.79D-01  2.54D-01  1.15D+00
                    CP:  1.02D+00  1.20D+00  1.08D+00  1.02D+00  1.01D+00
 E= -460.380696873219     Delta-E=       -0.000000008708 Rises=F Damp=F
 DIIS: error= 4.79D-06 at cycle  11 NSaved=  11.
 NSaved=11 IEnMin=11 EnMin= -460.380696873219     IErMin=11 ErrMin= 4.79D-06
 ErrMax= 4.79D-06  0.00D+00 EMaxC= 1.00D-01 BMatC= 1.04D-08 BMatP= 2.61D-08
 IDIUse=1 WtCom= 1.00D+00 WtEn= 0.00D+00
 Coeff-Com: -0.349D-04 0.601D-04 0.814D-03-0.207D-03 0.221D-02 0.104D-02
 Coeff-Com: -0.115D-01-0.279D-01 0.603D-02 0.417D+00 0.613D+00
 Coeff:     -0.349D-04 0.601D-04 0.814D-03-0.207D-03 0.221D-02 0.104D-02
 Coeff:     -0.115D-01-0.279D-01 0.603D-02 0.417D+00 0.613D+00
 Gap=     0.154 Goal=   None    Shift=    0.000
 Gap=     0.142 Goal=   None    Shift=    0.000
 RMSDP=1.20D-06 MaxDP=9.07D-05 DE=-8.71D-09 OVMax= 2.40D-05

 Cycle  12  Pass 1  IDiag  1:
 RMSU=  5.23D-07    CP:  7.85D-01  1.19D-01  8.79D-01  2.54D-01  1.15D+00
                    CP:  1.02D+00  1.20D+00  1.08D+00  1.03D+00  1.08D+00
                    CP:  9.53D-01
 E= -460.380696876009     Delta-E=       -0.000000002790 Rises=F Damp=F
 DIIS: error= 1.18D-06 at cycle  12 NSaved=  12.
 NSaved=12 IEnMin=12 EnMin= -460.380696876009     IErMin=12 ErrMin= 1.18D-06
 ErrMax= 1.18D-06  0.00D+00 EMaxC= 1.00D-01 BMatC= 8.25D-10 BMatP= 1.04D-08
 IDIUse=1 WtCom= 1.00D+00 WtEn= 0.00D+00
 Coeff-Com: -0.204D-05-0.432D-05 0.135D-03-0.627D-04 0.543D-03 0.252D-02
 Coeff-Com:  0.140D-02-0.122D-01-0.184D-01-0.503D-01 0.152D+00 0.924D+00
 Coeff:     -0.204D-05-0.432D-05 0.135D-03-0.627D-04 0.543D-03 0.252D-02
 Coeff:      0.140D-02-0.122D-01-0.184D-01-0.503D-01 0.152D+00 0.924D+00
 Gap=     0.154 Goal=   None    Shift=    0.000
 Gap=     0.142 Goal=   None    Shift=    0.000
 RMSDP=4.25D-07 MaxDP=3.96D-05 DE=-2.79D-09 OVMax= 8.90D-06

 Cycle  13  Pass 1  IDiag  1:
 RMSU=  3.11D-07    CP:  7.85D-01  1.19D-01  8.79D-01  2.54D-01  1.15D+00
                    CP:  1.02D+00  1.20D+00  1.08D+00  1.04D+00  1.10D+00
                    CP:  9.82D-01  9.78D-01
 E= -460.380696876287     Delta-E=       -0.000000000278 Rises=F Damp=F
 DIIS: error= 9.61D-07 at cycle  13 NSaved=  13.
 NSaved=13 IEnMin=13 EnMin= -460.380696876287     IErMin=13 ErrMin= 9.61D-07
 ErrMax= 9.61D-07  0.00D+00 EMaxC= 1.00D-01 BMatC= 2.52D-10 BMatP= 8.25D-10
 IDIUse=1 WtCom= 1.00D+00 WtEn= 0.00D+00
 Coeff-Com:  0.223D-05-0.809D-05 0.480D-05-0.201D-04 0.124D-03 0.140D-02
 Coeff-Com:  0.204D-02-0.475D-02-0.117D-01-0.709D-01 0.379D-01 0.532D+00
 Coeff-Com:  0.514D+00
 Coeff:      0.223D-05-0.809D-05 0.480D-05-0.201D-04 0.124D-03 0.140D-02
 Coeff:      0.204D-02-0.475D-02-0.117D-01-0.709D-01 0.379D-01 0.532D+00
 Coeff:      0.514D+00
 Gap=     0.154 Goal=   None    Shift=    0.000
 Gap=     0.142 Goal=   None    Shift=    0.000
 RMSDP=2.00D-07 MaxDP=1.85D-05 DE=-2.78D-10 OVMax= 6.20D-06

 Cycle  14  Pass 1  IDiag  1:
 RMSU=  1.46D-07    CP:  7.85D-01  1.19D-01  8.79D-01  2.54D-01  1.15D+00
                    CP:  1.02D+00  1.20D+00  1.08D+00  1.04D+00  1.10D+00
                    CP:  9.92D-01  1.09D+00  6.98D-01
 E= -460.380696876336     Delta-E=       -0.000000000049 Rises=F Damp=F
 DIIS: error= 5.37D-07 at cycle  14 NSaved=  14.
 NSaved=14 IEnMin=14 EnMin= -460.380696876336     IErMin=14 ErrMin= 5.37D-07
 ErrMax= 5.37D-07  0.00D+00 EMaxC= 1.00D-01 BMatC= 7.62D-11 BMatP= 2.52D-10
 IDIUse=1 WtCom= 1.00D+00 WtEn= 0.00D+00
 Coeff-Com:  0.215D-05-0.490D-05-0.377D-04 0.673D-05-0.853D-04 0.148D-03
 Coeff-Com:  0.105D-02 0.448D-03-0.221D-02-0.324D-01-0.193D-01 0.510D-01
 Coeff-Com:  0.369D+00 0.632D+00
 Coeff:      0.215D-05-0.490D-05-0.377D-04 0.673D-05-0.853D-04 0.148D-03
 Coeff:      0.105D-02 0.448D-03-0.221D-02-0.324D-01-0.193D-01 0.510D-01
 Coeff:      0.369D+00 0.632D+00
 Gap=     0.154 Goal=   None    Shift=    0.000
 Gap=     0.142 Goal=   None    Shift=    0.000
 RMSDP=1.18D-07 MaxDP=1.15D-05 DE=-4.89D-11 OVMax= 3.14D-06

 Cycle  15  Pass 1  IDiag  1:
 RMSU=  5.55D-08    CP:  7.85D-01  1.19D-01  8.79D-01  2.54D-01  1.15D+00
                    CP:  1.02D+00  1.20D+00  1.08D+00  1.04D+00  1.10D+00
                    CP:  1.00D+00  1.09D+00  7.94D-01  6.67D-01
 E= -460.380696876356     Delta-E=       -0.000000000020 Rises=F Damp=F
 DIIS: error= 1.07D-07 at cycle  15 NSaved=  15.
 NSaved=15 IEnMin=15 EnMin= -460.380696876356     IErMin=15 ErrMin= 1.07D-07
 ErrMax= 1.07D-07  0.00D+00 EMaxC= 1.00D-01 BMatC= 3.50D-12 BMatP= 7.62D-11
 IDIUse=1 WtCom= 1.00D+00 WtEn= 0.00D+00
 Coeff-Com: -0.481D-06 0.122D-05-0.202D-05 0.298D-05-0.198D-04-0.224D-03
 Coeff-Com: -0.156D-03 0.550D-03 0.189D-02 0.933D-02-0.470D-02-0.810D-01
 Coeff-Com: -0.651D-01 0.265D-01 0.111D+01
 Coeff:     -0.481D-06 0.122D-05-0.202D-05 0.298D-05-0.198D-04-0.224D-03
 Coeff:     -0.156D-03 0.550D-03 0.189D-02 0.933D-02-0.470D-02-0.810D-01
 Coeff:     -0.651D-01 0.265D-01 0.111D+01
 Gap=     0.154 Goal=   None    Shift=    0.000
 Gap=     0.142 Goal=   None    Shift=    0.000
 RMSDP=4.33D-08 MaxDP=2.80D-06 DE=-2.02D-11 OVMax= 2.36D-06

 Cycle  16  Pass 1  IDiag  1:
 RMSU=  2.54D-08    CP:  7.85D-01  1.19D-01  8.79D-01  2.54D-01  1.15D+00
                    CP:  1.02D+00  1.20D+00  1.08D+00  1.04D+00  1.10D+00
                    CP:  9.97D-01  1.09D+00  8.11D-01  7.31D-01  1.09D+00
 E= -460.380696876365     Delta-E=       -0.000000000009 Rises=F Damp=F
 DIIS: error= 4.56D-08 at cycle  16 NSaved=  16.
 NSaved=16 IEnMin=16 EnMin= -460.380696876365     IErMin=16 ErrMin= 4.56D-08
 ErrMax= 4.56D-08  0.00D+00 EMaxC= 1.00D-01 BMatC= 4.21D-13 BMatP= 3.50D-12
 IDIUse=1 WtCom= 1.00D+00 WtEn= 0.00D+00
 Coeff-Com: -0.112D-06 0.339D-06 0.409D-05-0.109D-05 0.100D-04-0.386D-05
 Coeff-Com: -0.585D-04-0.196D-03 0.173D-03 0.236D-02 0.318D-02 0.455D-02
 Coeff-Com: -0.373D-01-0.838D-01-0.166D+00 0.128D+01
 Coeff:     -0.112D-06 0.339D-06 0.409D-05-0.109D-05 0.100D-04-0.386D-05
 Coeff:     -0.585D-04-0.196D-03 0.173D-03 0.236D-02 0.318D-02 0.455D-02
 Coeff:     -0.373D-01-0.838D-01-0.166D+00 0.128D+01
 Gap=     0.154 Goal=   None    Shift=    0.000
 Gap=     0.142 Goal=   None    Shift=    0.000
 RMSDP=1.81D-08 MaxDP=1.27D-06 DE=-8.87D-12 OVMax= 1.22D-06

 Cycle  17  Pass 1  IDiag  1:
 RMSU=  8.41D-09    CP:  7.85D-01  1.19D-01  8.79D-01  2.54D-01  1.15D+00
                    CP:  1.02D+00  1.20D+00  1.08D+00  1.04D+00  1.10D+00
                    CP:  9.98D-01  1.08D+00  8.07D-01  7.35D-01  1.19D+00
                    CP:  1.40D+00
 E= -460.380696876361     Delta-E=        0.000000000004 Rises=F Damp=F
 DIIS: error= 2.67D-08 at cycle  17 NSaved=  17.
 NSaved=17 IEnMin=16 EnMin= -460.380696876365     IErMin=17 ErrMin= 2.67D-08
 ErrMax= 2.67D-08  0.00D+00 EMaxC= 1.00D-01 BMatC= 2.27D-13 BMatP= 4.21D-13
 IDIUse=1 WtCom= 1.00D+00 WtEn= 0.00D+00
 Coeff-Com:  0.735D-08 0.385D-07 0.284D-05-0.985D-06 0.831D-05 0.199D-04
 Coeff-Com: -0.161D-04-0.186D-03-0.881D-04 0.437D-03 0.238D-02 0.113D-01
 Coeff-Com: -0.156D-01-0.525D-01-0.219D+00 0.766D+00 0.508D+00
 Coeff:      0.735D-08 0.385D-07 0.284D-05-0.985D-06 0.831D-05 0.199D-04
 Coeff:     -0.161D-04-0.186D-03-0.881D-04 0.437D-03 0.238D-02 0.113D-01
 Coeff:     -0.156D-01-0.525D-01-0.219D+00 0.766D+00 0.508D+00
 Gap=     0.154 Goal=   None    Shift=    0.000
 Gap=     0.142 Goal=   None    Shift=    0.000
 RMSDP=4.38D-09 MaxDP=2.48D-07 DE= 4.26D-12 OVMax= 2.47D-07

 Error on total polarization charges =  0.01996
 SCF Done:  E(UB3LYP) =  -460.380696876     A.U. after   17 cycles
            NFock= 17  Conv=0.44D-08     -V/T= 2.0043
 <Sx>= 0.0000 <Sy>= 0.0000 <Sz>= 0.5000 <S**2>= 0.7591 S= 0.5046
 <L.S>=  0.00000000000    
 KE= 4.584246580138D+02 PE=-2.065336226933D+03 EE= 6.575841193215D+02
 Annihilation of the first spin contaminant:
 S**2 before annihilation     0.7591,   after     0.7500
 Leave Link  502 at Sat Feb 10 10:03:01 2024, MaxMem=  4026531840 cpu:             662.2 elap:              83.4
 (Enter /sysapps/ubuntu-applications/gaussian/Gaussian/AVX2/g16/l601.exe)
 Copying SCF densities to generalized density rwf, IOpCl= 1 IROHF=0.

 **********************************************************************

            Population analysis using the SCF density.

 **********************************************************************

 Alpha  occ. eigenvalues --  -19.07250 -19.07250 -10.21266 -10.21264 -10.16776
 Alpha  occ. eigenvalues --  -10.16774 -10.15605 -10.15605 -10.15408 -10.15407
 Alpha  occ. eigenvalues --   -0.99325  -0.99076  -0.82308  -0.77462  -0.70724
 Alpha  occ. eigenvalues --   -0.68945  -0.63451  -0.58532  -0.53614  -0.48114
 Alpha  occ. eigenvalues --   -0.45307  -0.43257  -0.42605  -0.40881  -0.40014
 Alpha  occ. eigenvalues --   -0.39883  -0.38864  -0.37143  -0.36838  -0.36299
 Alpha  occ. eigenvalues --   -0.35576  -0.34466  -0.27317  -0.24194  -0.23912
 Alpha  occ. eigenvalues --   -0.23254  -0.15634
 Alpha virt. eigenvalues --   -0.00185  -0.00164   0.00788   0.01654   0.03086
 Alpha virt. eigenvalues --    0.03110   0.03752   0.03954   0.04607   0.05683
 Alpha virt. eigenvalues --    0.06114   0.06562   0.07759   0.08436   0.09134
 Alpha virt. eigenvalues --    0.09840   0.10381   0.11060   0.11984   0.12179
 Alpha virt. eigenvalues --    0.12636   0.13078   0.13339   0.13814   0.14417
 Alpha virt. eigenvalues --    0.15077   0.15191   0.15596   0.16242   0.16378
 Alpha virt. eigenvalues --    0.17020   0.17518   0.17651   0.18457   0.18522
 Alpha virt. eigenvalues --    0.18923   0.21181   0.21574   0.21689   0.22600
 Alpha virt. eigenvalues --    0.22655   0.23614   0.24138   0.24903   0.25745
 Alpha virt. eigenvalues --    0.26102   0.27877   0.29413   0.29512   0.30116
 Alpha virt. eigenvalues --    0.30209   0.30810   0.30980   0.31512   0.31757
 Alpha virt. eigenvalues --    0.32806   0.34668   0.35256   0.37174   0.37232
 Alpha virt. eigenvalues --    0.38266   0.39103   0.40883   0.41256   0.42530
 Alpha virt. eigenvalues --    0.45833   0.46484   0.46808   0.46970   0.53719
 Alpha virt. eigenvalues --    0.55294   0.55673   0.56030   0.56785   0.58134
 Alpha virt. eigenvalues --    0.59217   0.59954   0.60674   0.62655   0.63251
 Alpha virt. eigenvalues --    0.63695   0.65347   0.65857   0.66566   0.67227
 Alpha virt. eigenvalues --    0.67574   0.69700   0.71374   0.72449   0.72952
 Alpha virt. eigenvalues --    0.74653   0.76190   0.79373   0.80611   0.82682
 Alpha virt. eigenvalues --    0.85619   0.87571   0.90066   0.91554   0.93361
 Alpha virt. eigenvalues --    0.93943   0.95895   0.97337   0.97398   0.97789
 Alpha virt. eigenvalues --    1.00181   1.01720   1.02428   1.05280   1.08149
 Alpha virt. eigenvalues --    1.10519   1.11880   1.13675   1.14690   1.22569
 Alpha virt. eigenvalues --    1.22602   1.25086   1.26487   1.28260   1.30482
 Alpha virt. eigenvalues --    1.31853   1.37889   1.38792   1.41200   1.44498
 Alpha virt. eigenvalues --    1.46919   1.47208   1.47990   1.53025   1.53758
 Alpha virt. eigenvalues --    1.56091   1.57275   1.58294   1.58784   1.60058
 Alpha virt. eigenvalues --    1.61901   1.63864   1.64148   1.66017   1.68138
 Alpha virt. eigenvalues --    1.68851   1.74510   1.76867   1.79646   1.81540
 Alpha virt. eigenvalues --    1.84815   1.84994   1.85440   1.87050   1.89239
 Alpha virt. eigenvalues --    1.90166   1.92124   1.94190   1.97502   2.00647
 Alpha virt. eigenvalues --    2.01263   2.07305   2.09661   2.10400   2.15084
 Alpha virt. eigenvalues --    2.15425   2.20079   2.20707   2.23281   2.28053
 Alpha virt. eigenvalues --    2.30127   2.34941   2.35828   2.36768   2.48331
 Alpha virt. eigenvalues --    2.48699   2.51610   2.54848   2.55175   2.55403
 Alpha virt. eigenvalues --    2.55539   2.57961   2.59935   2.66324   2.67249
 Alpha virt. eigenvalues --    2.67811   2.68531   2.69310   2.74623   2.77323
 Alpha virt. eigenvalues --    2.78336   2.81978   2.85199   2.87271   2.88420
 Alpha virt. eigenvalues --    2.92466   2.93598   2.93943   2.95515   2.99513
 Alpha virt. eigenvalues --    3.02799   3.04028   3.08496   3.11442   3.17888
 Alpha virt. eigenvalues --    3.19844   3.22038   3.26835   3.32310   3.34524
 Alpha virt. eigenvalues --    3.35932   3.44637   3.53079   3.53609   3.59756
 Alpha virt. eigenvalues --    3.67956   3.75071   3.78943   3.79032   3.80237
 Alpha virt. eigenvalues --    3.87439   3.88530   4.14464   4.17606   4.25617
 Alpha virt. eigenvalues --    4.29954   4.37544   4.79854   5.08423   5.09061
 Alpha virt. eigenvalues --    5.24747   5.27497   5.72773   5.80875  23.64662
 Alpha virt. eigenvalues --   23.84492  23.91656  23.95476  23.98306  23.99449
 Alpha virt. eigenvalues --   24.13763  24.18247  50.03737  50.06662
  Beta  occ. eigenvalues --  -19.06574 -19.06574 -10.21107 -10.21106 -10.16637
  Beta  occ. eigenvalues --  -10.16635 -10.15615 -10.15615 -10.15334 -10.15333
  Beta  occ. eigenvalues --   -0.98139  -0.97860  -0.81715  -0.77217  -0.70560
  Beta  occ. eigenvalues --   -0.68286  -0.62897  -0.58133  -0.53178  -0.47911
  Beta  occ. eigenvalues --   -0.44881  -0.42903  -0.41727  -0.40509  -0.39872
  Beta  occ. eigenvalues --   -0.39438  -0.38619  -0.36754  -0.35744  -0.35269
  Beta  occ. eigenvalues --   -0.34234  -0.33543  -0.24161  -0.23427  -0.23279
  Beta  occ. eigenvalues --   -0.22648
  Beta virt. eigenvalues --   -0.08431  -0.00160   0.00797   0.01040   0.01682
  Beta virt. eigenvalues --    0.03099   0.03775   0.04208   0.04677   0.05374
  Beta virt. eigenvalues --    0.05743   0.06112   0.06588   0.07884   0.08441
  Beta virt. eigenvalues --    0.09372   0.09884   0.10410   0.11221   0.12014
  Beta virt. eigenvalues --    0.12213   0.12667   0.13091   0.13452   0.13846
  Beta virt. eigenvalues --    0.14469   0.15318   0.15434   0.15609   0.16407
  Beta virt. eigenvalues --    0.16941   0.17035   0.17559   0.17654   0.18517
  Beta virt. eigenvalues --    0.18550   0.18881   0.21258   0.21644   0.22208
  Beta virt. eigenvalues --    0.22694   0.22749   0.23812   0.24201   0.24945
  Beta virt. eigenvalues --    0.25786   0.26219   0.27999   0.29534   0.29551
  Beta virt. eigenvalues --    0.30210   0.30587   0.30866   0.31476   0.31976
  Beta virt. eigenvalues --    0.32177   0.33017   0.34792   0.35315   0.37295
  Beta virt. eigenvalues --    0.37337   0.38351   0.39178   0.41070   0.41465
  Beta virt. eigenvalues --    0.42848   0.45934   0.46748   0.46904   0.47338
  Beta virt. eigenvalues --    0.53864   0.55757   0.55889   0.56117   0.56956
  Beta virt. eigenvalues --    0.58216   0.59343   0.60505   0.60848   0.63034
  Beta virt. eigenvalues --    0.63352   0.64171   0.65817   0.65971   0.66791
  Beta virt. eigenvalues --    0.67414   0.67693   0.69792   0.71434   0.72843
  Beta virt. eigenvalues --    0.73048   0.74868   0.76258   0.79484   0.80676
  Beta virt. eigenvalues --    0.82829   0.85739   0.88044   0.90241   0.91747
  Beta virt. eigenvalues --    0.93581   0.94030   0.96032   0.97640   0.97658
  Beta virt. eigenvalues --    0.97852   1.00701   1.01985   1.02959   1.05322
  Beta virt. eigenvalues --    1.08609   1.10627   1.12609   1.15126   1.16115
  Beta virt. eigenvalues --    1.22922   1.22933   1.26080   1.27345   1.28533
  Beta virt. eigenvalues --    1.30831   1.32116   1.38216   1.39160   1.41299
  Beta virt. eigenvalues --    1.44784   1.46967   1.47263   1.48108   1.53321
  Beta virt. eigenvalues --    1.53839   1.56316   1.57598   1.58430   1.59027
  Beta virt. eigenvalues --    1.60184   1.61990   1.64172   1.64263   1.66365
  Beta virt. eigenvalues --    1.68685   1.69203   1.74727   1.76961   1.79784
  Beta virt. eigenvalues --    1.81925   1.85305   1.85359   1.85730   1.87494
  Beta virt. eigenvalues --    1.89363   1.90491   1.92522   1.94861   1.97733
  Beta virt. eigenvalues --    2.00939   2.01346   2.07704   2.09827   2.10615
  Beta virt. eigenvalues --    2.15346   2.15578   2.20539   2.21202   2.23377
  Beta virt. eigenvalues --    2.28347   2.30382   2.35233   2.35923   2.37127
  Beta virt. eigenvalues --    2.48381   2.48740   2.51774   2.55054   2.55270
  Beta virt. eigenvalues --    2.55519   2.55657   2.58239   2.60215   2.67060
  Beta virt. eigenvalues --    2.67332   2.68006   2.68622   2.69423   2.74711
  Beta virt. eigenvalues --    2.77426   2.79142   2.83047   2.85414   2.88219
  Beta virt. eigenvalues --    2.89813   2.93720   2.94192   2.94196   2.97117
  Beta virt. eigenvalues --    3.00720   3.03217   3.04788   3.09350   3.11740
  Beta virt. eigenvalues --    3.18083   3.20047   3.22496   3.27061   3.34091
  Beta virt. eigenvalues --    3.36122   3.36288   3.44930   3.53565   3.53895
  Beta virt. eigenvalues --    3.60038   3.68267   3.75391   3.78998   3.79087
  Beta virt. eigenvalues --    3.80619   3.87556   3.88563   4.14856   4.17991
  Beta virt. eigenvalues --    4.26019   4.30194   4.37785   4.80399   5.11217
  Beta virt. eigenvalues --    5.11856   5.25311   5.28062   5.73349   5.81443
  Beta virt. eigenvalues --   23.64805  23.84641  23.91814  23.95648  23.98331
  Beta virt. eigenvalues --   23.99467  24.13869  24.18356  50.04416  50.07340
          Condensed to atoms (all electrons):
               1          2          3          4          5          6
     1  C    6.271534  -0.432650   0.140239   0.171615   0.005515   0.201850
     2  C   -0.432650  10.857442  -3.668032   1.621118  -0.015896  -0.473792
     3  C    0.140239  -3.668032  12.772631  -1.701338  -0.175855  -1.518115
     4  C    0.171615   1.621118  -1.701338   9.586137   0.446056  -1.415165
     5  O    0.005515  -0.015896  -0.175855   0.446056   8.474375  -0.167302
     6  C    0.201850  -0.473792  -1.518115  -1.415165  -0.167302  10.858392
     7  C   -0.342750  -1.518043   0.462559   0.325546  -0.088276  -3.669790
     8  C   -0.762804  -1.415676   0.325391  -1.527766   0.012131   1.621441
     9  O    0.029419  -0.167306  -0.088278   0.012127   0.000106  -0.015869
    10  C    0.025116   0.201868  -0.342818  -0.762695   0.029411  -0.432624
    11  H    0.436068  -0.119727   0.051879   0.040053   0.000608  -0.002193
    12  H    0.350645   0.030817  -0.069173   0.002858   0.000034   0.005682
    13  H    0.350942   0.030625  -0.069256   0.002951   0.000034   0.005656
    14  H   -0.017167  -0.037199   0.446176  -0.078001  -0.008351  -0.041112
    15  H   -0.012132  -0.041119   0.032174   0.022825  -0.001313  -0.037189
    16  H    0.000278   0.005662  -0.010137   0.035500  -0.003919   0.030686
    17  H    0.000808  -0.002193   0.016850  -0.075154   0.002568  -0.119726
    18  H    0.000277   0.005670  -0.010113   0.035538  -0.003882   0.030792
               7          8          9         10         11         12
     1  C   -0.342750  -0.762804   0.029419   0.025116   0.436068   0.350645
     2  C   -1.518043  -1.415676  -0.167306   0.201868  -0.119727   0.030817
     3  C    0.462559   0.325391  -0.088278  -0.342818   0.051879  -0.069173
     4  C    0.325546  -1.527766   0.012127  -0.762695   0.040053   0.002858
     5  O   -0.088276   0.012131   0.000106   0.029411   0.000608   0.000034
     6  C   -3.669790   1.621441  -0.015869  -0.432624  -0.002193   0.005682
     7  C   12.774510  -1.701480  -0.175908   0.140162   0.016843  -0.010125
     8  C   -1.701480   9.586783   0.446089   0.171602  -0.075179   0.035596
     9  O   -0.175908   0.446089   8.474376   0.005516   0.002567  -0.003878
    10  C    0.140162   0.171602   0.005516   6.271535   0.000808   0.000279
    11  H    0.016843  -0.075179   0.002567   0.000808   0.542811  -0.020802
    12  H   -0.010125   0.035596  -0.003878   0.000279  -0.020802   0.581283
    13  H   -0.010127   0.035476  -0.003918   0.000276  -0.020825  -0.066018
    14  H    0.032177   0.022827  -0.001313  -0.012135   0.000809   0.000241
    15  H    0.446188  -0.078007  -0.008355  -0.017174   0.000398  -0.000233
    16  H   -0.069281   0.002950   0.000034   0.350893   0.000049  -0.000176
    17  H    0.051866   0.040048   0.000609   0.436054  -0.000022   0.000049
    18  H   -0.069158   0.002863   0.000034   0.350710   0.000049   0.000118
              13         14         15         16         17         18
     1  C    0.350942  -0.017167  -0.012132   0.000278   0.000808   0.000277
     2  C    0.030625  -0.037199  -0.041119   0.005662  -0.002193   0.005670
     3  C   -0.069256   0.446176   0.032174  -0.010137   0.016850  -0.010113
     4  C    0.002951  -0.078001   0.022825   0.035500  -0.075154   0.035538
     5  O    0.000034  -0.008351  -0.001313  -0.003919   0.002568  -0.003882
     6  C    0.005656  -0.041112  -0.037189   0.030686  -0.119726   0.030792
     7  C   -0.010127   0.032177   0.446188  -0.069281   0.051866  -0.069158
     8  C    0.035476   0.022827  -0.078007   0.002950   0.040048   0.002863
     9  O   -0.003918  -0.001313  -0.008355   0.000034   0.000609   0.000034
    10  C    0.000276  -0.012135  -0.017174   0.350893   0.436054   0.350710
    11  H   -0.020825   0.000809   0.000398   0.000049  -0.000022   0.000049
    12  H   -0.066018   0.000241  -0.000233  -0.000176   0.000049   0.000118
    13  H    0.581420   0.000237  -0.000233   0.000118   0.000049  -0.000176
    14  H    0.000237   0.540537   0.002189  -0.000233   0.000398  -0.000233
    15  H   -0.000233   0.002189   0.540532   0.000238   0.000809   0.000241
    16  H    0.000118  -0.000233   0.000238   0.581409  -0.020818  -0.066019
    17  H    0.000049   0.000398   0.000809  -0.020818   0.542814  -0.020805
    18  H   -0.000176  -0.000233   0.000241  -0.066019  -0.020805   0.581291
          Atomic-Atomic Spin Densities.
               1          2          3          4          5          6
     1  C   -0.048223  -0.007159   0.026216  -0.003073  -0.000514   0.003938
     2  C   -0.007159   0.003024  -0.029528  -0.070808   0.005699   0.003091
     3  C    0.026216  -0.029528  -0.004047   0.093138  -0.015908   0.015871
     4  C   -0.003073  -0.070808   0.093138  -0.064590  -0.062682   0.228503
     5  O   -0.000514   0.005699  -0.015908  -0.062682   0.345307  -0.036523
     6  C    0.003938   0.003091   0.015871   0.228503  -0.036523   0.002941
     7  C   -0.015101   0.015886   0.080967  -0.125055   0.007323  -0.029462
     8  C    0.040010   0.228510  -0.125050   0.078973  -0.001476  -0.070807
     9  O   -0.003609  -0.036531   0.007322  -0.001476  -0.000191   0.005696
    10  C    0.000665   0.003940  -0.015103   0.040010  -0.003609  -0.007166
    11  H    0.002366   0.000183  -0.000954   0.000583  -0.000084   0.000599
    12  H    0.001547  -0.007173   0.004445  -0.000132  -0.000128   0.000296
    13  H    0.001639  -0.007250   0.004343  -0.000129  -0.000128   0.000307
    14  H    0.004553   0.007303  -0.005925   0.002769  -0.000401  -0.000888
    15  H    0.000368  -0.000888  -0.000691  -0.003990   0.000387   0.007306
    16  H   -0.000070   0.000309  -0.000669  -0.001234   0.002687  -0.007258
    17  H    0.000106   0.000599  -0.001655   0.000065  -0.000394   0.000184
    18  H   -0.000073   0.000295  -0.000653  -0.001332   0.002690  -0.007161
               7          8          9         10         11         12
     1  C   -0.015101   0.040010  -0.003609   0.000665   0.002366   0.001547
     2  C    0.015886   0.228510  -0.036531   0.003940   0.000183  -0.007173
     3  C    0.080967  -0.125050   0.007322  -0.015103  -0.000954   0.004445
     4  C   -0.125055   0.078973  -0.001476   0.040010   0.000583  -0.000132
     5  O    0.007323  -0.001476  -0.000191  -0.003609  -0.000084  -0.000128
     6  C   -0.029462  -0.070807   0.005696  -0.007166   0.000599   0.000296
     7  C   -0.004187   0.093151  -0.015903   0.026220  -0.001655  -0.000655
     8  C    0.093151  -0.064619  -0.062678  -0.003075   0.000066  -0.001326
     9  O   -0.015903  -0.062678   0.345321  -0.000514  -0.000394   0.002690
    10  C    0.026220  -0.003075  -0.000514  -0.048212   0.000106  -0.000074
    11  H   -0.001655   0.000066  -0.000394   0.000106  -0.000581  -0.000049
    12  H   -0.000655  -0.001326   0.002690  -0.000074  -0.000049   0.011046
    13  H   -0.000667  -0.001240   0.002687  -0.000070  -0.000051  -0.005462
    14  H   -0.000691  -0.003991   0.000387   0.000368  -0.000371   0.000121
    15  H   -0.005927   0.002767  -0.000402   0.004552  -0.000031   0.000024
    16  H    0.004353  -0.000134  -0.000128   0.001637   0.000002  -0.000142
    17  H   -0.000955   0.000583  -0.000084   0.002366   0.000002   0.000002
    18  H    0.004434  -0.000126  -0.000128   0.001546   0.000002   0.000110
              13         14         15         16         17         18
     1  C    0.001639   0.004553   0.000368  -0.000070   0.000106  -0.000073
     2  C   -0.007250   0.007303  -0.000888   0.000309   0.000599   0.000295
     3  C    0.004343  -0.005925  -0.000691  -0.000669  -0.001655  -0.000653
     4  C   -0.000129   0.002769  -0.003990  -0.001234   0.000065  -0.001332
     5  O   -0.000128  -0.000401   0.000387   0.002687  -0.000394   0.002690
     6  C    0.000307  -0.000888   0.007306  -0.007258   0.000184  -0.007161
     7  C   -0.000667  -0.000691  -0.005927   0.004353  -0.000955   0.004434
     8  C   -0.001240  -0.003991   0.002767  -0.000134   0.000583  -0.000126
     9  O    0.002687   0.000387  -0.000402  -0.000128  -0.000084  -0.000128
    10  C   -0.000070   0.000368   0.004552   0.001637   0.002366   0.001546
    11  H   -0.000051  -0.000371  -0.000031   0.000002   0.000002   0.000002
    12  H   -0.005462   0.000121   0.000024  -0.000142   0.000002   0.000110
    13  H    0.011049   0.000120   0.000024   0.000110   0.000002  -0.000142
    14  H    0.000120  -0.009912  -0.000247   0.000024  -0.000031   0.000024
    15  H    0.000024  -0.000247  -0.009909   0.000120  -0.000371   0.000120
    16  H    0.000110   0.000024   0.000120   0.011047  -0.000051  -0.005462
    17  H    0.000002  -0.000031  -0.000371  -0.000051  -0.000581  -0.000049
    18  H   -0.000142   0.000024   0.000120  -0.005462  -0.000049   0.011045
 Mulliken charges and spin densities:
               1          2
     1  C   -0.416803   0.003585
     2  C    1.138430   0.109501
     3  C   -0.594784   0.032119
     4  C   -0.742204   0.109540
     5  O   -0.506042   0.242054
     6  C    1.138379   0.109468
     7  C   -0.594911   0.032075
     8  C   -0.742284   0.109539
     9  O   -0.506053   0.242066
    10  C   -0.416784   0.003587
    11  H    0.145803  -0.000260
    12  H    0.162800   0.005140
    13  H    0.162767   0.005141
    14  H    0.150155  -0.006788
    15  H    0.150164  -0.006785
    16  H    0.162768   0.005139
    17  H    0.145796  -0.000260
    18  H    0.162803   0.005138
 Sum of Mulliken charges =  -1.00000   1.00000
 Mulliken charges and spin densities with hydrogens summed into heavy atoms:
               1          2
     1  C    0.054566   0.013606
     2  C    1.138430   0.109501
     3  C   -0.444629   0.025331
     4  C   -0.742204   0.109540
     5  O   -0.506042   0.242054
     6  C    1.138379   0.109468
     7  C   -0.444747   0.025290
     8  C   -0.742284   0.109539
     9  O   -0.506053   0.242066
    10  C    0.054583   0.013604
 Electronic spatial extent (au):  <R**2>=           1525.9745
 Charge=             -1.0000 electrons
 Dipole moment (field-independent basis, Debye):
    X=              0.0001    Y=             -0.0000    Z=              0.0005  Tot=              0.0005
 Quadrupole moment (field-independent basis, Debye-Ang):
   XX=            -66.4790   YY=            -89.5156   ZZ=            -71.6652
   XY=            -14.2455   XZ=              8.0955   YZ=             14.5625
 Traceless Quadrupole moment (field-independent basis, Debye-Ang):
   XX=              9.4076   YY=            -13.6290   ZZ=              4.2214
   XY=            -14.2455   XZ=              8.0955   YZ=             14.5625
 Octapole moment (field-independent basis, Debye-Ang**2):
  XXX=              0.0024  YYY=              0.0016  ZZZ=              0.0068  XYY=              0.0009
  XXY=              0.0000  XXZ=              0.0019  XZZ=             -0.0011  YZZ=             -0.0023
  YYZ=              0.0034  XYZ=              0.0012
 Hexadecapole moment (field-independent basis, Debye-Ang**3):
 XXXX=          -1250.1267 YYYY=           -789.6332 ZZZZ=           -278.1304 XXXY=           -148.4812
 XXXZ=             71.0877 YYYX=           -202.7752 YYYZ=            239.5598 ZZZX=             64.2429
 ZZZY=            181.5767 XXYY=           -345.1386 XXZZ=           -259.0008 YYZZ=           -197.2874
 XXYZ=             69.9176 YYXZ=             70.7895 ZZXY=            -66.2283
 N-N= 4.889467527218D+02 E-N=-2.065336227005D+03  KE= 4.584246580138D+02
                          Isotropic Fermi Contact Couplings
        Atom                 a.u.       MegaHertz       Gauss      10(-4) cm-1
     1  C(13)             -0.00365      -4.09795      -1.46225      -1.36693
     2  C(13)              0.00000       0.00358       0.00128       0.00119
     3  C(13)             -0.00455      -5.11679      -1.82580      -1.70678
     4  C(13)             -0.00580      -6.51905      -2.32616      -2.17452
     5  O(17)              0.02555     -15.49043      -5.52737      -5.16705
     6  C(13)              0.00000       0.00194       0.00069       0.00065
     7  C(13)             -0.00455      -5.11822      -1.82631      -1.70725
     8  C(13)             -0.00580      -6.51900      -2.32614      -2.17450
     9  O(17)              0.02556     -15.49139      -5.52771      -5.16737
    10  C(13)             -0.00364      -4.09648      -1.46173      -1.36644
    11  H(1)              -0.00005      -0.23300      -0.08314      -0.07772
    12  H(1)               0.00191       8.54452       3.04890       2.85014
    13  H(1)               0.00191       8.54517       3.04913       2.85036
    14  H(1)              -0.00106      -4.74338      -1.69256      -1.58222
    15  H(1)              -0.00106      -4.74093      -1.69168      -1.58141
    16  H(1)               0.00191       8.54093       3.04762       2.84895
    17  H(1)              -0.00005      -0.23299      -0.08314      -0.07772
    18  H(1)               0.00191       8.54128       3.04774       2.84907
 --------------------------------------------------------
       Center         ----  Spin Dipole Couplings  ----
                      3XX-RR        3YY-RR        3ZZ-RR
 --------------------------------------------------------
     1   Atom        0.004771     -0.002078     -0.002693
     2   Atom       -0.061572     -0.015612      0.077184
     3   Atom       -0.034924     -0.009780      0.044704
     4   Atom       -0.083527     -0.012448      0.095974
     5   Atom       -0.516192     -0.136975      0.653167
     6   Atom       -0.061542     -0.015602      0.077144
     7   Atom       -0.034899     -0.009769      0.044668
     8   Atom       -0.083536     -0.012436      0.095972
     9   Atom       -0.516217     -0.136904      0.653121
    10   Atom        0.004770     -0.002077     -0.002693
    11   Atom        0.003213     -0.001224     -0.001989
    12   Atom        0.004524     -0.002295     -0.002229
    13   Atom        0.004725     -0.001685     -0.003040
    14   Atom        0.004016     -0.000821     -0.003195
    15   Atom        0.004017     -0.000821     -0.003196
    16   Atom        0.004724     -0.001684     -0.003040
    17   Atom        0.003212     -0.001223     -0.001989
    18   Atom        0.004523     -0.002295     -0.002229
 --------------------------------------------------------
                        XY            XZ            YZ
 --------------------------------------------------------
     1   Atom       -0.002022      0.001346     -0.000623
     2   Atom       -0.003030     -0.002644      0.079140
     3   Atom        0.000154     -0.002612      0.046549
     4   Atom        0.005922     -0.008913      0.092898
     5   Atom       -0.020128     -0.025463      0.673970
     6   Atom       -0.003022     -0.002630      0.079105
     7   Atom        0.000155     -0.002608      0.046521
     8   Atom        0.005917     -0.008914      0.092910
     9   Atom       -0.020145     -0.025491      0.674051
    10   Atom       -0.002022      0.001345     -0.000624
    11   Atom       -0.001527      0.001009     -0.000728
    12   Atom        0.000613      0.002637     -0.000732
    13   Atom       -0.001823     -0.001581     -0.000432
    14   Atom       -0.006055      0.003675     -0.002315
    15   Atom       -0.006052      0.003673     -0.002315
    16   Atom       -0.001824     -0.001582     -0.000432
    17   Atom       -0.001527      0.001009     -0.000727
    18   Atom        0.000612      0.002637     -0.000732
 --------------------------------------------------------


 ---------------------------------------------------------------------------------
              Anisotropic Spin Dipole Couplings in Principal Axis System
 ---------------------------------------------------------------------------------

       Atom             a.u.   MegaHertz   Gauss  10(-4) cm-1        Axes

              Baa    -0.0031    -0.414    -0.148    -0.138 -0.0206  0.4972  0.8674
     1 C(13)  Bbb    -0.0025    -0.335    -0.120    -0.112  0.3161  0.8263 -0.4662
              Bcc     0.0056     0.749     0.267     0.250  0.9485 -0.2645  0.1742
 
              Baa    -0.0627    -8.409    -3.000    -2.805  0.7925  0.5371 -0.2890
     2 C(13)  Bbb    -0.0599    -8.043    -2.870    -2.683 -0.6096  0.6814 -0.4050
              Bcc     0.1226    16.452     5.870     5.488 -0.0206  0.4971  0.8674
 
              Baa    -0.0373    -5.011    -1.788    -1.671 -0.5172  0.7372 -0.4348
     3 C(13)  Bbb    -0.0341    -4.576    -1.633    -1.526  0.8556  0.4576 -0.2419
              Bcc     0.0714     9.587     3.421     3.198 -0.0206  0.4971  0.8674
 
              Baa    -0.0878   -11.781    -4.204    -3.930  0.9168 -0.3368  0.2147
     4 C(13)  Bbb    -0.0616    -8.270    -2.951    -2.759  0.3989  0.7997 -0.4488
              Bcc     0.1494    20.051     7.155     6.688 -0.0206  0.4971  0.8675
 
              Baa    -0.5257    38.042    13.574    12.689  0.4758  0.7679 -0.4288
     5 O(17)  Bbb    -0.5143    37.211    13.278    12.412  0.8793 -0.4039  0.2524
              Bcc     1.0400   -75.253   -26.852   -25.102 -0.0206  0.4971  0.8675
 
              Baa    -0.0626    -8.405    -2.999    -2.803  0.7922  0.5374 -0.2892
     6 C(13)  Bbb    -0.0599    -8.040    -2.869    -2.682 -0.6099  0.6812 -0.4049
              Bcc     0.1225    16.444     5.868     5.485 -0.0206  0.4972  0.8674
 
              Baa    -0.0373    -5.007    -1.787    -1.670 -0.5170  0.7373 -0.4348
     7 C(13)  Bbb    -0.0341    -4.573    -1.632    -1.525  0.8558  0.4574 -0.2419
              Bcc     0.0714     9.580     3.418     3.196 -0.0206  0.4972  0.8674
 
              Baa    -0.0878   -11.781    -4.204    -3.930  0.9168 -0.3367  0.2147
     8 C(13)  Bbb    -0.0616    -8.271    -2.951    -2.759  0.3988  0.7997 -0.4489
              Bcc     0.1494    20.052     7.155     6.689 -0.0206  0.4971  0.8674
 
              Baa    -0.5258    38.044    13.575    12.690  0.4758  0.7680 -0.4288
     9 O(17)  Bbb    -0.5143    37.213    13.279    12.413  0.8793 -0.4038  0.2524
              Bcc     1.0400   -75.257   -26.853   -25.103 -0.0206  0.4971  0.8674
 
              Baa    -0.0031    -0.414    -0.148    -0.138 -0.0206  0.4972  0.8674
    10 C(13)  Bbb    -0.0025    -0.335    -0.120    -0.112  0.3161  0.8263 -0.4662
              Bcc     0.0056     0.749     0.267     0.250  0.9485 -0.2646  0.1742
 
              Baa    -0.0024    -1.296    -0.463    -0.432 -0.0207  0.4971  0.8674
    11 H(1)   Bbb    -0.0015    -0.797    -0.284    -0.266  0.3616  0.8126 -0.4571
              Bcc     0.0039     2.094     0.747     0.698  0.9321 -0.3042  0.1966
 
              Baa    -0.0037    -1.977    -0.705    -0.659 -0.2934  0.5377  0.7905
    12 H(1)   Bbb    -0.0017    -0.929    -0.332    -0.310  0.1373  0.8420 -0.5218
              Bcc     0.0054     2.906     1.037     0.969  0.9461  0.0445  0.3208
 
              Baa    -0.0037    -1.977    -0.705    -0.659  0.2538  0.4159  0.8733
    13 H(1)   Bbb    -0.0017    -0.929    -0.332    -0.310  0.1358  0.8786 -0.4579
              Bcc     0.0054     2.906     1.037     0.969  0.9577 -0.2348 -0.1665
 
              Baa    -0.0050    -2.658    -0.948    -0.887  0.6182  0.6883 -0.3796
    14 H(1)   Bbb    -0.0046    -2.459    -0.878    -0.820 -0.0207  0.4970  0.8675
              Bcc     0.0096     5.117     1.826     1.707  0.7858 -0.5284  0.3215
 
              Baa    -0.0050    -2.657    -0.948    -0.886  0.6181  0.6882 -0.3799
    15 H(1)   Bbb    -0.0046    -2.459    -0.878    -0.820 -0.0205  0.4972  0.8674
              Bcc     0.0096     5.116     1.826     1.707  0.7858 -0.5283  0.3214
 
              Baa    -0.0037    -1.977    -0.705    -0.659  0.2538  0.4157  0.8733
    16 H(1)   Bbb    -0.0017    -0.929    -0.331    -0.310  0.1359  0.8786 -0.4577
              Bcc     0.0054     2.906     1.037     0.969  0.9577 -0.2349 -0.1666
 
              Baa    -0.0024    -1.296    -0.463    -0.432 -0.0206  0.4971  0.8675
    17 H(1)   Bbb    -0.0015    -0.797    -0.284    -0.266  0.3616  0.8126 -0.4570
              Bcc     0.0039     2.093     0.747     0.698  0.9321 -0.3042  0.1965
 
              Baa    -0.0037    -1.977    -0.705    -0.659 -0.2933  0.5377  0.7905
    18 H(1)   Bbb    -0.0017    -0.929    -0.331    -0.310  0.1374  0.8420 -0.5218
              Bcc     0.0054     2.906     1.037     0.969  0.9461  0.0444  0.3208
 

 ---------------------------------------------------------------------------------

 No NMR shielding tensors so no spin-rotation constants.
 Leave Link  601 at Sat Feb 10 10:03:02 2024, MaxMem=  4026531840 cpu:               6.9 elap:               1.1
 (Enter /sysapps/ubuntu-applications/gaussian/Gaussian/AVX2/g16/l701.exe)
 ... and contract with generalized density number  0.
 Compute integral first derivatives.
 D1PCM: PCM CHGder 1st derivatives, ID1Alg=3 FixD1E=F DoIter=F DoCFld=F I1PDM=0.
 GePol: Maximum number of non-zero 1st derivatives   =     214
 Leave Link  701 at Sat Feb 10 10:03:03 2024, MaxMem=  4026531840 cpu:               9.4 elap:               1.3
 (Enter /sysapps/ubuntu-applications/gaussian/Gaussian/AVX2/g16/l702.exe)
 L702 exits ... SP integral derivatives will be done elsewhere.
 Leave Link  702 at Sat Feb 10 10:03:04 2024, MaxMem=  4026531840 cpu:               0.3 elap:               0.1
 (Enter /sysapps/ubuntu-applications/gaussian/Gaussian/AVX2/g16/l703.exe)
 Integral derivatives from FoFJK, PRISM(SPDF).
 Compute integral first derivatives, UseDBF=F ICtDFT=           0.
 Calling FoFJK, ICntrl=      2127 FMM=F ISym2X=0 I1Cent= 0 IOpClX= 1 NMat=1 NMatS=1 NMatT=0.
 FoFJK:  IHMeth= 1 ICntrl=    2127 DoSepK=F KAlg= 0 I1Cent=           0 FoldK=F
 IRaf=         0 NMat=       1 IRICut=       1 DoRegI=T DoRafI=F ISym2E= 0 IDoP0=0 IntGTp=1.
 FoFCou: FMM=F IPFlag=           0 FMFlag=      100000 FMFlg1=         800
         NFxFlg=           0 DoJE=F BraDBF=F KetDBF=F FulRan=T
         wScrn=  0.000000 ICntrl=      2127 IOpCl=  1 I1Cent=           0 NGrid=           0
         NMat0=    1 NMatS0=      1 NMatT0=    0 NMatD0=    1 NMtDS0=    0 NMtDT0=    0
 Symmetry not used in FoFCou.
 Leave Link  703 at Sat Feb 10 10:03:16 2024, MaxMem=  4026531840 cpu:              97.0 elap:              12.7
 (Enter /sysapps/ubuntu-applications/gaussian/Gaussian/AVX2/g16/l716.exe)
 Dipole        = 2.06519866D-05-7.55868351D-06 1.86704093D-04
 -------------------------------------------------------------------
 Center     Atomic                   Forces (Hartrees/Bohr)
 Number     Number              X              Y              Z
 -------------------------------------------------------------------
      1        6           0.000264192   -0.000851050    0.000497748
      2        6           0.002647983    0.001313583   -0.000687927
      3        6          -0.001574022   -0.001782384    0.001000929
      4        6           0.004634758    0.007886483   -0.004398817
      5        8          -0.001373845   -0.004335229    0.002492854
      6        6          -0.002657709   -0.001350250    0.000707888
      7        6           0.001603739    0.001803460   -0.001014637
      8        6          -0.004657678   -0.007864331    0.004387314
      9        8           0.001377827    0.004325222   -0.002486830
     10        6          -0.000256979    0.000845318   -0.000504024
     11        1          -0.000081062    0.001340843   -0.000770182
     12        1           0.000122165   -0.000870016    0.000520435
     13        1           0.000091626   -0.000871279    0.000541977
     14        1           0.000883045    0.000824195   -0.000440408
     15        1          -0.000886873   -0.000825795    0.000443612
     16        1          -0.000094491    0.000875949   -0.000541016
     17        1           0.000076518   -0.001337879    0.000772038
     18        1          -0.000119192    0.000873160   -0.000520954
 -------------------------------------------------------------------
 Cartesian Forces:  Max     0.007886483 RMS     0.002380543
 Leave Link  716 at Sat Feb 10 10:03:17 2024, MaxMem=  4026531840 cpu:               0.4 elap:               0.1
 (Enter /sysapps/ubuntu-applications/gaussian/Gaussian/AVX2/g16/l103.exe)

 GradGradGradGradGradGradGradGradGradGradGradGradGradGradGradGradGradGrad
 Berny optimization.
 FormGI is forming the generalized inverse of G from B-inverse, IUseBI=4.
 Internal  Forces:  Max     0.005119585 RMS     0.001264908
 Search for a local minimum.
 Step number   1 out of a maximum of   94
 All quantities printed in internal units (Hartrees-Bohrs-Radians)
 RMS Force = .12649D-02 SwitMx=.10000D-02 MixMth= 1
 Mixed Optimization -- RFO/linear search
 Second derivative matrix not updated -- first step.
 ITU=  0
     Eigenvalues ---    0.00692   0.00692   0.01379   0.01390   0.01396
     Eigenvalues ---    0.01398   0.01418   0.01781   0.01983   0.02066
     Eigenvalues ---    0.02105   0.07100   0.07100   0.07269   0.07269
     Eigenvalues ---    0.16000   0.16000   0.16000   0.16000   0.16000
     Eigenvalues ---    0.16000   0.16000   0.16000   0.23000   0.23914
     Eigenvalues ---    0.25000   0.25000   0.25000   0.25000   0.25000
     Eigenvalues ---    0.31795   0.31796   0.34164   0.34164   0.34164
     Eigenvalues ---    0.34165   0.34339   0.34340   0.35023   0.35024
     Eigenvalues ---    0.35514   0.37006   0.37195   0.38725   0.47682
     Eigenvalues ---    0.50474   0.77152   0.77156
 RFO step:  Lambda=-4.23438376D-04 EMin= 6.91677875D-03
 Linear search not attempted -- first point.
 Iteration  1 RMS(Cart)=  0.00976643 RMS(Int)=  0.00003128
 Iteration  2 RMS(Cart)=  0.00004332 RMS(Int)=  0.00000416
 Iteration  3 RMS(Cart)=  0.00000000 RMS(Int)=  0.00000416
 ITry= 1 IFail=0 DXMaxC= 2.86D-02 DCOld= 1.00D+10 DXMaxT= 3.00D-01 DXLimC= 3.00D+00 Rises=F
 Variable       Old X    -DE/DX   Delta X   Delta X   Delta X     New X
                                 (Linear)    (Quad)   (Total)
    R1        2.84519   0.00024   0.00000   0.00076   0.00076   2.84594
    R2        2.06761  -0.00142   0.00000  -0.00413  -0.00413   2.06348
    R3        2.07054  -0.00048   0.00000  -0.00140  -0.00140   2.06914
    R4        2.07054  -0.00052   0.00000  -0.00153  -0.00153   2.06901
    R5        2.59394  -0.00119   0.00000  -0.00236  -0.00236   2.59158
    R6        2.75549   0.00034   0.00000   0.00090   0.00090   2.75639
    R7        2.73319  -0.00080   0.00000  -0.00205  -0.00205   2.73114
    R8        2.05637  -0.00029   0.00000  -0.00083  -0.00083   2.05553
[...]
 -0.9814893,-0.0018694,-0.0386403,0.0174775,-0.0914646,0.1659268,0.0062
 899,0.0459808,0.0074692,0.1783371,-0.0330839,0.0328256,-0.0214829,0.14
 96869,-0.0775206,0.0984567,-0.0875238,0.0952817,0.0325555,-0.076619,-0
 .0578335,-0.0105637,-0.1128286,-0.0900723,-0.107969,-0.0741524,-0.1110
 671,0.0444748,-0.0816599,-0.0234783,0.0569937,0.0023146,0.1053126,0.00
 65569,0.1333108,0.0068467,-0.139999,-0.01612,0.1262232,-0.0772917,0.11
 49326,-0.0318488,0.1182969,-0.070439,0.1193946,0.099447,-0.0161175,0.1
 262222,-0.0772868,0.1149347,-0.0318544,0.1182972,-0.0704367,0.119392,0
 .0994499,-0.0816446,-0.0234778,0.0569861,0.002307,0.1053117,0.0065698,
 0.1333104,0.0068597,-0.139998,-0.0330881,0.0328302,-0.0214826,0.149694
 1,-0.0775302,0.0984489,-0.0875149,0.0952745,0.032568,-0.0766244,-0.057
 8338,-0.0105643,-0.1128238,-0.0900621,-0.107973,-0.0741523,-0.1110697,
 0.0444648\Polar=187.7436859,38.7352022,194.8059261,-19.9330783,-58.722
 3067,124.1314859\Quadrupole=7.3853419,-10.4160753,3.0307333,-10.625126
 1,6.0572316,11.0125435\PG=C01 [X(C8H8O2)]\NImag=0\\0.47691095,-0.01634
 027,0.55926243,0.00829583,-0.02174843,0.53506259,-0.20625175,-0.005568
 75,-0.00005020,0.60153265,-0.01252012,-0.08362469,0.00871885,0.0715851
 9,0.53665011,0.00384878,0.00888856,-0.07293640,-0.03028705,-0.22083316
 ,0.27501040,-0.02106567,-0.02826298,0.01554948,-0.16983560,-0.07243629
 ,0.03870877,0.61223097,-0.00731326,0.00024933,0.00364151,-0.11106864,-
 0.26839951,0.12361620,0.01002256,0.58690738,0.00352627,0.00312916,0.00
 518814,0.06090100,0.12452099,-0.11845891,0.00609376,-0.27360774,0.2666
 8705,0.00476393,0.00219573,-0.00139740,-0.01495913,-0.04965434,0.02821
 274,-0.22551125,0.02799294,-0.01984582,0.57155332,-0.00042570,-0.00005
 383,0.00640665,-0.03003709,0.01108413,-0.00834027,-0.00499343,-0.10142
 263,0.02032341,0.07145609,0.55105421,0.00009430,0.00644861,0.00741941,
 0.01690881,-0.00881120,0.00320397,-0.00089312,0.02104193,-0.07785340,-
 0.03172330,-0.21658409,0.29489839,-0.00050270,-0.00185982,0.00108402,-
 0.00322588,0.00637032,-0.00383902,-0.03458570,-0.05390260,0.02970416,-
 0.14726639,-0.11949435,0.06665934,0.16428870,-0.00000396,-0.00077533,-
 0.00034585,0.00284507,-0.00023413,0.00257746,-0.03377346,-0.01053410,0
 .01377157,-0.11690615,-0.30803027,0.14274774,0.15702016,0.37146133,0.0
 0002161,-0.00038286,-0.00115473,-0.00180097,0.00268146,0.00259218,0.01
 814194,0.01337466,0.00766215,0.06506547,0.14259200,-0.13559747,-0.0866
 6877,-0.19526701,0.13529907,-0.00067757,-0.00106620,0.00063321,0.00029
 548,0.00490420,-0.00291634,-0.02618239,0.01897432,-0.01165463,-0.16492
 593,0.05077921,-0.03135964,0.02097976,-0.00494991,0.00292859,0.6015314
 8,0.00103969,-0.00097674,-0.00039491,0.00490426,-0.03045293,0.02035419
 ,0.03359379,0.02415829,-0.00914298,0.02699814,-0.12344223,0.02921794,0
 .00923745,-0.05185966,0.03885930,0.07159555,0.53665100,-0.00057014,-0.
 00043795,-0.00145795,-0.00291629,0.02035400,-0.00694217,-0.02004028,-0
 .00947955,0.01181866,-0.01768549,0.02976057,-0.09121805,-0.00518189,0.
 03855088,-0.00671558,-0.03029700,-0.22083121,0.27500821,0.00015520,0.0
 0290249,-0.00172641,-0.02618261,0.03359424,-0.02004001,-0.02850430,-0.
 01382703,0.00719096,0.04579280,-0.00070561,0.00145695,-0.00815927,0.00
 338939,-0.00221455,-0.16983822,-0.07243981,0.03871196,0.61221968,0.001
 33873,-0.00255145,0.00337942,0.01897405,0.02415812,-0.00947978,-0.0138
 2661,-0.01000881,0.00742835,0.01282275,-0.03611050,0.02167946,0.001167
 72,0.00197011,0.00091347,-0.11107214,-0.26840749,0.12362000,0.01002258
 ,0.58692132,-0.00084226,0.00342463,0.00129536,-0.01165495,-0.00914294,
 0.01181872,0.00719098,0.00742862,-0.00057967,-0.00631258,0.02134582,-0
 .01121678,-0.00093906,0.00098708,0.00294243,0.06090408,0.12452390,-0.1
 1845927,0.00608676,-0.27360931,0.26668452,-0.02220947,0.02105187,-0.01
 271748,-0.16493033,0.02700297,-0.01769062,0.04579264,0.01282355,-0.006
 31214,-0.02964192,0.00808531,-0.00525816,0.00425063,0.00432659,-0.0023
 7429,-0.01495870,-0.04965465,0.02821271,-0.22550102,0.02799661,-0.0198
 4357,0.57154513,0.00564970,0.00609119,-0.00126336,0.05078462,-0.123448
 13,0.02976710,-0.00070467,-0.03611068,0.02134618,0.00808443,-0.0119592
 1,0.00484432,0.00458344,0.01090563,-0.00660102,-0.03003712,0.01108449,
 -0.00833995,-0.00499078,-0.10142250,0.02032322,0.07144565,0.55106484,-
 0.00385705,-0.00087558,0.00408596,-0.03136419,0.02922306,-0.09122145,0
 .00145732,0.02167969,-0.01121698,-0.00525830,0.00484327,-0.00670926,-0
 .00250010,-0.00656481,0.00296497,0.01690835,-0.00881077,0.00320337,-0.
 00089148,0.02104093,-0.07785352,-0.03171575,-0.21658479,0.29489566,-0.
 00056256,0.00206355,-0.00119186,0.02097987,0.00923794,-0.00518197,-0.0
 0815943,0.00116746,-0.00093908,0.00425098,0.00458285,-0.00250041,-0.00
 323173,-0.00755486,0.00427070,-0.00322620,0.00637055,-0.00383901,-0.03
 458537,-0.05390316,0.02970298,-0.14726411,-0.11949255,0.06665489,0.164
 28603,-0.00456478,0.00054492,-0.00213084,-0.00494973,-0.05186058,0.038
 54982,0.00338859,0.00197019,0.00098728,0.00432765,0.01090512,-0.006565
 74,-0.00755533,-0.01414380,0.00805040,0.00284482,-0.00023387,0.0025772
 2,-0.03377328,-0.01053515,0.01377112,-0.11690468,-0.30803490,0.1427433
 7,0.15701894,0.37146723,0.00256734,-0.00182058,-0.00195181,0.00292828,
 0.03885919,-0.00671461,-0.00221435,0.00091348,0.00294243,-0.00237452,-
 0.00660016,0.00296517,0.00427058,0.00804968,-0.00436969,-0.00180066,0.
 00268108,0.00259228,0.01814132,0.01337492,0.00766246,0.06506063,0.1425
 8599,-0.13559066,-0.08666319,-0.19526110,0.13529118,-0.00005098,0.0000
 9134,-0.00004354,-0.00067756,0.00103968,-0.00057015,0.00015512,0.00133
 877,-0.00084225,-0.02220956,0.00564972,-0.00385703,-0.00056278,-0.0045
 6455,0.00256746,-0.20625294,-0.01252050,0.00385023,-0.02106525,-0.0073
 1305,0.00352631,0.00476400,-0.00042562,0.00009434,-0.00050271,-0.00000
 400,0.00002162,0.47691195,0.00009136,0.00007429,-0.00027979,-0.0010663
 0,-0.00097681,-0.00043790,0.00290267,-0.00255156,0.00342458,0.02105197
 ,0.00609135,-0.00087552,0.00206396,0.00054494,-0.00182080,-0.00556923,
 -0.08362497,0.00888850,-0.02826292,0.00024942,0.00312932,0.00219586,-0
 .00005401,0.00644835,-0.00185978,-0.00077524,-0.00038286,-0.01634220,0
 .55926334,-0.00004352,-0.00027982,-0.00025551,0.00063317,-0.00039507,-
 0.00145789,-0.00172618,0.00337936,0.00129532,-0.01271725,-0.00126346,0
 .00408589,-0.00119169,-0.00213083,-0.00195158,-0.00004848,0.00871873,-
 0.07293607,0.01554987,0.00364158,0.00518809,-0.00139744,0.00640677,0.0
 0741983,0.00108411,-0.00034577,-0.00115485,0.00829609,-0.02174653,0.53
 506234,-0.09727752,0.08797565,-0.05130855,-0.01575481,0.02648967,-0.01
 545277,0.00184003,0.00170147,-0.00093939,0.00003755,0.00010157,-0.0000
 5642,-0.00006156,-0.00025124,0.00014517,0.00030003,-0.00011287,0.00007
 320,-0.00039070,0.00166688,-0.00097696,-0.00551995,-0.00288729,0.00149
 819,0.00097265,-0.00037343,0.00023691,0.00002331,-0.00010403,0.0000597
 0,0.10840867,0.09126349,-0.20515288,0.09221077,-0.00278657,0.00238466,
 -0.00214597,-0.00148012,0.00031735,-0.00036660,-0.00004548,0.00002168,
 -0.00009766,0.00023518,0.00024055,-0.00012985,-0.00010992,0.00021648,-
 0.00015035,-0.00016986,-0.00004537,0.00016038,-0.00121216,0.00009576,0
 .00067574,0.00115707,0.00007246,0.00018743,-0.00002262,0.00003397,-0.0
 0001157,-0.09764938,0.22103708,-0.05318108,0.09211789,-0.10093364,0.00
 122181,-0.00145812,-0.00042910,0.00090092,-0.00028404,-0.00009347,0.00
 002731,-0.00010574,-0.00009289,-0.00013271,-0.00013497,0.00008178,0.00
 007372,-0.00014545,0.00004276,0.00007649,0.00020103,0.00012854,0.00053
 767,0.00064792,0.00097254,-0.00064278,0.00014362,0.00020330,0.00001277
 ,-0.00001343,0.00002335,0.05715967,-0.10284010,0.10464140,-0.06444812,
 -0.06131251,-0.03487821,-0.01132588,-0.02924443,-0.01346615,-0.0028765
 6,0.00176109,-0.00107956,0.00001735,0.00079241,0.00184048,-0.00061110,
 -0.00049960,-0.00000989,-0.00022676,-0.00061290,0.00011841,0.00072700,
 0.00034813,0.00043598,-0.00122983,-0.00122549,0.00146602,0.00157931,0.
 00129080,-0.00071765,0.00001390,-0.00007870,-0.00004793,0.00369901,0.0
 1140838,0.00764978,0.07210529,-0.05864658,-0.22867036,-0.09858095,-0.0
 0474225,-0.00148334,0.00105779,-0.00058427,0.00084021,-0.00082712,-0.0
 0025826,0.00029384,0.00012532,-0.00016845,-0.00018755,0.00012303,0.000
 10185,-0.00017174,0.00005913,-0.00008732,0.00007220,-0.00040052,0.0002
 1018,-0.00173468,0.00179652,0.00085497,0.00109612,-0.00069929,-0.00000
 907,0.00001816,0.00000970,-0.00659997,-0.01910939,-0.01122951,0.069140
 35,0.24819022,-0.03480952,-0.09797616,-0.09514386,0.00147005,0.0032866
 4,0.00151880,0.00065471,0.00024335,-0.00032589,0.00011293,-0.00018469,
 -0.00056841,-0.00000651,0.00005436,0.00008378,-0.00005283,-0.00019568,
 0.00009065,0.00030825,0.00021151,-0.00014264,-0.00137134,-0.00036889,0
 .00081764,0.00120024,-0.00006548,-0.00011570,0.00001432,0.00000008,0.0
 0004555,0.00554987,0.01266751,0.00722636,0.03526789,0.10891111,0.10143
 455,-0.06969052,-0.00204149,0.07769918,-0.01239798,-0.00357099,0.03146
 584,-0.00289272,0.00180190,-0.00108060,0.00010333,-0.00117636,-0.00159
 113,-0.00062607,-0.00025906,0.00041595,-0.00023601,-0.00042332,0.00046
 539,0.00076076,-0.00016631,-0.00049140,-0.00120555,-0.00201718,0.00026
 707,0.00208179,0.00102055,-0.00064690,0.00001119,-0.00000006,0.0000880
 7,0.00426744,-0.00067936,-0.01364066,0.00274128,0.00090449,-0.00832334
 ,0.07727935,-0.00103039,-0.04375373,0.01323779,-0.00404066,-0.00133102
 ,0.00398001,-0.00090779,0.00026141,-0.00016828,-0.00020878,-0.00033864
 ,-0.00058400,-0.00009744,-0.00007750,0.00013482,0.00009449,0.00006843,
 -0.00003133,-0.00029850,-0.00001232,0.00014227,0.00131171,-0.00048156,
 0.00039694,-0.00068551,0.00083041,-0.00052048,-0.00001777,0.00003380,0
 .00001096,-0.00889650,-0.00042869,0.02326417,0.00862435,0.00077849,-0.
 02668090,0.00622124,0.04406116,0.07563149,0.01238982,-0.27516685,0.002
 83820,0.00119110,0.00238597,0.00007547,-0.00111419,0.00024323,0.000174
 82,-0.00025185,-0.00002116,0.00010654,0.00016015,-0.00000602,-0.000063
 57,0.00017865,-0.00014200,-0.00004593,-0.00046016,-0.00009292,0.000492
 80,0.00255267,-0.00045638,-0.00152607,-0.00102470,0.00093797,0.0000000
 3,0.00001787,0.00003624,0.00340643,-0.00002441,-0.01196485,0.00410590,
 0.00003063,-0.01524634,-0.08529106,-0.01347055,0.29945319,0.00115629,-
 0.00111017,0.00080062,0.00880605,-0.00972089,0.00566119,-0.14144787,0.
 10750743,-0.06419307,-0.01301911,0.02416545,-0.01424094,0.00393599,-0.
 00040085,0.00039481,-0.00590966,-0.00192815,0.00088962,-0.00005439,-0.
 00082866,0.00050283,-0.00103053,-0.00265042,0.00128853,0.00074410,-0.0
 0035540,0.00024466,-0.00029793,0.00146435,-0.00084850,0.00013780,0.000
 00942,-0.00000347,0.00007465,0.00001339,0.00006024,0.00004451,-0.00006
 067,-0.00003571,0.14749894,0.00167902,-0.00088702,-0.00283259,0.015551
 91,-0.01429333,0.01152679,0.10808624,-0.18532410,0.08985950,-0.0040810
 6,0.00181418,0.00077104,0.00050990,0.00128324,-0.00237146,-0.00047169,
 0.00171433,0.00104183,-0.00046854,-0.00036732,-0.00058045,-0.00408531,
 0.00221302,0.00377293,0.00056341,-0.00256179,0.00087616,-0.00016747,0.
 00013799,-0.00002733,-0.00101687,0.00034087,-0.00012671,-0.00051302,0.
 00003910,0.00008273,0.00027888,0.00039522,-0.00015562,-0.11615958,0.19
 560997,-0.00079578,-0.00289224,-0.00424831,-0.00883381,0.01095712,-0.0
 0133002,-0.06453523,0.08980664,-0.08618206,0.00195182,0.00142038,0.002
 54063,-0.00011553,-0.00236493,-0.00129315,0.00004867,0.00101046,0.0029
 6922,0.00029716,-0.00059224,-0.00101955,0.00211014,0.00380614,0.006830
 03,-0.00028043,0.00085611,-0.00156389,0.00008663,0.00001045,0.00009241
 ,0.00059547,-0.00010353,0.00026039,-0.00062478,-0.00036830,0.00034215,
 0.00075144,0.00029789,0.00001764,0.06952472,-0.10177004,0.08279369,-0.
 00029792,0.00146430,-0.00084855,-0.00590974,-0.00192803,0.00088975,-0.
 00005436,-0.00082869,0.00050282,-0.00103058,-0.00265031,0.00128866,0.0
 0074411,-0.00035542,0.00024467,0.00880621,-0.00972114,0.00566107,-0.14
 144514,0.10750804,-0.06418976,-0.01301922,0.02416573,-0.01424070,0.003
 93609,-0.00040087,0.00039473,0.00115633,-0.00111011,0.00080041,-0.0005
 9630,0.00002097,-0.00002413,0.00000073,-0.00008580,-0.00002235,-0.0000
 0016,-0.00002505,0.00008215,-0.00004311,0.00014460,-0.00008122,0.14749
 604,-0.00016746,0.00013797,-0.00002733,-0.00047154,0.00171428,0.001041
 70,-0.00046852,-0.00036728,-0.00058047,-0.00408537,0.00221324,0.003772
 83,0.00056339,-0.00256190,0.00087626,0.01555189,-0.01429342,0.01152633
 ,0.10808700,-0.18532953,0.08985870,-0.00408091,0.00181374,0.00077137,0
 .00050982,0.00128343,-0.00237143,0.00167893,-0.00088691,-0.00283274,-0
 .00002615,-0.00000948,-0.00004431,0.00008663,0.00002895,0.00000490,0.0
 0008908,0.00000151,-0.00001616,0.00014462,-0.00013534,-0.00001115,-0.1
 1616044,0.19561563,0.00008664,0.00001042,0.00009245,0.00004878,0.00101
 052,0.00296911,0.00029713,-0.00059217,-0.00101960,0.00211009,0.0038062
 4,0.00683022,-0.00028043,0.00085596,-0.00156388,-0.00883354,0.01095714
 ,-0.00132959,-0.06453236,0.08980587,-0.08617954,0.00195192,0.00141999,
 0.00254083,-0.00011548,-0.00236487,-0.00129314,-0.00079582,-0.00289215
 ,-0.00424848,0.00000249,-0.00004247,-0.00006003,-0.00005251,-0.0000057
 7,-0.00001090,-0.00004922,-0.00001450,0.00001884,-0.00008122,-0.000011
 17,-0.00015711,0.06952144,-0.10176901,0.08279064,0.00001119,-0.0000000
 4,0.00008807,-0.00023604,-0.00042327,0.00046535,0.00076073,-0.00016630
 ,-0.00049136,-0.00120551,-0.00201710,0.00026721,0.00208204,0.00102057,
 -0.00064711,-0.01239733,-0.00357266,0.03146618,-0.00289305,0.00180187,
 -0.00108050,0.00010341,-0.00117647,-0.00159114,-0.00062610,-0.00025904
 ,0.00041594,-0.06968795,-0.00204553,0.07769536,-0.00005136,0.00002757,
 -0.00001781,-0.00008928,-0.00001901,-0.00002910,-0.00009997,0.00000941
 ,0.00000829,-0.00000015,0.00008908,-0.00004922,0.00004452,0.00027888,0
 .00075144,0.07727636,-0.00001777,0.00003379,0.00001095,0.00009450,0.00
 006839,-0.00003131,-0.00029849,-0.00001229,0.00014228,0.00131170,-0.00
 048162,0.00039690,-0.00068535,0.00082994,-0.00052050,-0.00404093,-0.00
 133131,0.00398007,-0.00090775,0.00026155,-0.00016826,-0.00020885,-0.00
 033855,-0.00058397,-0.00009745,-0.00007755,0.00013482,-0.00103429,-0.0
 4375506,0.01325033,-0.00000523,0.00000043,0.00000317,0.00001307,-0.000
 00616,0.00000547,0.00000941,-0.00000125,-0.00000345,-0.00002505,0.0000
 0151,-0.00001450,-0.00006065,0.00039522,0.00029787,0.00622568,0.044062
 94,0.00000003,0.00001787,0.00003625,-0.00006355,0.00017868,-0.00014202
 ,-0.00004599,-0.00046021,-0.00009290,0.00049296,0.00255277,-0.00045644
 ,-0.00152630,-0.00102471,0.00093809,0.00283836,0.00119105,0.00238543,0
 .00007548,-0.00111427,0.00024322,0.00017477,-0.00025184,-0.00002116,0.
 00010655,0.00016016,-0.00000602,0.07562808,0.01240220,-0.27516909,0.00
 001495,-0.00000930,0.00000063,0.00002526,0.00000949,0.00000299,0.00000
 829,-0.00000345,-0.00000020,0.00008215,-0.00001617,0.00001885,-0.00003
 573,-0.00015559,0.00001766,-0.08528705,-0.01348446,0.29945556,0.000023
 31,-0.00010403,0.00005971,0.00030004,-0.00011287,0.00007322,-0.0003907
 1,0.00166688,-0.00097702,-0.00551993,-0.00288730,0.00149832,0.00097268
 ,-0.00037341,0.00023692,-0.01575499,0.02649040,-0.01545127,0.00184012,
 0.00170136,-0.00093942,0.00003753,0.00010157,-0.00005648,-0.00006157,-
 0.00025125,0.00014518,-0.09728002,0.08798019,-0.05130417,0.00001669,0.
 00000494,-0.00000206,-0.00005096,-0.00001722,-0.00000591,-0.00005137,-
 0.00000523,0.00001495,-0.00059631,-0.00002616,0.00000248,0.00013784,-0
 .00101683,0.00059546,0.00426731,-0.00889630,0.00340564,0.10841114,-0.0
 0002263,0.00003397,-0.00001158,-0.00010992,0.00021649,-0.00015035,-0.0
 0016987,-0.00004539,0.00016036,-0.00121220,0.00009578,0.00067569,0.001
 15703,0.00007244,0.00018740,-0.00278685,0.00238504,-0.00214583,-0.0014
 8001,0.00031744,-0.00036655,-0.00004547,0.00002170,-0.00009762,0.00023
 518,0.00024056,-0.00012986,0.09126805,-0.20516135,0.09220337,0.0000049
 4,-0.00002002,0.00001343,0.00002847,0.00000454,0.00000654,0.00002757,0
 .00000043,-0.00000930,0.00002097,-0.00000948,-0.00004247,0.00000948,0.
 00034084,-0.00010357,-0.00067862,-0.00042998,-0.00002376,-0.09765441,0
 .22104651,0.00001276,-0.00001342,0.00002336,0.00007372,-0.00014543,0.0
 0004274,0.00007645,0.00020097,0.00012858,0.00053783,0.00064809,0.00097
 248,-0.00064297,0.00014363,0.00020332,0.00122174,-0.00145842,-0.000429
 11,0.00090080,-0.00028410,-0.00009353,0.00002730,-0.00010574,-0.000092
 92,-0.00013270,-0.00013496,0.00008178,-0.05317632,0.09211045,-0.100922
 29,-0.00000206,0.00001343,-0.00000389,-0.00001544,-0.00000886,-0.00000
 319,-0.00001781,0.00000317,0.00000063,-0.00002411,-0.00004431,-0.00006
 003,-0.00000349,-0.00012664,0.00026037,-0.01364110,0.02326478,-0.01196
 328,0.05715495,-0.10283190,0.10462877,0.00001390,-0.00007870,-0.000047
 91,-0.00022678,-0.00061295,0.00011843,0.00072706,0.00034814,0.00043597
 ,-0.00122996,-0.00122535,0.00146607,0.00157926,0.00129069,-0.00071771,
 -0.01132628,-0.02924384,-0.01346741,-0.00287624,0.00176120,-0.00107945
 ,0.00001728,0.00079246,0.00184047,-0.00061104,-0.00049957,-0.00000992,
 -0.06444812,-0.06131151,-0.03488161,-0.00005096,0.00002847,-0.00001545
 ,-0.00010003,-0.00000702,-0.00001760,-0.00008930,0.00001307,0.00002526
 ,0.00000073,0.00008663,-0.00005251,0.00007465,-0.00051303,-0.00062481,
 0.00274115,0.00862375,0.00410609,0.00369919,0.01140831,0.00765047,0.07
 210549,-0.00000907,0.00001815,0.00000969,0.00010186,-0.00017171,0.0000
 5910,-0.00008736,0.00007218,-0.00040046,0.00021025,-0.00173460,0.00179
 644,0.00085479,0.00109604,-0.00069929,-0.00474234,-0.00148369,0.001057
 64,-0.00058429,0.00084030,-0.00082703,-0.00025827,0.00029385,0.0001253
 9,-0.00016844,-0.00018754,0.00012301,-0.05864534,-0.22866133,-0.098587
 67,-0.00001722,0.00000454,-0.00000886,-0.00000702,0.00000139,-0.000002
 41,-0.00001901,-0.00000615,0.00000949,-0.00008580,0.00002894,-0.000005
 77,0.00001338,0.00003907,-0.00036832,0.00090496,0.00077999,0.00003155,
 -0.00660033,-0.01910951,-0.01123075,0.06913924,0.24818010,0.00001432,0
 .00000009,0.00004556,-0.00005282,-0.00019568,0.00009066,0.00030823,0.0
 0021150,-0.00014267,-0.00137130,-0.00036894,0.00081769,0.00120034,-0.0
 0006540,-0.00011567,0.00146997,0.00328698,0.00151922,0.00065476,0.0002
 4333,-0.00032591,0.00011283,-0.00018471,-0.00056850,-0.00000649,0.0000
 5437,0.00008380,-0.03481275,-0.09798284,-0.09515328,-0.00000591,0.0000
 0654,-0.00000319,-0.00001760,-0.00000241,-0.00000554,-0.00002910,0.000
 00547,0.00000299,-0.00002235,0.00000490,-0.00001090,0.00006024,0.00008
 275,0.00034214,-0.00832347,-0.02668018,-0.01524758,0.00554949,0.012665
 99,0.00722620,0.03527161,0.10891825,0.10144497\\0.00017071,-0.00003892
 ,0.00003774,0.00001848,-0.00040818,0.00026732,0.00017505,0.00011563,-0
 .00011251,-0.00017950,-0.00051496,0.00037881,0.00015846,0.00028731,-0.
 00020580,-0.00002027,0.00041368,-0.00026752,-0.00017885,-0.00011654,0.
 00011530,0.00018420,0.00050816,-0.00038256,-0.00015870,-0.00028490,0.0
 0020733,-0.00017073,0.00003771,-0.00003820,-0.00007528,0.00016243,-0.0
 0011338,-0.00000137,-0.00004692,0.00001818,-0.00001304,-0.00004702,0.0
 0000804,0.00004123,0.00005285,-0.00005327,-0.00004055,-0.00005244,0.00
 005310,0.00001331,0.00004720,-0.00000792,0.00007511,-0.00016225,0.0001
 1350,0.00000173,0.00004717,-0.00001817\\\@


 PENOTUS DIED A HUNDRED YEARS OLD WANTING BUT TWO...
 AND HE USED TO SAY BEFORE HE DIED, HAVING SPENT HIS
 WHOLE LIFE IN VAINLY SEARCHING AFTER THE PHILOSOPHER'S
 STONE, THAT IF HE HAD A MORTAL ENEMY HE DID NOT DARE
 TO ENCOUNTER OPENLY, HE WOULD ADVISE HIM ABOVE ALL
 THINGS TO GIVE HIMSELF UP TO THE STUDY AND PRACTICE
 OF ALCHEMY.  --  NICOLAS LEMERY, M.D.
 "A COURSE OF CHYMISTRY", WALTER KETTILBY, LONDON, 1686
 Job cpu time:       0 days  1 hours 19 minutes 20.3 seconds.
 Elapsed time:       0 days  0 hours 13 minutes 28.8 seconds.
 File lengths (MBytes):  RWF=    304 Int=      0 D2E=      0 Chk=     17 Scr=      1
 Normal termination of Gaussian 16 at Sat Feb 10 10:20:46 2024.
