 Entering Gaussian System, Link 0=g16
 Input=251-an-PCM.com
 Output=251-an-PCM.log
 Initial command:
 /sysapps/ubuntu-applications/gaussian/Gaussian/AVX2/g16/l1.exe "/scratch/selhajj1/4304556/Gau-678795.inp" -scrdir="/scratch/selhajj1/4304556/"
 Entering Link 1 = /sysapps/ubuntu-applications/gaussian/Gaussian/AVX2/g16/l1.exe PID=    678808.
  
 Copyright (c) 1988,1990,1992,1993,1995,1998,2003,2009,2016,
            Gaussian, Inc.  All Rights Reserved.
  
 This is part of the Gaussian(R) 16 program.  It is based on
 the Gaussian(R) 09 system (copyright 2009, Gaussian, Inc.),
 the Gaussian(R) 03 system (copyright 2003, Gaussian, Inc.),
 the Gaussian(R) 98 system (copyright 1998, Gaussian, Inc.),
 the Gaussian(R) 94 system (copyright 1995, Gaussian, Inc.),
 the Gaussian 92(TM) system (copyright 1992, Gaussian, Inc.),
 the Gaussian 90(TM) system (copyright 1990, Gaussian, Inc.),
 the Gaussian 88(TM) system (copyright 1988, Gaussian, Inc.),
 the Gaussian 86(TM) system (copyright 1986, Carnegie Mellon
 University), and the Gaussian 82(TM) system (copyright 1983,
 Carnegie Mellon University). Gaussian is a federally registered
 trademark of Gaussian, Inc.
  
 This software contains proprietary and confidential information,
 including trade secrets, belonging to Gaussian, Inc.
  
 This software is provided under written license and may be
 used, copied, transmitted, or stored only in accord with that
 written license.
  
 The following legend is applicable only to US Government
 contracts under FAR:
  
                    RESTRICTED RIGHTS LEGEND
  
 Use, reproduction and disclosure by the US Government is
 subject to restrictions as set forth in subparagraphs (a)
 and (c) of the Commercial Computer Software - Restricted
 Rights clause in FAR 52.227-19.
  
 Gaussian, Inc.
 340 Quinnipiac St., Bldg. 40, Wallingford CT 06492
  
  
 ---------------------------------------------------------------
 Warning -- This program may not be used in any manner that
 competes with the business of Gaussian, Inc. or will provide
 assistance to any competitor of Gaussian, Inc.  The licensee
 of this program is prohibited from giving any competitor of
 Gaussian, Inc. access to this program.  By using this program,
 the user acknowledges that Gaussian, Inc. is engaged in the
 business of creating and licensing software in the field of
 computational chemistry and represents and warrants to the
 licensee that it is not a competitor of Gaussian, Inc. and that
 it will not use this program in any manner prohibited above.
 ---------------------------------------------------------------
  

 Cite this work as:
 Gaussian 16, Revision A.03,
 M. J. Frisch, G. W. Trucks, H. B. Schlegel, G. E. Scuseria, 
 M. A. Robb, J. R. Cheeseman, G. Scalmani, V. Barone, 
 G. A. Petersson, H. Nakatsuji, X. Li, M. Caricato, A. V. Marenich, 
 J. Bloino, B. G. Janesko, R. Gomperts, B. Mennucci, H. P. Hratchian, 
 J. V. Ortiz, A. F. Izmaylov, J. L. Sonnenberg, D. Williams-Young, 
 F. Ding, F. Lipparini, F. Egidi, J. Goings, B. Peng, A. Petrone, 
 T. Henderson, D. Ranasinghe, V. G. Zakrzewski, J. Gao, N. Rega, 
 G. Zheng, W. Liang, M. Hada, M. Ehara, K. Toyota, R. Fukuda, 
 J. Hasegawa, M. Ishida, T. Nakajima, Y. Honda, O. Kitao, H. Nakai, 
 T. Vreven, K. Throssell, J. A. Montgomery, Jr., J. E. Peralta, 
 F. Ogliaro, M. J. Bearpark, J. J. Heyd, E. N. Brothers, K. N. Kudin, 
 V. N. Staroverov, T. A. Keith, R. Kobayashi, J. Normand, 
 K. Raghavachari, A. P. Rendell, J. C. Burant, S. S. Iyengar, 
 J. Tomasi, M. Cossi, J. M. Millam, M. Klene, C. Adamo, R. Cammi, 
 J. W. Ochterski, R. L. Martin, K. Morokuma, O. Farkas, 
 J. B. Foresman, and D. J. Fox, Gaussian, Inc., Wallingford CT, 2016.
 
 ******************************************
 Gaussian 16:  ES64L-G16RevA.03 25-Dec-2016
                21-Jan-2024 
 ******************************************
 %chk=251-an-PCM.chk
 %nproc=8
 Will use up to    8 processors via shared memory.
 %mem=30GB
 ----------------------------------------------------------------
 #P UB3LYP/6-311++G(d,p) SCRF=(PCM,Solvent=n,n-DiMethylFormamide)
 ----------------------------------------------------------------
 1/38=1,172=1/1;
 2/12=2,17=6,18=5,40=1/2;
 3/5=4,6=6,7=1111,11=2,25=1,30=1,70=2201,72=148,74=-5,116=2/1,2,3;
 4//1;
 5/5=2,38=5,53=148/2;
 6/7=2,8=2,9=2,10=2,28=1/1;
 99/5=1,9=1/99;
 Leave Link    1 at Sun Jan 21 08:45:59 2024, MaxMem=  4026531840 cpu:               0.6 elap:               0.1
 (Enter /sysapps/ubuntu-applications/gaussian/Gaussian/AVX2/g16/l101.exe)
 -------
 Reduced
 -------
 Symbolic Z-matrix:
 Charge = -2 Multiplicity = 1
 C                     2.99819  -2.47195  -3.45813 
 C                     2.48305  -3.22246  -4.50025 
 C                     1.16606  -2.97812  -4.95649 
 C                     2.24179  -1.45949  -2.82796 
 C                     0.9077   -1.21505  -3.28819 
 C                     0.40456  -1.99235  -4.35392 
 C                     2.83095  -0.68884  -1.73377 
 C                     1.97938   0.31345  -1.14776 
 C                     0.67464   0.55884  -1.60925 
 C                     0.0707   -0.18173  -2.68347 
 O                     4.02844  -0.9059   -1.33838 
 O                    -1.11779   0.04891  -3.09786 
 H                     3.08666  -3.9979   -4.9672 
 H                     0.75473  -3.56446  -5.77537 
 C                     2.56674   1.10993  -0.0062 
 H                     4.00463  -2.63372  -3.08601 
 H                    -0.60921  -1.78099  -4.67836 
 H                     2.78482   2.15005  -0.2937 
 H                     3.50867   0.64626   0.2925 
 H                     1.89297   1.15313   0.85765 
 C                    -0.18137   1.6674   -1.0161 
 C                    -1.07975   1.21108   0.10844 
 C                    -1.30946   1.78391   1.30092 
 C                    -2.30449   1.17688   2.27403 
 C                    -0.65766   3.06652   1.76532 
 C                    -1.70002   0.69835   3.61889 
 C                    -2.72457   0.06492   4.52072 
 C                    -3.13211   0.44955   5.73913 
 C                    -2.60933   1.65081   6.48882 
 C                    -4.19783  -0.31732   6.4867 
 H                    -0.83932   2.00802  -1.82682 
 H                     0.44106   2.50998  -0.70485 
 H                    -1.62488   0.29843  -0.12606 
 H                    -2.80436   0.33058   1.79176 
 H                    -3.08938   1.91267   2.50416 
 H                    -0.02546   3.51041   0.99663 
 H                    -0.03341   2.90814   2.65386 
 H                    -1.41827   3.80755   2.04759 
 H                    -1.20525   1.53312   4.11961 
 H                    -0.9161   -0.03569   3.39133 
 H                    -3.20164  -0.82259   4.1034 
 H                    -1.85336   2.21292   5.93864 
 H                    -2.17264   1.34532   7.44864 
 H                    -3.43044   2.33727   6.73566 
 H                    -4.55367  -1.18633   5.92593 
 H                    -5.06358   0.32203   6.70861 
 H                    -3.82604  -0.66858   7.45817 
 
 ITRead=  0  0  0  0  0  0  0  0  0  0  0  0  0  0  0  0  0  0  0  0
 ITRead=  0  0  0  0  0  0  0  0  0  0  0  0  0  0  0  0  0  0  0  0
 ITRead=  0  0  0  0  0  0  0
 MicOpt= -1 -1 -1 -1 -1 -1 -1 -1 -1 -1 -1 -1 -1 -1 -1 -1 -1 -1 -1 -1
 MicOpt= -1 -1 -1 -1 -1 -1 -1 -1 -1 -1 -1 -1 -1 -1 -1 -1 -1 -1 -1 -1
 MicOpt= -1 -1 -1 -1 -1 -1 -1
 NAtoms=     47 NQM=       47 NQMF=       0 NMMI=      0 NMMIF=      0
                NMic=       0 NMicF=      0.
                    Isotopes and Nuclear Properties:
 (Nuclear quadrupole moments (NQMom) in fm**2, nuclear magnetic moments (NMagM)
  in nuclear magnetons)

  Atom         1           2           3           4           5           6           7           8           9          10
 IAtWgt=          12          12          12          12          12          12          12          12          12          12
 AtmWgt=  12.0000000  12.0000000  12.0000000  12.0000000  12.0000000  12.0000000  12.0000000  12.0000000  12.0000000  12.0000000
 NucSpn=           0           0           0           0           0           0           0           0           0           0
 AtZEff=  -0.0000000  -0.0000000  -0.0000000  -0.0000000  -0.0000000  -0.0000000  -0.0000000  -0.0000000  -0.0000000  -0.0000000
 NQMom=    0.0000000   0.0000000   0.0000000   0.0000000   0.0000000   0.0000000   0.0000000   0.0000000   0.0000000   0.0000000
 NMagM=    0.0000000   0.0000000   0.0000000   0.0000000   0.0000000   0.0000000   0.0000000   0.0000000   0.0000000   0.0000000
 AtZNuc=   6.0000000   6.0000000   6.0000000   6.0000000   6.0000000   6.0000000   6.0000000   6.0000000   6.0000000   6.0000000

  Atom        11          12          13          14          15          16          17          18          19          20
 IAtWgt=          16          16           1           1          12           1           1           1           1           1
 AtmWgt=  15.9949146  15.9949146   1.0078250   1.0078250  12.0000000   1.0078250   1.0078250   1.0078250   1.0078250   1.0078250
 NucSpn=           0           0           1           1           0           1           1           1           1           1
 AtZEff=  -0.0000000  -0.0000000  -0.0000000  -0.0000000  -0.0000000  -0.0000000  -0.0000000  -0.0000000  -0.0000000  -0.0000000
 NQMom=    0.0000000   0.0000000   0.0000000   0.0000000   0.0000000   0.0000000   0.0000000   0.0000000   0.0000000   0.0000000
 NMagM=    0.0000000   0.0000000   2.7928460   2.7928460   0.0000000   2.7928460   2.7928460   2.7928460   2.7928460   2.7928460
 AtZNuc=   8.0000000   8.0000000   1.0000000   1.0000000   6.0000000   1.0000000   1.0000000   1.0000000   1.0000000   1.0000000

  Atom        21          22          23          24          25          26          27          28          29          30
 IAtWgt=          12          12          12          12          12          12          12          12          12          12
 AtmWgt=  12.0000000  12.0000000  12.0000000  12.0000000  12.0000000  12.0000000  12.0000000  12.0000000  12.0000000  12.0000000
 NucSpn=           0           0           0           0           0           0           0           0           0           0
 AtZEff=  -0.0000000  -0.0000000  -0.0000000  -0.0000000  -0.0000000  -0.0000000  -0.0000000  -0.0000000  -0.0000000  -0.0000000
 NQMom=    0.0000000   0.0000000   0.0000000   0.0000000   0.0000000   0.0000000   0.0000000   0.0000000   0.0000000   0.0000000
 NMagM=    0.0000000   0.0000000   0.0000000   0.0000000   0.0000000   0.0000000   0.0000000   0.0000000   0.0000000   0.0000000
 AtZNuc=   6.0000000   6.0000000   6.0000000   6.0000000   6.0000000   6.0000000   6.0000000   6.0000000   6.0000000   6.0000000

  Atom        31          32          33          34          35          36          37          38          39          40
 IAtWgt=           1           1           1           1           1           1           1           1           1           1
 AtmWgt=   1.0078250   1.0078250   1.0078250   1.0078250   1.0078250   1.0078250   1.0078250   1.0078250   1.0078250   1.0078250
 NucSpn=           1           1           1           1           1           1           1           1           1           1
 AtZEff=  -0.0000000  -0.0000000  -0.0000000  -0.0000000  -0.0000000  -0.0000000  -0.0000000  -0.0000000  -0.0000000  -0.0000000
 NQMom=    0.0000000   0.0000000   0.0000000   0.0000000   0.0000000   0.0000000   0.0000000   0.0000000   0.0000000   0.0000000
 NMagM=    2.7928460   2.7928460   2.7928460   2.7928460   2.7928460   2.7928460   2.7928460   2.7928460   2.7928460   2.7928460
 AtZNuc=   1.0000000   1.0000000   1.0000000   1.0000000   1.0000000   1.0000000   1.0000000   1.0000000   1.0000000   1.0000000

  Atom        41          42          43          44          45          46          47
 IAtWgt=           1           1           1           1           1           1           1
 AtmWgt=   1.0078250   1.0078250   1.0078250   1.0078250   1.0078250   1.0078250   1.0078250
 NucSpn=           1           1           1           1           1           1           1
 AtZEff=  -0.0000000  -0.0000000  -0.0000000  -0.0000000  -0.0000000  -0.0000000  -0.0000000
 NQMom=    0.0000000   0.0000000   0.0000000   0.0000000   0.0000000   0.0000000   0.0000000
 NMagM=    2.7928460   2.7928460   2.7928460   2.7928460   2.7928460   2.7928460   2.7928460
 AtZNuc=   1.0000000   1.0000000   1.0000000   1.0000000   1.0000000   1.0000000   1.0000000
 Leave Link  101 at Sun Jan 21 08:46:00 2024, MaxMem=  4026531840 cpu:               1.3 elap:               0.3
 (Enter /sysapps/ubuntu-applications/gaussian/Gaussian/AVX2/g16/l202.exe)
                          Input orientation:                          
 ---------------------------------------------------------------------
 Center     Atomic      Atomic             Coordinates (Angstroms)
 Number     Number       Type             X           Y           Z
 ---------------------------------------------------------------------
      1          6           0        2.998191   -2.471948   -3.458133
      2          6           0        2.483052   -3.222456   -4.500250
      3          6           0        1.166058   -2.978116   -4.956486
      4          6           0        2.241794   -1.459490   -2.827963
      5          6           0        0.907701   -1.215049   -3.288194
      6          6           0        0.404561   -1.992345   -4.353924
      7          6           0        2.830951   -0.688839   -1.733774
      8          6           0        1.979376    0.313449   -1.147757
      9          6           0        0.674641    0.558840   -1.609249
     10          6           0        0.070695   -0.181726   -2.683465
     11          8           0        4.028438   -0.905895   -1.338377
     12          8           0       -1.117789    0.048912   -3.097861
     13          1           0        3.086658   -3.997898   -4.967199
     14          1           0        0.754729   -3.564456   -5.775369
     15          6           0        2.566736    1.109934   -0.006195
     16          1           0        4.004629   -2.633716   -3.086013
     17          1           0       -0.609213   -1.780990   -4.678359
     18          1           0        2.784820    2.150052   -0.293696
     19          1           0        3.508673    0.646263    0.292495
     20          1           0        1.892969    1.153133    0.857645
     21          6           0       -0.181374    1.667400   -1.016100
     22          6           0       -1.079746    1.211084    0.108435
     23          6           0       -1.309464    1.783907    1.300916
     24          6           0       -2.304487    1.176875    2.274026
     25          6           0       -0.657655    3.066517    1.765317
     26          6           0       -1.700020    0.698349    3.618886
     27          6           0       -2.724570    0.064915    4.520720
     28          6           0       -3.132113    0.449545    5.739129
     29          6           0       -2.609325    1.650807    6.488817
     30          6           0       -4.197830   -0.317317    6.486696
     31          1           0       -0.839316    2.008016   -1.826815
     32          1           0        0.441060    2.509980   -0.704847
     33          1           0       -1.624884    0.298432   -0.126062
     34          1           0       -2.804363    0.330579    1.791757
     35          1           0       -3.089383    1.912669    2.504163
     36          1           0       -0.025464    3.510406    0.996631
     37          1           0       -0.033411    2.908139    2.653858
     38          1           0       -1.418270    3.807547    2.047595
     39          1           0       -1.205250    1.533118    4.119614
     40          1           0       -0.916096   -0.035686    3.391334
     41          1           0       -3.201644   -0.822586    4.103403
     42          1           0       -1.853362    2.212918    5.938643
     43          1           0       -2.172640    1.345316    7.448635
     44          1           0       -3.430439    2.337267    6.735658
     45          1           0       -4.553669   -1.186328    5.925931
     46          1           0       -5.063577    0.322029    6.708611
     47          1           0       -3.826043   -0.668577    7.458172
 ---------------------------------------------------------------------
                    Distance matrix (angstroms):
                    1          2          3          4          5
     1  C    0.000000
     2  C    1.383705   0.000000
     3  C    2.420326   1.415036   0.000000
     4  C    1.412205   2.441884   2.827374   0.000000
     5  C    2.445163   2.824977   2.440974   1.432260   0.000000
     6  C    2.785566   2.419651   1.383728   2.447022   1.411779
     7  C    2.486134   3.767445   4.289351   1.462279   2.528242
     8  C    3.759556   4.898523   5.099245   2.456678   2.840117
     9  C    4.242986   5.091801   4.894440   2.831058   2.453539
    10  C    3.796770   4.285582   3.766463   2.523337   1.460833
    11  O    2.829717   4.213326   5.057473   2.391115   3.692745
    12  O    4.840023   5.063062   4.222954   3.692549   2.395085
    13  H    2.147936   1.087976   2.174575   3.425440   3.912948
    14  H    3.405331   2.174855   1.087913   3.915284   3.424785
    15  C    4.993186   6.242847   6.571106   3.830131   4.350800
    16  H    1.085154   2.159138   3.416836   2.133772   3.412397
    17  H    3.870367   3.416380   2.159179   3.414025   2.133981
    18  H    5.605539   6.830081   7.117591   4.443667   4.880010
    19  H    4.904186   6.244140   6.795276   3.971956   4.801132
    20  H    5.743576   6.942695   7.169361   4.531135   4.875143
    21  C    5.762583   6.568802   6.238833   4.351095   3.828447
    22  C    6.550931   7.320504   6.945967   5.175618   4.623111
    23  C    7.701736   8.549876   8.243795   6.338667   5.913501
    24  C    8.619162   9.389646   9.032659   7.324574   6.854031
    25  C    8.445368   9.416610   9.222047   7.070344   6.805889
    26  C    9.066872   9.939375   9.760523   7.858500   7.626864
    27  C   10.141389  10.922639  10.687116   8.999540   8.706942
    28  C   11.432645  12.241673  12.025777  10.291664  10.029134
    29  C   12.140147  13.055290  12.910283  10.954894  10.778337
    30  C   12.462936  13.182830  12.915013  11.381397  11.064395
    31  H    6.120273   6.748572   6.219154   4.745433   3.946625
    32  H    6.240121   7.171864   6.980061   4.848397   4.557113
    33  H    6.336444   6.957393   6.469785   5.034060   4.324776
    34  H    8.311747   8.953779   8.500029   7.071765   6.478757
    35  H    9.582922  10.319077   9.883817   8.259811   7.701344
    36  H    8.048352   9.046534   8.885958   6.668421   6.446739
    37  H    8.688635   9.751823   9.695569   7.369064   7.293446
    38  H    9.447234  10.368970  10.088663   8.056601   7.688124
    39  H    9.546293  10.512902  10.409127   8.313040   8.178790
    40  H    8.256647   9.164432   9.092819   7.118928   7.023762
    41  H    9.916409  10.587634  10.286142   8.836317   8.466195
    42  H   11.566544  12.542658  12.440561  10.349409  10.222962
    43  H   12.659644  13.613077  13.554556  11.530942  11.459645
    44  H   12.975716  13.860935  13.641382  11.749572  11.485470
    45  H   12.113796  12.742312  12.423879  11.085287  10.711092
    46  H   13.272569  13.969737  13.629886  12.144484  11.745420
    47  H   12.999540  13.759754  13.578615  11.968658  11.755482
                    6          7          8          9         10
     6  C    0.000000
     7  C    3.801537   0.000000
     8  C    4.251616   1.439853   0.000000
     9  C    3.756957   2.494370   1.405534   0.000000
    10  C    2.486009   2.962784   2.499332   1.437751   0.000000
    11  O    4.838014   1.279620   2.392027   3.669710   4.242336
    12  O    2.839362   4.242353   3.669512   2.385120   1.279614
    13  H    3.404702   4.633605   5.865315   6.152846   5.373513
    14  H    2.148175   5.377208   6.160576   5.862128   4.633642
    15  C    5.762108   2.507972   1.510809   2.540376   3.881544
    16  H    3.870329   2.643599   4.067465   4.843766   4.652971
    17  H    1.085204   4.658122   4.853104   4.067250   2.645661
    18  H    6.269812   3.183591   2.179741   2.952201   4.302866
    19  H    6.179561   2.519439   2.126932   3.414090   4.621861
    20  H    6.266565   3.314834   2.175815   2.814795   4.200237
    21  C    4.987797   3.891146   2.553303   1.521017   2.502581
    22  C    5.690147   4.721969   3.426659   2.540420   3.325378
    23  C    7.012501   5.697969   4.355998   3.729145   4.652294
    24  C    7.830237   6.776140   5.550278   4.933254   5.662509
    25  C    8.010337   6.206183   4.797845   4.410346   5.556369
    26  C    8.673799   7.148773   6.033820   5.743855   6.605270
    27  C    9.632398   8.399444   7.370245   7.026743   7.731405
    28  C   10.969987   9.627997   8.577589   8.276592   9.033082
    29  C   11.828825  10.133190   9.008994   8.806560   9.729925
    30  C   11.895662  10.822103   9.840763   9.489623  10.115856
    31  H    4.892484   4.555496   3.358229   2.107015   2.521297
    32  H    5.795518   4.123435   2.717965   2.163204   3.361158
    33  H    5.219303   4.838792   3.746302   2.748722   3.105777
    34  H    7.311810   6.724979   5.614730   4.870566   5.343784
    35  H    8.630767   7.731643   6.448747   5.737673   6.425268
    36  H    7.687238   5.766097   4.340313   3.999062   5.213846
    37  H    8.562451   6.355638   5.023545   4.918803   6.168073
    38  H    8.828415   7.250663   5.827778   5.320421   6.365080
    39  H    9.317791   7.449172   6.274921   6.107625   7.130961
    40  H    8.097016   6.382296   5.395276   5.281073   6.156157
    41  H    9.268195   8.395399   7.463794   7.040477   7.561778
    42  H   11.345457   9.446108   8.277374   8.130034   9.152981
    43  H   12.533250  10.653185   9.602184   9.527372  10.489226
    44  H   12.507262  10.958723   9.772930   9.468472  10.359688
    45  H   11.441553  10.651347   9.745105   9.335940   9.824239
    46  H   12.555339  11.602555  10.551103  10.107919  10.715671
    47  H   12.616496  11.349355  10.427333  10.197099  10.875403
                   11         12         13         14         15
    11  O    0.000000
    12  O    5.521874   0.000000
    13  H    4.859607   6.127681   0.000000
    14  H    6.121439   4.871530   2.505774   0.000000
    15  C    2.823977   4.925433   7.139456   7.643079   0.000000
    16  H    2.457674   5.782370   2.498504   4.319810   5.056454
    17  H    5.781788   2.470863   4.319441   2.498904   6.346118
    18  H    3.460745   5.244853   7.728520   8.174693   1.100937
    19  H    2.310648   5.766758   7.029275   7.882470   1.091536
    20  H    3.690845   5.092150   7.866818   8.218766   1.096379
    21  C    4.944515   2.798233   7.641127   7.134371   2.980400
    22  C    5.715628   3.410634   8.381794   7.796809   3.649685
    23  C    6.534072   4.732461   9.593978   9.107123   4.145806
    24  C    7.582435   5.615846  10.405674   9.830147   5.378913
    25  C    6.882764   5.741791  10.452397  10.140344   4.166914
    26  C    7.743596   6.773142  10.894397  10.604213   5.613895
    27  C    8.993031   7.786191  11.844721  11.458067   7.041516
    28  C   10.158829   9.072508  13.155923  12.798571   8.119220
    29  C   10.576464   9.833369  13.985435  13.745039   8.322820
    30  C   11.368803  10.073952  14.064215  13.617268   9.484410
    31  H    5.694250   2.351849   7.832387   7.013166   3.965148
    32  H    4.993881   3.770064   8.217013   7.918798   2.639459
    33  H    5.905943   3.025061   8.005853   7.245628   4.271134
    34  H    7.616678   5.179984   9.956070   9.224957   5.717406
    35  H    8.565792   6.224423  11.353393  10.645504   6.240029
    36  H    6.433514   5.471744  10.081032   9.824579   3.672523
    37  H    6.854445   6.514087  10.747497  10.656806   4.131608
    38  H    7.959144   6.379133  11.420450  10.966637   5.232155
    39  H    7.945435   7.369020  11.470954  11.302100   5.606181
    40  H    6.897525   6.492880  10.079000   9.963549   4.998577
    41  H    9.049530   7.547196  11.484823  10.989125   7.341501
    42  H    9.862940   9.321073  13.487603  13.319094   7.489655
    43  H   10.987852  10.678106  14.503899  14.406583   8.836944
    44  H   11.460497  10.357751  14.817683  14.452396   9.106318
    45  H   11.247283   9.734470  13.599257  13.067326   9.547937
    46  H   12.203547  10.574059  14.879941  14.311087  10.194660
    47  H   11.795273  10.921505  14.603413  14.300217   9.987367
                   16         17         18         19         20
    16  H    0.000000
    17  H    4.954820   0.000000
    18  H    5.671808   6.796898   0.000000
    19  H    4.734823   6.896226   1.768888   0.000000
    20  H    5.861038   6.746653   1.764889   1.785164   0.000000
    21  C    6.348760   5.048424   3.090813   4.046182   2.842233
    22  C    7.130067   5.664566   3.997279   4.626715   3.066221
    23  C    8.185360   6.996469   4.409083   5.052286   3.293925
    24  C    9.113483   7.743292   5.782847   6.164482   4.430049
    25  C    8.818444   8.063599   4.114617   5.038365   3.315206
    26  C    9.412829   8.728187   6.126135   6.180459   4.554212
    27  C   10.508431   9.617960   7.607876   7.554414   5.993664
    28  C   11.761068  10.948259   8.619559   8.590958   7.040978
    29  C   12.400762  11.852573   8.680353   8.765467   7.226924
    30  C   12.817285  11.818586  10.040868   9.934123   8.422961
    31  H    6.826057   4.747717   3.937638   5.025023   3.924606
    32  H    6.695266   5.941742   2.406617   3.725370   2.527935
    33  H    7.003586   5.106759   4.785613   5.162323   3.751464
    34  H    8.884934   7.151210   6.236871   6.496296   4.859433
    35  H   10.111612   8.448845   6.510808   7.073161   5.302051
    36  H    8.405942   7.781076   3.378343   4.603178   3.042440
    37  H    8.942262   8.722436   4.147915   4.820630   3.165022
    38  H    9.861624   8.782071   5.088703   6.111371   4.407516
    39  H    9.819695   9.420345   5.981519   6.136320   4.514841
    40  H    8.539281   8.261974   5.661597   5.444854   3.965314
    41  H   10.339162   9.206442   8.000550   7.855501   6.355587
    42  H   11.800438  11.411395   7.769088   7.942595   6.401147
    43  H   12.844071  12.620700   9.228635   9.163860   7.746435
    44  H   13.283679  12.457895   9.384898   9.618998   8.018222
    45  H   12.512175  11.329754  10.181778  10.004766   8.527587
    46  H   13.671264  12.406737  10.675734  10.712383   9.127873
    47  H   13.280099  12.604794  10.570697  10.337978   8.921473
                   21         22         23         24         25
    21  C    0.000000
    22  C    1.509926   0.000000
    23  C    2.579675   1.342724   0.000000
    24  C    3.946283   2.488161   1.518388   0.000000
    25  C    3.149707   2.523103   1.511824   2.557653   0.000000
    26  C    4.972770   3.601514   2.589200   1.550166   3.182839
    27  C    6.300173   4.846381   3.914664   2.541763   4.568807
    28  C    7.471489   6.041264   4.979991   3.636057   5.363084
    29  C    7.887902   6.575883   5.349923   4.252294   5.303273
    30  C    8.738591   7.262277   6.296834   4.854271   6.802543
    31  H    1.098256   2.106680   3.170799   4.433330   3.749245
    32  H    1.092815   2.159030   2.759457   4.264843   2.760184
    33  H    2.179441   1.088622   2.083841   2.644607   3.489289
    34  H    4.068319   2.565768   2.141917   1.094841   3.477702
    35  H    4.572628   3.204743   2.152323   1.100190   2.791157
    36  H    2.733508   2.680911   2.173026   3.503006   1.089762
    37  H    3.876844   3.233263   2.173168   2.880856   1.097392
    38  H    3.936543   3.258306   2.159742   2.785155   1.098791
    39  H    5.238503   4.026042   2.831751   2.177482   2.862497
    40  H    4.781819   3.515486   2.799197   2.155530   3.512035
    41  H    6.444484   4.959641   4.269436   2.854708   5.202273
    42  H    7.173673   5.966027   4.689178   3.834882   4.424364
    43  H    8.701759   7.422329   6.223494   5.179028   6.128443
    44  H    8.431779   7.121385   5.860133   4.745570   5.737981
    45  H    8.686341   7.187419   6.382627   4.896934   7.111703
    46  H    9.236725   7.760390   6.743413   5.292342   7.168021
    47  H    9.515970   8.068079   7.089404   5.709308   7.509874
                   26         27         28         29         30
    26  C    0.000000
    27  C    1.504741   0.000000
    28  C    2.570647   1.341101   0.000000
    29  C    3.157612   2.530166   1.509427   0.000000
    30  C    3.936365   2.486294   1.510856   2.529202   0.000000
    31  H    5.666718   6.900799   8.057869   8.509422   9.262897
    32  H    5.153727   6.580738   7.650999   7.860778   9.012835
    33  H    3.766990   4.780839   6.057643   6.823098   7.122343
    34  H    2.166386   2.743024   3.962741   4.882972   4.940038
    35  H    2.155808   2.759309   3.550713   4.022001   4.697027
    36  H    4.193808   5.619233   6.442936   6.348114   7.886756
    37  H    2.931218   4.337215   5.016526   4.787810   6.514338
    38  H    3.495061   4.672265   5.276444   5.078838   6.666789
    39  H    1.091955   2.150544   2.740394   2.756520   4.240604
    40  H    1.097781   2.134528   3.264709   3.912248   4.519996
    41  H    2.191546   1.090601   2.073343   3.486935   2.632066
    42  H    2.774654   2.717246   2.187349   1.090935   3.492704
    43  H    3.912661   3.242952   2.155320   1.097848   2.791249
    44  H    3.923604   3.250813   2.155357   1.098356   2.774471
    45  H    4.125261   2.624087   2.175269   3.485204   1.093736
    46  H    4.582743   3.213087   2.164881   2.799520   1.098876
    47  H    4.596583   3.221782   2.164912   2.792775   1.097896
                   31         32         33         34         35
    31  H    0.000000
    32  H    1.774864   0.000000
    33  H    2.536209   3.081243   0.000000
    34  H    4.446264   4.638490   2.251718   0.000000
    35  H    4.881523   4.808176   3.415934   1.758342   0.000000
    36  H    3.300209   2.028182   3.759702   4.297186   3.770015
    37  H    4.640704   3.415341   4.131744   3.881393   3.217504
    38  H    4.310980   3.566052   4.132960   3.751801   2.567418
    39  H    5.976575   5.190378   4.441431   3.069557   2.510717
    40  H    5.604613   5.010088   3.603622   2.501669   3.050629
    41  H    6.982864   6.891629   4.650938   2.613681   3.170456
    42  H    7.834067   7.034812   6.363812   4.652340   3.662451
    43  H    9.394195   8.641015   7.666292   5.781785   5.060643
    44  H    8.951998   8.389246   7.382417   5.372236   4.266398
    45  H    9.170895   9.087201   6.885413   4.738404   4.843182
    46  H    9.671630   9.489337   7.651008   5.411060   4.909680
    47  H   10.114132   9.744038   7.956181   5.843835   5.634510
                   36         37         38         39         40
    36  H    0.000000
    37  H    1.763290   0.000000
    38  H    1.769951   1.759069   0.000000
    39  H    3.880024   2.326441   3.084099   0.000000
    40  H    4.370652   3.160555   4.102225   1.753610   0.000000
    41  H    6.206043   5.104624   5.370745   3.087911   2.519917
    42  H    5.426617   3.819079   4.227576   2.047204   3.524694
    43  H    7.136269   5.478011   5.983552   3.471814   4.466292
    44  H    6.775437   5.341047   5.309283   3.527295   4.810128
    45  H    8.176916   6.921261   7.057691   4.676545   4.580404
    46  H    8.256818   6.959278   6.867472   4.801701   5.322958
    47  H    8.582529   7.089315   7.423436   4.781421   5.040587
                   41         42         43         44         45
    41  H    0.000000
    42  H    3.794767   0.000000
    43  H    4.116944   1.770522   0.000000
    44  H    4.118954   1.771403   1.753386   0.000000
    45  H    2.298236   4.341278   3.794357   3.785898   0.000000
    46  H    3.400595   3.804444   3.154722   2.594042   1.774186
    47  H    3.415855   3.808340   2.605686   3.116669   1.773490
                   46         47
    46  H    0.000000
    47  H    1.753463   0.000000
 Stoichiometry    C21H24O2(2-)
 Framework group  C1[X(C21H24O2)]
 Deg. of freedom   135
 Full point group                 C1      NOp   1
 Largest Abelian subgroup         C1      NOp   1
 Largest concise Abelian subgroup C1      NOp   1
                         Standard orientation:                         
 ---------------------------------------------------------------------
 Center     Atomic      Atomic             Coordinates (Angstroms)
 Number     Number       Type             X           Y           Z
 ---------------------------------------------------------------------
      1          6           0       -5.037955   -0.059896   -1.556601
      2          6           0       -5.871265   -1.148607   -1.369675
      3          6           0       -5.577884   -2.090402   -0.355143
      4          6           0       -3.890554    0.142145   -0.758496
      5          6           0       -3.592524   -0.813343    0.265999
      6          6           0       -4.458310   -1.914997    0.438891
      7          6           0       -3.042663    1.310777   -0.990098
      8          6           0       -1.890678    1.424975   -0.133904
      9          6           0       -1.607206    0.491848    0.878244
     10          6           0       -2.423543   -0.664721    1.129381
     11          8           0       -3.324540    2.165864   -1.899382
     12          8           0       -2.158443   -1.508943    2.053731
     13          1           0       -6.748149   -1.281540   -1.999830
     14          1           0       -6.228754   -2.948704   -0.202695
     15          6           0       -0.995243    2.619020   -0.368412
     16          1           0       -5.235888    0.680608   -2.324739
     17          1           0       -4.203860   -2.619462    1.224162
     18          1           0       -1.072490    3.362006    0.440333
     19          1           0       -1.302826    3.107338   -1.294906
     20          1           0        0.061447    2.335703   -0.440417
     21          6           0       -0.419747    0.670171    1.811858
     22          6           0        0.833796   -0.032185    1.347959
     23          6           0        2.096969    0.420914    1.303194
     24          6           0        3.228897   -0.481829    0.845706
     25          6           0        2.514936    1.810786    1.726481
     26          6           0        3.959861   -0.018701   -0.440459
     27          6           0        5.038545   -0.976175   -0.869332
     28          6           0        6.358373   -0.767398   -0.983431
     29          6           0        7.056951    0.539918   -0.698328
     30          6           0        7.291532   -1.873503   -1.417518
     31          1           0       -0.709615    0.202724    2.762455
     32          1           0       -0.230833    1.730568    1.996556
     33          1           0        0.655566   -1.060485    1.038234
     34          1           0        2.837100   -1.491277    0.683888
     35          1           0        3.980178   -0.563457    1.645287
     36          1           0        1.683582    2.386251    2.133017
     37          1           0        2.933299    2.383494    0.889076
     38          1           0        3.300288    1.762487    2.493443
     39          1           0        4.366685    0.983961   -0.293735
     40          1           0        3.211673    0.063874   -1.239533
     41          1           0        4.680382   -1.979269   -1.103710
     42          1           0        6.382873    1.331252   -0.367345
     43          1           0        7.585443    0.896739   -1.591996
     44          1           0        7.826595    0.404304    0.073451
     45          1           0        6.760131   -2.806624   -1.625260
     46          1           0        8.048853   -2.077504   -0.647858
     47          1           0        7.848458   -1.591154   -2.320561
 ---------------------------------------------------------------------
 Rotational constants (GHZ):           0.4908117           0.0889642           0.0872091
 Leave Link  202 at Sun Jan 21 08:46:00 2024, MaxMem=  4026531840 cpu:               0.3 elap:               0.1
 (Enter /sysapps/ubuntu-applications/gaussian/Gaussian/AVX2/g16/l301.exe)
 Standard basis: 6-311++G(d,p) (5D, 7F)
 Ernie: Thresh=  0.10000D-02 Tol=  0.10000D-05 Strict=F.
 There are   697 symmetry adapted cartesian basis functions of A   symmetry.
 There are   674 symmetry adapted basis functions of A   symmetry.
   674 basis functions,  1044 primitive gaussians,   697 cartesian basis functions
    84 alpha electrons       84 beta electrons
       nuclear repulsion energy      1746.6694936170 Hartrees.
 IExCor=  402 DFT=T Ex+Corr=B3LYP ExCW=0 ScaHFX=  0.200000
 ScaDFX=  0.800000  0.720000  1.000000  0.810000 ScalE2=  1.000000  1.000000
 IRadAn=      5 IRanWt=     -1 IRanGd=            0 ICorTp=0 IEmpDi=  4
 NAtoms=   47 NActive=   47 NUniq=   47 SFac= 1.00D+00 NAtFMM=   60 NAOKFM=F Big=F
 Integral buffers will be    131072 words long.
 Raffenetti 2 integral format.
 Two-electron integral symmetry is turned on.
 ------------------------------------------------------------------------------
 Polarizable Continuum Model (PCM)
 =================================
 Model                : PCM.
 Atomic radii         : UFF (Universal Force Field).
 Polarization charges : Total charges.
 Charge compensation  : None.
 Solution method      : On-the-fly selection.
 Cavity type          : Scaled VdW (van der Waals Surface) (Alpha=1.100).
 Cavity algorithm     : GePol (No added spheres)
                        Default sphere list used, NSphG=   47.
                        Lebedev-Laikov grids with approx.  5.0 points / Ang**2.
                        Smoothing algorithm: York/Karplus (Gamma=1.0000).
                        Polarization charges: spherical gaussians, with
                                              point-specific exponents (IZeta= 3).
                        Self-potential: point-specific (ISelfS= 7).
                        Self-field    : sphere-specific E.n sum rule (ISelfD= 2).
 Solvent              : n,n-DiMethylFormamide, Eps=  37.219000 Eps(inf)=   2.046330
 ------------------------------------------------------------------------------
 GePol: Number of generator spheres                  =      47
 GePol: Total number of spheres                      =      47
 GePol: Number of exposed spheres                    =      47 (100.00%)
 GePol: Number of points                             =    3325
 GePol: Average weight of points                     =       0.13
 GePol: Minimum weight of points                     =   0.27D-09
 GePol: Maximum weight of points                     =    0.20577
 GePol: Number of points with low weight             =     230
 GePol: Fraction of low-weight points (<1% of avg)   =       6.92%
 GePol: Cavity surface area                          =    433.585 Ang**2
 GePol: Cavity volume                                =    472.596 Ang**3
 Leave Link  301 at Sun Jan 21 08:46:00 2024, MaxMem=  4026531840 cpu:               0.7 elap:               0.2
 (Enter /sysapps/ubuntu-applications/gaussian/Gaussian/AVX2/g16/l302.exe)
 NPDir=0 NMtPBC=     1 NCelOv=     1 NCel=       1 NClECP=     1 NCelD=      1
         NCelK=      1 NCelE2=     1 NClLst=     1 CellRange=     0.0.
 One-electron integrals computed using PRISM.
 One-electron integral symmetry used in STVInt
 NBasis=   674 RedAO= T EigKep=  1.20D-06  NBF=   674
 NBsUse=   668 1.00D-06 EigRej=  9.37D-07 NBFU=   668
 Precomputing XC quadrature grid using
 IXCGrd= 4 IRadAn=           5 IRanWt=          -1 IRanGd=           0 AccXCQ= 0.00D+00.
 Generated NRdTot=       0 NPtTot=           0 NUsed=           0 NTot=          32
 NSgBfM=   685   685   685   685   685 MxSgAt=    47 MxSgA2=    47.
 Leave Link  302 at Sun Jan 21 08:46:04 2024, MaxMem=  4026531840 cpu:              23.1 elap:               4.1
 (Enter /sysapps/ubuntu-applications/gaussian/Gaussian/AVX2/g16/l303.exe)
 DipDrv:  MaxL=1.
 Leave Link  303 at Sun Jan 21 08:46:05 2024, MaxMem=  4026531840 cpu:               1.7 elap:               0.3
 (Enter /sysapps/ubuntu-applications/gaussian/Gaussian/AVX2/g16/l401.exe)
 ExpMin= 3.60D-02 ExpMax= 8.59D+03 ExpMxC= 1.30D+03 IAcc=3 IRadAn=         5 AccDes= 0.00D+00
 Harris functional with IExCor=  402 and IRadAn=       5 diagonalized for initial guess.
 HarFok:  IExCor=  402 AccDes= 0.00D+00 IRadAn=         5 IDoV= 1 UseB2=F ITyADJ=14
 ICtDFT=  3500011 ScaDFX=  1.000000  1.000000  1.000000  1.000000
 FoFCou: FMM=F IPFlag=           0 FMFlag=      100000 FMFlg1=           0
         NFxFlg=           0 DoJE=T BraDBF=F KetDBF=T FulRan=T
         wScrn=  0.000000 ICntrl=       500 IOpCl=  0 I1Cent=   200000004 NGrid=           0
         NMat0=    1 NMatS0=      1 NMatT0=    0 NMatD0=    1 NMtDS0=    0 NMtDT0=    0
 Petite list used in FoFCou.
 Harris En= -965.966119756986    
 JPrj=0 DoOrth=F DoCkMO=F.
 Initial guess <Sx>= 0.0000 <Sy>= 0.0000 <Sz>= 0.0000 <S**2>=-0.0000 S=-0.0000
 Leave Link  401 at Sun Jan 21 08:46:12 2024, MaxMem=  4026531840 cpu:              57.4 elap:               7.3
 (Enter /sysapps/ubuntu-applications/gaussian/Gaussian/AVX2/g16/l502.exe)
 Integral symmetry usage will be decided dynamically.
 UHF open shell SCF:
 Using DIIS extrapolation, IDIIS=  1040.
 NGot=  4026531840 LenX=  4025547903 LenY=  4025061397
 Requested convergence on RMS density matrix=1.00D-08 within 128 cycles.
 Requested convergence on MAX density matrix=1.00D-06.
 Requested convergence on             energy=1.00D-06.
 No special actions if energy rises.
 Fock matrices will be formed incrementally for  20 cycles.

 Cycle   1  Pass 1  IDiag  1:
 FoFJK:  IHMeth= 1 ICntrl=       0 DoSepK=F KAlg= 0 I1Cent=           0 FoldK=F
 IRaf= 760000000 NMat=       1 IRICut=       1 DoRegI=T DoRafI=F ISym2E= 0 IDoP0=0 IntGTp=1.
 FoFCou: FMM=F IPFlag=           0 FMFlag=      100000 FMFlg1=           0
         NFxFlg=           0 DoJE=F BraDBF=F KetDBF=F FulRan=T
         wScrn=  0.000000 ICntrl=         0 IOpCl=  1 I1Cent=           0 NGrid=           0
         NMat0=    1 NMatS0=      1 NMatT0=    0 NMatD0=    1 NMtDS0=    0 NMtDT0=    0
 Symmetry not used in FoFCou.
 Inv3:  Mode=1 IEnd=    33166875.
 Iteration    1 A*A^-1 deviation from unit magnitude is 3.77D-15 for   2377.
 Iteration    1 A*A^-1 deviation from orthogonality  is 2.33D-15 for   3164    106.
 Iteration    1 A^-1*A deviation from unit magnitude is 3.55D-15 for   2377.
 Iteration    1 A^-1*A deviation from orthogonality  is 2.22D-15 for   1894    466.
 E= -964.745896773923    
 DIIS: error= 3.25D-02 at cycle   1 NSaved=   1.
 NSaved= 1 IEnMin= 1 EnMin= -964.745896773923     IErMin= 1 ErrMin= 3.25D-02
 ErrMax= 3.25D-02  0.00D+00 EMaxC= 1.00D-01 BMatC= 3.63D+00 BMatP= 3.63D+00
 IDIUse=3 WtCom= 6.75D-01 WtEn= 3.25D-01
 Coeff-Com:  0.100D+01
 Coeff-En:   0.100D+01
 Coeff:      0.100D+01
 Gap=     0.074 Goal=   None    Shift=    0.000
 Gap=     0.074 Goal=   None    Shift=    0.000
 GapD=    0.074 DampG=0.500 DampE=0.500 DampFc=0.2500 IDamp=-1.
 Damping current iteration by 2.50D-01
 RMSDP=4.29D-01 MaxDP=4.06D+01              OVMax= 9.82D-01

 Cycle   2  Pass 1  IDiag  1:
 RMSU=  1.01D-01    CP:  1.87D+00
 E= -965.008033516561     Delta-E=       -0.262136742638 Rises=F Damp=T
 DIIS: error= 1.49D-02 at cycle   2 NSaved=   2.
 NSaved= 2 IEnMin= 2 EnMin= -965.008033516561     IErMin= 2 ErrMin= 1.49D-02
 ErrMax= 1.49D-02  0.00D+00 EMaxC= 1.00D-01 BMatC= 7.60D-01 BMatP= 3.63D+00
 IDIUse=3 WtCom= 8.51D-01 WtEn= 1.49D-01
 Coeff-Com: -0.546D+00 0.155D+01
 Coeff-En:   0.000D+00 0.100D+01
 Coeff:     -0.465D+00 0.146D+01
 Gap=     0.220 Goal=   None    Shift=    0.000
 Gap=     0.220 Goal=   None    Shift=    0.000
 RMSDP=1.11D-01 MaxDP=1.06D+01 DE=-2.62D-01 OVMax= 8.77D-01

 Cycle   3  Pass 1  IDiag  1:
 RMSU=  7.74D-03    CP:  8.01D-01 -1.47D-03
 E= -965.400137507558     Delta-E=       -0.392103990998 Rises=F Damp=F
 DIIS: error= 2.48D-02 at cycle   3 NSaved=   3.
 NSaved= 3 IEnMin= 3 EnMin= -965.400137507558     IErMin= 2 ErrMin= 1.49D-02
 ErrMax= 2.48D-02  0.00D+00 EMaxC= 1.00D-01 BMatC= 1.01D+00 BMatP= 7.60D-01
 IDIUse=2 WtCom= 0.00D+00 WtEn= 1.00D+00
 Coeff-En:   0.000D+00 0.000D+00 0.100D+01
 Coeff:      0.000D+00 0.000D+00 0.100D+01
 Gap=     0.035 Goal=   None    Shift=    0.000
 Gap=     0.035 Goal=   None    Shift=    0.000
 RMSDP=9.19D-02 MaxDP=1.18D+01 DE=-3.92D-01 OVMax= 9.68D-01

 Cycle   4  Pass 1  IDiag  1:
 RMSU=  6.77D-02    CP:  2.06D+00  3.01D-01  1.90D+00
 E= -963.492614517718     Delta-E=        1.907522989840 Rises=F Damp=F
 DIIS: error= 6.87D-02 at cycle   4 NSaved=   4.
 NSaved= 4 IEnMin= 3 EnMin= -965.400137507558     IErMin= 2 ErrMin= 1.49D-02
 ErrMax= 6.87D-02  0.00D+00 EMaxC= 1.00D-01 BMatC= 8.08D+00 BMatP= 7.60D-01
 IDIUse=2 WtCom= 0.00D+00 WtEn= 1.00D+00
 Coeff-En:   0.000D+00 0.000D+00 0.869D+00 0.131D+00
 Coeff:      0.000D+00 0.000D+00 0.869D+00 0.131D+00
 Gap=    -0.009 Goal=   None    Shift=    0.000
 Gap=    -0.009 Goal=   None    Shift=    0.000
 RMSDP=7.90D-02 MaxDP=1.05D+01 DE= 1.91D+00 OVMax= 9.69D-01

 Cycle   5  Pass 1  IDiag  1:
 RMSU=  1.16D-02    CP:  9.62D-01  3.53D-02  1.07D+00  1.70D-01
 E= -965.444011493410     Delta-E=       -1.951396975692 Rises=F Damp=F
 DIIS: error= 2.11D-02 at cycle   5 NSaved=   5.
 NSaved= 5 IEnMin= 5 EnMin= -965.444011493410     IErMin= 2 ErrMin= 1.49D-02
 ErrMax= 2.11D-02  0.00D+00 EMaxC= 1.00D-01 BMatC= 8.55D-01 BMatP= 7.60D-01
 IDIUse=2 WtCom= 0.00D+00 WtEn= 1.00D+00
 Coeff-En:   0.000D+00 0.000D+00 0.455D+00 0.000D+00 0.545D+00
 Coeff:      0.000D+00 0.000D+00 0.455D+00 0.000D+00 0.545D+00
 Gap=     0.096 Goal=   None    Shift=    0.000
 Gap=     0.096 Goal=   None    Shift=    0.000
 RMSDP=1.44D-02 MaxDP=2.04D+00 DE=-1.95D+00 OVMax= 1.27D-01

 Cycle   6  Pass 1  IDiag  1:
 RMSU=  3.32D-03    CP:  7.37D-01  1.42D-02  8.45D-01  6.01D-02  4.50D-01
 E= -965.605057140543     Delta-E=       -0.161045647132 Rises=F Damp=F
 DIIS: error= 4.35D-03 at cycle   6 NSaved=   6.
 NSaved= 6 IEnMin= 6 EnMin= -965.605057140543     IErMin= 6 ErrMin= 4.35D-03
 ErrMax= 4.35D-03  0.00D+00 EMaxC= 1.00D-01 BMatC= 3.50D-02 BMatP= 7.60D-01
 IDIUse=3 WtCom= 9.56D-01 WtEn= 4.35D-02
 Coeff-Com: -0.331D-01 0.698D-01 0.234D+00-0.172D-01 0.325D+00 0.422D+00
 Coeff-En:   0.000D+00 0.000D+00 0.000D+00 0.000D+00 0.000D+00 0.100D+01
 Coeff:     -0.317D-01 0.668D-01 0.223D+00-0.165D-01 0.311D+00 0.447D+00
 Gap=     0.095 Goal=   None    Shift=    0.000
 Gap=     0.095 Goal=   None    Shift=    0.000
 RMSDP=1.50D-03 MaxDP=2.35D-01 DE=-1.61D-01 OVMax= 5.17D-02

 Cycle   7  Pass 1  IDiag  1:
 RMSU=  7.44D-04    CP:  7.57D-01  1.19D-02  8.47D-01  6.05D-02  4.87D-01
                    CP:  7.47D-01
 E= -965.612569585141     Delta-E=       -0.007512444598 Rises=F Damp=F
 DIIS: error= 1.10D-03 at cycle   7 NSaved=   7.
 NSaved= 7 IEnMin= 7 EnMin= -965.612569585141     IErMin= 7 ErrMin= 1.10D-03
 ErrMax= 1.10D-03  0.00D+00 EMaxC= 1.00D-01 BMatC= 3.66D-03 BMatP= 3.50D-02
 IDIUse=3 WtCom= 9.89D-01 WtEn= 1.10D-02
 Coeff-Com: -0.107D-01 0.158D-01 0.481D-01-0.654D-02 0.779D-01 0.271D+00
 Coeff-Com:  0.605D+00
 Coeff-En:   0.000D+00 0.000D+00 0.000D+00 0.000D+00 0.000D+00 0.108D+00
 Coeff-En:   0.892D+00
 Coeff:     -0.106D-01 0.156D-01 0.476D-01-0.647D-02 0.770D-01 0.269D+00
 Coeff:      0.608D+00
 Gap=     0.092 Goal=   None    Shift=    0.000
 Gap=     0.092 Goal=   None    Shift=    0.000
 RMSDP=6.98D-04 MaxDP=8.69D-02 DE=-7.51D-03 OVMax= 1.55D-02

 Cycle   8  Pass 1  IDiag  1:
 RMSU=  2.51D-04    CP:  7.45D-01  1.15D-02  8.40D-01  5.82D-02  4.90D-01
                    CP:  8.36D-01  8.18D-01
 E= -965.613423071894     Delta-E=       -0.000853486753 Rises=F Damp=F
 DIIS: error= 3.00D-04 at cycle   8 NSaved=   8.
 NSaved= 8 IEnMin= 8 EnMin= -965.613423071894     IErMin= 8 ErrMin= 3.00D-04
 ErrMax= 3.00D-04  0.00D+00 EMaxC= 1.00D-01 BMatC= 3.84D-04 BMatP= 3.66D-03
 IDIUse=3 WtCom= 9.97D-01 WtEn= 3.00D-03
 Coeff-Com: -0.281D-02 0.224D-02 0.106D-02-0.604D-03 0.175D-02 0.106D+00
 Coeff-Com:  0.341D+00 0.551D+00
 Coeff-En:   0.000D+00 0.000D+00 0.000D+00 0.000D+00 0.000D+00 0.000D+00
 Coeff-En:   0.000D+00 0.100D+01
 Coeff:     -0.280D-02 0.223D-02 0.105D-02-0.602D-03 0.174D-02 0.105D+00
 Coeff:      0.340D+00 0.553D+00
 Gap=     0.092 Goal=   None    Shift=    0.000
 Gap=     0.092 Goal=   None    Shift=    0.000
 RMSDP=2.03D-04 MaxDP=2.75D-02 DE=-8.53D-04 OVMax= 3.43D-03

 Cycle   9  Pass 1  IDiag  1:
 RMSU=  7.41D-05    CP:  7.42D-01  1.11D-02  8.33D-01  5.68D-02  4.84D-01
                    CP:  8.43D-01  8.48D-01  1.02D+00
 E= -965.613509934561     Delta-E=       -0.000086862667 Rises=F Damp=F
 DIIS: error= 1.01D-04 at cycle   9 NSaved=   9.
 NSaved= 9 IEnMin= 9 EnMin= -965.613509934561     IErMin= 9 ErrMin= 1.01D-04
 ErrMax= 1.01D-04  0.00D+00 EMaxC= 1.00D-01 BMatC= 3.34D-05 BMatP= 3.84D-04
 IDIUse=3 WtCom= 9.99D-01 WtEn= 1.01D-03
 Coeff-Com: -0.147D-02 0.139D-02-0.140D-02 0.101D-03-0.265D-02 0.498D-01
 Coeff-Com:  0.163D+00 0.320D+00 0.471D+00
 Coeff-En:   0.000D+00 0.000D+00 0.000D+00 0.000D+00 0.000D+00 0.000D+00
 Coeff-En:   0.000D+00 0.000D+00 0.100D+01
 Coeff:     -0.147D-02 0.139D-02-0.140D-02 0.101D-03-0.265D-02 0.498D-01
 Coeff:      0.163D+00 0.320D+00 0.471D+00
 Gap=     0.093 Goal=   None    Shift=    0.000
 Gap=     0.093 Goal=   None    Shift=    0.000
 RMSDP=3.33D-05 MaxDP=2.50D-03 DE=-8.69D-05 OVMax= 9.77D-04

 Cycle  10  Pass 1  IDiag  1:
 RMSU=  2.32D-05    CP:  7.42D-01  1.12D-02  8.33D-01  5.68D-02  4.83D-01
                    CP:  8.47D-01  8.42D-01  1.00D+00  9.47D-01
 E= -965.613518584908     Delta-E=       -0.000008650347 Rises=F Damp=F
 DIIS: error= 1.88D-05 at cycle  10 NSaved=  10.
 NSaved=10 IEnMin=10 EnMin= -965.613518584908     IErMin=10 ErrMin= 1.88D-05
 ErrMax= 1.88D-05  0.00D+00 EMaxC= 1.00D-01 BMatC= 1.66D-06 BMatP= 3.34D-05
 IDIUse=1 WtCom= 1.00D+00 WtEn= 0.00D+00
 Coeff-Com: -0.568D-03 0.779D-03-0.112D-02 0.410D-04-0.126D-02 0.119D-01
 Coeff-Com:  0.365D-01 0.823D-01 0.202D+00 0.669D+00
 Coeff:     -0.568D-03 0.779D-03-0.112D-02 0.410D-04-0.126D-02 0.119D-01
 Coeff:      0.365D-01 0.823D-01 0.202D+00 0.669D+00
 Gap=     0.093 Goal=   None    Shift=    0.000
 Gap=     0.093 Goal=   None    Shift=    0.000
 RMSDP=2.17D-05 MaxDP=2.88D-03 DE=-8.65D-06 OVMax= 2.03D-04

 Cycle  11  Pass 1  IDiag  1:
 RMSU=  8.43D-06    CP:  7.41D-01  1.11D-02  8.33D-01  5.66D-02  4.82D-01
                    CP:  8.48D-01  8.41D-01  1.03D+00  1.03D+00  1.03D+00
 E= -965.613518894308     Delta-E=       -0.000000309400 Rises=F Damp=F
 DIIS: error= 1.03D-05 at cycle  11 NSaved=  11.
 NSaved=11 IEnMin=11 EnMin= -965.613518894308     IErMin=11 ErrMin= 1.03D-05
 ErrMax= 1.03D-05  0.00D+00 EMaxC= 1.00D-01 BMatC= 3.97D-07 BMatP= 1.66D-06
 IDIUse=1 WtCom= 1.00D+00 WtEn= 0.00D+00
 Coeff-Com: -0.203D-03 0.300D-03-0.577D-03 0.239D-05-0.351D-03 0.247D-02
 Coeff-Com:  0.623D-02 0.177D-01 0.730D-01 0.381D+00 0.521D+00
 Coeff:     -0.203D-03 0.300D-03-0.577D-03 0.239D-05-0.351D-03 0.247D-02
 Coeff:      0.623D-02 0.177D-01 0.730D-01 0.381D+00 0.521D+00
 Gap=     0.093 Goal=   None    Shift=    0.000
 Gap=     0.093 Goal=   None    Shift=    0.000
 RMSDP=8.25D-06 MaxDP=1.10D-03 DE=-3.09D-07 OVMax= 9.06D-05

 Cycle  12  Pass 1  IDiag  1:
 RMSU=  2.36D-06    CP:  7.41D-01  1.11D-02  8.32D-01  5.66D-02  4.83D-01
                    CP:  8.49D-01  8.41D-01  1.04D+00  1.05D+00  1.10D+00
                    CP:  9.61D-01
 E= -965.613518988489     Delta-E=       -0.000000094181 Rises=F Damp=F
 DIIS: error= 3.29D-06 at cycle  12 NSaved=  12.
 NSaved=12 IEnMin=12 EnMin= -965.613518988489     IErMin=12 ErrMin= 3.29D-06
 ErrMax= 3.29D-06  0.00D+00 EMaxC= 1.00D-01 BMatC= 3.42D-08 BMatP= 3.97D-07
 IDIUse=1 WtCom= 1.00D+00 WtEn= 0.00D+00
 Coeff-Com: -0.297D-04 0.451D-04-0.131D-03-0.235D-05 0.528D-04-0.735D-03
 Coeff-Com: -0.302D-02-0.490D-02 0.778D-02 0.841D-01 0.245D+00 0.672D+00
 Coeff:     -0.297D-04 0.451D-04-0.131D-03-0.235D-05 0.528D-04-0.735D-03
 Coeff:     -0.302D-02-0.490D-02 0.778D-02 0.841D-01 0.245D+00 0.672D+00
 Gap=     0.093 Goal=   None    Shift=    0.000
 Gap=     0.093 Goal=   None    Shift=    0.000
 RMSDP=4.15D-06 MaxDP=5.24D-04 DE=-9.42D-08 OVMax= 4.29D-05

 Cycle  13  Pass 1  IDiag  1:
 RMSU=  1.18D-06    CP:  7.41D-01  1.11D-02  8.32D-01  5.66D-02  4.82D-01
                    CP:  8.50D-01  8.41D-01  1.05D+00  1.07D+00  1.13D+00
                    CP:  1.01D+00  9.27D-01
 E= -965.613518995718     Delta-E=       -0.000000007229 Rises=F Damp=F
 DIIS: error= 9.11D-07 at cycle  13 NSaved=  13.
 NSaved=13 IEnMin=13 EnMin= -965.613518995718     IErMin=13 ErrMin= 9.11D-07
 ErrMax= 9.11D-07  0.00D+00 EMaxC= 1.00D-01 BMatC= 3.22D-09 BMatP= 3.42D-08
 IDIUse=1 WtCom= 1.00D+00 WtEn= 0.00D+00
 Coeff-Com: -0.964D-05 0.160D-04-0.391D-04-0.939D-06 0.314D-04-0.577D-03
 Coeff-Com: -0.187D-02-0.353D-02 0.639D-03 0.182D-01 0.885D-01 0.353D+00
 Coeff-Com:  0.546D+00
 Coeff:     -0.964D-05 0.160D-04-0.391D-04-0.939D-06 0.314D-04-0.577D-03
 Coeff:     -0.187D-02-0.353D-02 0.639D-03 0.182D-01 0.885D-01 0.353D+00
 Coeff:      0.546D+00
 Gap=     0.093 Goal=   None    Shift=    0.000
 Gap=     0.093 Goal=   None    Shift=    0.000
 RMSDP=1.06D-06 MaxDP=1.40D-04 DE=-7.23D-09 OVMax= 1.11D-05

 Cycle  14  Pass 1  IDiag  1:
 RMSU=  3.53D-07    CP:  7.41D-01  1.11D-02  8.32D-01  5.66D-02  4.82D-01
                    CP:  8.50D-01  8.41D-01  1.05D+00  1.07D+00  1.13D+00
                    CP:  1.02D+00  9.82D-01  9.20D-01
 E= -965.613518996495     Delta-E=       -0.000000000777 Rises=F Damp=F
 DIIS: error= 3.48D-07 at cycle  14 NSaved=  14.
 NSaved=14 IEnMin=14 EnMin= -965.613518996495     IErMin=14 ErrMin= 3.48D-07
 ErrMax= 3.48D-07  0.00D+00 EMaxC= 1.00D-01 BMatC= 4.46D-10 BMatP= 3.22D-09
 IDIUse=1 WtCom= 1.00D+00 WtEn= 0.00D+00
 Coeff-Com: -0.177D-05 0.287D-05-0.338D-05-0.657D-06 0.127D-04-0.252D-03
 Coeff-Com: -0.666D-03-0.139D-02-0.325D-03-0.970D-03 0.161D-01 0.112D+00
 Coeff-Com:  0.306D+00 0.570D+00
 Coeff:     -0.177D-05 0.287D-05-0.338D-05-0.657D-06 0.127D-04-0.252D-03
 Coeff:     -0.666D-03-0.139D-02-0.325D-03-0.970D-03 0.161D-01 0.112D+00
 Coeff:      0.306D+00 0.570D+00
 Gap=     0.093 Goal=   None    Shift=    0.000
 Gap=     0.093 Goal=   None    Shift=    0.000
 RMSDP=5.12D-07 MaxDP=6.90D-05 DE=-7.77D-10 OVMax= 5.19D-06

 Cycle  15  Pass 1  IDiag  1:
 RMSU=  1.87D-07    CP:  7.41D-01  1.11D-02  8.32D-01  5.66D-02  4.82D-01
                    CP:  8.50D-01  8.41D-01  1.05D+00  1.07D+00  1.13D+00
                    CP:  1.03D+00  9.96D-01  9.66D-01  7.54D-01
 E= -965.613518996577     Delta-E=       -0.000000000083 Rises=F Damp=F
 DIIS: error= 1.77D-07 at cycle  15 NSaved=  15.
 NSaved=15 IEnMin=15 EnMin= -965.613518996577     IErMin=15 ErrMin= 1.77D-07
 ErrMax= 1.77D-07  0.00D+00 EMaxC= 1.00D-01 BMatC= 8.86D-11 BMatP= 4.46D-10
 IDIUse=1 WtCom= 1.00D+00 WtEn= 0.00D+00
 Coeff-Com: -0.404D-06 0.752D-06 0.261D-05-0.381D-06 0.424D-05-0.977D-04
 Coeff-Com: -0.208D-03-0.486D-03-0.145D-03-0.240D-02-0.295D-03 0.307D-01
 Coeff-Com:  0.129D+00 0.365D+00 0.480D+00
 Coeff:     -0.404D-06 0.752D-06 0.261D-05-0.381D-06 0.424D-05-0.977D-04
 Coeff:     -0.208D-03-0.486D-03-0.145D-03-0.240D-02-0.295D-03 0.307D-01
 Coeff:      0.129D+00 0.365D+00 0.480D+00
 Gap=     0.093 Goal=   None    Shift=    0.000
 Gap=     0.093 Goal=   None    Shift=    0.000
 RMSDP=1.50D-07 MaxDP=2.38D-05 DE=-8.25D-11 OVMax= 3.21D-06

 Cycle  16  Pass 1  IDiag  1:
 RMSU=  3.80D-08    CP:  7.41D-01  1.11D-02  8.32D-01  5.66D-02  4.82D-01
                    CP:  8.50D-01  8.41D-01  1.05D+00  1.07D+00  1.13D+00
                    CP:  1.03D+00  1.01D+00  9.57D-01  8.95D-01  9.57D-01
 E= -965.613518996539     Delta-E=        0.000000000038 Rises=F Damp=F
 DIIS: error= 4.07D-08 at cycle  16 NSaved=  16.
 NSaved=16 IEnMin=15 EnMin= -965.613518996577     IErMin=16 ErrMin= 4.07D-08
 ErrMax= 4.07D-08  0.00D+00 EMaxC= 1.00D-01 BMatC= 6.27D-12 BMatP= 8.86D-11
 IDIUse=1 WtCom= 1.00D+00 WtEn= 0.00D+00
 Coeff-Com:  0.180D-06-0.639D-07 0.195D-05-0.558D-07-0.687D-06-0.678D-05
 Coeff-Com:  0.117D-04-0.133D-04 0.113D-04-0.949D-03-0.329D-02-0.460D-02
 Coeff-Com:  0.745D-02 0.592D-01 0.223D+00 0.720D+00
 Coeff:      0.180D-06-0.639D-07 0.195D-05-0.558D-07-0.687D-06-0.678D-05
 Coeff:      0.117D-04-0.133D-04 0.113D-04-0.949D-03-0.329D-02-0.460D-02
 Coeff:      0.745D-02 0.592D-01 0.223D+00 0.720D+00
 Gap=     0.093 Goal=   None    Shift=    0.000
 Gap=     0.093 Goal=   None    Shift=    0.000
 RMSDP=6.60D-08 MaxDP=6.67D-06 DE= 3.84D-11 OVMax= 9.98D-07

 Cycle  17  Pass 1  IDiag  1:
 RMSU=  1.70D-08    CP:  7.41D-01  1.11D-02  8.32D-01  5.66D-02  4.82D-01
                    CP:  8.50D-01  8.41D-01  1.05D+00  1.07D+00  1.13D+00
                    CP:  1.03D+00  1.01D+00  9.69D-01  9.10D-01  1.10D+00
                    CP:  1.20D+00
 E= -965.613518996568     Delta-E=       -0.000000000029 Rises=F Damp=F
 DIIS: error= 1.80D-08 at cycle  17 NSaved=  17.
 NSaved=17 IEnMin=15 EnMin= -965.613518996577     IErMin=17 ErrMin= 1.80D-08
 ErrMax= 1.80D-08  0.00D+00 EMaxC= 1.00D-01 BMatC= 1.64D-12 BMatP= 6.27D-12
 IDIUse=1 WtCom= 1.00D+00 WtEn= 0.00D+00
 Coeff-Com:  0.356D-06-0.458D-06 0.102D-05 0.124D-07-0.835D-06 0.771D-05
 Coeff-Com:  0.332D-04 0.485D-04 0.313D-04-0.260D-03-0.207D-02-0.670D-02
 Coeff-Com: -0.123D-01-0.127D-01 0.837D-01 0.453D+00 0.497D+00
 Coeff:      0.356D-06-0.458D-06 0.102D-05 0.124D-07-0.835D-06 0.771D-05
 Coeff:      0.332D-04 0.485D-04 0.313D-04-0.260D-03-0.207D-02-0.670D-02
 Coeff:     -0.123D-01-0.127D-01 0.837D-01 0.453D+00 0.497D+00
 Gap=     0.093 Goal=   None    Shift=    0.000
 Gap=     0.093 Goal=   None    Shift=    0.000
 RMSDP=1.79D-08 MaxDP=1.70D-06 DE=-2.86D-11 OVMax= 4.12D-07

 Cycle  18  Pass 1  IDiag  1:
 RMSU=  5.32D-09    CP:  7.41D-01  1.11D-02  8.32D-01  5.66D-02  4.82D-01
                    CP:  8.50D-01  8.41D-01  1.05D+00  1.07D+00  1.13D+00
                    CP:  1.03D+00  1.01D+00  9.73D-01  9.23D-01  1.12D+00
                    CP:  1.30D+00  1.16D+00
 E= -965.613518996585     Delta-E=       -0.000000000017 Rises=F Damp=F
 DIIS: error= 6.27D-09 at cycle  18 NSaved=  18.
 NSaved=18 IEnMin=18 EnMin= -965.613518996585     IErMin=18 ErrMin= 6.27D-09
 ErrMax= 6.27D-09  0.00D+00 EMaxC= 1.00D-01 BMatC= 1.17D-13 BMatP= 1.64D-12
 IDIUse=1 WtCom= 1.00D+00 WtEn= 0.00D+00
 Coeff-Com:  0.152D-06-0.208D-06 0.122D-06 0.143D-07-0.232D-06 0.300D-05
 Coeff-Com:  0.958D-05 0.150D-04 0.188D-04 0.661D-04-0.252D-03-0.130D-02
 Coeff-Com: -0.443D-02-0.116D-01 0.599D-02 0.580D-01 0.198D+00 0.755D+00
 Coeff:      0.152D-06-0.208D-06 0.122D-06 0.143D-07-0.232D-06 0.300D-05
 Coeff:      0.958D-05 0.150D-04 0.188D-04 0.661D-04-0.252D-03-0.130D-02
 Coeff:     -0.443D-02-0.116D-01 0.599D-02 0.580D-01 0.198D+00 0.755D+00
 Gap=     0.093 Goal=   None    Shift=    0.000
 Gap=     0.093 Goal=   None    Shift=    0.000
 RMSDP=6.31D-09 MaxDP=4.93D-07 DE=-1.73D-11 OVMax= 1.62D-07

 Error on total polarization charges =  0.03305
 SCF Done:  E(UB3LYP) =  -965.613518997     A.U. after   18 cycles
            NFock= 18  Conv=0.63D-08     -V/T= 2.0046
 <Sx>= 0.0000 <Sy>= 0.0000 <Sz>= 0.0000 <S**2>=-0.0000 S=-0.0000
 <L.S>=  0.00000000000    
 KE= 9.612068343705D+02 PE=-5.780964515504D+03 EE= 2.107474668520D+03
 Annihilation of the first spin contaminant:
 S**2 before annihilation    -0.0000,   after     0.0000
 Leave Link  502 at Sun Jan 21 09:01:43 2024, MaxMem=  4026531840 cpu:            7417.9 elap:             930.6
 (Enter /sysapps/ubuntu-applications/gaussian/Gaussian/AVX2/g16/l601.exe)
 Copying SCF densities to generalized density rwf, IOpCl= 1 IROHF=0.

 **********************************************************************

            Population analysis using the SCF density.

 **********************************************************************

 Orbital symmetries:
 Alpha Orbitals:
       Occupied  (A) (A) (A) (A) (A) (A) (A) (A) (A) (A) (A) (A)
                 (A) (A) (A) (A) (A) (A) (A) (A) (A) (A) (A) (A)
                 (A) (A) (A) (A) (A) (A) (A) (A) (A) (A) (A) (A)
                 (A) (A) (A) (A) (A) (A) (A) (A) (A) (A) (A) (A)
                 (A) (A) (A) (A) (A) (A) (A) (A) (A) (A) (A) (A)
                 (A) (A) (A) (A) (A) (A) (A) (A) (A) (A) (A) (A)
                 (A) (A) (A) (A) (A) (A) (A) (A) (A) (A) (A) (A)
       Virtual   (A) (A) (A) (A) (A) (A) (A) (A) (A) (A) (A) (A)
                 (A) (A) (A) (A) (A) (A) (A) (A) (A) (A) (A) (A)
                 (A) (A) (A) (A) (A) (A) (A) (A) (A) (A) (A) (A)
                 (A) (A) (A) (A) (A) (A) (A) (A) (A) (A) (A) (A)
                 (A) (A) (A) (A) (A) (A) (A) (A) (A) (A) (A) (A)
                 (A) (A) (A) (A) (A) (A) (A) (A) (A) (A) (A) (A)
                 (A) (A) (A) (A) (A) (A) (A) (A) (A) (A) (A) (A)
                 (A) (A) (A) (A) (A) (A) (A) (A) (A) (A) (A) (A)
                 (A) (A) (A) (A) (A) (A) (A) (A) (A) (A) (A) (A)
                 (A) (A) (A) (A) (A) (A) (A) (A) (A) (A) (A) (A)
                 (A) (A) (A) (A) (A) (A) (A) (A) (A) (A) (A) (A)
                 (A) (A) (A) (A) (A) (A) (A) (A) (A) (A) (A) (A)
                 (A) (A) (A) (A) (A) (A) (A) (A) (A) (A) (A) (A)
                 (A) (A) (A) (A) (A) (A) (A) (A) (A) (A) (A) (A)
                 (A) (A) (A) (A) (A) (A) (A) (A) (A) (A) (A) (A)
                 (A) (A) (A) (A) (A) (A) (A) (A) (A) (A) (A) (A)
                 (A) (A) (A) (A) (A) (A) (A) (A) (A) (A) (A) (A)
                 (A) (A) (A) (A) (A) (A) (A) (A) (A) (A) (A) (A)
                 (A) (A) (A) (A) (A) (A) (A) (A) (A) (A) (A) (A)
                 (A) (A) (A) (A) (A) (A) (A) (A) (A) (A) (A) (A)
                 (A) (A) (A) (A) (A) (A) (A) (A) (A) (A) (A) (A)
                 (A) (A) (A) (A) (A) (A) (A) (A) (A) (A) (A) (A)
                 (A) (A) (A) (A) (A) (A) (A) (A) (A) (A) (A) (A)
                 (A) (A) (A) (A) (A) (A) (A) (A) (A) (A) (A) (A)
                 (A) (A) (A) (A) (A) (A) (A) (A) (A) (A) (A) (A)
                 (A) (A) (A) (A) (A) (A) (A) (A) (A) (A) (A) (A)
                 (A) (A) (A) (A) (A) (A) (A) (A) (A) (A) (A) (A)
                 (A) (A) (A) (A) (A) (A) (A) (A) (A) (A) (A) (A)
                 (A) (A) (A) (A) (A) (A) (A) (A) (A) (A) (A) (A)
                 (A) (A) (A) (A) (A) (A) (A) (A) (A) (A) (A) (A)
                 (A) (A) (A) (A) (A) (A) (A) (A) (A) (A) (A) (A)
                 (A) (A) (A) (A) (A) (A) (A) (A) (A) (A) (A) (A)
                 (A) (A) (A) (A) (A) (A) (A) (A) (A) (A) (A) (A)
                 (A) (A) (A) (A) (A) (A) (A) (A) (A) (A) (A) (A)
                 (A) (A) (A) (A) (A) (A) (A) (A) (A) (A) (A) (A)
                 (A) (A) (A) (A) (A) (A) (A) (A) (A) (A) (A) (A)
                 (A) (A) (A) (A) (A) (A) (A) (A) (A) (A) (A) (A)
                 (A) (A) (A) (A) (A) (A) (A) (A) (A) (A) (A) (A)
                 (A) (A) (A) (A) (A) (A) (A) (A) (A) (A) (A) (A)
                 (A) (A) (A) (A) (A) (A) (A) (A) (A) (A) (A) (A)
                 (A) (A) (A) (A) (A) (A) (A) (A) (A) (A) (A) (A)
                 (A) (A) (A) (A) (A) (A) (A) (A) (A) (A) (A) (A)
                 (A) (A) (A) (A) (A) (A) (A) (A) (A) (A) (A) (A)
                 (A) (A) (A) (A) (A) (A) (A) (A) (A) (A) (A) (A)
                 (A) (A) (A) (A) (A) (A) (A) (A) (A) (A) (A) (A)
                 (A) (A) (A) (A) (A) (A) (A) (A) (A) (A) (A) (A)
                 (A) (A) (A) (A) (A) (A) (A) (A) (A) (A) (A) (A)
                 (A) (A) (A) (A) (A) (A) (A) (A) (A) (A) (A) (A)
                 (A) (A) (A) (A) (A) (A) (A) (A)
 Beta  Orbitals:
       Occupied  (A) (A) (A) (A) (A) (A) (A) (A) (A) (A) (A) (A)
                 (A) (A) (A) (A) (A) (A) (A) (A) (A) (A) (A) (A)
                 (A) (A) (A) (A) (A) (A) (A) (A) (A) (A) (A) (A)
                 (A) (A) (A) (A) (A) (A) (A) (A) (A) (A) (A) (A)
                 (A) (A) (A) (A) (A) (A) (A) (A) (A) (A) (A) (A)
                 (A) (A) (A) (A) (A) (A) (A) (A) (A) (A) (A) (A)
                 (A) (A) (A) (A) (A) (A) (A) (A) (A) (A) (A) (A)
       Virtual   (A) (A) (A) (A) (A) (A) (A) (A) (A) (A) (A) (A)
                 (A) (A) (A) (A) (A) (A) (A) (A) (A) (A) (A) (A)
                 (A) (A) (A) (A) (A) (A) (A) (A) (A) (A) (A) (A)
                 (A) (A) (A) (A) (A) (A) (A) (A) (A) (A) (A) (A)
                 (A) (A) (A) (A) (A) (A) (A) (A) (A) (A) (A) (A)
                 (A) (A) (A) (A) (A) (A) (A) (A) (A) (A) (A) (A)
                 (A) (A) (A) (A) (A) (A) (A) (A) (A) (A) (A) (A)
                 (A) (A) (A) (A) (A) (A) (A) (A) (A) (A) (A) (A)
                 (A) (A) (A) (A) (A) (A) (A) (A) (A) (A) (A) (A)
                 (A) (A) (A) (A) (A) (A) (A) (A) (A) (A) (A) (A)
                 (A) (A) (A) (A) (A) (A) (A) (A) (A) (A) (A) (A)
                 (A) (A) (A) (A) (A) (A) (A) (A) (A) (A) (A) (A)
                 (A) (A) (A) (A) (A) (A) (A) (A) (A) (A) (A) (A)
                 (A) (A) (A) (A) (A) (A) (A) (A) (A) (A) (A) (A)
                 (A) (A) (A) (A) (A) (A) (A) (A) (A) (A) (A) (A)
                 (A) (A) (A) (A) (A) (A) (A) (A) (A) (A) (A) (A)
                 (A) (A) (A) (A) (A) (A) (A) (A) (A) (A) (A) (A)
                 (A) (A) (A) (A) (A) (A) (A) (A) (A) (A) (A) (A)
                 (A) (A) (A) (A) (A) (A) (A) (A) (A) (A) (A) (A)
                 (A) (A) (A) (A) (A) (A) (A) (A) (A) (A) (A) (A)
                 (A) (A) (A) (A) (A) (A) (A) (A) (A) (A) (A) (A)
                 (A) (A) (A) (A) (A) (A) (A) (A) (A) (A) (A) (A)
                 (A) (A) (A) (A) (A) (A) (A) (A) (A) (A) (A) (A)
                 (A) (A) (A) (A) (A) (A) (A) (A) (A) (A) (A) (A)
                 (A) (A) (A) (A) (A) (A) (A) (A) (A) (A) (A) (A)
                 (A) (A) (A) (A) (A) (A) (A) (A) (A) (A) (A) (A)
                 (A) (A) (A) (A) (A) (A) (A) (A) (A) (A) (A) (A)
                 (A) (A) (A) (A) (A) (A) (A) (A) (A) (A) (A) (A)
                 (A) (A) (A) (A) (A) (A) (A) (A) (A) (A) (A) (A)
                 (A) (A) (A) (A) (A) (A) (A) (A) (A) (A) (A) (A)
                 (A) (A) (A) (A) (A) (A) (A) (A) (A) (A) (A) (A)
                 (A) (A) (A) (A) (A) (A) (A) (A) (A) (A) (A) (A)
                 (A) (A) (A) (A) (A) (A) (A) (A) (A) (A) (A) (A)
                 (A) (A) (A) (A) (A) (A) (A) (A) (A) (A) (A) (A)
                 (A) (A) (A) (A) (A) (A) (A) (A) (A) (A) (A) (A)
                 (A) (A) (A) (A) (A) (A) (A) (A) (A) (A) (A) (A)
                 (A) (A) (A) (A) (A) (A) (A) (A) (A) (A) (A) (A)
                 (A) (A) (A) (A) (A) (A) (A) (A) (A) (A) (A) (A)
                 (A) (A) (A) (A) (A) (A) (A) (A) (A) (A) (A) (A)
                 (A) (A) (A) (A) (A) (A) (A) (A) (A) (A) (A) (A)
                 (A) (A) (A) (A) (A) (A) (A) (A) (A) (A) (A) (A)
                 (A) (A) (A) (A) (A) (A) (A) (A) (A) (A) (A) (A)
                 (A) (A) (A) (A) (A) (A) (A) (A) (A) (A) (A) (A)
                 (A) (A) (A) (A) (A) (A) (A) (A) (A) (A) (A) (A)
                 (A) (A) (A) (A) (A) (A) (A) (A) (A) (A) (A) (A)
                 (A) (A) (A) (A) (A) (A) (A) (A) (A) (A) (A) (A)
                 (A) (A) (A) (A) (A) (A) (A) (A) (A) (A) (A) (A)
                 (A) (A) (A) (A) (A) (A) (A) (A) (A) (A) (A) (A)
                 (A) (A) (A) (A) (A) (A) (A) (A)
 The electronic state is 1-A.
 Alpha  occ. eigenvalues --  -19.00822 -19.00678 -10.17451 -10.16257 -10.16055
 Alpha  occ. eigenvalues --  -10.16031 -10.15971 -10.15915 -10.15864 -10.15848
 Alpha  occ. eigenvalues --  -10.15744 -10.15335 -10.14750 -10.14413 -10.14366
 Alpha  occ. eigenvalues --  -10.14032 -10.14000 -10.13959 -10.12959 -10.12721
 Alpha  occ. eigenvalues --  -10.12680 -10.11822 -10.11737  -0.93130  -0.92783
 Alpha  occ. eigenvalues --   -0.81967  -0.81831  -0.80175  -0.77365  -0.74664
 Alpha  occ. eigenvalues --   -0.72146  -0.71620  -0.70561  -0.68875  -0.67661
 Alpha  occ. eigenvalues --   -0.66058  -0.63269  -0.61311  -0.59534  -0.56408
 Alpha  occ. eigenvalues --   -0.54819  -0.51757  -0.51354  -0.50046  -0.47498
 Alpha  occ. eigenvalues --   -0.46653  -0.46080  -0.44750  -0.43626  -0.43031
 Alpha  occ. eigenvalues --   -0.42522  -0.42395  -0.40821  -0.40612  -0.39576
 Alpha  occ. eigenvalues --   -0.39513  -0.38352  -0.38092  -0.37846  -0.36755
 Alpha  occ. eigenvalues --   -0.36703  -0.36424  -0.36396  -0.36297  -0.35752
 Alpha  occ. eigenvalues --   -0.35418  -0.34463  -0.34186  -0.33061  -0.32729
 Alpha  occ. eigenvalues --   -0.32464  -0.31299  -0.30741  -0.30374  -0.29725
 Alpha  occ. eigenvalues --   -0.29543  -0.23808  -0.22476  -0.22363  -0.21627
 Alpha  occ. eigenvalues --   -0.19731  -0.19226  -0.18187  -0.09855
 Alpha virt. eigenvalues --   -0.00603  -0.00119   0.00146   0.00623   0.00934
 Alpha virt. eigenvalues --    0.01402   0.01434   0.01666   0.02003   0.02146
 Alpha virt. eigenvalues --    0.02709   0.03038   0.03789   0.03866   0.04191
 Alpha virt. eigenvalues --    0.04368   0.04591   0.04934   0.05215   0.05468
 Alpha virt. eigenvalues --    0.05858   0.06110   0.06603   0.06876   0.07152
 Alpha virt. eigenvalues --    0.07247   0.08003   0.08204   0.08532   0.08755
 Alpha virt. eigenvalues --    0.09224   0.09282   0.09816   0.09848   0.10021
 Alpha virt. eigenvalues --    0.10340   0.10576   0.10991   0.11206   0.11453
 Alpha virt. eigenvalues --    0.11797   0.11892   0.12264   0.12471   0.12627
 Alpha virt. eigenvalues --    0.13029   0.13116   0.13328   0.13423   0.13657
 Alpha virt. eigenvalues --    0.13789   0.13995   0.14198   0.14258   0.14534
 Alpha virt. eigenvalues --    0.14716   0.14835   0.15133   0.15394   0.15547
 Alpha virt. eigenvalues --    0.15837   0.15987   0.16118   0.16295   0.16750
 Alpha virt. eigenvalues --    0.16974   0.17241   0.17313   0.17479   0.18113
 Alpha virt. eigenvalues --    0.18263   0.18474   0.18693   0.18836   0.18880
 Alpha virt. eigenvalues --    0.19291   0.19446   0.19638   0.19910   0.20222
 Alpha virt. eigenvalues --    0.20527   0.20660   0.20959   0.21386   0.21693
 Alpha virt. eigenvalues --    0.22016   0.22255   0.22547   0.22778   0.22841
 Alpha virt. eigenvalues --    0.23090   0.23222   0.23644   0.23969   0.24550
 Alpha virt. eigenvalues --    0.24779   0.25033   0.25116   0.25562   0.25789
 Alpha virt. eigenvalues --    0.26408   0.26447   0.26765   0.27155   0.27401
 Alpha virt. eigenvalues --    0.27514   0.27656   0.27894   0.28089   0.28248
 Alpha virt. eigenvalues --    0.28448   0.28903   0.28966   0.29473   0.29688
 Alpha virt. eigenvalues --    0.29875   0.30210   0.30524   0.30629   0.31199
 Alpha virt. eigenvalues --    0.31270   0.31731   0.32058   0.32434   0.32646
 Alpha virt. eigenvalues --    0.32878   0.33180   0.33432   0.33843   0.34112
 Alpha virt. eigenvalues --    0.34400   0.34493   0.35283   0.35472   0.35573
 Alpha virt. eigenvalues --    0.36285   0.36347   0.36446   0.37136   0.37370
 Alpha virt. eigenvalues --    0.38052   0.38387   0.38422   0.38936   0.39358
 Alpha virt. eigenvalues --    0.39616   0.40439   0.41470   0.41763   0.42149
 Alpha virt. eigenvalues --    0.42721   0.43547   0.44501   0.44912   0.45500
 Alpha virt. eigenvalues --    0.46091   0.46383   0.46624   0.47907   0.48255
 Alpha virt. eigenvalues --    0.48779   0.49902   0.51255   0.51636   0.52517
 Alpha virt. eigenvalues --    0.53439   0.53568   0.54534   0.54649   0.54908
 Alpha virt. eigenvalues --    0.56129   0.56718   0.56971   0.57575   0.57729
 Alpha virt. eigenvalues --    0.57782   0.58483   0.58893   0.60165   0.60244
 Alpha virt. eigenvalues --    0.60711   0.60961   0.61990   0.62185   0.62434
 Alpha virt. eigenvalues --    0.62955   0.63431   0.63619   0.64225   0.64375
 Alpha virt. eigenvalues --    0.65100   0.65778   0.66022   0.66312   0.67186
 Alpha virt. eigenvalues --    0.67471   0.67950   0.67984   0.68608   0.68807
 Alpha virt. eigenvalues --    0.69184   0.69592   0.69741   0.70235   0.70508
 Alpha virt. eigenvalues --    0.70729   0.71190   0.71867   0.72095   0.72215
 Alpha virt. eigenvalues --    0.73301   0.73777   0.74014   0.74697   0.75006
 Alpha virt. eigenvalues --    0.75254   0.75592   0.75954   0.76950   0.77552
 Alpha virt. eigenvalues --    0.77652   0.77996   0.78452   0.78977   0.79397
 Alpha virt. eigenvalues --    0.79945   0.80387   0.80761   0.81311   0.81734
 Alpha virt. eigenvalues --    0.81950   0.82710   0.83184   0.83762   0.84705
 Alpha virt. eigenvalues --    0.85792   0.86343   0.86548   0.87114   0.88050
 Alpha virt. eigenvalues --    0.89484   0.90014   0.91096   0.91498   0.93140
 Alpha virt. eigenvalues --    0.93604   0.94586   0.95432   0.96190   0.96767
 Alpha virt. eigenvalues --    0.97679   0.97938   0.98792   0.99086   1.00155
 Alpha virt. eigenvalues --    1.00376   1.00841   1.01721   1.02658   1.02971
 Alpha virt. eigenvalues --    1.03652   1.04250   1.04646   1.05057   1.06385
 Alpha virt. eigenvalues --    1.06644   1.08708   1.09417   1.09966   1.10242
 Alpha virt. eigenvalues --    1.11536   1.12326   1.12822   1.13975   1.14056
 Alpha virt. eigenvalues --    1.14856   1.16360   1.17869   1.17978   1.19444
 Alpha virt. eigenvalues --    1.21058   1.22006   1.23669   1.24745   1.26903
 Alpha virt. eigenvalues --    1.28536   1.29726   1.30197   1.31565   1.32509
 Alpha virt. eigenvalues --    1.33492   1.34413   1.35241   1.36535   1.37566
 Alpha virt. eigenvalues --    1.38733   1.40124   1.40630   1.41379   1.42100
 Alpha virt. eigenvalues --    1.42561   1.44341   1.44734   1.46186   1.46995
 Alpha virt. eigenvalues --    1.47405   1.47874   1.49060   1.49399   1.50522
 Alpha virt. eigenvalues --    1.51053   1.52244   1.52513   1.53554   1.54194
 Alpha virt. eigenvalues --    1.55062   1.55193   1.55728   1.56166   1.57020
 Alpha virt. eigenvalues --    1.57869   1.58404   1.59201   1.60064   1.60363
 Alpha virt. eigenvalues --    1.61318   1.61568   1.62110   1.63023   1.63461
 Alpha virt. eigenvalues --    1.63849   1.64976   1.65505   1.65927   1.67076
 Alpha virt. eigenvalues --    1.68044   1.68850   1.69658   1.69911   1.70365
 Alpha virt. eigenvalues --    1.71485   1.71579   1.72537   1.72932   1.73216
 Alpha virt. eigenvalues --    1.73829   1.74602   1.75111   1.75875   1.76195
 Alpha virt. eigenvalues --    1.76931   1.78071   1.79255   1.79517   1.79925
 Alpha virt. eigenvalues --    1.81024   1.81761   1.81863   1.83636   1.85264
 Alpha virt. eigenvalues --    1.85549   1.86435   1.87123   1.88199   1.88749
 Alpha virt. eigenvalues --    1.89354   1.90624   1.91655   1.93063   1.93174
 Alpha virt. eigenvalues --    1.93852   1.94577   1.96415   1.96534   1.97030
 Alpha virt. eigenvalues --    1.97400   1.98377   1.98905   1.99651   2.00614
 Alpha virt. eigenvalues --    2.00724   2.01861   2.02684   2.03189   2.04641
 Alpha virt. eigenvalues --    2.05695   2.06650   2.07626   2.09296   2.10568
 Alpha virt. eigenvalues --    2.10879   2.11430   2.12247   2.12922   2.13518
 Alpha virt. eigenvalues --    2.15493   2.15676   2.17846   2.19099   2.19794
 Alpha virt. eigenvalues --    2.20425   2.21208   2.22890   2.23266   2.24067
 Alpha virt. eigenvalues --    2.27856   2.29350   2.29580   2.30256   2.31481
 Alpha virt. eigenvalues --    2.32799   2.33484   2.33576   2.34302   2.37000
 Alpha virt. eigenvalues --    2.39272   2.40142   2.41420   2.41996   2.43513
 Alpha virt. eigenvalues --    2.44995   2.45577   2.47241   2.48370   2.49673
 Alpha virt. eigenvalues --    2.50034   2.50232   2.50781   2.51004   2.51602
 Alpha virt. eigenvalues --    2.52349   2.53119   2.53626   2.54152   2.54772
 Alpha virt. eigenvalues --    2.55081   2.55907   2.57524   2.58567   2.59716
 Alpha virt. eigenvalues --    2.60784   2.61599   2.63179   2.63809   2.65449
 Alpha virt. eigenvalues --    2.65674   2.65912   2.67257   2.67758   2.68064
 Alpha virt. eigenvalues --    2.68727   2.69835   2.72288   2.73296   2.73318
 Alpha virt. eigenvalues --    2.74494   2.75101   2.76080   2.76928   2.77405
 Alpha virt. eigenvalues --    2.78402   2.78632   2.79487   2.80751   2.80830
 Alpha virt. eigenvalues --    2.81132   2.82381   2.83639   2.84162   2.85277
 Alpha virt. eigenvalues --    2.86180   2.87015   2.88007   2.88816   2.89565
 Alpha virt. eigenvalues --    2.90648   2.91481   2.93237   2.93474   2.93559
 Alpha virt. eigenvalues --    2.94486   2.95135   2.96459   2.97660   2.98657
 Alpha virt. eigenvalues --    2.99793   3.00104   3.02673   3.03391   3.04895
 Alpha virt. eigenvalues --    3.05247   3.05902   3.06974   3.09123   3.11109
 Alpha virt. eigenvalues --    3.12410   3.14386   3.15386   3.16991   3.17611
 Alpha virt. eigenvalues --    3.20157   3.21470   3.23551   3.24889   3.25689
 Alpha virt. eigenvalues --    3.31220   3.31939   3.33540   3.34423   3.35495
 Alpha virt. eigenvalues --    3.37907   3.38269   3.40275   3.42345   3.46223
 Alpha virt. eigenvalues --    3.47048   3.53709   3.54146   3.55670   3.59249
 Alpha virt. eigenvalues --    3.60792   3.62942   3.67330   3.68831   3.72270
 Alpha virt. eigenvalues --    3.75803   3.79210   3.80936   3.81697   3.82280
 Alpha virt. eigenvalues --    3.83247   3.84418   3.85511   3.85668   3.89131
 Alpha virt. eigenvalues --    3.90671   3.90919   3.94364   4.00612   4.06251
 Alpha virt. eigenvalues --    4.07102   4.10728   4.12129   4.17889   4.23413
 Alpha virt. eigenvalues --    4.27333   4.30803   4.32059   4.35960   4.40408
 Alpha virt. eigenvalues --    4.44822   4.46813   4.51028   4.87378   4.89585
 Alpha virt. eigenvalues --    5.16236   5.18756   5.34410   5.37611   5.81247
 Alpha virt. eigenvalues --    5.88516  23.59663  23.69573  23.74395  23.83364
 Alpha virt. eigenvalues --   23.89214  23.93256  23.95592  23.96152  23.97246
 Alpha virt. eigenvalues --   23.98915  23.99477  23.99762  24.00195  24.01283
 Alpha virt. eigenvalues --   24.04296  24.06626  24.14407  24.14739  24.21379
 Alpha virt. eigenvalues --   24.26032  24.27544  50.11554  50.16726
  Beta  occ. eigenvalues --  -19.00822 -19.00678 -10.17451 -10.16257 -10.16055
  Beta  occ. eigenvalues --  -10.16031 -10.15971 -10.15915 -10.15864 -10.15848
  Beta  occ. eigenvalues --  -10.15744 -10.15335 -10.14750 -10.14413 -10.14366
  Beta  occ. eigenvalues --  -10.14032 -10.14000 -10.13959 -10.12959 -10.12721
  Beta  occ. eigenvalues --  -10.12680 -10.11822 -10.11737  -0.93130  -0.92783
  Beta  occ. eigenvalues --   -0.81967  -0.81831  -0.80175  -0.77365  -0.74664
  Beta  occ. eigenvalues --   -0.72146  -0.71620  -0.70561  -0.68875  -0.67661
  Beta  occ. eigenvalues --   -0.66058  -0.63269  -0.61311  -0.59534  -0.56408
  Beta  occ. eigenvalues --   -0.54819  -0.51757  -0.51354  -0.50046  -0.47498
  Beta  occ. eigenvalues --   -0.46653  -0.46080  -0.44750  -0.43626  -0.43031
  Beta  occ. eigenvalues --   -0.42522  -0.42395  -0.40821  -0.40612  -0.39576
  Beta  occ. eigenvalues --   -0.39513  -0.38352  -0.38092  -0.37846  -0.36755
  Beta  occ. eigenvalues --   -0.36703  -0.36424  -0.36396  -0.36297  -0.35752
  Beta  occ. eigenvalues --   -0.35418  -0.34463  -0.34186  -0.33061  -0.32729
  Beta  occ. eigenvalues --   -0.32464  -0.31299  -0.30741  -0.30374  -0.29725
  Beta  occ. eigenvalues --   -0.29543  -0.23808  -0.22476  -0.22363  -0.21627
  Beta  occ. eigenvalues --   -0.19731  -0.19226  -0.18187  -0.09855
  Beta virt. eigenvalues --   -0.00603  -0.00119   0.00146   0.00623   0.00934
  Beta virt. eigenvalues --    0.01402   0.01434   0.01666   0.02003   0.02146
  Beta virt. eigenvalues --    0.02709   0.03038   0.03789   0.03866   0.04191
  Beta virt. eigenvalues --    0.04368   0.04591   0.04934   0.05215   0.05468
  Beta virt. eigenvalues --    0.05858   0.06110   0.06603   0.06876   0.07152
  Beta virt. eigenvalues --    0.07247   0.08003   0.08204   0.08532   0.08755
  Beta virt. eigenvalues --    0.09224   0.09282   0.09816   0.09848   0.10021
  Beta virt. eigenvalues --    0.10340   0.10576   0.10991   0.11206   0.11453
  Beta virt. eigenvalues --    0.11797   0.11892   0.12264   0.12471   0.12627
[...]
     9   Atom        0.000000     -0.000000      0.000000
    10   Atom       -0.000000      0.000000      0.000000
    11   Atom        0.000000     -0.000000     -0.000000
    12   Atom       -0.000000     -0.000000      0.000000
    13   Atom        0.000000      0.000000     -0.000000
    14   Atom       -0.000000      0.000000      0.000000
    15   Atom        0.000000     -0.000000      0.000000
    16   Atom       -0.000000      0.000000      0.000000
    17   Atom        0.000000     -0.000000     -0.000000
    18   Atom        0.000000      0.000000     -0.000000
    19   Atom        0.000000      0.000000     -0.000000
    20   Atom       -0.000000      0.000000      0.000000
    21   Atom       -0.000000      0.000000      0.000000
    22   Atom       -0.000000     -0.000000      0.000000
    23   Atom       -0.000000      0.000000      0.000000
    24   Atom       -0.000000     -0.000000      0.000000
    25   Atom       -0.000000      0.000000      0.000000
    26   Atom        0.000000     -0.000000      0.000000
    27   Atom       -0.000000      0.000000     -0.000000
    28   Atom       -0.000000      0.000000      0.000000
    29   Atom        0.000000     -0.000000      0.000000
    30   Atom        0.000000     -0.000000      0.000000
    31   Atom       -0.000000      0.000000     -0.000000
    32   Atom       -0.000000      0.000000      0.000000
    33   Atom        0.000000     -0.000000      0.000000
    34   Atom       -0.000000      0.000000     -0.000000
    35   Atom       -0.000000      0.000000      0.000000
    36   Atom        0.000000     -0.000000      0.000000
    37   Atom        0.000000     -0.000000      0.000000
    38   Atom        0.000000     -0.000000     -0.000000
    39   Atom        0.000000     -0.000000     -0.000000
    40   Atom       -0.000000     -0.000000      0.000000
    41   Atom       -0.000000      0.000000     -0.000000
    42   Atom        0.000000      0.000000     -0.000000
    43   Atom        0.000000     -0.000000      0.000000
    44   Atom        0.000000     -0.000000      0.000000
    45   Atom       -0.000000      0.000000      0.000000
    46   Atom       -0.000000      0.000000     -0.000000
    47   Atom        0.000000     -0.000000      0.000000
 --------------------------------------------------------
                        XY            XZ            YZ
 --------------------------------------------------------
     1   Atom        0.000000      0.000000      0.000000
     2   Atom       -0.000000      0.000000     -0.000000
     3   Atom       -0.000000      0.000000     -0.000000
     4   Atom       -0.000000      0.000000     -0.000000
     5   Atom       -0.000000     -0.000000     -0.000000
     6   Atom        0.000000     -0.000000     -0.000000
     7   Atom       -0.000000      0.000000     -0.000000
     8   Atom        0.000000     -0.000000      0.000000
     9   Atom       -0.000000      0.000000     -0.000000
    10   Atom       -0.000000     -0.000000      0.000000
    11   Atom       -0.000000     -0.000000     -0.000000
    12   Atom        0.000000      0.000000      0.000000
    13   Atom        0.000000     -0.000000     -0.000000
    14   Atom        0.000000      0.000000     -0.000000
    15   Atom        0.000000      0.000000     -0.000000
    16   Atom        0.000000      0.000000     -0.000000
    17   Atom        0.000000      0.000000      0.000000
    18   Atom       -0.000000     -0.000000     -0.000000
    19   Atom       -0.000000     -0.000000      0.000000
    20   Atom        0.000000     -0.000000     -0.000000
    21   Atom       -0.000000      0.000000      0.000000
    22   Atom       -0.000000     -0.000000     -0.000000
    23   Atom       -0.000000      0.000000     -0.000000
    24   Atom       -0.000000     -0.000000     -0.000000
    25   Atom        0.000000      0.000000     -0.000000
    26   Atom       -0.000000     -0.000000      0.000000
    27   Atom       -0.000000      0.000000     -0.000000
    28   Atom       -0.000000     -0.000000      0.000000
    29   Atom        0.000000     -0.000000     -0.000000
    30   Atom        0.000000      0.000000     -0.000000
    31   Atom        0.000000     -0.000000      0.000000
    32   Atom        0.000000      0.000000     -0.000000
    33   Atom        0.000000     -0.000000     -0.000000
    34   Atom        0.000000      0.000000      0.000000
    35   Atom        0.000000      0.000000     -0.000000
    36   Atom       -0.000000      0.000000     -0.000000
    37   Atom       -0.000000      0.000000      0.000000
    38   Atom       -0.000000     -0.000000      0.000000
    39   Atom       -0.000000      0.000000      0.000000
    40   Atom       -0.000000     -0.000000     -0.000000
    41   Atom        0.000000      0.000000     -0.000000
    42   Atom       -0.000000     -0.000000      0.000000
    43   Atom        0.000000      0.000000      0.000000
    44   Atom        0.000000      0.000000     -0.000000
    45   Atom       -0.000000     -0.000000      0.000000
    46   Atom       -0.000000     -0.000000     -0.000000
    47   Atom       -0.000000      0.000000      0.000000
 --------------------------------------------------------


 ---------------------------------------------------------------------------------
              Anisotropic Spin Dipole Couplings in Principal Axis System
 ---------------------------------------------------------------------------------

       Atom             a.u.   MegaHertz   Gauss  10(-4) cm-1        Axes

              Baa    -0.0000    -0.000    -0.000    -0.000 -0.3180  0.0189  0.9479
     1 C(13)  Bbb    -0.0000    -0.000    -0.000    -0.000 -0.3665  0.9196 -0.1413
              Bcc     0.0000     0.000     0.000     0.000  0.8744  0.3924  0.2855
 
              Baa    -0.0000    -0.000    -0.000    -0.000  0.7780  0.6030  0.1765
     2 C(13)  Bbb    -0.0000    -0.000    -0.000    -0.000 -0.5489  0.5155  0.6580
              Bcc     0.0000     0.000     0.000     0.000  0.3058 -0.6088  0.7320
 
              Baa    -0.0000    -0.000    -0.000    -0.000 -0.4890  0.5751  0.6559
     3 C(13)  Bbb    -0.0000    -0.000    -0.000    -0.000  0.8408  0.5111  0.1787
              Bcc     0.0000     0.000     0.000     0.000  0.2324 -0.6388  0.7334
 
              Baa    -0.0000    -0.000    -0.000    -0.000  0.1159  0.9932  0.0073
     4 C(13)  Bbb    -0.0000    -0.000    -0.000    -0.000 -0.5250  0.0550  0.8493
              Bcc     0.0000     0.000     0.000     0.000  0.8431 -0.1023  0.5279
 
              Baa    -0.0000    -0.000    -0.000    -0.000  0.7831  0.4992  0.3709
     5 C(13)  Bbb     0.0000     0.000     0.000     0.000 -0.5850  0.3891  0.7116
              Bcc     0.0000     0.000     0.000     0.000 -0.2109  0.7742 -0.5967
 
              Baa    -0.0000    -0.000    -0.000    -0.000  0.0067  0.4138  0.9103
     6 C(13)  Bbb    -0.0000    -0.000    -0.000    -0.000  0.9530 -0.2784  0.1195
              Bcc     0.0000     0.000     0.000     0.000  0.3029  0.8667 -0.3962
 
              Baa    -0.0000    -0.000    -0.000    -0.000  0.3791  0.8898 -0.2541
     7 C(13)  Bbb    -0.0000    -0.000    -0.000    -0.000 -0.3097  0.3808  0.8712
              Bcc     0.0000     0.000     0.000     0.000  0.8720 -0.2516  0.4200
 
              Baa    -0.0000    -0.000    -0.000    -0.000  0.5728 -0.4630  0.6764
     8 C(13)  Bbb     0.0000     0.000     0.000     0.000 -0.5496  0.3953  0.7360
              Bcc     0.0000     0.000     0.000     0.000  0.6081  0.7933  0.0280
 
              Baa    -0.0000    -0.000    -0.000    -0.000 -0.5870  0.4777  0.6536
     9 C(13)  Bbb    -0.0000    -0.000    -0.000    -0.000  0.4814  0.8551 -0.1927
              Bcc     0.0000     0.000     0.000     0.000  0.6509 -0.2015  0.7319
 
              Baa    -0.0000    -0.000    -0.000    -0.000  0.8303  0.2480  0.4992
    10 C(13)  Bbb     0.0000     0.000     0.000     0.000  0.0420  0.8652 -0.4997
              Bcc     0.0000     0.000     0.000     0.000 -0.5558  0.4358  0.7079
 
              Baa    -0.0000     0.000     0.000     0.000  0.5833  0.5101  0.6321
    11 O(17)  Bbb     0.0000    -0.000    -0.000    -0.000  0.0286  0.7649 -0.6436
              Bcc     0.0000    -0.000    -0.000    -0.000  0.8118 -0.3934 -0.4316
 
              Baa    -0.0000     0.000     0.000     0.000  0.8290  0.4213 -0.3678
    12 O(17)  Bbb    -0.0000     0.000     0.000     0.000 -0.5132  0.8344 -0.2008
              Bcc     0.0000    -0.000    -0.000    -0.000  0.2223  0.3553  0.9079
 
              Baa    -0.0000    -0.000    -0.000    -0.000 -0.0850  0.3527  0.9319
    13 H(1)   Bbb    -0.0000    -0.000    -0.000    -0.000  0.8325 -0.4887  0.2609
              Bcc     0.0000     0.000     0.000     0.000  0.5474  0.7980 -0.2521
 
              Baa    -0.0000    -0.000    -0.000    -0.000  0.6898 -0.5059 -0.5179
    14 H(1)   Bbb    -0.0000    -0.000    -0.000    -0.000  0.6992  0.2798  0.6579
              Bcc     0.0000     0.000     0.000     0.000  0.1880  0.8159 -0.5467
 
              Baa    -0.0000    -0.000    -0.000    -0.000 -0.3805  0.8132  0.4404
    15 C(13)  Bbb     0.0000     0.000     0.000     0.000 -0.4433 -0.5783  0.6849
              Bcc     0.0000     0.000     0.000     0.000  0.8116  0.0654  0.5805
 
              Baa    -0.0000    -0.000    -0.000    -0.000 -0.4893  0.5996  0.6333
    16 H(1)   Bbb    -0.0000    -0.000    -0.000    -0.000  0.8706  0.3788  0.3140
              Bcc     0.0000     0.000     0.000     0.000  0.0516 -0.7050  0.7074
 
              Baa    -0.0000    -0.000    -0.000    -0.000 -0.1122  0.7445 -0.6582
    17 H(1)   Bbb    -0.0000    -0.000    -0.000    -0.000 -0.5614  0.4991  0.6602
              Bcc     0.0000     0.000     0.000     0.000  0.8199  0.4435  0.3619
 
              Baa    -0.0000    -0.000    -0.000    -0.000  0.2414  0.3571  0.9023
    18 H(1)   Bbb     0.0000     0.000     0.000     0.000 -0.2227  0.9254 -0.3066
              Bcc     0.0000     0.000     0.000     0.000  0.9445  0.1269 -0.3030
 
              Baa    -0.0000    -0.000    -0.000    -0.000  0.3089 -0.2542  0.9165
    19 H(1)   Bbb    -0.0000    -0.000    -0.000    -0.000  0.7681  0.6349 -0.0828
              Bcc     0.0000     0.000     0.000     0.000 -0.5608  0.7296  0.3914
 
              Baa    -0.0000    -0.000    -0.000    -0.000  0.9246 -0.3807  0.0140
    20 H(1)   Bbb    -0.0000    -0.000    -0.000    -0.000  0.1950  0.5046  0.8410
              Bcc     0.0000     0.000     0.000     0.000  0.3273  0.7749 -0.5408
 
              Baa    -0.0000    -0.000    -0.000    -0.000  0.8125  0.2277 -0.5367
    21 C(13)  Bbb     0.0000     0.000     0.000     0.000 -0.0595  0.9481  0.3122
              Bcc     0.0000     0.000     0.000     0.000  0.5799 -0.2218  0.7839
 
              Baa    -0.0000    -0.000    -0.000    -0.000  0.4585  0.8063  0.3737
    22 C(13)  Bbb     0.0000     0.000     0.000     0.000  0.8677 -0.3154 -0.3842
              Bcc     0.0000     0.000     0.000     0.000  0.1919 -0.5004  0.8443
 
              Baa    -0.0000    -0.000    -0.000    -0.000  0.9090  0.3483 -0.2289
    23 C(13)  Bbb     0.0000     0.000     0.000     0.000 -0.1135  0.7354  0.6681
              Bcc     0.0000     0.000     0.000     0.000  0.4011 -0.5813  0.7080
 
              Baa    -0.0000    -0.000    -0.000    -0.000  0.6722  0.7202  0.1715
    24 C(13)  Bbb    -0.0000    -0.000    -0.000    -0.000 -0.6933  0.6936 -0.1953
              Bcc     0.0000     0.000     0.000     0.000 -0.2596  0.0124  0.9656
 
              Baa    -0.0000    -0.000    -0.000    -0.000  0.9258 -0.1616 -0.3418
    25 C(13)  Bbb     0.0000     0.000     0.000     0.000  0.3780  0.3846  0.8421
              Bcc     0.0000     0.000     0.000     0.000  0.0046  0.9088 -0.4171
 
              Baa    -0.0000    -0.000    -0.000    -0.000  0.1142  0.9934 -0.0130
    26 C(13)  Bbb     0.0000     0.000     0.000     0.000  0.7988 -0.0840  0.5957
              Bcc     0.0000     0.000     0.000     0.000 -0.5907  0.0784  0.8031
 
              Baa    -0.0000    -0.000    -0.000    -0.000  0.9105  0.1088 -0.3989
    27 C(13)  Bbb    -0.0000    -0.000    -0.000    -0.000  0.3051  0.4743  0.8258
              Bcc     0.0000     0.000     0.000     0.000 -0.2790  0.8736 -0.3987
 
              Baa    -0.0000    -0.000    -0.000    -0.000  0.9705  0.2408  0.0109
    28 C(13)  Bbb     0.0000     0.000     0.000     0.000  0.0008 -0.0483  0.9988
              Bcc     0.0000     0.000     0.000     0.000 -0.2411  0.9694  0.0470
 
              Baa    -0.0000    -0.000    -0.000    -0.000 -0.0998  0.9795  0.1751
    29 C(13)  Bbb     0.0000     0.000     0.000     0.000  0.5415 -0.0942  0.8354
              Bcc     0.0000     0.000     0.000     0.000  0.8348  0.1782 -0.5210
 
              Baa    -0.0000    -0.000    -0.000    -0.000 -0.4200  0.9066  0.0399
    30 C(13)  Bbb     0.0000     0.000     0.000     0.000 -0.5196 -0.2762  0.8085
              Bcc     0.0000     0.000     0.000     0.000  0.7441  0.3189  0.5871
 
              Baa    -0.0000    -0.000    -0.000    -0.000  0.2952 -0.1738  0.9395
    31 H(1)   Bbb    -0.0000    -0.000    -0.000    -0.000  0.9318 -0.1652 -0.3233
              Bcc     0.0000     0.000     0.000     0.000  0.2114  0.9708  0.1132
 
              Baa    -0.0000    -0.000    -0.000    -0.000  0.8340 -0.5333 -0.1417
    32 H(1)   Bbb     0.0000     0.000     0.000     0.000  0.3726  0.3549  0.8574
              Bcc     0.0000     0.000     0.000     0.000  0.4070  0.7679 -0.4947
 
              Baa    -0.0000    -0.000    -0.000    -0.000 -0.2645  0.9640  0.0277
    33 H(1)   Bbb     0.0000     0.000     0.000     0.000  0.8349  0.2145  0.5068
              Bcc     0.0000     0.000     0.000     0.000 -0.4826 -0.1572  0.8616
 
              Baa    -0.0000    -0.000    -0.000    -0.000  0.8996 -0.0791 -0.4295
    34 H(1)   Bbb     0.0000     0.000     0.000     0.000  0.3987 -0.2522  0.8817
              Bcc     0.0000     0.000     0.000     0.000  0.1781  0.9644  0.1954
 
              Baa    -0.0000    -0.000    -0.000    -0.000  0.8575 -0.2638 -0.4418
    35 H(1)   Bbb     0.0000     0.000     0.000     0.000 -0.0027  0.8562 -0.5166
              Bcc     0.0000     0.000     0.000     0.000  0.5145  0.4441  0.7335
 
              Baa    -0.0000    -0.000    -0.000    -0.000 -0.0228  0.8152  0.5787
    36 H(1)   Bbb     0.0000     0.000     0.000     0.000  0.9818  0.1276 -0.1410
              Bcc     0.0000     0.000     0.000     0.000  0.1888 -0.5649  0.8033
 
              Baa    -0.0000    -0.000    -0.000    -0.000  0.4552  0.6901 -0.5626
    37 H(1)   Bbb     0.0000     0.000     0.000     0.000 -0.3559  0.7202  0.5956
              Bcc     0.0000     0.000     0.000     0.000  0.8162 -0.0709  0.5734
 
              Baa    -0.0000    -0.000    -0.000    -0.000  0.3034  0.0993  0.9477
    38 H(1)   Bbb    -0.0000    -0.000    -0.000    -0.000  0.2831  0.9402 -0.1892
              Bcc     0.0000     0.000     0.000     0.000  0.9098 -0.3257 -0.2572
 
              Baa    -0.0000    -0.000    -0.000    -0.000 -0.0666 -0.6979  0.7131
    39 H(1)   Bbb     0.0000     0.000     0.000     0.000 -0.1093  0.7155  0.6901
              Bcc     0.0000     0.000     0.000     0.000  0.9918  0.0319  0.1239
 
              Baa    -0.0000    -0.000    -0.000    -0.000  0.6010  0.6448  0.4722
    40 H(1)   Bbb     0.0000     0.000     0.000     0.000 -0.6531  0.7368 -0.1748
              Bcc     0.0000     0.000     0.000     0.000 -0.4607 -0.2033  0.8640
 
              Baa    -0.0000    -0.000    -0.000    -0.000  0.8345 -0.3515 -0.4243
    41 H(1)   Bbb     0.0000     0.000     0.000     0.000  0.3282 -0.3013  0.8953
              Bcc     0.0000     0.000     0.000     0.000  0.4425  0.8864  0.1360
 
              Baa    -0.0000    -0.000    -0.000    -0.000  0.2008 -0.1993  0.9591
    42 H(1)   Bbb     0.0000     0.000     0.000     0.000  0.9623  0.2234 -0.1551
              Bcc     0.0000     0.000     0.000     0.000 -0.1834  0.9541  0.2367
 
              Baa    -0.0000    -0.000    -0.000    -0.000 -0.2053  0.9689 -0.1379
    43 H(1)   Bbb     0.0000     0.000     0.000     0.000 -0.5577 -0.0001  0.8300
              Bcc     0.0000     0.000     0.000     0.000  0.8042  0.2473  0.5404
 
              Baa    -0.0000    -0.000    -0.000    -0.000 -0.3775  0.8966  0.2315
    44 H(1)   Bbb     0.0000     0.000     0.000     0.000 -0.4866 -0.4048  0.7742
              Bcc     0.0000     0.000     0.000     0.000  0.7878  0.1796  0.5891
 
              Baa    -0.0000    -0.000    -0.000    -0.000  0.9193  0.2210  0.3257
    45 H(1)   Bbb     0.0000     0.000     0.000     0.000  0.0144  0.8081 -0.5889
              Bcc     0.0000     0.000     0.000     0.000 -0.3934  0.5460  0.7397
 
              Baa    -0.0000    -0.000    -0.000    -0.000  0.4268  0.5607  0.7095
    46 H(1)   Bbb     0.0000     0.000     0.000     0.000  0.8895 -0.4017 -0.2177
              Bcc     0.0000     0.000     0.000     0.000  0.1630  0.7240 -0.6702
 
              Baa    -0.0000    -0.000    -0.000    -0.000  0.4408  0.7717 -0.4585
    47 H(1)   Bbb     0.0000     0.000     0.000     0.000  0.0811  0.4744  0.8765
              Bcc     0.0000     0.000     0.000     0.000  0.8939 -0.4235  0.1465
 

 ---------------------------------------------------------------------------------

 No NMR shielding tensors so no spin-rotation constants.
 Leave Link  601 at Sun Jan 21 09:01:44 2024, MaxMem=  4026531840 cpu:              11.1 elap:               1.8
 (Enter /sysapps/ubuntu-applications/gaussian/Gaussian/AVX2/g16/l9999.exe)
 1\1\GINC-ACIDSGN003\SP\UB3LYP\6-311++G(d,p)\C21H24O2(2-)\SELHAJJ1\21-J
 an-2024\0\\#P UB3LYP/6-311++G(d,p) SCRF=(PCM,Solvent=n,n-DiMethylForma
 mide)\\Reduced\\-2,1\C,0,2.998191,-2.471948,-3.458133\C,0,2.483052,-3.
 222456,-4.50025\C,0,1.166058,-2.978116,-4.956486\C,0,2.241794,-1.45949
 ,-2.827963\C,0,0.907701,-1.215049,-3.288194\C,0,0.404561,-1.992345,-4.
 353924\C,0,2.830951,-0.688839,-1.733774\C,0,1.979376,0.313449,-1.14775
 7\C,0,0.674641,0.55884,-1.609249\C,0,0.070695,-0.181726,-2.683465\O,0,
 4.028438,-0.905895,-1.338377\O,0,-1.117789,0.048912,-3.097861\H,0,3.08
 6658,-3.997898,-4.967199\H,0,0.754729,-3.564456,-5.775369\C,0,2.566736
 ,1.109934,-0.006195\H,0,4.004629,-2.633716,-3.086013\H,0,-0.609213,-1.
 78099,-4.678359\H,0,2.78482,2.150052,-0.293696\H,0,3.508673,0.646263,0
 .292495\H,0,1.892969,1.153133,0.857645\C,0,-0.181374,1.6674,-1.0161\C,
 0,-1.079746,1.211084,0.108435\C,0,-1.309464,1.783907,1.300916\C,0,-2.3
 04487,1.176875,2.274026\C,0,-0.657655,3.066517,1.765317\C,0,-1.70002,0
 .698349,3.618886\C,0,-2.72457,0.064915,4.52072\C,0,-3.132113,0.449545,
 5.739129\C,0,-2.609325,1.650807,6.488817\C,0,-4.19783,-0.317317,6.4866
 96\H,0,-0.839316,2.008016,-1.826815\H,0,0.44106,2.50998,-0.704847\H,0,
 -1.624884,0.298432,-0.126062\H,0,-2.804363,0.330579,1.791757\H,0,-3.08
 9383,1.912669,2.504163\H,0,-0.025464,3.510406,0.996631\H,0,-0.033411,2
 .908139,2.653858\H,0,-1.41827,3.807547,2.047595\H,0,-1.20525,1.533118,
 4.119614\H,0,-0.916096,-0.035686,3.391334\H,0,-3.201644,-0.822586,4.10
 3403\H,0,-1.853362,2.212918,5.938643\H,0,-2.17264,1.345316,7.448635\H,
 0,-3.430439,2.337267,6.735658\H,0,-4.553669,-1.186328,5.925931\H,0,-5.
 063577,0.322029,6.708611\H,0,-3.826043,-0.668577,7.458172\\Version=ES6
 4L-G16RevA.03\State=1-A\HF=-965.613519\S2=0.\S2-1=0.\S2A=0.\RMSD=6.312
 e-09\Dipole=-5.5940768,2.578659,9.2297101\Quadrupole=-16.9634395,28.90
 77647,-11.9443252,15.1569551,14.0140536,-11.1802932\PG=C01 [X(C21H24O2
 )]\\@


 Mondays are the potholes in the road of life.
                                -- Tom Wilson
 Job cpu time:       0 days  2 hours  5 minutes 14.8 seconds.
 Elapsed time:       0 days  0 hours 15 minutes 45.1 seconds.
 File lengths (MBytes):  RWF=    617 Int=      0 D2E=      0 Chk=     34 Scr=      1
 Normal termination of Gaussian 16 at Sun Jan 21 09:01:45 2024.
