
Running Job 1 of 1 298-an-CPCM.in
qchem 298-an-CPCM.in_2434784.0 /expanse/lustre/scratch/selhajj/temp_project/qcscratch/31302385/qchem2434784/ 0
/cm/shared/apps/spack/cpu/opt/spack/linux-centos8-zen2/gcc-10.2.0/qchem-5.4-akfmr7b3t57bfs6qan3padb2wnb2i7cl/exe/qcprog.exe_s 298-an-CPCM.in_2434784.0 /expanse/lustre/scratch/selhajj/temp_project/qcscratch/31302385/qchem2434784/
                  Welcome to Q-Chem
     A Quantum Leap Into The Future Of Chemistry


 Q-Chem 5.4, Q-Chem, Inc., Pleasanton, CA (2021)

 License issued to: University of California, San Diego (site)

 E. Epifanovsky,  A. T. B. Gilbert,  Xintian Feng,  Joonho Lee,  Yuezhi Mao,  
 N. Mardirossian,  P. Pokhilko,  A. White,  M. Wormit,  M. P. Coons,  
 A. L. Dempwolff,  Zhengting Gan,  D. Hait,  P. R. Horn,  L. D. Jacobson,  
 I. Kaliman,  J. Kussmann,  A. W. Lange,  Ka Un Lao,  D. S. Levine,  Jie Liu,  
 S. C. McKenzie,  A. F. Morrison,  K. Nanda,  F. Plasser,  D. R. Rehn,  
 M. L. Vidal,  Zhi-Qiang You,  Ying Zhu,  B. Alam,  B. Albrecht,  
 A. Aldossary,  E. Alguire,  J. H. Andersen,  D. Barton,  K. Begam,  A. Behn,  
 Y. A. Bernard,  E. J. Berquist,  H. Burton,  A. Carreras,  K. Carter-Fenk,  
 R. Chakraborty,  A. D. Chien,  K. D. Closser,  V. Cofer-Shabica,  
 S. Dasgupta,  Jia Deng,  M. de Wergifosse,  M. Diedenhofen,  Hainam Do,  
 S. Ehlert,  Po-Tung Fang,  S. Fatehi,  Qingguo Feng,  J. Gayvert,  
 Qinghui Ge,  G. Gidofalvi,  M. Goldey,  J. Gomes,  C. Gonzalez-Espinoza,  
 S. Gulania,  A. Gunina,  M. W. D. Hanson-Heine,  P. H. P. Harbach,  
 A. W. Hauser,  M. F. Herbst,  M. Hernandez Vera,  M. Hodecker,  
 Z. C. Holden,  S. Houck,  Xunkun Huang,  Kerwin Hui,  B. C. Huynh,  
 M. Ivanov,  Hyunjun Ji,  Hanjie Jiang,  B. Kaduk,  S. Kaehler,  
 K. Khistyaev,  Jaehoon Kim,  P. Klunzinger,  Z. Koczor-Benda,  
 Joong Hoon Koh,  D. Kosenkov,  L. Koulias,  T. Kowalczyk,  C. M. Krauter,  
 K. Kue,  A. Kunitsa,  T. Kus,  A. Landau,  K. V. Lawler,  D. Lefrancois,  
 S. Lehtola,  Rain Li,  Yi-Pei Li,  Jiashu Liang,  M. Liebenthal,  
 Hung-Hsuan Lin,  You-Sheng Lin,  Fenglai Liu,  Kuan-Yu Liu,  
 M. Loipersberger,  A. Luenser,  A. Manjanath,  P. Manohar,  E. Mansoor,  
 S. F. Manzer,  Shan-Ping Mao,  A. V. Marenich,  T. Markovich,  S. Mason,  
 S. A. Maurer,  P. F. McLaughlin,  M. F. S. J. Menger,  J.-M. Mewes,  
 S. A. Mewes,  P. Morgante,  J. W. Mullinax,  T. S. Nguyen-Beck,  
 K. J. Oosterbaan,  G. Paran,  Alexander C. Paul,  Suranjan K. Paul,  
 F. Pavosevic,  Zheng Pei,  S. Prager,  E. I. Proynov,  E. Ramos,  B. Rana,  
 A. E. Rask,  A. Rettig,  R. M. Richard,  F. Rob,  E. Rossomme,  T. Scheele,  
 M. Scheurer,  M. Schneider,  N. Sergueev,  S. M. Sharada,  W. Skomorowski,  
 D. W. Small,  C. J. Stein,  Yu-Chuan Su,  E. J. Sundstrom,  Zhen Tao,  
 J. Thirman,  T. Tsuchimochi,  N. M. Tubman,  S. P. Veccham,  O. Vydrov,  
 J. Wenzel,  J. Witte,  A. Yamada,  Kun Yao,  S. Yeganeh,  S. R. Yost,  
 A. Zech,  Igor Ying Zhang,  Xing Zhang,  Yu Zhang,  D. Zuev,  
 A. Aspuru-Guzik,  A. T. Bell,  N. A. Besley,  K. B. Bravaya,  B. R. Brooks,  
 D. Casanova,  Jeng-Da Chai,  S. Coriani,  C. J. Cramer,  
 A. E. DePrince, III,  R. A. DiStasio Jr.,  A. Dreuw,  B. D. Dunietz,  
 T. R. Furlani,  W. A. Goddard III,  S. Grimme,  S. Hammes-Schiffer,  
 T. Head-Gordon,  W. J. Hehre,  Chao-Ping Hsu,  T.-C. Jagau,  Yousung Jung,  
 A. Klamt,  Jing Kong,  D. S. Lambrecht,  WanZhen Liang,  N. J. Mayhall,  
 C. W. McCurdy,  J. B. Neaton,  C. Ochsenfeld,  J. A. Parkhill,  R. Peverati,  
 V. A. Rassolov,  Yihan Shao,  L. V. Slipchenko,  T. Stauch,  R. P. Steele,  
 J. E. Subotnik,  A. J. W. Thom,  A. Tkatchenko,  D. G. Truhlar,  
 T. Van Voorhis,  T. A. Wesolowski,  K. B. Whaley,  H. L. Woodcock III,  
 P. M. Zimmerman,  S. Faraji,  P. M. W. Gill,  M. Head-Gordon,  
 J. M. Herbert,  A. I. Krylov

 Contributors to earlier versions of Q-Chem not listed above: 
 R. D. Adamson,  B. Austin,  R. Baer,  J. Baker,  G. J. O. Beran,  
 K. Brandhorst,  S. T. Brown,  E. F. C. Byrd,  A. K. Chakraborty,  
 G. K. L. Chan,  Chun-Min Chang,  Yunqing Chen,  C.-L. Cheng,  
 Siu Hung Chien,  D. M. Chipman,  D. L. Crittenden,  H. Dachsel,  
 R. J. Doerksen,  A. D. Dutoi,  R. G. Edgar,  J. Fosso-Tande,  
 L. Fusti-Molnar,  D. Ghosh,  A. Ghysels,  A. Golubeva-Zadorozhnaya,  
 J. Gonthier,  M. S. Gordon,  S. R. Gwaltney,  G. Hawkins,  J. E. Herr,  
 A. Heyden,  S. Hirata,  E. G. Hohenstein,  G. Kedziora,  F. J. Keil,  
 C. Kelley,  Jihan Kim,  R. A. King,  R. Z. Khaliullin,  P. P. Korambath,  
 W. Kurlancheek,  A. Laurent,  A. M. Lee,  M. S. Lee,  S. V. Levchenko,  
 Ching Yeh Lin,  D. Liotard,  E. Livshits,  R. C. Lochan,  I. Lotan,  
 L. A. Martinez-Martinez,  P. E. Maslen,  N. Nair,  D. P. O'Neill,  
 D. Neuhauser,  E. Neuscamman,  C. M. Oana,  R. Olivares-Amaya,  R. Olson,  
 T. M. Perrine,  B. Peters,  P. A. Pieniazek,  A. Prociuk,  Y. M. Rhee,  
 J. Ritchie,  M. A. Rohrdanz,  E. Rosta,  N. J. Russ,  H. F. Schaefer III,  
 M. W. Schmidt,  N. E. Schultz,  S. Sharma,  N. Shenvi,  C. D. Sherrill,  
 A. C. Simmonett,  A. Sodt,  T. Stein,  D. Stuck,  K. S. Thanthiriwatte,  
 V. Vanovschi,  L. Vogt,  Tao Wang,  A. Warshel,  M. A. Watson,  
 C. F. Williams,  Q. Wu,  X. Xu,  Jun Yang,  W. Zhang,  Yan Zhao

 Please cite Q-Chem as follows:
 Y. Shao et al., Mol. Phys. 113, 184-215 (2015)
 DOI: 10.1080/00268976.2014.952696

 Q-Chem 5.4.0 for Intel X86 EM64T Linux

 Parts of Q-Chem use Armadillo 9.800.1 (Horizon Scraper).
 http://arma.sourceforge.net/

 Q-Chem begins on Fri Jun 14 00:54:08 2024  

 Host: 
0

     Scratch files written to /expanse/lustre/scratch/selhajj/temp_project/qcscratch/31302385/qchem2434784//
 May1621 |scratch|qcdevops|jenkins|workspace|build_RNUM    
 Processing $rem in /cm/shared/apps/spack/cpu/opt/spack/linux-centos8-zen2/gcc-10.2.0/qchem-5.4-akfmr7b3t57bfs6qan3padb2wnb2i7cl/config/preferences:
 Processing $rem in /home/selhajj/.qchemrc:
 Symmetry turned off for PCM/SM12/SMD calculation

 Checking the input file for inconsistencies... 	...done.

--------------------------------------------------------------
User input:
--------------------------------------------------------------
$molecule
-2 1
C                 -7.1707500000      4.0854400000      0.7848400000
C                 -8.1555520000      3.3957530000      0.1027260000
C                 -7.8228460000      2.6310280000     -1.0350380000
C                 -5.8243800000      4.0384010000      0.3595660000
C                 -5.4859590000      3.2651600000     -0.7907060000
C                 -6.5070600000      2.5734490000     -1.4657300000
C                 -4.7961860000      4.7609800000      1.0737670000
C                 -3.4518030000      4.6480770000      0.5614480000
C                 -3.0892230000      3.9155950000     -0.5510920000
C                 -4.0954400000      3.1776490000     -1.2828450000
O                 -4.9871150000      5.4836800000      2.1104160000
O                 -3.8100420000      2.4905730000     -2.3003110000
O                 -2.5344930000      5.3550020000      1.2863060000
C                 -1.6592830000      3.8576410000     -1.0243860000
C                 -0.8708220000      2.6576640000     -0.4630220000
C                  0.5735160000      2.5992800000     -0.9739940000
C                  1.3836440000      1.4186880000     -0.4241760000
C                  2.8281490000      1.3701010000     -0.9377370000
C                  3.6479290000      0.1946110000     -0.3912770000
C                  5.0900210000      0.1569160000     -0.9118940000
C                  5.9184480000     -1.0135960000     -0.3675790000
C                  7.3587210000     -1.0336340000     -0.8986310000
C                  8.1795420000     -2.2013780000     -0.3491500000
S                  9.8900750000     -2.1654910000     -1.0222080000
C                 10.5922900000     -3.6468920000     -0.1871460000
C                 12.0548560000     -3.8509630000     -0.5851640000
C                 12.6843120000     -5.0780460000      0.0897750000
C                 14.1518590000     -5.2949800000     -0.2998150000
C                 14.7905380000     -6.5180920000      0.3694890000
C                 16.2580450000     -6.7349830000     -0.0193490000
C                 16.8967230000     -7.9579940000      0.6505360000
C                 18.3641040000     -8.1759720000      0.2629980000
C                 19.0013760000     -9.3994660000      0.9340700000
C                 20.4667340000     -9.6166300000      0.5470180000
H                 -7.4016980000      4.6796670000      1.6620270000
H                 -9.1865270000      3.4415000000      0.4428120000
H                 -8.5966610000      2.0885560000     -1.5705440000
H                 -6.2218170000      1.9928910000     -2.3360140000
H                 -3.1000470000      5.7584960000      1.9822450000
H                 -1.1442550000      4.7828410000     -0.7448520000
H                 -1.6659620000      3.7842070000     -2.1167210000
H                 -1.3966190000      1.7370210000     -0.7381030000
H                 -0.8702180000      2.7107250000      0.6323230000
H                  1.0861230000      3.5365920000     -0.7167520000
H                  0.5640210000      2.5490850000     -2.0710950000
H                  0.8753920000      0.4807620000     -0.6834140000
H                  1.3915610000      1.4658360000      0.6728700000
H                  3.3333230000      2.3108190000     -0.6808360000
H                  2.8184820000      1.3226770000     -2.0348140000
H                  3.1456310000     -0.7472100000     -0.6482820000
H                  3.6604750000      0.2413560000      0.7056310000
H                  5.5899570000      1.1005530000     -0.6568780000
H                  5.0761780000      0.1087770000     -2.0086240000
H                  5.4231110000     -1.9588860000     -0.6241660000
H                  5.9361010000     -0.9662110000      0.7289050000
H                  7.8548340000     -0.0909450000     -0.6404430000
H                  7.3423220000     -1.0873020000     -1.9932980000
H                  7.7180540000     -3.1554370000     -0.6220910000
H                  8.2344180000     -2.1499940000      0.7426690000
H                  9.9946360000     -4.5197020000     -0.4682070000
H                 10.5069900000     -3.5078700000      0.8951720000
H                 12.6299450000     -2.9556490000     -0.3222730000
H                 12.1223640000     -3.9592790000     -1.6738000000
H                 12.1041400000     -5.9731700000     -0.1693320000
H                 12.6104660000     -4.9711750000      1.1797780000
H                 14.7304940000     -4.3985980000     -0.0409940000
H                 14.2243220000     -5.4010820000     -1.3901340000
H                 14.2116260000     -7.4146600000      0.1114420000
H                 14.7170580000     -6.4126550000      1.4599180000
H                 16.8371550000     -5.8383910000      0.2385580000
H                 16.3318730000     -6.8407670000     -1.1098160000
H                 16.3174770000     -8.8544330000      0.3926870000
H                 16.8224270000     -7.8521560000      1.7408950000
H                 18.9451180000     -7.2808650000      0.5207320000
H                 18.4404220000     -8.2829290000     -0.8269370000
H                 18.4206760000    -10.2945040000      0.6770430000
H                 18.9247180000     -9.2933110000      2.0236630000
H                 20.5765520000     -9.7672430000     -0.5330670000
H                 20.8893710000    -10.4969250000      1.0434210000
H                 21.0854900000     -8.7562020000      0.8265360000
$end
$rem
MAX_SCF_CYCLES=200
BASIS  =  6-311++G(d,p)
GUI  =  2
JOB_TYPE  =  SP
METHOD  =  B3LYP
SCF_CONVERGENCE = 8
SCF_ALGORITHM = RCA_DIIS
scf_guess = GWH
THRESH = 14
SOLVENT_METHOD = PCM
$end
$pcm
theory = CPCM
$end
$solvent
dielectric 37.219
opticaldielectric 1.43
$end






--------------------------------------------------------------
 ----------------------------------------------------------------
             Standard Nuclear Orientation (Angstroms)
    I     Atom           X                Y                Z
 ----------------------------------------------------------------
    1      C      -7.1707500000     4.0854400000     0.7848400000
    2      C      -8.1555520000     3.3957530000     0.1027260000
    3      C      -7.8228460000     2.6310280000    -1.0350380000
    4      C      -5.8243800000     4.0384010000     0.3595660000
    5      C      -5.4859590000     3.2651600000    -0.7907060000
    6      C      -6.5070600000     2.5734490000    -1.4657300000
    7      C      -4.7961860000     4.7609800000     1.0737670000
    8      C      -3.4518030000     4.6480770000     0.5614480000
    9      C      -3.0892230000     3.9155950000    -0.5510920000
   10      C      -4.0954400000     3.1776490000    -1.2828450000
   11      O      -4.9871150000     5.4836800000     2.1104160000
   12      O      -3.8100420000     2.4905730000    -2.3003110000
   13      O      -2.5344930000     5.3550020000     1.2863060000
   14      C      -1.6592830000     3.8576410000    -1.0243860000
   15      C      -0.8708220000     2.6576640000    -0.4630220000
   16      C       0.5735160000     2.5992800000    -0.9739940000
   17      C       1.3836440000     1.4186880000    -0.4241760000
   18      C       2.8281490000     1.3701010000    -0.9377370000
   19      C       3.6479290000     0.1946110000    -0.3912770000
   20      C       5.0900210000     0.1569160000    -0.9118940000
   21      C       5.9184480000    -1.0135960000    -0.3675790000
   22      C       7.3587210000    -1.0336340000    -0.8986310000
   23      C       8.1795420000    -2.2013780000    -0.3491500000
   24      S       9.8900750000    -2.1654910000    -1.0222080000
   25      C      10.5922900000    -3.6468920000    -0.1871460000
   26      C      12.0548560000    -3.8509630000    -0.5851640000
   27      C      12.6843120000    -5.0780460000     0.0897750000
   28      C      14.1518590000    -5.2949800000    -0.2998150000
   29      C      14.7905380000    -6.5180920000     0.3694890000
   30      C      16.2580450000    -6.7349830000    -0.0193490000
   31      C      16.8967230000    -7.9579940000     0.6505360000
   32      C      18.3641040000    -8.1759720000     0.2629980000
   33      C      19.0013760000    -9.3994660000     0.9340700000
   34      C      20.4667340000    -9.6166300000     0.5470180000
   35      H      -7.4016980000     4.6796670000     1.6620270000
   36      H      -9.1865270000     3.4415000000     0.4428120000
   37      H      -8.5966610000     2.0885560000    -1.5705440000
   38      H      -6.2218170000     1.9928910000    -2.3360140000
   39      H      -3.1000470000     5.7584960000     1.9822450000
   40      H      -1.1442550000     4.7828410000    -0.7448520000
   41      H      -1.6659620000     3.7842070000    -2.1167210000
   42      H      -1.3966190000     1.7370210000    -0.7381030000
   43      H      -0.8702180000     2.7107250000     0.6323230000
   44      H       1.0861230000     3.5365920000    -0.7167520000
   45      H       0.5640210000     2.5490850000    -2.0710950000
   46      H       0.8753920000     0.4807620000    -0.6834140000
   47      H       1.3915610000     1.4658360000     0.6728700000
   48      H       3.3333230000     2.3108190000    -0.6808360000
   49      H       2.8184820000     1.3226770000    -2.0348140000
   50      H       3.1456310000    -0.7472100000    -0.6482820000
   51      H       3.6604750000     0.2413560000     0.7056310000
   52      H       5.5899570000     1.1005530000    -0.6568780000
   53      H       5.0761780000     0.1087770000    -2.0086240000
   54      H       5.4231110000    -1.9588860000    -0.6241660000
   55      H       5.9361010000    -0.9662110000     0.7289050000
   56      H       7.8548340000    -0.0909450000    -0.6404430000
   57      H       7.3423220000    -1.0873020000    -1.9932980000
   58      H       7.7180540000    -3.1554370000    -0.6220910000
   59      H       8.2344180000    -2.1499940000     0.7426690000
   60      H       9.9946360000    -4.5197020000    -0.4682070000
   61      H      10.5069900000    -3.5078700000     0.8951720000
   62      H      12.6299450000    -2.9556490000    -0.3222730000
   63      H      12.1223640000    -3.9592790000    -1.6738000000
   64      H      12.1041400000    -5.9731700000    -0.1693320000
   65      H      12.6104660000    -4.9711750000     1.1797780000
   66      H      14.7304940000    -4.3985980000    -0.0409940000
   67      H      14.2243220000    -5.4010820000    -1.3901340000
   68      H      14.2116260000    -7.4146600000     0.1114420000
   69      H      14.7170580000    -6.4126550000     1.4599180000
   70      H      16.8371550000    -5.8383910000     0.2385580000
   71      H      16.3318730000    -6.8407670000    -1.1098160000
   72      H      16.3174770000    -8.8544330000     0.3926870000
   73      H      16.8224270000    -7.8521560000     1.7408950000
   74      H      18.9451180000    -7.2808650000     0.5207320000
   75      H      18.4404220000    -8.2829290000    -0.8269370000
   76      H      18.4206760000   -10.2945040000     0.6770430000
   77      H      18.9247180000    -9.2933110000     2.0236630000
   78      H      20.5765520000    -9.7672430000    -0.5330670000
   79      H      20.8893710000   -10.4969250000     1.0434210000
   80      H      21.0854900000    -8.7562020000     0.8265360000
 ----------------------------------------------------------------
 Nuclear Repulsion Energy =        2980.54656233 hartrees
 There are      134 alpha and      134 beta electrons
 Requested basis set is 6-311++G(d,p)
 There are 441 shells and 1078 basis functions

 Total QAlloc Memory Limit   8000 MB
 Mega-Array Size       188 MB
 MEM_STATIC part       192 MB
 Discretize the solute cavity surface with Lebedev spheres
	Using 110 Lebedev grid points for each H atom
	Using 194 Lebedev grid points for other atoms
	Atomic van der Waals radii will be scaled by 1.20
 Remove points where switching function is < 1.0e-08
 Keep 5030 surface tesserae and discard 6626 interior tesserae
 Molecular Surface Area = 641.107 Angst**2
 A cutoff of  1.0D-14 yielded  43411 shell pairs
 There are    248046 function pairs (    261651 Cartesian)
 Smallest overlap matrix eigenvalue = 2.41E-07
 Linear dependence detected in AO basis
 Tighter screening thresholds may be required for diffuse basis sets
 Use S2THRESH > 14 and THRESH = 14 in case of SCF convergence issues
 Number of orthogonalized atomic orbitals = 1073
 Maximum deviation from orthogonality = 1.123E-10

 Scale SEOQF with 1.000000e-03/1.000000e-02/1.000000e-01

 Standard Electronic Orientation quadrupole field applied
 Nucleus-field energy     =     0.0000000224 hartrees
 Constructing guess Fock matrix from core Hamiltonian
 Applying Wolfsberg-Helmholtz approximation
 A restricted hybrid HF-DFT SCF calculation will be
 performed using Relaxed Constraint Minimization + Pulay DIIS
 Polarizable Continuum solvation model will be applied
 Exchange:     0.2000 Hartree-Fock + 0.0800 Slater + 0.7200 B88
 Correlation:  0.1900 VWN1RPA + 0.8100 LYP
 Using SG-1 standard quadrature grid
 SCF converges when DIIS error is below 1.0E-08
 using 8 threads for integral computing
 -------------------------------------------------------
 OpenMP Integral computing Module                
 Release: version 1.0, May 2013, Q-Chem Inc. Pittsburgh 
 -------------------------------------------------------
 ---------------------------------------
  Cycle       Energy         DIIS Error
 ---------------------------------------
    1   -1406.7141650264      1.24E-01
    2   -1580.3618331058      8.05E-02
Recomputing EXC -1630.141313 -2749.628946 -1580.361833 
Recomputing EXC -780.753268 -1738.625979 -1580.361833 
Recomputing EXC -627.786640 -1684.061205 -1580.361833 
    3    -627.7866400610      9.85E-02
    4   -2257.1096971019      6.81E-02
    5   -2409.4509550704      5.91E-02
Recomputing EXC -2159.456198 -2458.242324 -2409.450955 
Recomputing EXC -2041.310637 -2409.450955 -2409.450955 
Recomputing EXC -2041.310637 -2409.450955 -2409.450955 
    6   -2041.3106365184      5.90E-02
Recomputing EXC -1871.000757 -2092.069248 -2041.310637 
Recomputing EXC -1748.467334 -2041.310637 -2041.310637 
Recomputing EXC -1748.467334 -2041.310637 -2041.310637 
    7   -1748.4673341437      5.90E-02
Recomputing EXC -1667.362887 -1811.957831 -1748.467334 
Recomputing EXC -1522.149997 -1748.467334 -1748.467334 
Recomputing EXC -1522.149997 -1748.467334 -1748.467334 
    8   -1522.1499969836      5.90E-02
Recomputing EXC -1504.040810 -1618.210107 -1522.149997 
Recomputing EXC -1344.222699 -1523.408121 -1522.149997 
Recomputing EXC -1290.732696 -1522.149997 -1522.149997 
    9   -1290.7326959245      5.91E-02
   10   -1484.7790500227      4.07E-02
   11   -1862.3387133657      3.99E-02
   12   -2054.1206897089      3.75E-02
   13   -2159.5430733086      3.40E-02
Recomputing EXC -2102.586809 -2361.953460 -2159.543073 
Recomputing EXC -1770.872712 -2159.543073 -2159.543073 
Recomputing EXC -1770.872712 -2159.543073 -2159.543073 
   14   -1770.8727121127      3.67E-02
   15   -2148.4435955812      2.95E-02
Recomputing EXC -2145.731954 -2429.389416 -2148.443596 
Recomputing EXC -1898.598371 -2167.666082 -2148.443596 
Recomputing EXC -1610.959122 -2148.443596 -2148.443596 
   16   -1610.9591222913      3.15E-02
   17   -2133.9236073071      2.32E-02
   18   -2219.8208648909      2.09E-02
Recomputing EXC -2080.548142 -2559.374710 -2219.820865 
Recomputing EXC -1453.709445 -2220.948397 -2219.820865 
Recomputing EXC -1453.709445 -2220.948397 -2219.820865 
   19   -1453.7094448204      2.55E-02
   20   -2149.8283291758      1.79E-02
   21   -2225.9080962608      1.73E-02
Recomputing EXC -1897.469065 -2743.716568 -2225.908096 
Recomputing EXC -1160.781368 -2232.783007 -2225.908096 
Recomputing EXC -1160.781368 -2232.783007 -2225.908096 
   22   -1160.7813675498      2.26E-02
   23   -2073.4847441169      1.49E-02
Recomputing EXC -1935.563805 -2349.348391 -2073.484744 
Recomputing EXC -1315.510909 -2073.484744 -2073.484744 
Recomputing EXC -1315.510909 -2073.484744 -2073.484744 
   24   -1315.5109086133      1.84E-02
   25   -1863.0007778570      1.27E-02
Recomputing EXC -1822.699579 -2009.808009 -1863.000778 
Recomputing EXC -1497.535533 -1863.000778 -1863.000778 
Recomputing EXC -1497.535533 -1863.000778 -1863.000778 
   26   -1497.5355334583      1.33E-02
   27   -1735.2269062992      9.61E-03
Recomputing EXC -945.992713 -1843.130320 -1735.226906 
Recomputing EXC -452.138963 -1735.226906 -1735.226906 
Recomputing EXC -452.138963 -1735.226906 -1735.226906 
   28    -452.1389631532      1.07E-02
   29   -1155.5225553447      1.31E-02
   30   -1292.7730612701      8.74E-03
Recomputing EXC -1270.140868 -2171.283246 -1292.773061 
Recomputing EXC -1040.772056 -1310.375868 -1292.773061 
Recomputing EXC -1040.772056 -1310.375868 -1292.773061 
   31   -1040.7720555177      1.04E-02
   32   -2093.0496605292      8.08E-03
Recomputing EXC -1950.476698 -2239.234305 -2093.049661 
Recomputing EXC -1628.860109 -2093.049661 -2093.049661 
Recomputing EXC -1628.860109 -2093.049661 -2093.049661 
   33   -1628.8601094265      1.33E-02
   34   -1750.6263675948      1.40E-02
Recomputing EXC -1449.304320 -1863.366230 -1750.626368 
Recomputing EXC -1351.673437 -1750.626368 -1750.626368 
Recomputing EXC -1351.673437 -1750.626368 -1750.626368 
   35   -1351.6734371122      1.50E-02
Recomputing EXC -1315.983599 -1511.312436 -1351.673437 
Recomputing EXC -1039.102972 -1353.540566 -1351.673437 
Recomputing EXC -950.834253 -1351.673437 -1351.673437 
   36    -950.8342529012      1.54E-02
   37   -1092.7814381075      1.10E-02
   38   -1620.5273381030      9.05E-03
Recomputing EXC -1634.136684 -2102.579768 -1620.527338 
Recomputing EXC -1541.641286 -1636.382031 -1620.527338 
   39   -1621.5227951197      1.33E-02
Recomputing EXC -1588.938422 -2133.202694 -1621.522795 
   40   -1681.6372244319      1.31E-02
Recomputing EXC -1584.911383 -2146.793551 -1681.637224 
Recomputing EXC -1677.661601 -1681.637224 -1681.637224 
Recomputing EXC -1677.661601 -1681.637224 -1681.637224 
   41   -1677.6616014657      1.44E-02
   42   -2301.8952201597      1.10E-02
Recomputing EXC -2141.985097 -2432.194710 -2301.895220 
Recomputing EXC -1835.817172 -2301.895220 -2301.895220 
Recomputing EXC -1835.817172 -2301.895220 -2301.895220 
   43   -1835.8171716087      1.44E-02
   44   -2053.4855737212      1.48E-02
Recomputing EXC -1883.116228 -2428.976333 -2053.485574 
Recomputing EXC -1432.046767 -2053.485574 -2053.485574 
Recomputing EXC -1432.046767 -2053.485574 -2053.485574 
   45   -1432.0467667683      2.00E-02
   46   -2113.0424240992      1.39E-02
   47   -2179.6281787145      1.53E-02
Recomputing EXC -1912.116854 -2725.964169 -2179.628179 
Recomputing EXC -1115.115494 -2189.125493 -2179.628179 
Recomputing EXC -1115.115494 -2189.125493 -2179.628179 
   48   -1115.1154937864      2.02E-02
   49   -2130.7300453828      1.30E-02
Recomputing EXC -2127.111821 -2426.532303 -2130.730045 
Recomputing EXC -1836.697835 -2155.242379 -2130.730045 
Recomputing EXC -1491.792951 -2130.730045 -2130.730045 
   50   -1491.7929513825      1.69E-02 Done RCA. Switching to DIIS
   51    1029.8065853203      5.98E-02
   52   -1054.3070679451      4.05E-02
   53    -954.0433261726      4.27E-02
   54    -965.5492871393      4.36E-02
   55   -1411.6576792032      3.00E-02
   56   -1421.7039562051      2.53E-02
   57   -1491.6231964690      2.36E-02
   58   -1372.2978983919      3.47E-02
   59   -1445.2567073295      2.88E-02
   60   -1249.6605834088      3.56E-02
   61   -1273.1845058028      3.40E-02
   62   -1161.0894789753      3.78E-02
   63    -968.1501764595      4.07E-02
   64    -757.5135372399      5.25E-02
   65    -204.6926853483      6.10E-02
   66    -733.5804338833      6.26E-02
   67   -1254.4315634729      4.51E-02
   68   -1403.0500206428      3.70E-02
   69   -1502.8231601808      3.24E-02
   70   -1530.7505306496      2.93E-02
   71   -1571.0829176346      2.63E-02
   72   -1597.5944798663      2.47E-02
   73   -1461.4383233908      3.30E-02
   74   -1733.7375560184      1.42E-02
   75   -1752.7063498492      1.43E-02
   76   -1787.2630239339      7.20E-03
   77   -1793.4667550263      3.58E-03
   78   -1794.3176998380      2.90E-03
   79   -1795.3498764873      9.45E-04
   80   -1795.4255101197      6.31E-04
   81   -1795.4699163424      2.13E-04
   82   -1795.4753223512      8.20E-05
   83   -1795.4761247283      2.68E-05
   84   -1795.4762166730      1.09E-05
   85   -1795.4762335142      1.85E-06
   86   -1795.4762339511      1.08E-06
   87   -1795.4762340597      3.32E-07
   88   -1795.4762335922      1.18E-07
   89   -1795.4762339042      6.09E-08
   90   -1795.4762343617      2.14E-08
   91   -1795.4762337779      6.67E-09 Convergence criterion met
 ---------------------------------------

************** Final PCM Free Energy Summary **************
 G_electrostatic  =      -0.29568837 hartree =    -185.54724996 kcal/mol
 G_cavitation     =       0.00000000 hartree =       0.00000000 kcal/mol
 G_dispersion     =       0.00000000 hartree =       0.00000000 kcal/mol
 G_repulsion      =       0.00000000 hartree =       0.00000000 kcal/mol
 --------------------------------------------------
 Non-electrostatic Free Energy =       0.00000000 hartree =       0.00000000 kcal/mol
 Total                         =      -0.29568837 hartree =    -185.54724996 kcal/mol
 --------------------------------------------------
 SCF Energy (H0 + V/2)                       =   -1795.47623378 
 Solute Internal Energy (H0)                 =   -1795.18054541 
 Total Free Energy (H0 + V/2 + non-elec)     =   -1795.47623378 hartree
                                             = -1126678.34165104 kcal/mol
***********************************************************

 SCF time:  CPU 37418.88 s  wall 6539.59 s
 SCF   energy in the final basis set = -1795.47623378
 Total energy in the final basis set = -1795.47623378
 
 --------------------------------------------------------------
 
                    Orbital Energies (a.u.)
 --------------------------------------------------------------
 
 Alpha MOs
 -- Occupied --
-88.8331 -19.1130 -19.0248 -19.0184 -10.1901 -10.1897 -10.1727 -10.1710
-10.1653 -10.1647 -10.1597 -10.1595 -10.1586 -10.1576 -10.1565 -10.1554
-10.1551 -10.1551 -10.1549 -10.1548 -10.1534 -10.1522 -10.1515 -10.1507
-10.1483 -10.1453 -10.1444 -10.1428 -10.1422 -10.1406 -10.1394 -10.1313
-10.1279 -10.1199  -7.9194  -5.8832  -5.8799  -5.8732  -1.0296  -0.9489
 -0.9406  -0.8239  -0.8192  -0.8085  -0.8017  -0.7940  -0.7828  -0.7731
 -0.7610  -0.7472  -0.7331  -0.7195  -0.7167  -0.7005  -0.6825  -0.6627
 -0.6419  -0.6254  -0.6138  -0.5975  -0.5854  -0.5789  -0.5775  -0.5750
 -0.5696  -0.5685  -0.5663  -0.5633  -0.5515  -0.5349  -0.5022  -0.4839
 -0.4808  -0.4719  -0.4705  -0.4661  -0.4521  -0.4488  -0.4407  -0.4363
 -0.4290  -0.4273  -0.4230  -0.4223  -0.4218  -0.4168  -0.4127  -0.4076
 -0.4005  -0.3991  -0.3938  -0.3924  -0.3907  -0.3832  -0.3811  -0.3755
 -0.3688  -0.3657  -0.3635  -0.3602  -0.3575  -0.3517  -0.3508  -0.3486
 -0.3437  -0.3399  -0.3372  -0.3362  -0.3309  -0.3284  -0.3258  -0.3232
 -0.3229  -0.3196  -0.3189  -0.3171  -0.3167  -0.3152  -0.3148  -0.3126
 -0.3105  -0.3087  -0.3065  -0.3025  -0.2997  -0.2946  -0.2871  -0.2285
 -0.2249  -0.2239  -0.2136  -0.1964  -0.1916  -0.1006
 -- Virtual --
 -0.0040  -0.0017   0.0006   0.0024   0.0054   0.0084   0.0108   0.0123
  0.0129   0.0142   0.0155   0.0180   0.0191   0.0211   0.0239   0.0255
  0.0271   0.0315   0.0319   0.0340   0.0373   0.0398   0.0450   0.0473
  0.0491   0.0496   0.0501   0.0532   0.0540   0.0560   0.0562   0.0589
  0.0611   0.0622   0.0636   0.0646   0.0656   0.0691   0.0719   0.0765
  0.0775   0.0781   0.0793   0.0813   0.0857   0.0881   0.0895   0.0918
  0.0933   0.0947   0.0982   0.0990   0.1019   0.1032   0.1082   0.1094
  0.1123   0.1129   0.1153   0.1161   0.1171   0.1189   0.1199   0.1225
  0.1238   0.1253   0.1272   0.1279   0.1290   0.1293   0.1309   0.1313
  0.1325   0.1333   0.1338   0.1341   0.1361   0.1365   0.1368   0.1377
  0.1387   0.1401   0.1404   0.1428   0.1444   0.1450   0.1465   0.1472
  0.1476   0.1499   0.1500   0.1527   0.1545   0.1553   0.1565   0.1573
  0.1591   0.1596   0.1615   0.1622   0.1639   0.1643   0.1654   0.1661
  0.1676   0.1686   0.1690   0.1701   0.1728   0.1730   0.1740   0.1768
  0.1769   0.1780   0.1813   0.1819   0.1822   0.1837   0.1868   0.1871
  0.1881   0.1895   0.1906   0.1947   0.1965   0.1971   0.1977   0.1982
  0.1996   0.2017   0.2027   0.2068   0.2072   0.2088   0.2105   0.2114
  0.2115   0.2144   0.2159   0.2166   0.2186   0.2200   0.2208   0.2222
  0.2227   0.2240   0.2261   0.2293   0.2303   0.2313   0.2332   0.2351
  0.2371   0.2421   0.2428   0.2438   0.2477   0.2490   0.2520   0.2534
  0.2553   0.2555   0.2566   0.2574   0.2577   0.2590   0.2613   0.2632
  0.2634   0.2663   0.2680   0.2696   0.2706   0.2732   0.2737   0.2781
  0.2803   0.2825   0.2829   0.2845   0.2860   0.2875   0.2890   0.2906
  0.2942   0.2974   0.2984   0.3021   0.3041   0.3063   0.3084   0.3100
  0.3112   0.3132   0.3151   0.3170   0.3191   0.3205   0.3217   0.3237
  0.3241   0.3266   0.3272   0.3280   0.3294   0.3313   0.3316   0.3336
  0.3353   0.3366   0.3400   0.3412   0.3437   0.3470   0.3481   0.3499
  0.3516   0.3539   0.3547   0.3561   0.3586   0.3607   0.3638   0.3648
  0.3656   0.3675   0.3691   0.3737   0.3774   0.3806   0.3825   0.3850
  0.3871   0.3902   0.3928   0.3943   0.3985   0.4018   0.4056   0.4074
  0.4082   0.4133   0.4141   0.4169   0.4170   0.4223   0.4240   0.4270
  0.4297   0.4341   0.4367   0.4427   0.4429   0.4454   0.4489   0.4495
  0.4545   0.4572   0.4581   0.4593   0.4624   0.4659   0.4702   0.4723
  0.4727   0.4781   0.4818   0.4831   0.4884   0.4972   0.4999   0.5049
  0.5185   0.5198   0.5210   0.5340   0.5376   0.5402   0.5420   0.5490
  0.5517   0.5562   0.5573   0.5664   0.5691   0.5754   0.5781   0.5820
  0.5852   0.5891   0.5950   0.5984   0.6029   0.6069   0.6092   0.6138
  0.6186   0.6230   0.6258   0.6295   0.6352   0.6411   0.6418   0.6453
  0.6496   0.6533   0.6544   0.6602   0.6607   0.6630   0.6638   0.6646
  0.6702   0.6722   0.6731   0.6755   0.6791   0.6806   0.6821   0.6837
  0.6846   0.6861   0.6908   0.6917   0.6932   0.6956   0.6986   0.7003
  0.7017   0.7065   0.7078   0.7090   0.7117   0.7130   0.7176   0.7186
  0.7200   0.7210   0.7257   0.7261   0.7284   0.7295   0.7331   0.7344
  0.7406   0.7431   0.7450   0.7483   0.7529   0.7544   0.7559   0.7570
  0.7601   0.7611   0.7633   0.7638   0.7677   0.7681   0.7725   0.7741
  0.7751   0.7764   0.7780   0.7806   0.7830   0.7853   0.7873   0.7897
  0.7920   0.7931   0.7954   0.7974   0.8001   0.8015   0.8035   0.8049
  0.8107   0.8131   0.8157   0.8197   0.8209   0.8260   0.8304   0.8340
  0.8424   0.8462   0.8501   0.8542   0.8611   0.8645   0.8762   0.8819
  0.8860   0.8973   0.9009   0.9123   0.9216   0.9270   0.9353   0.9466
  0.9502   0.9554   0.9658   0.9667   0.9708   0.9712   0.9791   0.9856
  0.9864   0.9943   1.0049   1.0101   1.0158   1.0183   1.0204   1.0253
  1.0357   1.0390   1.0410   1.0430   1.0481   1.0499   1.0522   1.0554
  1.0574   1.0598   1.0619   1.0648   1.0670   1.0709   1.0751   1.0811
  1.0870   1.0936   1.1021   1.1032   1.1160   1.1202   1.1236   1.1284
  1.1333   1.1398   1.1461   1.1526   1.1633   1.1725   1.1780   1.1842
  1.1912   1.2086   1.2127   1.2191   1.2297   1.2457   1.2501   1.2555
  1.2560   1.2561   1.2573   1.2580   1.2630   1.2667   1.2766   1.2778
  1.2784   1.2793   1.2815   1.2831   1.2871   1.2899   1.2901   1.2919
  1.2942   1.2989   1.3124   1.3201   1.3236   1.3268   1.3291   1.3348
  1.3452   1.3613   1.3980   1.4096   1.4115   1.4326   1.4656   1.4699
  1.4803   1.4812   1.4844   1.4880   1.4960   1.5020   1.5065   1.5094
  1.5213   1.5264   1.5304   1.5398   1.5434   1.5506   1.5553   1.5622
  1.5633   1.5682   1.5697   1.5717   1.5779   1.5797   1.5829   1.5846
  1.5920   1.5932   1.5986   1.6004   1.6024   1.6057   1.6076   1.6148
  1.6207   1.6215   1.6281   1.6296   1.6321   1.6376   1.6440   1.6463
  1.6485   1.6549   1.6583   1.6606   1.6641   1.6698   1.6712   1.6718
  1.6751   1.6778   1.6788   1.6799   1.6833   1.6849   1.6910   1.6929
  1.6938   1.6949   1.6987   1.6996   1.7021   1.7075   1.7104   1.7174
  1.7204   1.7265   1.7287   1.7372   1.7377   1.7453   1.7466   1.7507
  1.7523   1.7537   1.7549   1.7569   1.7590   1.7620   1.7633   1.7689
  1.7714   1.7733   1.7852   1.7872   1.7883   1.7914   1.7953   1.7994
  1.8063   1.8261   1.8283   1.8301   1.8324   1.8350   1.8395   1.8519
  1.8536   1.8607   1.8651   1.8654   1.8687   1.8756   1.8807   1.8831
  1.8883   1.8899   1.8928   1.9034   1.9071   1.9107   1.9147   1.9247
  1.9302   1.9372   1.9398   1.9487   1.9548   1.9612   1.9621   1.9677
  1.9714   1.9766   1.9830   2.0003   2.0044   2.0083   2.0118   2.0184
  2.0271   2.0313   2.0416   2.0442   2.0588   2.0642   2.0733   2.0887
  2.0915   2.0966   2.1071   2.1127   2.1158   2.1219   2.1249   2.1338
  2.1378   2.1579   2.1612   2.1720   2.1736   2.1827   2.1906   2.2004
  2.2015   2.2051   2.2060   2.2170   2.2213   2.2247   2.2394   2.2442
  2.2462   2.2582   2.2622   2.2647   2.2682   2.2759   2.2794   2.2835
  2.2880   2.3020   2.3052   2.3069   2.3170   2.3238   2.3299   2.3327
  2.3389   2.3444   2.3486   2.3556   2.3604   2.3695   2.3747   2.3757
  2.3817   2.3885   2.3955   2.4004   2.4082   2.4087   2.4126   2.4179
  2.4265   2.4309   2.4351   2.4432   2.4440   2.4468   2.4530   2.4630
  2.4809   2.4932   2.4944   2.4961   2.4987   2.5090   2.5193   2.5248
  2.5317   2.5423   2.5481   2.5489   2.5529   2.5573   2.5590   2.5599
  2.5616   2.5663   2.5685   2.5805   2.5823   2.5866   2.5948   2.5980
  2.6010   2.6044   2.6096   2.6193   2.6218   2.6271   2.6294   2.6374
  2.6431   2.6438   2.6534   2.6592   2.6655   2.6690   2.6718   2.6729
  2.6888   2.6893   2.6922   2.6975   2.7015   2.7139   2.7224   2.7239
  2.7276   2.7318   2.7331   2.7401   2.7434   2.7463   2.7522   2.7601
  2.7634   2.7712   2.7731   2.7785   2.7886   2.7939   2.7984   2.8010
  2.8069   2.8139   2.8188   2.8217   2.8246   2.8284   2.8305   2.8320
  2.8337   2.8425   2.8460   2.8484   2.8515   2.8563   2.8698   2.8769
  2.8841   2.8909   2.9055   2.9134   2.9162   2.9297   2.9372   2.9380
  2.9395   2.9464   2.9552   2.9594   2.9628   2.9655   2.9709   2.9765
  2.9778   2.9782   2.9884   2.9900   2.9933   2.9945   2.9986   3.0120
  3.0314   3.0388   3.0409   3.0442   3.0832   3.0861   3.0933   3.1037
  3.1069   3.1143   3.1146   3.1199   3.1266   3.1431   3.1533   3.1675
  3.1817   3.1934   3.2084   3.2182   3.2240   3.2369   3.2530   3.2641
  3.2805   3.3067   3.3241   3.3407   3.3571   3.3779   3.3796   3.3868
  3.4049   3.4261   3.4464   3.4634   3.4793   3.4926   3.5015   3.5169
  3.5259   3.5335   3.5595   3.5656   3.5939   3.6121   3.6416   3.7006
  3.7438   3.7503   3.7772   3.7845   3.7855   3.7933   3.8048   3.8131
  3.8143   3.8185   3.8309   3.8411   3.8424   3.8442   3.8519   3.8619
  3.8659   3.8700   3.8810   3.8814   3.9007   3.9112   3.9198   3.9452
  3.9754   4.0628   4.0636   4.0728   4.0747   4.0775   4.0973   4.1003
  4.1099   4.1339   4.1401   4.1869   4.1893   4.2371   4.2451   4.2491
  4.2527   4.3075   4.3138   4.3489   4.3552   4.3741   4.3824   4.4146
  4.4225   4.4797   4.8739   4.8852   5.0542   5.1498   5.1787   5.3393
  5.3639   5.5658   5.7301   5.8393   5.8866   7.9597  17.3889  17.4874
 17.5874  23.6067  23.8226  23.8470  23.8629  23.8809  23.8886  23.8946
 23.8982  23.8987  23.9007  23.9041  23.9079  23.9095  23.9167  23.9184
 23.9264  23.9305  23.9334  23.9342  23.9401  23.9744  23.9767  23.9861
 23.9942  24.0060  24.0266  24.0760  24.1435  24.1699  24.2188  49.9887
 50.1073  50.1607 189.1313
 --------------------------------------------------------------
 
          Ground-State Mulliken Net Atomic Charges

     Atom                 Charge (a.u.)
  ----------------------------------------
      1 C                    -0.065776
      2 C                    -0.414480
      3 C                    -0.509446
      4 C                     0.405081
      5 C                    -0.076717
      6 C                     0.014128
      7 C                    -0.855092
      8 C                    -0.601982
      9 C                     1.817192
     10 C                    -0.675780
     11 O                    -0.742018
     12 O                    -0.662323
     13 O                    -0.346241
     14 C                    -0.344189
     15 C                    -0.712095
     16 C                    -0.252380
     17 C                    -0.142688
     18 C                    -0.087350
     19 C                    -0.278437
     20 C                    -0.107646
     21 C                    -0.348731
     22 C                    -0.189888
     23 C                    -0.832353
     24 S                    -0.427476
     25 C                    -0.727004
     26 C                    -0.008465
     27 C                     0.009007
     28 C                     0.010321
     29 C                     0.020455
     30 C                    -0.003800
     31 C                    -0.262610
     32 C                    -0.458343
     33 C                    -0.283527
     34 C                    -0.714280
     35 H                     0.142108
     36 H                     0.168524
     37 H                     0.161992
     38 H                     0.141685
     39 H                     0.287357
     40 H                     0.199849
     41 H                     0.171261
     42 H                     0.174832
     43 H                     0.159357
     44 H                     0.112379
     45 H                     0.116154
     46 H                     0.128499
     47 H                     0.129119
     48 H                     0.134556
     49 H                     0.135741
     50 H                     0.135543
     51 H                     0.135516
     52 H                     0.136443
     53 H                     0.136582
     54 H                     0.145266
     55 H                     0.145270
     56 H                     0.132594
     57 H                     0.133027
     58 H                     0.192862
     59 H                     0.192085
     60 H                     0.200358
     61 H                     0.200441
     62 H                     0.137791
     63 H                     0.137819
     64 H                     0.143601
     65 H                     0.143153
     66 H                     0.137541
     67 H                     0.137370
     68 H                     0.133538
     69 H                     0.133222
     70 H                     0.133038
     71 H                     0.132824
     72 H                     0.132603
     73 H                     0.132321
     74 H                     0.129394
     75 H                     0.129149
     76 H                     0.135536
     77 H                     0.135343
     78 H                     0.144784
     79 H                     0.151686
     80 H                     0.144817
  ----------------------------------------
  Sum of atomic charges =    -2.000000

 -----------------------------------------------------------------
                    Cartesian Multipole Moments
 -----------------------------------------------------------------
    Charge (ESU x 10^10)
                -9.6064
    Dipole Moment (Debye)
         X      42.4727      Y     -39.2634      Z       2.8619
       Tot      57.9114
    Quadrupole Moments (Debye-Ang)
        XX    -470.3379     XY     158.6385     YY    -389.0690
        XZ      18.7728     YZ     -18.2973     ZZ    -268.1866
    Octopole Moments (Debye-Ang^2)
       XXX   -2074.2520    XXY    -896.2629    XYY    -121.7773
       YYY    -498.3882    XXZ     222.7945    XYZ      71.7802
       YYZ    -102.8012    XZZ    -850.3243    YZZ     -13.4462
       ZZZ     184.4849
    Hexadecapole Moments (Debye-Ang^3)
      XXXX -146874.9529   XXXY   33010.5202   XXYY  -30940.0545
      XYYY   32274.6509   YYYY  -34061.2120   XXXZ    2386.8532
      XXYZ    -665.2826   XYYZ     609.7694   YYYZ    -570.8727
      XXZZ  -23684.8610   XYZZ   10245.3578   YYZZ   -5870.5134
      XZZZ     -99.3084   YZZZ     217.7561   ZZZZ   -1849.6004
 -----------------------------------------------------------------
 Total job time:  6550.39s(wall), 37434.86s(cpu) 
 Fri Jun 14 02:43:18 2024

        *************************************************************
        *                                                           *
        *  Thank you very much for using Q-Chem.  Have a nice day.  *
        *                                                           *
        *************************************************************


