
Running Job 1 of 1 108-CPCM.in
qchem 108-CPCM.in_2343878.0 /expanse/lustre/scratch/selhajj/temp_project/qcscratch/31246333/qchem2343878/ 0
/cm/shared/apps/spack/cpu/opt/spack/linux-centos8-zen2/gcc-10.2.0/qchem-5.4-akfmr7b3t57bfs6qan3padb2wnb2i7cl/exe/qcprog.exe_s 108-CPCM.in_2343878.0 /expanse/lustre/scratch/selhajj/temp_project/qcscratch/31246333/qchem2343878/
                  Welcome to Q-Chem
     A Quantum Leap Into The Future Of Chemistry


 Q-Chem 5.4, Q-Chem, Inc., Pleasanton, CA (2021)

 License issued to: University of California, San Diego (site)

 E. Epifanovsky,  A. T. B. Gilbert,  Xintian Feng,  Joonho Lee,  Yuezhi Mao,  
 N. Mardirossian,  P. Pokhilko,  A. White,  M. Wormit,  M. P. Coons,  
 A. L. Dempwolff,  Zhengting Gan,  D. Hait,  P. R. Horn,  L. D. Jacobson,  
 I. Kaliman,  J. Kussmann,  A. W. Lange,  Ka Un Lao,  D. S. Levine,  Jie Liu,  
 S. C. McKenzie,  A. F. Morrison,  K. Nanda,  F. Plasser,  D. R. Rehn,  
 M. L. Vidal,  Zhi-Qiang You,  Ying Zhu,  B. Alam,  B. Albrecht,  
 A. Aldossary,  E. Alguire,  J. H. Andersen,  D. Barton,  K. Begam,  A. Behn,  
 Y. A. Bernard,  E. J. Berquist,  H. Burton,  A. Carreras,  K. Carter-Fenk,  
 R. Chakraborty,  A. D. Chien,  K. D. Closser,  V. Cofer-Shabica,  
 S. Dasgupta,  Jia Deng,  M. de Wergifosse,  M. Diedenhofen,  Hainam Do,  
 S. Ehlert,  Po-Tung Fang,  S. Fatehi,  Qingguo Feng,  J. Gayvert,  
 Qinghui Ge,  G. Gidofalvi,  M. Goldey,  J. Gomes,  C. Gonzalez-Espinoza,  
 S. Gulania,  A. Gunina,  M. W. D. Hanson-Heine,  P. H. P. Harbach,  
 A. W. Hauser,  M. F. Herbst,  M. Hernandez Vera,  M. Hodecker,  
 Z. C. Holden,  S. Houck,  Xunkun Huang,  Kerwin Hui,  B. C. Huynh,  
 M. Ivanov,  Hyunjun Ji,  Hanjie Jiang,  B. Kaduk,  S. Kaehler,  
 K. Khistyaev,  Jaehoon Kim,  P. Klunzinger,  Z. Koczor-Benda,  
 Joong Hoon Koh,  D. Kosenkov,  L. Koulias,  T. Kowalczyk,  C. M. Krauter,  
 K. Kue,  A. Kunitsa,  T. Kus,  A. Landau,  K. V. Lawler,  D. Lefrancois,  
 S. Lehtola,  Rain Li,  Yi-Pei Li,  Jiashu Liang,  M. Liebenthal,  
 Hung-Hsuan Lin,  You-Sheng Lin,  Fenglai Liu,  Kuan-Yu Liu,  
 M. Loipersberger,  A. Luenser,  A. Manjanath,  P. Manohar,  E. Mansoor,  
 S. F. Manzer,  Shan-Ping Mao,  A. V. Marenich,  T. Markovich,  S. Mason,  
 S. A. Maurer,  P. F. McLaughlin,  M. F. S. J. Menger,  J.-M. Mewes,  
 S. A. Mewes,  P. Morgante,  J. W. Mullinax,  T. S. Nguyen-Beck,  
 K. J. Oosterbaan,  G. Paran,  Alexander C. Paul,  Suranjan K. Paul,  
 F. Pavosevic,  Zheng Pei,  S. Prager,  E. I. Proynov,  E. Ramos,  B. Rana,  
 A. E. Rask,  A. Rettig,  R. M. Richard,  F. Rob,  E. Rossomme,  T. Scheele,  
 M. Scheurer,  M. Schneider,  N. Sergueev,  S. M. Sharada,  W. Skomorowski,  
 D. W. Small,  C. J. Stein,  Yu-Chuan Su,  E. J. Sundstrom,  Zhen Tao,  
 J. Thirman,  T. Tsuchimochi,  N. M. Tubman,  S. P. Veccham,  O. Vydrov,  
 J. Wenzel,  J. Witte,  A. Yamada,  Kun Yao,  S. Yeganeh,  S. R. Yost,  
 A. Zech,  Igor Ying Zhang,  Xing Zhang,  Yu Zhang,  D. Zuev,  
 A. Aspuru-Guzik,  A. T. Bell,  N. A. Besley,  K. B. Bravaya,  B. R. Brooks,  
 D. Casanova,  Jeng-Da Chai,  S. Coriani,  C. J. Cramer,  
 A. E. DePrince, III,  R. A. DiStasio Jr.,  A. Dreuw,  B. D. Dunietz,  
 T. R. Furlani,  W. A. Goddard III,  S. Grimme,  S. Hammes-Schiffer,  
 T. Head-Gordon,  W. J. Hehre,  Chao-Ping Hsu,  T.-C. Jagau,  Yousung Jung,  
 A. Klamt,  Jing Kong,  D. S. Lambrecht,  WanZhen Liang,  N. J. Mayhall,  
 C. W. McCurdy,  J. B. Neaton,  C. Ochsenfeld,  J. A. Parkhill,  R. Peverati,  
 V. A. Rassolov,  Yihan Shao,  L. V. Slipchenko,  T. Stauch,  R. P. Steele,  
 J. E. Subotnik,  A. J. W. Thom,  A. Tkatchenko,  D. G. Truhlar,  
 T. Van Voorhis,  T. A. Wesolowski,  K. B. Whaley,  H. L. Woodcock III,  
 P. M. Zimmerman,  S. Faraji,  P. M. W. Gill,  M. Head-Gordon,  
 J. M. Herbert,  A. I. Krylov

 Contributors to earlier versions of Q-Chem not listed above: 
 R. D. Adamson,  B. Austin,  R. Baer,  J. Baker,  G. J. O. Beran,  
 K. Brandhorst,  S. T. Brown,  E. F. C. Byrd,  A. K. Chakraborty,  
 G. K. L. Chan,  Chun-Min Chang,  Yunqing Chen,  C.-L. Cheng,  
 Siu Hung Chien,  D. M. Chipman,  D. L. Crittenden,  H. Dachsel,  
 R. J. Doerksen,  A. D. Dutoi,  R. G. Edgar,  J. Fosso-Tande,  
 L. Fusti-Molnar,  D. Ghosh,  A. Ghysels,  A. Golubeva-Zadorozhnaya,  
 J. Gonthier,  M. S. Gordon,  S. R. Gwaltney,  G. Hawkins,  J. E. Herr,  
 A. Heyden,  S. Hirata,  E. G. Hohenstein,  G. Kedziora,  F. J. Keil,  
 C. Kelley,  Jihan Kim,  R. A. King,  R. Z. Khaliullin,  P. P. Korambath,  
 W. Kurlancheek,  A. Laurent,  A. M. Lee,  M. S. Lee,  S. V. Levchenko,  
 Ching Yeh Lin,  D. Liotard,  E. Livshits,  R. C. Lochan,  I. Lotan,  
 L. A. Martinez-Martinez,  P. E. Maslen,  N. Nair,  D. P. O'Neill,  
 D. Neuhauser,  E. Neuscamman,  C. M. Oana,  R. Olivares-Amaya,  R. Olson,  
 T. M. Perrine,  B. Peters,  P. A. Pieniazek,  A. Prociuk,  Y. M. Rhee,  
 J. Ritchie,  M. A. Rohrdanz,  E. Rosta,  N. J. Russ,  H. F. Schaefer III,  
 M. W. Schmidt,  N. E. Schultz,  S. Sharma,  N. Shenvi,  C. D. Sherrill,  
 A. C. Simmonett,  A. Sodt,  T. Stein,  D. Stuck,  K. S. Thanthiriwatte,  
 V. Vanovschi,  L. Vogt,  Tao Wang,  A. Warshel,  M. A. Watson,  
 C. F. Williams,  Q. Wu,  X. Xu,  Jun Yang,  W. Zhang,  Yan Zhao

 Please cite Q-Chem as follows:
 Y. Shao et al., Mol. Phys. 113, 184-215 (2015)
 DOI: 10.1080/00268976.2014.952696

 Q-Chem 5.4.0 for Intel X86 EM64T Linux

 Parts of Q-Chem use Armadillo 9.800.1 (Horizon Scraper).
 http://arma.sourceforge.net/

 Q-Chem begins on Tue Jun 11 17:39:32 2024  

 Host: 
0

     Scratch files written to /expanse/lustre/scratch/selhajj/temp_project/qcscratch/31246333/qchem2343878//
 May1621 |scratch|qcdevops|jenkins|workspace|build_RNUM    
 Processing $rem in /cm/shared/apps/spack/cpu/opt/spack/linux-centos8-zen2/gcc-10.2.0/qchem-5.4-akfmr7b3t57bfs6qan3padb2wnb2i7cl/config/preferences:
 Processing $rem in /home/selhajj/.qchemrc:
 Symmetry turned off for PCM/SM12/SMD calculation

 Checking the input file for inconsistencies... 	...done.

--------------------------------------------------------------
User input:
--------------------------------------------------------------
$molecule
0 1
C                 -1.7480460000     -3.7197970000      1.2984710000
C                 -0.3208420000     -3.9766060000      1.0488980000
C                  0.4573230000     -2.9906530000      0.5900680000
C                 -0.0783770000     -1.6202200000      0.3183040000
C                 -1.5079370000     -1.3418070000      0.5621360000
C                 -2.2826210000     -2.3500090000      1.0269190000
O                 -2.5201460000     -4.5719270000      1.7176000000
O                  0.6813050000     -0.7585130000     -0.1009210000
O                 -3.5933950000     -2.2105100000      1.2841470000
C                 -2.0207290000      0.0385370000      0.2827110000
H                  0.0391260000     -4.9779920000      1.2544530000
H                  1.5144140000     -3.1224850000      0.3884950000
H                 -1.4862750000      0.7756720000      0.8885110000
H                 -3.0864860000      0.1092210000      0.4942640000
H                 -1.8440470000      0.3084610000     -0.7621020000
H                 -3.9062990000     -3.0771430000      1.6031750000
$end
$rem
MAX_SCF_CYCLES=200
BASIS  =  6-311++G(d,p)
GUI  =  2
JOB_TYPE  =  SP
METHOD  =  B3LYP
SOLVENT_METHOD = PCM
$end
$pcm
theory = CPCM
$end
$solvent
dielectric 37.219
opticaldielectric 1.43
$end





--------------------------------------------------------------
 ----------------------------------------------------------------
             Standard Nuclear Orientation (Angstroms)
    I     Atom           X                Y                Z
 ----------------------------------------------------------------
    1      C      -1.7480460000    -3.7197970000     1.2984710000
    2      C      -0.3208420000    -3.9766060000     1.0488980000
    3      C       0.4573230000    -2.9906530000     0.5900680000
    4      C      -0.0783770000    -1.6202200000     0.3183040000
    5      C      -1.5079370000    -1.3418070000     0.5621360000
    6      C      -2.2826210000    -2.3500090000     1.0269190000
    7      O      -2.5201460000    -4.5719270000     1.7176000000
    8      O       0.6813050000    -0.7585130000    -0.1009210000
    9      O      -3.5933950000    -2.2105100000     1.2841470000
   10      C      -2.0207290000     0.0385370000     0.2827110000
   11      H       0.0391260000    -4.9779920000     1.2544530000
   12      H       1.5144140000    -3.1224850000     0.3884950000
   13      H      -1.4862750000     0.7756720000     0.8885110000
   14      H      -3.0864860000     0.1092210000     0.4942640000
   15      H      -1.8440470000     0.3084610000    -0.7621020000
   16      H      -3.9062990000    -3.0771430000     1.6031750000
 ----------------------------------------------------------------
 Nuclear Repulsion Energy =         500.22464524 hartrees
 There are       36 alpha and       36 beta electrons
 Requested basis set is 6-311++G(d,p)
 There are 90 shells and 262 basis functions

 Total QAlloc Memory Limit   8000 MB
 Mega-Array Size       188 MB
 MEM_STATIC part       192 MB
 Discretize the solute cavity surface with Lebedev spheres
	Using 110 Lebedev grid points for each H atom
	Using 194 Lebedev grid points for other atoms
	Atomic van der Waals radii will be scaled by 1.20
 Remove points where switching function is < 1.0e-08
 Keep 1172 surface tesserae and discard 1428 interior tesserae
 Molecular Surface Area = 169.382 Angst**2
 A cutoff of  1.0D-08 yielded   3388 shell pairs
 There are     29802 function pairs (     32047 Cartesian)
 Smallest overlap matrix eigenvalue = 1.67E-06

 Q-Chem warning in module stvman/mkSTV.C, line 323:

 Overlap eigenvalue is smaller than square root of threshold
 Use THRESH >= 12 to get rid of this warning


 Scale SEOQF with 1.000000e-01/1.000000e-01/1.000000e-01

 Standard Electronic Orientation quadrupole field applied
 Nucleus-field energy     =     0.0000000415 hartrees
 Guess from superposition of atomic densities
 Warning:  Energy on first SCF cycle will be non-variational
 SAD guess density has 72.000000 electrons

 -----------------------------------------------------------------------
  General SCF calculation program by
  Eric Jon Sundstrom, Paul Horn, Yuezhi Mao, Dmitri Zuev, Alec White,
  David Stuck, Shaama M.S., Shane Yost, Joonho Lee, David Small,
  Daniel Levine, Susi Lehtola, Hugh Burton, Evgeny Epifanovsky,
  Bang C. Huynh
 -----------------------------------------------------------------------
 Exchange:     0.2000 Hartree-Fock + 0.0800 Slater + 0.7200 B88
 Correlation:  0.1900 VWN1RPA + 0.8100 LYP
 Using SG-1 standard quadrature grid
 using 8 threads for integral computing
 -------------------------------------------------------
 OpenMP Integral computing Module                
 Release: version 1.0, May 2013, Q-Chem Inc. Pittsburgh 
 -------------------------------------------------------
 A restricted SCF calculation will be
 performed using DIIS
 SCF converges when DIIS error is below 1.0e-05
 ---------------------------------------
  Cycle       Energy         DIIS error
 ---------------------------------------
    1    -498.2792247177      4.04e-02  
    2    -495.9728753670      5.25e-03  
    3    -495.6656299874      8.74e-03  
    4    -496.1416540209      1.74e-03  
    5    -496.1635882179      4.25e-04  
    6    -496.1645570364      1.85e-04  
    7    -496.1647816851      4.90e-05  
    8    -496.1647936831      2.24e-05  
    9    -496.1647967558      6.51e-06  Convergence criterion met
 ---------------------------------------
 SCF time:   CPU 89.97s  wall 12.00s 

************** Final PCM Free Energy Summary **************
 G_electrostatic  =      -0.01452003 hartree =      -9.11145435 kcal/mol
 G_cavitation     =       0.00000000 hartree =       0.00000000 kcal/mol
 G_dispersion     =       0.00000000 hartree =       0.00000000 kcal/mol
 G_repulsion      =       0.00000000 hartree =       0.00000000 kcal/mol
 --------------------------------------------------
 Non-electrostatic Free Energy =       0.00000000 hartree =       0.00000000 kcal/mol
 Total                         =      -0.01452003 hartree =      -9.11145435 kcal/mol
 --------------------------------------------------
 SCF Energy (H0 + V/2)                       =    -496.16479676 
 Solute Internal Energy (H0)                 =    -496.15027673 
 Total Free Energy (H0 + V/2 + non-elec)     =    -496.16479676 hartree
                                             = -311348.10914106 kcal/mol
***********************************************************

 SCF   energy in the final basis set =     -496.1647967558
 Total energy in the final basis set =     -496.1647967558
 
 --------------------------------------------------------------
 
                    Orbital Energies (a.u.)
 --------------------------------------------------------------
 
 Alpha MOs
 -- Occupied --
-19.1792 -19.1572 -19.1389 -10.2977 -10.2849 -10.2682 -10.2154 -10.2125
-10.2058 -10.1729  -1.1102  -1.0722  -1.0697  -0.8650  -0.8055  -0.7259
 -0.6962  -0.6365  -0.6170  -0.5578  -0.5322  -0.5052  -0.4807  -0.4746
 -0.4493  -0.4402  -0.4347  -0.4283  -0.4112  -0.3955  -0.3950  -0.3857
 -0.3154  -0.3069  -0.2855  -0.2610
 -- Virtual --
 -0.1364  -0.0192  -0.0073  -0.0020   0.0088   0.0117   0.0323   0.0370
  0.0389   0.0517   0.0678   0.0704   0.0744   0.0824   0.0900   0.0948
  0.0970   0.1130   0.1139   0.1152   0.1184   0.1285   0.1342   0.1388
  0.1470   0.1510   0.1532   0.1579   0.1629   0.1685   0.1713   0.1827
  0.1873   0.1954   0.2005   0.2112   0.2187   0.2201   0.2229   0.2368
  0.2398   0.2442   0.2523   0.2541   0.2679   0.2827   0.2892   0.2938
  0.2949   0.3139   0.3178   0.3221   0.3258   0.3301   0.3531   0.3553
  0.3633   0.3817   0.3868   0.3969   0.4060   0.4186   0.4370   0.4545
  0.4634   0.4981   0.5106   0.5287   0.5476   0.5581   0.5589   0.5784
  0.5813   0.5825   0.6013   0.6174   0.6191   0.6374   0.6482   0.6599
  0.6927   0.6930   0.6954   0.7230   0.7722   0.7739   0.7893   0.8120
  0.8360   0.8499   0.8705   0.8943   0.9124   0.9304   0.9423   0.9517
  0.9818   0.9834   0.9972   1.0103   1.0237   1.0478   1.0561   1.1025
  1.1062   1.1409   1.1706   1.1851   1.1921   1.2134   1.2139   1.2374
  1.2385   1.2652   1.2783   1.3547   1.3854   1.3985   1.4280   1.4559
  1.4604   1.4687   1.5398   1.5507   1.5596   1.5760   1.6094   1.6171
  1.6339   1.6582   1.6683   1.6950   1.7049   1.7259   1.7541   1.7875
  1.7917   1.8071   1.8312   1.8654   1.8736   1.8883   1.9164   1.9408
  1.9462   2.0161   2.0643   2.0703   2.0973   2.1044   2.1332   2.1818
  2.2023   2.2263   2.3128   2.3571   2.3746   2.4845   2.4871   2.5335
  2.5372   2.5442   2.5698   2.5832   2.6390   2.6587   2.6855   2.7060
  2.7222   2.7244   2.7547   2.7687   2.7783   2.8175   2.8781   2.8884
  2.9376   2.9488   2.9839   3.0146   3.0180   3.0542   3.0834   3.1476
  3.1595   3.1854   3.2038   3.2613   3.3098   3.3343   3.3952   3.4643
  3.4827   3.5186   3.5938   3.6080   3.7076   3.7882   3.8056   3.8334
  3.9224   4.0346   4.0894   4.1350   4.1795   4.3202   4.6907   4.9593
  5.0275   5.0524   5.1913   5.2221   5.4554   5.6466   5.7517   5.7824
 23.6099  23.7349  23.8294  23.8884  23.9718  24.1276  24.2289  49.8999
 49.9877  50.0237
 --------------------------------------------------------------
 
          Ground-State Mulliken Net Atomic Charges

     Atom                 Charge (a.u.)
  ----------------------------------------
      1 C                    -0.039582
      2 C                     0.066262
      3 C                     0.277346
      4 C                    -1.009299
      5 C                     2.153610
      6 C                    -1.754792
      7 O                    -0.322602
      8 O                    -0.299429
      9 O                    -0.247247
     10 C                    -0.241256
     11 H                     0.263605
     12 H                     0.257997
     13 H                     0.191365
     14 H                     0.193622
     15 H                     0.190088
     16 H                     0.320313
  ----------------------------------------
  Sum of atomic charges =     0.000000

 -----------------------------------------------------------------
                    Cartesian Multipole Moments
 -----------------------------------------------------------------
    Charge (ESU x 10^10)
                 0.0000
    Dipole Moment (Debye)
         X      -0.1020      Y      -1.7084      Z       0.5167
       Tot       1.7877
    Quadrupole Moments (Debye-Ang)
        XX     -59.9968     XY      -7.3830     YY     -54.3094
        XZ       2.7120     YZ       1.0576     ZZ     -58.4122
    Octopole Moments (Debye-Ang^2)
       XXX     228.8344    XXY     136.5548    XYY     119.0644
       YYY     411.2232    XXZ     -47.2749    XYZ     -12.2241
       YYZ     -59.5309    XZZ      78.1997    YZZ     139.8169
       ZZZ    -139.6722
    Hexadecapole Moments (Debye-Ang^3)
      XXXX   -1284.7990   XXXY    -525.6408   XXYY    -703.5874
      XYYY    -807.0030   YYYY   -2829.4853   XXXZ     246.2038
      XXYZ     151.5349   XYYZ     166.7320   YYYZ     535.3963
      XXZZ    -285.1338   XYZZ    -200.0787   YYZZ    -554.6164
      XZZZ     264.5930   YZZZ     444.6560   ZZZZ    -388.6551
 -----------------------------------------------------------------
 Total job time:  13.16s(wall), 94.93s(cpu) 
 Tue Jun 11 17:39:45 2024

        *************************************************************
        *                                                           *
        *  Thank you very much for using Q-Chem.  Have a nice day.  *
        *                                                           *
        *************************************************************


