 Entering Gaussian System, Link 0=g16
 Input=134-rad.com
 Output=134-rad.log
 Initial command:
 /sysapps/ubuntu-applications/gaussian/Gaussian/AVX2/g16/l1.exe "/scratch/selhajj1/4234701/Gau-340103.inp" -scrdir="/scratch/selhajj1/4234701/"
 Entering Link 1 = /sysapps/ubuntu-applications/gaussian/Gaussian/AVX2/g16/l1.exe PID=    340120.
  
 Copyright (c) 1988,1990,1992,1993,1995,1998,2003,2009,2016,
            Gaussian, Inc.  All Rights Reserved.
  
 This is part of the Gaussian(R) 16 program.  It is based on
 the Gaussian(R) 09 system (copyright 2009, Gaussian, Inc.),
 the Gaussian(R) 03 system (copyright 2003, Gaussian, Inc.),
 the Gaussian(R) 98 system (copyright 1998, Gaussian, Inc.),
 the Gaussian(R) 94 system (copyright 1995, Gaussian, Inc.),
 the Gaussian 92(TM) system (copyright 1992, Gaussian, Inc.),
 the Gaussian 90(TM) system (copyright 1990, Gaussian, Inc.),
 the Gaussian 88(TM) system (copyright 1988, Gaussian, Inc.),
 the Gaussian 86(TM) system (copyright 1986, Carnegie Mellon
 University), and the Gaussian 82(TM) system (copyright 1983,
 Carnegie Mellon University). Gaussian is a federally registered
 trademark of Gaussian, Inc.
  
 This software contains proprietary and confidential information,
 including trade secrets, belonging to Gaussian, Inc.
  
 This software is provided under written license and may be
 used, copied, transmitted, or stored only in accord with that
 written license.
  
 The following legend is applicable only to US Government
 contracts under FAR:
  
                    RESTRICTED RIGHTS LEGEND
  
 Use, reproduction and disclosure by the US Government is
 subject to restrictions as set forth in subparagraphs (a)
 and (c) of the Commercial Computer Software - Restricted
 Rights clause in FAR 52.227-19.
  
 Gaussian, Inc.
 340 Quinnipiac St., Bldg. 40, Wallingford CT 06492
  
  
 ---------------------------------------------------------------
 Warning -- This program may not be used in any manner that
 competes with the business of Gaussian, Inc. or will provide
 assistance to any competitor of Gaussian, Inc.  The licensee
 of this program is prohibited from giving any competitor of
 Gaussian, Inc. access to this program.  By using this program,
 the user acknowledges that Gaussian, Inc. is engaged in the
 business of creating and licensing software in the field of
 computational chemistry and represents and warrants to the
 licensee that it is not a competitor of Gaussian, Inc. and that
 it will not use this program in any manner prohibited above.
 ---------------------------------------------------------------
  

 Cite this work as:
 Gaussian 16, Revision A.03,
 M. J. Frisch, G. W. Trucks, H. B. Schlegel, G. E. Scuseria, 
 M. A. Robb, J. R. Cheeseman, G. Scalmani, V. Barone, 
 G. A. Petersson, H. Nakatsuji, X. Li, M. Caricato, A. V. Marenich, 
 J. Bloino, B. G. Janesko, R. Gomperts, B. Mennucci, H. P. Hratchian, 
 J. V. Ortiz, A. F. Izmaylov, J. L. Sonnenberg, D. Williams-Young, 
 F. Ding, F. Lipparini, F. Egidi, J. Goings, B. Peng, A. Petrone, 
 T. Henderson, D. Ranasinghe, V. G. Zakrzewski, J. Gao, N. Rega, 
 G. Zheng, W. Liang, M. Hada, M. Ehara, K. Toyota, R. Fukuda, 
 J. Hasegawa, M. Ishida, T. Nakajima, Y. Honda, O. Kitao, H. Nakai, 
 T. Vreven, K. Throssell, J. A. Montgomery, Jr., J. E. Peralta, 
 F. Ogliaro, M. J. Bearpark, J. J. Heyd, E. N. Brothers, K. N. Kudin, 
 V. N. Staroverov, T. A. Keith, R. Kobayashi, J. Normand, 
 K. Raghavachari, A. P. Rendell, J. C. Burant, S. S. Iyengar, 
 J. Tomasi, M. Cossi, J. M. Millam, M. Klene, C. Adamo, R. Cammi, 
 J. W. Ochterski, R. L. Martin, K. Morokuma, O. Farkas, 
 J. B. Foresman, and D. J. Fox, Gaussian, Inc., Wallingford CT, 2016.
 
 ******************************************
 Gaussian 16:  ES64L-G16RevA.03 25-Dec-2016
                27-Dec-2023 
 ******************************************
 %chk=134-rad.chk
 %nproc=8
 Will use up to    8 processors via shared memory.
 %mem=30GB
 --------------------------------------
 #P UB3LYP/6-311++G(d,p) nosym opt freq
 --------------------------------------
 1/18=20,19=15,26=3,38=1/1,3;
 2/9=110,12=2,15=1,17=6,18=5,40=1/2;
 3/5=4,6=6,7=1111,11=2,25=1,30=1,71=1,74=-5,116=2/1,2,3;
 4//1;
 5/5=2,38=5/2;
 6/7=2,8=2,9=2,10=2,28=1/1;
 7/30=1/1,2,3,16;
 1/18=20,19=15,26=3/3(2);
 2/9=110,15=1/2;
 99//99;
 2/9=110,15=1/2;
 3/5=4,6=6,7=1111,11=2,25=1,30=1,71=1,74=-5,116=2/1,2,3;
 4/5=5,16=3,69=1/1;
 5/5=2,38=5/2;
 7/30=1/1,2,3,16;
 1/18=20,19=15,26=3/3(-5);
 2/9=110,15=1/2;
 6/7=2,8=2,9=2,10=2,19=2,28=1/1;
 99/9=1/99;
 Leave Link    1 at Wed Dec 27 19:44:46 2023, MaxMem=  4026531840 cpu:               0.6 elap:               0.1
 (Enter /sysapps/ubuntu-applications/gaussian/Gaussian/AVX2/g16/l101.exe)
 -------
 Radical
 -------
 Symbolic Z-matrix:
 Charge = -1 Multiplicity = 2
 C                     7.10587  -1.84454  -0.60536 
 C                     7.62981  -0.80619  -1.44597 
 C                     6.77809   0.2787   -1.86406 
 C                     5.47856   0.29001  -1.44403 
 C                     4.91638  -0.71499  -0.61255 
 C                     5.7161   -1.80653  -0.17292 
 C                     5.12732  -2.83629   0.68335 
 C                     3.70513  -2.67344   1.04574 
 C                     2.92503  -1.58062   0.59874 
 C                     3.50835  -0.54704  -0.25799 
 C                     3.10016  -3.64545   1.86992 
 C                     1.77205  -3.54226   2.2397 
 C                     0.99806  -2.45238   1.79258 
 C                     1.57189  -1.48947   0.98452 
 O                     5.75102  -3.8368    1.12241 
 O                     2.82773   0.42803  -0.66183 
 H                     4.80929   1.09068  -1.73922 
 H                     3.71744  -4.47256   2.19944 
 H                     1.00564  -0.63889   0.62313 
 C                     7.30247   1.38421  -2.74779 
 H                    -0.04528  -2.37119   2.08296 
 C                     8.984    -0.86046  -1.85649 
 C                     8.00394  -2.88114  -0.2336 
 C                     9.31933  -2.89666  -0.65614 
 C                     9.83904  -1.8816   -1.48027 
 C                     11.27989  -1.91417  -1.93205 
 H                     1.32418  -4.30088   2.87493 
 H                     8.13744   1.92206  -2.28209 
 H                     6.51171   2.10877  -2.95326 
 H                     7.66705   1.00381  -3.70995 
 H                     9.36759  -0.06967  -2.49188 
 H                     7.62108  -3.66761   0.39833 
 H                     9.96453  -3.71381  -0.34244 
 H                     11.51595  -1.05711  -2.56841 
 H                     11.50085  -2.82409  -2.50187 
 H                     11.96798  -1.89595  -1.07894 
 
 ITRead=  0  0  0  0  0  0  0  0  0  0  0  0  0  0  0  0  0  0  0  0
 ITRead=  0  0  0  0  0  0  0  0  0  0  0  0  0  0  0  0
 MicOpt= -1 -1 -1 -1 -1 -1 -1 -1 -1 -1 -1 -1 -1 -1 -1 -1 -1 -1 -1 -1
 MicOpt= -1 -1 -1 -1 -1 -1 -1 -1 -1 -1 -1 -1 -1 -1 -1 -1
 NAtoms=     36 NQM=       36 NQMF=       0 NMMI=      0 NMMIF=      0
                NMic=       0 NMicF=      0.
                    Isotopes and Nuclear Properties:
 (Nuclear quadrupole moments (NQMom) in fm**2, nuclear magnetic moments (NMagM)
  in nuclear magnetons)

  Atom         1           2           3           4           5           6           7           8           9          10
 IAtWgt=          12          12          12          12          12          12          12          12          12          12
 AtmWgt=  12.0000000  12.0000000  12.0000000  12.0000000  12.0000000  12.0000000  12.0000000  12.0000000  12.0000000  12.0000000
 NucSpn=           0           0           0           0           0           0           0           0           0           0
 AtZEff=  -0.0000000  -0.0000000  -0.0000000  -0.0000000  -0.0000000  -0.0000000  -0.0000000  -0.0000000  -0.0000000  -0.0000000
 NQMom=    0.0000000   0.0000000   0.0000000   0.0000000   0.0000000   0.0000000   0.0000000   0.0000000   0.0000000   0.0000000
 NMagM=    0.0000000   0.0000000   0.0000000   0.0000000   0.0000000   0.0000000   0.0000000   0.0000000   0.0000000   0.0000000
 AtZNuc=   6.0000000   6.0000000   6.0000000   6.0000000   6.0000000   6.0000000   6.0000000   6.0000000   6.0000000   6.0000000

  Atom        11          12          13          14          15          16          17          18          19          20
 IAtWgt=          12          12          12          12          16          16           1           1           1          12
 AtmWgt=  12.0000000  12.0000000  12.0000000  12.0000000  15.9949146  15.9949146   1.0078250   1.0078250   1.0078250  12.0000000
 NucSpn=           0           0           0           0           0           0           1           1           1           0
 AtZEff=  -0.0000000  -0.0000000  -0.0000000  -0.0000000  -0.0000000  -0.0000000  -0.0000000  -0.0000000  -0.0000000  -0.0000000
 NQMom=    0.0000000   0.0000000   0.0000000   0.0000000   0.0000000   0.0000000   0.0000000   0.0000000   0.0000000   0.0000000
 NMagM=    0.0000000   0.0000000   0.0000000   0.0000000   0.0000000   0.0000000   2.7928460   2.7928460   2.7928460   0.0000000
 AtZNuc=   6.0000000   6.0000000   6.0000000   6.0000000   8.0000000   8.0000000   1.0000000   1.0000000   1.0000000   6.0000000

  Atom        21          22          23          24          25          26          27          28          29          30
 IAtWgt=           1          12          12          12          12          12           1           1           1           1
 AtmWgt=   1.0078250  12.0000000  12.0000000  12.0000000  12.0000000  12.0000000   1.0078250   1.0078250   1.0078250   1.0078250
 NucSpn=           1           0           0           0           0           0           1           1           1           1
 AtZEff=  -0.0000000  -0.0000000  -0.0000000  -0.0000000  -0.0000000  -0.0000000  -0.0000000  -0.0000000  -0.0000000  -0.0000000
 NQMom=    0.0000000   0.0000000   0.0000000   0.0000000   0.0000000   0.0000000   0.0000000   0.0000000   0.0000000   0.0000000
 NMagM=    2.7928460   0.0000000   0.0000000   0.0000000   0.0000000   0.0000000   2.7928460   2.7928460   2.7928460   2.7928460
 AtZNuc=   1.0000000   6.0000000   6.0000000   6.0000000   6.0000000   6.0000000   1.0000000   1.0000000   1.0000000   1.0000000

  Atom        31          32          33          34          35          36
 IAtWgt=           1           1           1           1           1           1
 AtmWgt=   1.0078250   1.0078250   1.0078250   1.0078250   1.0078250   1.0078250
 NucSpn=           1           1           1           1           1           1
 AtZEff=  -0.0000000  -0.0000000  -0.0000000  -0.0000000  -0.0000000  -0.0000000
 NQMom=    0.0000000   0.0000000   0.0000000   0.0000000   0.0000000   0.0000000
 NMagM=    2.7928460   2.7928460   2.7928460   2.7928460   2.7928460   2.7928460
 AtZNuc=   1.0000000   1.0000000   1.0000000   1.0000000   1.0000000   1.0000000
 Leave Link  101 at Wed Dec 27 19:44:47 2023, MaxMem=  4026531840 cpu:               4.0 elap:               0.6
 (Enter /sysapps/ubuntu-applications/gaussian/Gaussian/AVX2/g16/l103.exe)

 GradGradGradGradGradGradGradGradGradGradGradGradGradGradGradGradGradGrad
 Berny optimization.
 Initialization pass.
                           ----------------------------
                           !    Initial Parameters    !
                           ! (Angstroms and Degrees)  !
 --------------------------                            --------------------------
 ! Name  Definition              Value          Derivative Info.                !
 --------------------------------------------------------------------------------
 ! R1    R(1,2)                  1.435          estimate D2E/DX2                !
 ! R2    R(1,6)                  1.456          estimate D2E/DX2                !
 ! R3    R(1,23)                 1.421          estimate D2E/DX2                !
 ! R4    R(2,3)                  1.4413         estimate D2E/DX2                !
 ! R5    R(2,22)                 1.4161         estimate D2E/DX2                !
 ! R6    R(3,4)                  1.3658         estimate D2E/DX2                !
 ! R7    R(3,20)                 1.5093         estimate D2E/DX2                !
 ! R8    R(4,5)                  1.4204         estimate D2E/DX2                !
 ! R9    R(4,17)                 1.0845         estimate D2E/DX2                !
 ! R10   R(5,6)                  1.4228         estimate D2E/DX2                !
 ! R11   R(5,10)                 1.4617         estimate D2E/DX2                !
 ! R12   R(6,7)                  1.463          estimate D2E/DX2                !
 ! R13   R(7,8)                  1.4766         estimate D2E/DX2                !
 ! R14   R(7,15)                 1.2581         estimate D2E/DX2                !
 ! R15   R(8,9)                  1.4151         estimate D2E/DX2                !
 ! R16   R(8,11)                 1.4107         estimate D2E/DX2                !
 ! R17   R(9,10)                 1.4637         estimate D2E/DX2                !
 ! R18   R(9,14)                 1.41           estimate D2E/DX2                !
 ! R19   R(10,16)                1.2558         estimate D2E/DX2                !
 ! R20   R(11,12)                1.3825         estimate D2E/DX2                !
 ! R21   R(11,18)                1.0834         estimate D2E/DX2                !
 ! R22   R(12,13)                1.4095         estimate D2E/DX2                !
 ! R23   R(12,27)                1.0861         estimate D2E/DX2                !
 ! R24   R(13,14)                1.3818         estimate D2E/DX2                !
 ! R25   R(13,21)                1.086          estimate D2E/DX2                !
 ! R26   R(14,19)                1.0838         estimate D2E/DX2                !
 ! R27   R(20,28)                1.097          estimate D2E/DX2                !
 ! R28   R(20,29)                1.092          estimate D2E/DX2                !
 ! R29   R(20,30)                1.097          estimate D2E/DX2                !
 ! R30   R(22,25)                1.384          estimate D2E/DX2                !
 ! R31   R(22,31)                1.0845         estimate D2E/DX2                !
 ! R32   R(23,24)                1.3817         estimate D2E/DX2                !
 ! R33   R(23,32)                1.0791         estimate D2E/DX2                !
 ! R34   R(24,25)                1.407          estimate D2E/DX2                !
 ! R35   R(24,33)                1.0874         estimate D2E/DX2                !
 ! R36   R(25,26)                1.5104         estimate D2E/DX2                !
 ! R37   R(26,34)                1.0933         estimate D2E/DX2                !
 ! R38   R(26,35)                1.0961         estimate D2E/DX2                !
 ! R39   R(26,36)                1.0962         estimate D2E/DX2                !
 ! A1    A(2,1,6)              120.2383         estimate D2E/DX2                !
 ! A2    A(2,1,23)             116.7652         estimate D2E/DX2                !
 ! A3    A(6,1,23)             122.9964         estimate D2E/DX2                !
 ! A4    A(1,2,3)              119.9225         estimate D2E/DX2                !
 ! A5    A(1,2,22)             119.4219         estimate D2E/DX2                !
 ! A6    A(3,2,22)             120.6556         estimate D2E/DX2                !
 ! A7    A(2,3,4)              118.6406         estimate D2E/DX2                !
 ! A8    A(2,3,20)             121.0563         estimate D2E/DX2                !
 ! A9    A(4,3,20)             120.3031         estimate D2E/DX2                !
 ! A10   A(3,4,5)              123.4204         estimate D2E/DX2                !
 ! A11   A(3,4,17)             120.6374         estimate D2E/DX2                !
 ! A12   A(5,4,17)             115.9422         estimate D2E/DX2                !
 ! A13   A(4,5,6)              120.083          estimate D2E/DX2                !
 ! A14   A(4,5,10)             116.23           estimate D2E/DX2                !
 ! A15   A(6,5,10)             123.687          estimate D2E/DX2                !
 ! A16   A(1,6,5)              117.6951         estimate D2E/DX2                !
 ! A17   A(1,6,7)              122.6575         estimate D2E/DX2                !
 ! A18   A(5,6,7)              119.6473         estimate D2E/DX2                !
 ! A19   A(6,7,8)              116.9765         estimate D2E/DX2                !
 ! A20   A(6,7,15)             124.369          estimate D2E/DX2                !
 ! A21   A(8,7,15)             118.6545         estimate D2E/DX2                !
 ! A22   A(7,8,9)              122.5865         estimate D2E/DX2                !
 ! A23   A(7,8,11)             118.7128         estimate D2E/DX2                !
 ! A24   A(9,8,11)             118.7008         estimate D2E/DX2                !
 ! A25   A(8,9,10)             120.6967         estimate D2E/DX2                !
 ! A26   A(8,9,14)             119.5061         estimate D2E/DX2                !
 ! A27   A(10,9,14)            119.7973         estimate D2E/DX2                !
 ! A28   A(5,10,9)             116.406          estimate D2E/DX2                !
 ! A29   A(5,10,16)            122.2286         estimate D2E/DX2                !
 ! A30   A(9,10,16)            121.3654         estimate D2E/DX2                !
 ! A31   A(8,11,12)            121.1188         estimate D2E/DX2                !
 ! A32   A(8,11,18)            117.3482         estimate D2E/DX2                !
 ! A33   A(12,11,18)           121.533          estimate D2E/DX2                !
 ! A34   A(11,12,13)           120.0254         estimate D2E/DX2                !
 ! A35   A(11,12,27)           120.0302         estimate D2E/DX2                !
 ! A36   A(13,12,27)           119.9444         estimate D2E/DX2                !
 ! A37   A(12,13,14)           119.7536         estimate D2E/DX2                !
 ! A38   A(12,13,21)           120.0339         estimate D2E/DX2                !
 ! A39   A(14,13,21)           120.2125         estimate D2E/DX2                !
 ! A40   A(9,14,13)            120.8954         estimate D2E/DX2                !
 ! A41   A(9,14,19)            117.4437         estimate D2E/DX2                !
 ! A42   A(13,14,19)           121.6609         estimate D2E/DX2                !
 ! A43   A(3,20,28)            112.0245         estimate D2E/DX2                !
 ! A44   A(3,20,29)            110.1553         estimate D2E/DX2                !
 ! A45   A(3,20,30)            112.0256         estimate D2E/DX2                !
 ! A46   A(28,20,29)           107.8023         estimate D2E/DX2                !
 ! A47   A(28,20,30)           106.8227         estimate D2E/DX2                !
 ! A48   A(29,20,30)           107.8015         estimate D2E/DX2                !
 ! A49   A(2,22,25)            122.7029         estimate D2E/DX2                !
 ! A50   A(2,22,31)            118.6938         estimate D2E/DX2                !
 ! A51   A(25,22,31)           118.6033         estimate D2E/DX2                !
 ! A52   A(1,23,24)            121.996          estimate D2E/DX2                !
 ! A53   A(1,23,32)            117.4285         estimate D2E/DX2                !
 ! A54   A(24,23,32)           120.5755         estimate D2E/DX2                !
 ! A55   A(23,24,25)           121.512          estimate D2E/DX2                !
 ! A56   A(23,24,33)           119.0184         estimate D2E/DX2                !
 ! A57   A(25,24,33)           119.4696         estimate D2E/DX2                !
 ! A58   A(22,25,24)           117.6021         estimate D2E/DX2                !
 ! A59   A(22,25,26)           121.5994         estimate D2E/DX2                !
 ! A60   A(24,25,26)           120.7986         estimate D2E/DX2                !
 ! A61   A(25,26,34)           111.2963         estimate D2E/DX2                !
 ! A62   A(25,26,35)           111.451          estimate D2E/DX2                !
 ! A63   A(25,26,36)           111.4494         estimate D2E/DX2                !
 ! A64   A(34,26,35)           107.7374         estimate D2E/DX2                !
 ! A65   A(34,26,36)           107.7241         estimate D2E/DX2                !
 ! A66   A(35,26,36)           106.9681         estimate D2E/DX2                !
 ! D1    D(6,1,2,3)              0.0077         estimate D2E/DX2                !
 ! D2    D(6,1,2,22)          -179.9904         estimate D2E/DX2                !
 ! D3    D(23,1,2,3)           179.9992         estimate D2E/DX2                !
 ! D4    D(23,1,2,22)            0.0012         estimate D2E/DX2                !
 ! D5    D(2,1,6,5)             -0.002          estimate D2E/DX2                !
 ! D6    D(2,1,6,7)            179.9953         estimate D2E/DX2                !
 ! D7    D(23,1,6,5)          -179.993          estimate D2E/DX2                !
 ! D8    D(23,1,6,7)             0.0043         estimate D2E/DX2                !
 ! D9    D(2,1,23,24)            0.0054         estimate D2E/DX2                !
 ! D10   D(2,1,23,32)         -179.9922         estimate D2E/DX2                !
 ! D11   D(6,1,23,24)          179.9968         estimate D2E/DX2                !
 ! D12   D(6,1,23,32)           -0.0009         estimate D2E/DX2                !
 ! D13   D(1,2,3,4)             -0.0041         estimate D2E/DX2                !
 ! D14   D(1,2,3,20)           179.991          estimate D2E/DX2                !
 ! D15   D(22,2,3,4)           179.9939         estimate D2E/DX2                !
 ! D16   D(22,2,3,20)           -0.011          estimate D2E/DX2                !
 ! D17   D(1,2,22,25)           -0.0117         estimate D2E/DX2                !
 ! D18   D(1,2,22,31)          179.9869         estimate D2E/DX2                !
 ! D19   D(3,2,22,25)          179.9902         estimate D2E/DX2                !
 ! D20   D(3,2,22,31)           -0.0112         estimate D2E/DX2                !
 ! D21   D(2,3,4,5)             -0.0053         estimate D2E/DX2                !
 ! D22   D(2,3,4,17)          -179.9992         estimate D2E/DX2                !
 ! D23   D(20,3,4,5)           179.9996         estimate D2E/DX2                !
 ! D24   D(20,3,4,17)            0.0057         estimate D2E/DX2                !
 ! D25   D(2,3,20,28)          -59.977          estimate D2E/DX2                !
 ! D26   D(2,3,20,29)         -179.9633         estimate D2E/DX2                !
 ! D27   D(2,3,20,30)           60.0508         estimate D2E/DX2                !
 ! D28   D(4,3,20,28)          120.018          estimate D2E/DX2                !
 ! D29   D(4,3,20,29)            0.0317         estimate D2E/DX2                !
 ! D30   D(4,3,20,30)         -119.9542         estimate D2E/DX2                !
 ! D31   D(3,4,5,6)              0.0111         estimate D2E/DX2                !
 ! D32   D(3,4,5,10)          -179.9866         estimate D2E/DX2                !
 ! D33   D(17,4,5,6)          -179.9947         estimate D2E/DX2                !
 ! D34   D(17,4,5,10)            0.0076         estimate D2E/DX2                !
 ! D35   D(4,5,6,1)             -0.0071         estimate D2E/DX2                !
 ! D36   D(4,5,6,7)            179.9955         estimate D2E/DX2                !
 ! D37   D(10,5,6,1)           179.9905         estimate D2E/DX2                !
 ! D38   D(10,5,6,7)            -0.0069         estimate D2E/DX2                !
 ! D39   D(4,5,10,9)           179.997          estimate D2E/DX2                !
 ! D40   D(4,5,10,16)           -0.0011         estimate D2E/DX2                !
 ! D41   D(6,5,10,9)            -0.0007         estimate D2E/DX2                !
 ! D42   D(6,5,10,16)         -179.9988         estimate D2E/DX2                !
 ! D43   D(1,6,7,8)           -179.9872         estimate D2E/DX2                !
 ! D44   D(1,6,7,15)             0.0098         estimate D2E/DX2                !
 ! D45   D(5,6,7,8)              0.0101         estimate D2E/DX2                !
 ! D46   D(5,6,7,15)          -179.9929         estimate D2E/DX2                !
 ! D47   D(6,7,8,9)             -0.0063         estimate D2E/DX2                !
 ! D48   D(6,7,8,11)           179.9908         estimate D2E/DX2                !
 ! D49   D(15,7,8,9)           179.9965         estimate D2E/DX2                !
 ! D50   D(15,7,8,11)           -0.0064         estimate D2E/DX2                !
 ! D51   D(7,8,9,10)            -0.0012         estimate D2E/DX2                !
 ! D52   D(7,8,9,14)           179.9976         estimate D2E/DX2                !
 ! D53   D(11,8,9,10)         -179.9983         estimate D2E/DX2                !
 ! D54   D(11,8,9,14)            0.0005         estimate D2E/DX2                !
 ! D55   D(7,8,11,12)         -179.9964         estimate D2E/DX2                !
 ! D56   D(7,8,11,18)            0.004          estimate D2E/DX2                !
 ! D57   D(9,8,11,12)            0.0008         estimate D2E/DX2                !
 ! D58   D(9,8,11,18)         -179.9988         estimate D2E/DX2                !
 ! D59   D(8,9,10,5)             0.0047         estimate D2E/DX2                !
 ! D60   D(8,9,10,16)         -179.9972         estimate D2E/DX2                !
 ! D61   D(14,9,10,5)         -179.9941         estimate D2E/DX2                !
 ! D62   D(14,9,10,16)           0.0041         estimate D2E/DX2                !
 ! D63   D(8,9,14,13)           -0.0017         estimate D2E/DX2                !
 ! D64   D(8,9,14,19)         -179.9984         estimate D2E/DX2                !
 ! D65   D(10,9,14,13)         179.9971         estimate D2E/DX2                !
 ! D66   D(10,9,14,19)           0.0004         estimate D2E/DX2                !
 ! D67   D(8,11,12,13)          -0.0009         estimate D2E/DX2                !
 ! D68   D(8,11,12,27)         179.9985         estimate D2E/DX2                !
 ! D69   D(18,11,12,13)        179.9987         estimate D2E/DX2                !
 ! D70   D(18,11,12,27)         -0.0019         estimate D2E/DX2                !
 ! D71   D(11,12,13,14)         -0.0004         estimate D2E/DX2                !
 ! D72   D(11,12,13,21)        179.9979         estimate D2E/DX2                !
 ! D73   D(27,12,13,14)       -179.9997         estimate D2E/DX2                !
 ! D74   D(27,12,13,21)         -0.0014         estimate D2E/DX2                !
 ! D75   D(12,13,14,9)           0.0017         estimate D2E/DX2                !
 ! D76   D(12,13,14,19)        179.9982         estimate D2E/DX2                !
 ! D77   D(21,13,14,9)        -179.9966         estimate D2E/DX2                !
 ! D78   D(21,13,14,19)         -0.0001         estimate D2E/DX2                !
 ! D79   D(2,22,25,24)           0.015          estimate D2E/DX2                !
 ! D80   D(2,22,25,26)        -179.9555         estimate D2E/DX2                !
 ! D81   D(31,22,25,24)       -179.9836         estimate D2E/DX2                !
 ! D82   D(31,22,25,26)          0.0459         estimate D2E/DX2                !
 ! D83   D(1,23,24,25)          -0.002          estimate D2E/DX2                !
 ! D84   D(1,23,24,33)         179.9991         estimate D2E/DX2                !
 ! D85   D(32,23,24,25)        179.9956         estimate D2E/DX2                !
 ! D86   D(32,23,24,33)         -0.0033         estimate D2E/DX2                !
 ! D87   D(23,24,25,22)         -0.0081         estimate D2E/DX2                !
 ! D88   D(23,24,25,26)        179.9626         estimate D2E/DX2                !
 ! D89   D(33,24,25,22)        179.9907         estimate D2E/DX2                !
 ! D90   D(33,24,25,26)         -0.0385         estimate D2E/DX2                !
 ! D91   D(22,25,26,34)         -0.3509         estimate D2E/DX2                !
 ! D92   D(22,25,26,35)       -120.6479         estimate D2E/DX2                !
 ! D93   D(22,25,26,36)        119.9281         estimate D2E/DX2                !
 ! D94   D(24,25,26,34)        179.6795         estimate D2E/DX2                !
 ! D95   D(24,25,26,35)         59.3825         estimate D2E/DX2                !
 ! D96   D(24,25,26,36)        -60.0414         estimate D2E/DX2                !
 --------------------------------------------------------------------------------
 Trust Radius=3.00D-01 FncErr=1.00D-07 GrdErr=1.00D-06 EigMax=2.50D+02 EigMin=1.00D-04
 Number of steps in this run=    211 maximum allowed number of steps=    216.
 GradGradGradGradGradGradGradGradGradGradGradGradGradGradGradGradGradGrad

 Leave Link  103 at Wed Dec 27 19:44:47 2023, MaxMem=  4026531840 cpu:               0.6 elap:               0.2
 (Enter /sysapps/ubuntu-applications/gaussian/Gaussian/AVX2/g16/l202.exe)
                          Input orientation:                          
 ---------------------------------------------------------------------
 Center     Atomic      Atomic             Coordinates (Angstroms)
 Number     Number       Type             X           Y           Z
 ---------------------------------------------------------------------
      1          6           0        7.105869   -1.844537   -0.605359
      2          6           0        7.629810   -0.806191   -1.445967
      3          6           0        6.778091    0.278698   -1.864064
      4          6           0        5.478564    0.290014   -1.444028
      5          6           0        4.916383   -0.714988   -0.612549
      6          6           0        5.716098   -1.806534   -0.172918
      7          6           0        5.127323   -2.836291    0.683353
      8          6           0        3.705132   -2.673438    1.045741
      9          6           0        2.925033   -1.580617    0.598738
     10          6           0        3.508350   -0.547037   -0.257991
     11          6           0        3.100162   -3.645453    1.869919
     12          6           0        1.772054   -3.542260    2.239699
     13          6           0        0.998057   -2.452377    1.792584
     14          6           0        1.571888   -1.489467    0.984524
     15          8           0        5.751021   -3.836804    1.122414
     16          8           0        2.827728    0.428027   -0.661826
     17          1           0        4.809285    1.090679   -1.739224
     18          1           0        3.717443   -4.472564    2.199441
     19          1           0        1.005636   -0.638890    0.623133
     20          6           0        7.302471    1.384207   -2.747791
     21          1           0       -0.045279   -2.371192    2.082958
     22          6           0        8.983999   -0.860464   -1.856492
     23          6           0        8.003938   -2.881142   -0.233603
     24          6           0        9.319333   -2.896660   -0.656142
     25          6           0        9.839036   -1.881604   -1.480272
     26          6           0       11.279887   -1.914168   -1.932049
     27          1           0        1.324177   -4.300876    2.874931
     28          1           0        8.137439    1.922061   -2.282089
     29          1           0        6.511706    2.108768   -2.953259
     30          1           0        7.667054    1.003806   -3.709947
     31          1           0        9.367590   -0.069673   -2.491879
     32          1           0        7.621083   -3.667614    0.398334
     33          1           0        9.964527   -3.713810   -0.342438
     34          1           0       11.515948   -1.057112   -2.568406
     35          1           0       11.500853   -2.824092   -2.501874
     36          1           0       11.967978   -1.895948   -1.078939
 ---------------------------------------------------------------------
                    Distance matrix (angstroms):
                    1          2          3          4          5
     1  C    0.000000
     2  C    1.435026   0.000000
     3  C    2.489961   1.441254   0.000000
     4  C    2.812080   2.414442   1.365770   0.000000
     5  C    2.463693   2.839998   2.453499   1.420364   0.000000
     6  C    1.455992   2.506718   2.887213   2.463261   1.422776
     7  C    2.561054   3.862350   4.349428   3.797750   2.494751
     8  C    3.870171   5.009822   5.159956   4.257471   2.837707
     9  C    4.358772   5.188013   4.936446   3.767317   2.486364
    10  C    3.840093   4.297078   3.735307   2.447260   1.461669
    11  C    5.041427   6.290804   6.547423   5.668063   4.248403
    12  C    6.279029   7.442010   7.516715   6.480307   5.100548
    13  C    6.589762   7.561633   7.364689   6.170195   4.914923
    14  C    5.768774   6.562970   6.192367   4.932194   3.786305
    15  O    2.964783   4.394433   5.187608   4.867390   3.667758
    16  O    4.844608   5.019777   4.131954   2.767276   2.381468
    17  H    3.895567   3.411668   2.133330   1.084500   2.131033
    18  H    5.123950   6.483665   6.960900   6.249685   4.843978
    19  H    6.338424   6.941819   6.352114   5.014290   4.102029
    20  C    3.879878   2.568996   1.509337   2.494733   3.828746
    21  H    7.657893   8.591247   8.316206   7.073506   5.884459
    22  C    2.461931   1.416088   2.482696   3.712385   4.256061
    23  C    1.421014   2.432123   3.761076   4.230706   3.790623
    24  C    2.451319   2.801495   4.242627   5.052441   4.914017
    25  C    2.870026   2.457309   3.766110   4.871443   5.132879
    26  C    4.380340   3.845380   5.007939   6.225105   6.608577
    27  H    7.181503   8.404998   8.554283   7.549080   6.158332
    28  H    4.250038   2.898301   2.173296   3.230409   4.485153
    29  H    4.636193   3.466853   2.146267   2.579346   3.999697
    30  H    4.250465   2.898807   2.173320   3.230074   4.484899
    31  H    3.438674   2.157839   2.687195   4.043747   4.874583
    32  H    2.143934   3.404301   4.626279   4.862870   4.129805
    33  H    3.425673   3.888821   5.329994   6.112935   5.877895
    34  H    4.891052   4.052764   4.972703   6.287208   6.891784
    35  H    4.885917   4.491307   5.686703   6.861826   7.167504
    36  H    4.885389   4.487982   5.681587   6.857420   7.164997
                    6          7          8          9         10
     6  C    0.000000
     7  C    1.462961   0.000000
     8  C    2.506120   1.476643   0.000000
     9  C    2.904571   2.536525   1.415141   0.000000
    10  C    2.543172   2.957683   2.502003   1.463739   0.000000
    11  C    3.794460   2.484364   1.410699   2.431074   3.780846
    12  C    4.938517   3.765426   2.432525   2.805380   4.269021
    13  C    5.151720   4.292857   2.816895   2.428677   3.759887
    14  C    4.314473   3.813890   2.440546   1.410014   2.486343
    15  O    2.408547   1.258094   2.354774   3.653878   4.213984
    16  O    3.684423   4.213480   3.647562   2.373424   1.255818
    17  H    3.416060   4.625054   4.810796   4.018992   2.562927
    18  H    4.090284   2.638877   2.137295   3.399047   4.635995
    19  H    4.917880   4.671242   3.406650   2.138114   2.654881
    20  C    4.396291   5.858039   6.617871   6.257108   4.931953
    21  H    6.212993   5.378757   3.902916   3.413308   4.629888
    22  C    3.795872   5.022813   6.290967   6.577070   5.712808
    23  C    2.528374   3.019559   4.489944   5.308430   5.065467
    24  C    3.795416   4.401232   5.870731   6.647839   6.280667
    25  C    4.325902   5.271901   6.680758   7.226086   6.584271
    26  C    5.836255   6.748680   8.174389   8.736116   8.066493
    27  H    5.899161   4.627304   3.415177   3.891478   5.355102
    28  H    4.920764   6.363691   7.199890   6.909204   5.623334
    29  H    4.867533   6.292461   6.836545   6.252397   4.830933
    30  H    4.920855   6.363777   7.199689   6.908746   5.622805
    31  H    4.661294   5.976298   7.166434   7.303520   6.288786
    32  H    2.723769   2.644083   4.091723   5.142821   5.204165
    33  H    4.659999   5.022034   6.495340   7.415578   7.191509
    34  H    6.319672   7.386064   8.756907   9.171078   8.349840
    35  H    6.318453   7.125146   8.566302   9.203516   8.608141
    36  H    6.317822   7.126323   8.566994   9.202657   8.605744
                   11         12         13         14         15
    11  C    0.000000
    12  C    1.382482   0.000000
    13  C    2.418317   1.409549   0.000000
    14  C    2.787081   2.414434   1.381824   0.000000
    15  O    2.760875   4.143339   4.995641   4.795222   0.000000
    16  O    4.803873   5.029560   4.203398   2.822124   5.469729
    17  H    6.194995   6.820610   6.289068   4.955471   5.775459
    18  H    1.083390   2.156763   3.412001   3.870181   2.387387
    19  H    3.870521   3.410314   2.157871   1.083848   5.744094
    20  C    8.017489   8.929202   8.664873   7.418070   6.681649
    21  H    3.400430   2.167641   1.086029   2.144580   6.055391
    22  C    7.500789   8.716821   8.923296   7.962814   5.308920
    23  C    5.390361   6.737260   7.305590   6.692672   2.797804
    24  C    6.754240   8.109508   8.685464   8.043313   4.096338
    25  C    7.729642   9.037265   9.444590   8.635666   5.225768
    26  C    9.184781  10.509665  10.948908  10.145542   6.602623
    27  H    2.143304   1.086099   2.166744   3.396913   4.783683
    28  H    8.579659   9.530136   9.311791   8.088000   7.102827
    29  H    8.246984   9.020268   8.586466   7.270160   7.248419
    30  H    8.579453   9.529744   9.311207   8.087368   7.103126
    31  H    8.431615   9.598899   9.699638   8.652986   6.350902
    32  H    4.754448   6.133309   6.876424   6.456059   2.012473
    33  H    7.212399   8.591477   9.303070   8.783218   4.462572
    34  H    9.860207  11.146179  11.471313  10.568565   7.388046
    35  H    9.505725  10.846558  11.352941  10.607570   6.871799
    36  H    9.507612  10.848067  11.353168  10.606686   6.874840
                   16         17         18         19         20
    16  O    0.000000
    17  H    2.350843   0.000000
    18  H    5.744061   6.903251   0.000000
    19  H    2.471730   4.799988   4.953352   0.000000
    20  C    5.028803   2.705428   8.463409   7.423354   0.000000
    21  H    4.860415   7.082402   4.311312   2.497275   9.561830
    22  C    6.402118   4.609658   7.565347   8.357746   2.942872
    23  C    6.158500   5.314891   5.179418   7.398508   5.000640
    24  C    7.293457   6.116574   6.482206   8.709284   5.173833
    25  C    7.427159   5.848070   7.597846   9.165021   4.325077
    26  C    8.862186   7.136874   8.989169  10.663748   5.231114
    27  H    6.093590   7.906027   2.492686   4.310708   9.983745
    28  H    5.748950   3.473112   8.972831   8.115504   1.096967
    29  H    4.652660   2.325645   8.813181   7.117374   1.092023
    30  H    5.748186   3.472483   8.972788   8.114710   1.096982
    31  H    6.809302   4.763512   8.562599   8.941453   2.538498
    32  H    6.393314   5.925936   4.373824   7.279275   5.959909
    33  H    8.257767   7.184055   6.786967   9.520987   6.233943
    34  H    9.018085   7.090831   9.757784  10.992156   4.872946
    35  H    9.443789   7.790003   9.241282  11.166484   5.949510
    36  H    9.440287   7.784780   9.244353  11.164685   5.942343
                   21         22         23         24         25
    21  H    0.000000
    22  C    9.966415   0.000000
    23  C    8.391448   2.770817   0.000000
    24  C    9.771118   2.387338   1.381682   0.000000
    25  C   10.518364   1.383964   2.433279   1.406990   0.000000
    26  C   12.024497   2.527272   3.814656   2.537125   1.510369
    27  H    2.495258   9.638240   7.503188   8.852278   9.865267
    28  H   10.219713   2.939429   5.223493   5.221173   4.243373
    29  H    9.403594   4.016400   5.875584   6.181733   5.400360
    30  H   10.219023   2.940262   5.224106   5.222010   4.244355
    31  H   10.715793   1.084532   3.855349   3.371070   2.128075
    32  H    7.955613   3.849918   1.079102   2.142509   3.411496
    33  H   10.386596   3.375704   2.132860   1.087391   2.160415
    34  H   12.530920   2.637472   4.594845   3.444678   2.162373
    35  H   12.431370   3.256825   4.168540   2.858500   2.166469
    36  H   12.431484   3.252837   4.171188   2.862779   2.166487
                   26         27         28         29         30
    26  C    0.000000
    27  H   11.310154   0.000000
    28  H    4.971334  10.570730   0.000000
    29  H    6.321585  10.097613   1.768710   0.000000
    30  H    4.972731  10.570353   1.761599   1.768713   0.000000
    31  H    2.715226  10.554725   2.350380   3.621402   2.351142
    32  H    4.678900   6.795997   6.220591   6.769821   6.221113
    33  H    2.737836   9.238602   6.234063   7.255396   6.234934
    34  H    1.093261  12.001005   4.513510   5.934083   4.512703
    35  H    1.096124  11.604122   5.821239   7.030537   5.550699
    36  H    1.096174  11.606346   5.540559   7.022943   5.816247
                   31         32         33         34         35
    31  H    0.000000
    32  H    4.934450   0.000000
    33  H    4.272723   2.458171   0.000000
    34  H    2.365657   5.548535   3.797352   0.000000
    35  H    3.483925   4.916844   2.795543   1.768297   0.000000
    36  H    3.477599   4.921040   2.803725   1.768188   1.761931
                   36
    36  H    0.000000
 Symmetry turned off by external request.
 Stoichiometry    C20H14O2(1-,2)
 Framework group  C1[X(C20H14O2)]
 Deg. of freedom   102
 Full point group                 C1      NOp   1
 Rotational constants (GHZ):           0.6184021           0.1854124           0.1428965
 Leave Link  202 at Wed Dec 27 19:44:47 2023, MaxMem=  4026531840 cpu:               0.5 elap:               0.2
 (Enter /sysapps/ubuntu-applications/gaussian/Gaussian/AVX2/g16/l301.exe)
 Standard basis: 6-311++G(d,p) (5D, 7F)
 Ernie: Thresh=  0.10000D-02 Tol=  0.10000D-05 Strict=F.
   582 basis functions,   918 primitive gaussians,   604 cartesian basis functions
    76 alpha electrons       75 beta electrons
       nuclear repulsion energy      1625.3494166194 Hartrees.
 IExCor=  402 DFT=T Ex+Corr=B3LYP ExCW=0 ScaHFX=  0.200000
 ScaDFX=  0.800000  0.720000  1.000000  0.810000 ScalE2=  1.000000  1.000000
 IRadAn=      5 IRanWt=     -1 IRanGd=            0 ICorTp=0 IEmpDi=  4
 NAtoms=   36 NActive=   36 NUniq=   36 SFac= 1.00D+00 NAtFMM=   60 NAOKFM=F Big=F
 Integral buffers will be    131072 words long.
 Raffenetti 2 integral format.
 Two-electron integral symmetry is turned off.
 Leave Link  301 at Wed Dec 27 19:44:48 2023, MaxMem=  4026531840 cpu:               0.6 elap:               0.1
 (Enter /sysapps/ubuntu-applications/gaussian/Gaussian/AVX2/g16/l302.exe)
 NPDir=0 NMtPBC=     1 NCelOv=     1 NCel=       1 NClECP=     1 NCelD=      1
         NCelK=      1 NCelE2=     1 NClLst=     1 CellRange=     0.0.
 One-electron integrals computed using PRISM.
 NBasis=   582 RedAO= T EigKep=  1.18D-06  NBF=   582
 NBsUse=   570 1.00D-06 EigRej=  9.43D-07 NBFU=   570
 Precomputing XC quadrature grid using
 IXCGrd= 4 IRadAn=           5 IRanWt=          -1 IRanGd=           0 AccXCQ= 0.00D+00.
 Generated NRdTot=       0 NPtTot=           0 NUsed=           0 NTot=          32
 NSgBfM=   599   599   599   599   599 MxSgAt=    36 MxSgA2=    36.
 Leave Link  302 at Wed Dec 27 19:44:49 2023, MaxMem=  4026531840 cpu:               6.9 elap:               1.0
 (Enter /sysapps/ubuntu-applications/gaussian/Gaussian/AVX2/g16/l303.exe)
 DipDrv:  MaxL=1.
 Leave Link  303 at Wed Dec 27 19:44:49 2023, MaxMem=  4026531840 cpu:               1.7 elap:               0.3
 (Enter /sysapps/ubuntu-applications/gaussian/Gaussian/AVX2/g16/l401.exe)
 ExpMin= 3.60D-02 ExpMax= 8.59D+03 ExpMxC= 1.30D+03 IAcc=3 IRadAn=         5 AccDes= 0.00D+00
 Harris functional with IExCor=  402 and IRadAn=       5 diagonalized for initial guess.
 HarFok:  IExCor=  402 AccDes= 0.00D+00 IRadAn=         5 IDoV= 1 UseB2=F ITyADJ=14
 ICtDFT=  3500011 ScaDFX=  1.000000  1.000000  1.000000  1.000000
 FoFCou: FMM=F IPFlag=           0 FMFlag=      100000 FMFlg1=           0
         NFxFlg=           0 DoJE=T BraDBF=F KetDBF=T FulRan=T
         wScrn=  0.000000 ICntrl=       500 IOpCl=  0 I1Cent=   200000004 NGrid=           0
         NMat0=    1 NMatS0=      1 NMatT0=    0 NMatD0=    1 NMtDS0=    0 NMtDT0=    0
 Symmetry not used in FoFCou.
 Harris En= -921.550157329708    
 JPrj=0 DoOrth=F DoCkMO=F.
 Initial guess <Sx>= 0.0000 <Sy>= 0.0000 <Sz>= 0.5000 <S**2>= 0.7500 S= 0.5000
 Leave Link  401 at Wed Dec 27 19:44:59 2023, MaxMem=  4026531840 cpu:              75.6 elap:               9.7
 (Enter /sysapps/ubuntu-applications/gaussian/Gaussian/AVX2/g16/l502.exe)
 Two-electron integral symmetry not used.
 UHF open shell SCF:
 Using DIIS extrapolation, IDIIS=  1040.
 NGot=  4026531840 LenX=  4025793068 LenY=  4025427648
 Requested convergence on RMS density matrix=1.00D-08 within 128 cycles.
 Requested convergence on MAX density matrix=1.00D-06.
 Requested convergence on             energy=1.00D-06.
 No special actions if energy rises.
 Fock matrices will be formed incrementally for  20 cycles.

 Cycle   1  Pass 1  IDiag  1:
 FoFJK:  IHMeth= 1 ICntrl=       0 DoSepK=F KAlg= 0 I1Cent=           0 FoldK=F
 IRaf= 810000000 NMat=       1 IRICut=       1 DoRegI=T DoRafI=F ISym2E= 0 IDoP0=0 IntGTp=1.
 FoFCou: FMM=F IPFlag=           0 FMFlag=      100000 FMFlg1=           0
         NFxFlg=           0 DoJE=F BraDBF=F KetDBF=F FulRan=T
         wScrn=  0.000000 ICntrl=         0 IOpCl=  1 I1Cent=           0 NGrid=           0
         NMat0=    1 NMatS0=      1 NMatT0=    0 NMatD0=    1 NMtDS0=    0 NMtDT0=    0
 Symmetry not used in FoFCou.
 E= -920.759864328893    
 DIIS: error= 4.30D-02 at cycle   1 NSaved=   1.
 NSaved= 1 IEnMin= 1 EnMin= -920.759864328893     IErMin= 1 ErrMin= 4.30D-02
 ErrMax= 4.30D-02  0.00D+00 EMaxC= 1.00D-01 BMatC= 2.59D+00 BMatP= 2.59D+00
 IDIUse=3 WtCom= 5.70D-01 WtEn= 4.30D-01
 Coeff-Com:  0.100D+01
 Coeff-En:   0.100D+01
 Coeff:      0.100D+01
 Gap=     0.084 Goal=   None    Shift=    0.000
 Gap=     0.137 Goal=   None    Shift=    0.000
 GapD=    0.084 DampG=0.500 DampE=0.500 DampFc=0.2500 IDamp=-1.
 Damping current iteration by 2.50D-01
 RMSDP=1.69D+00 MaxDP=2.43D+02              OVMax= 9.78D-01

 Cycle   2  Pass 1  IDiag  1:
 RMSU=  4.11D-01    CP:  2.79D+00
 E= -920.907982831257     Delta-E=       -0.148118502364 Rises=F Damp=T
 DIIS: error= 2.18D-02 at cycle   2 NSaved=   2.
 NSaved= 2 IEnMin= 2 EnMin= -920.907982831257     IErMin= 2 ErrMin= 2.18D-02
 ErrMax= 2.18D-02  0.00D+00 EMaxC= 1.00D-01 BMatC= 5.91D-01 BMatP= 2.59D+00
 IDIUse=3 WtCom= 7.82D-01 WtEn= 2.18D-01
 Coeff-Com: -0.487D+00 0.149D+01
 Coeff-En:   0.677D-01 0.932D+00
 Coeff:     -0.366D+00 0.137D+01
 Gap=     0.348 Goal=   None    Shift=    0.000
 Gap=    -0.041 Goal=   None    Shift=    0.000
 RMSDP=4.22D-01 MaxDP=6.09D+01 DE=-1.48D-01 OVMax= 8.04D-01

 Cycle   3  Pass 1  IDiag  1:
 RMSU=  8.18D-03    CP:  9.93D-01  1.75D-04
 E= -921.066889332735     Delta-E=       -0.158906501478 Rises=F Damp=F
 DIIS: error= 3.48D-02 at cycle   3 NSaved=   3.
 NSaved= 3 IEnMin= 3 EnMin= -921.066889332735     IErMin= 2 ErrMin= 2.18D-02
 ErrMax= 3.48D-02  0.00D+00 EMaxC= 1.00D-01 BMatC= 1.10D+00 BMatP= 5.91D-01
 IDIUse=2 WtCom= 0.00D+00 WtEn= 1.00D+00
 Coeff-En:   0.000D+00 0.285D+00 0.715D+00
 Coeff:      0.000D+00 0.285D+00 0.715D+00
 Gap=     0.091 Goal=   None    Shift=    0.000
 Gap=     0.211 Goal=   None    Shift=    0.000
 RMSDP=7.60D-01 MaxDP=1.08D+02 DE=-1.59D-01 OVMax= 1.00D+00

 Cycle   4  Pass 1  IDiag  1:
 RMSU=  1.60D-01    CP:  3.00D+00  1.76D+00 -2.16D+00
 E= -917.849221656489     Delta-E=        3.217667676246 Rises=F Damp=F
 DIIS: error= 1.58D-01 at cycle   4 NSaved=   4.
 NSaved= 4 IEnMin= 3 EnMin= -921.066889332735     IErMin= 2 ErrMin= 2.18D-02
 ErrMax= 1.58D-01  0.00D+00 EMaxC= 1.00D-01 BMatC= 8.34D+00 BMatP= 5.91D-01
 IDIUse=2 WtCom= 0.00D+00 WtEn= 1.00D+00
 Coeff-En:   0.000D+00 0.000D+00 0.859D+00 0.141D+00
 Coeff:      0.000D+00 0.000D+00 0.859D+00 0.141D+00
 Gap=    -0.019 Goal=   None    Shift=    0.000
 Gap=    -0.023 Goal=   None    Shift=    0.000
 RMSDP=7.59D-01 MaxDP=1.08D+02 DE= 3.22D+00 OVMax= 9.91D-01

 Cycle   5  Pass 1  IDiag  1:
 RMSU=  9.46D-03    CP:  1.03D+00  1.03D-04  5.26D-04  4.50D-03
 E= -921.147229997493     Delta-E=       -3.298008341004 Rises=F Damp=F
 DIIS: error= 2.84D-02 at cycle   5 NSaved=   5.
 NSaved= 5 IEnMin= 5 EnMin= -921.147229997493     IErMin= 2 ErrMin= 2.18D-02
 ErrMax= 2.84D-02  0.00D+00 EMaxC= 1.00D-01 BMatC= 8.80D-01 BMatP= 5.91D-01
 IDIUse=2 WtCom= 0.00D+00 WtEn= 1.00D+00
 Coeff-En:   0.000D+00 0.000D+00 0.435D+00 0.000D+00 0.565D+00
 Coeff:      0.000D+00 0.000D+00 0.435D+00 0.000D+00 0.565D+00
 Gap=     0.080 Goal=   None    Shift=    0.000
 Gap=     0.124 Goal=   None    Shift=    0.000
 RMSDP=1.03D-02 MaxDP=1.03D+00 DE=-3.30D+00 OVMax= 2.66D-01

 Cycle   6  Pass 1  IDiag  1:
 RMSU=  3.81D-03    CP:  9.06D-01 -1.21D-03  5.01D-01  1.75D-03  3.92D-01
 E= -921.306061618879     Delta-E=       -0.158831621386 Rises=F Damp=F
 DIIS: error= 1.42D-02 at cycle   6 NSaved=   6.
 NSaved= 6 IEnMin= 6 EnMin= -921.306061618879     IErMin= 6 ErrMin= 1.42D-02
 ErrMax= 1.42D-02  0.00D+00 EMaxC= 1.00D-01 BMatC= 2.04D-01 BMatP= 5.91D-01
 IDIUse=3 WtCom= 8.58D-01 WtEn= 1.42D-01
 Coeff-Com: -0.879D-01 0.181D+00 0.280D+00-0.189D-01 0.336D+00 0.310D+00
 Coeff-En:   0.000D+00 0.000D+00 0.000D+00 0.000D+00 0.139D+00 0.861D+00
 Coeff:     -0.754D-01 0.155D+00 0.240D+00-0.162D-01 0.308D+00 0.389D+00
 Gap=     0.082 Goal=   None    Shift=    0.000
 Gap=     0.144 Goal=   None    Shift=    0.000
 RMSDP=4.68D-03 MaxDP=4.97D-01 DE=-1.59D-01 OVMax= 1.47D-01

 Cycle   7  Pass 1  IDiag  1:
 RMSU=  2.19D-03    CP:  9.57D-01 -1.23D-03  3.56D-01  2.54D-03  5.68D-01
                    CP:  3.78D-01
 E= -921.347064403677     Delta-E=       -0.041002784799 Rises=F Damp=F
 DIIS: error= 4.48D-03 at cycle   7 NSaved=   7.
 NSaved= 7 IEnMin= 7 EnMin= -921.347064403677     IErMin= 7 ErrMin= 4.48D-03
 ErrMax= 4.48D-03  0.00D+00 EMaxC= 1.00D-01 BMatC= 1.79D-02 BMatP= 2.04D-01
 IDIUse=3 WtCom= 9.55D-01 WtEn= 4.48D-02
 Coeff-Com: -0.229D-01 0.414D-01 0.165D-01-0.495D-02 0.419D-01 0.234D+00
 Coeff-Com:  0.694D+00
 Coeff-En:   0.000D+00 0.000D+00 0.000D+00 0.000D+00 0.000D+00 0.983D-01
 Coeff-En:   0.902D+00
 Coeff:     -0.219D-01 0.396D-01 0.158D-01-0.473D-02 0.400D-01 0.228D+00
 Coeff:      0.704D+00
 Gap=     0.086 Goal=   None    Shift=    0.000
 Gap=     0.143 Goal=   None    Shift=    0.000
 RMSDP=1.00D-03 MaxDP=8.83D-02 DE=-4.10D-02 OVMax= 5.20D-02

 Cycle   8  Pass 1  IDiag  1:
 RMSU=  4.80D-04    CP:  9.48D-01 -1.50D-03  3.84D-01  2.53D-03  5.36D-01
                    CP:  4.95D-01  7.93D-01
 E= -921.350413040352     Delta-E=       -0.003348636674 Rises=F Damp=F
 DIIS: error= 1.98D-03 at cycle   8 NSaved=   8.
 NSaved= 8 IEnMin= 8 EnMin= -921.350413040352     IErMin= 8 ErrMin= 1.98D-03
 ErrMax= 1.98D-03  0.00D+00 EMaxC= 1.00D-01 BMatC= 2.38D-03 BMatP= 1.79D-02
 IDIUse=3 WtCom= 9.80D-01 WtEn= 1.98D-02
 Coeff-Com:  0.438D-03-0.322D-02-0.123D-01-0.189D-04-0.267D-02 0.116D+00
 Coeff-Com:  0.468D+00 0.434D+00
 Coeff-En:   0.000D+00 0.000D+00 0.000D+00 0.000D+00 0.000D+00 0.000D+00
 Coeff-En:   0.114D+00 0.886D+00
 Coeff:      0.429D-03-0.316D-02-0.121D-01-0.186D-04-0.261D-02 0.113D+00
 Coeff:      0.461D+00 0.443D+00
 Gap=     0.085 Goal=   None    Shift=    0.000
 Gap=     0.133 Goal=   None    Shift=    0.000
 RMSDP=3.63D-04 MaxDP=3.44D-02 DE=-3.35D-03 OVMax= 1.25D-02

 Cycle   9  Pass 1  IDiag  1:
 RMSU=  2.13D-04    CP:  9.44D-01 -1.42D-03  3.81D-01  2.50D-03  5.32D-01
                    CP:  4.87D-01  8.26D-01  6.96D-01
 E= -921.351053377781     Delta-E=       -0.000640337430 Rises=F Damp=F
 DIIS: error= 4.90D-04 at cycle   9 NSaved=   9.
 NSaved= 9 IEnMin= 9 EnMin= -921.351053377781     IErMin= 9 ErrMin= 4.90D-04
 ErrMax= 4.90D-04  0.00D+00 EMaxC= 1.00D-01 BMatC= 1.74D-04 BMatP= 2.38D-03
 IDIUse=3 WtCom= 9.95D-01 WtEn= 4.90D-03
 Coeff-Com:  0.677D-03-0.135D-02-0.803D-02 0.426D-03-0.729D-02 0.251D-01
 Coeff-Com:  0.125D+00 0.235D+00 0.630D+00
 Coeff-En:   0.000D+00 0.000D+00 0.000D+00 0.000D+00 0.000D+00 0.000D+00
 Coeff-En:   0.000D+00 0.838D-02 0.992D+00
 Coeff:      0.673D-03-0.134D-02-0.799D-02 0.424D-03-0.726D-02 0.250D-01
 Coeff:      0.125D+00 0.234D+00 0.632D+00
 Gap=     0.086 Goal=   None    Shift=    0.000
 Gap=     0.133 Goal=   None    Shift=    0.000
 RMSDP=1.04D-04 MaxDP=9.06D-03 DE=-6.40D-04 OVMax= 5.03D-03

 Cycle  10  Pass 1  IDiag  1:
 RMSU=  7.99D-05    CP:  9.44D-01 -1.43D-03  3.83D-01  2.51D-03  5.32D-01
                    CP:  4.97D-01  8.32D-01  6.69D-01  7.74D-01
 E= -921.351109786850     Delta-E=       -0.000056409068 Rises=F Damp=F
 DIIS: error= 2.42D-04 at cycle  10 NSaved=  10.
 NSaved=10 IEnMin=10 EnMin= -921.351109786850     IErMin=10 ErrMin= 2.42D-04
 ErrMax= 2.42D-04  0.00D+00 EMaxC= 1.00D-01 BMatC= 4.37D-05 BMatP= 1.74D-04
 IDIUse=3 WtCom= 9.98D-01 WtEn= 2.42D-03
 Coeff-Com:  0.347D-03-0.312D-04-0.184D-02 0.329D-03-0.340D-02-0.105D-01
 Coeff-Com: -0.380D-01 0.261D-01 0.366D+00 0.661D+00
 Coeff-En:   0.000D+00 0.000D+00 0.000D+00 0.000D+00 0.000D+00 0.000D+00
 Coeff-En:   0.000D+00 0.000D+00 0.000D+00 0.100D+01
 Coeff:      0.346D-03-0.311D-04-0.184D-02 0.329D-03-0.339D-02-0.105D-01
 Coeff:     -0.379D-01 0.260D-01 0.365D+00 0.662D+00
 Gap=     0.086 Goal=   None    Shift=    0.000
 Gap=     0.133 Goal=   None    Shift=    0.000
 RMSDP=5.29D-05 MaxDP=5.35D-03 DE=-5.64D-05 OVMax= 2.33D-03

 Cycle  11  Pass 1  IDiag  1:
 RMSU=  4.34D-05    CP:  9.44D-01 -1.41D-03  3.83D-01  2.51D-03  5.30D-01
                    CP:  4.99D-01  8.26D-01  6.85D-01  8.35D-01  1.06D+00
 E= -921.351126775202     Delta-E=       -0.000016988353 Rises=F Damp=F
 DIIS: error= 9.87D-05 at cycle  11 NSaved=  11.
 NSaved=11 IEnMin=11 EnMin= -921.351126775202     IErMin=11 ErrMin= 9.87D-05
 ErrMax= 9.87D-05  0.00D+00 EMaxC= 1.00D-01 BMatC= 9.33D-06 BMatP= 4.37D-05
 IDIUse=1 WtCom= 1.00D+00 WtEn= 0.00D+00
 Coeff-Com: -0.492D-03 0.108D-02 0.164D-02 0.124D-04 0.590D-03-0.124D-01
 Coeff-Com: -0.592D-01-0.669D-01-0.122D-01 0.346D+00 0.802D+00
 Coeff:     -0.492D-03 0.108D-02 0.164D-02 0.124D-04 0.590D-03-0.124D-01
 Coeff:     -0.592D-01-0.669D-01-0.122D-01 0.346D+00 0.802D+00
 Gap=     0.086 Goal=   None    Shift=    0.000
 Gap=     0.133 Goal=   None    Shift=    0.000
 RMSDP=3.74D-05 MaxDP=3.56D-03 DE=-1.70D-05 OVMax= 1.57D-03

 Cycle  12  Pass 1  IDiag  1:
 RMSU=  2.62D-05    CP:  9.44D-01 -1.42D-03  3.83D-01  2.50D-03  5.29D-01
                    CP:  4.99D-01  8.29D-01  6.89D-01  8.91D-01  1.30D+00
                    CP:  9.38D-01
 E= -921.351131363966     Delta-E=       -0.000004588764 Rises=F Damp=F
 DIIS: error= 5.63D-05 at cycle  12 NSaved=  12.
 NSaved=12 IEnMin=12 EnMin= -921.351131363966     IErMin=12 ErrMin= 5.63D-05
 ErrMax= 5.63D-05  0.00D+00 EMaxC= 1.00D-01 BMatC= 3.03D-06 BMatP= 9.33D-06
 IDIUse=1 WtCom= 1.00D+00 WtEn= 0.00D+00
 Coeff-Com: -0.200D-03 0.282D-03 0.123D-02-0.527D-04 0.892D-03-0.547D-02
 Coeff-Com: -0.280D-01-0.476D-01-0.789D-01 0.881D-01 0.495D+00 0.575D+00
 Coeff:     -0.200D-03 0.282D-03 0.123D-02-0.527D-04 0.892D-03-0.547D-02
 Coeff:     -0.280D-01-0.476D-01-0.789D-01 0.881D-01 0.495D+00 0.575D+00
 Gap=     0.086 Goal=   None    Shift=    0.000
 Gap=     0.133 Goal=   None    Shift=    0.000
 RMSDP=1.64D-05 MaxDP=1.30D-03 DE=-4.59D-06 OVMax= 6.02D-04

 Cycle  13  Pass 1  IDiag  1:
 RMSU=  1.05D-05    CP:  9.43D-01 -1.41D-03  3.83D-01  2.51D-03  5.29D-01
                    CP:  4.99D-01  8.28D-01  6.94D-01  9.19D-01  1.34D+00
                    CP:  1.09D+00  9.82D-01
 E= -921.351132411161     Delta-E=       -0.000001047194 Rises=F Damp=F
 DIIS: error= 2.17D-05 at cycle  13 NSaved=  13.
 NSaved=13 IEnMin=13 EnMin= -921.351132411161     IErMin=13 ErrMin= 2.17D-05
 ErrMax= 2.17D-05  0.00D+00 EMaxC= 1.00D-01 BMatC= 5.49D-07 BMatP= 3.03D-06
 IDIUse=1 WtCom= 1.00D+00 WtEn= 0.00D+00
 Coeff-Com:  0.719D-04-0.170D-03 0.255D-03-0.110D-04 0.194D-03 0.299D-03
 Coeff-Com:  0.825D-03-0.881D-02-0.362D-01-0.437D-01 0.430D-01 0.326D+00
 Coeff-Com:  0.718D+00
 Coeff:      0.719D-04-0.170D-03 0.255D-03-0.110D-04 0.194D-03 0.299D-03
 Coeff:      0.825D-03-0.881D-02-0.362D-01-0.437D-01 0.430D-01 0.326D+00
 Coeff:      0.718D+00
 Gap=     0.086 Goal=   None    Shift=    0.000
 Gap=     0.133 Goal=   None    Shift=    0.000
 RMSDP=7.64D-06 MaxDP=9.21D-04 DE=-1.05D-06 OVMax= 2.27D-04

 Cycle  14  Pass 1  IDiag  1:
 RMSU=  4.29D-06    CP:  9.43D-01 -1.42D-03  3.83D-01  2.51D-03  5.28D-01
                    CP:  4.99D-01  8.29D-01  6.92D-01  9.18D-01  1.38D+00
                    CP:  1.18D+00  1.03D+00  1.07D+00
 E= -921.351132594519     Delta-E=       -0.000000183358 Rises=F Damp=F
 DIIS: error= 1.09D-05 at cycle  14 NSaved=  14.
 NSaved=14 IEnMin=14 EnMin= -921.351132594519     IErMin=14 ErrMin= 1.09D-05
 ErrMax= 1.09D-05  0.00D+00 EMaxC= 1.00D-01 BMatC= 1.46D-07 BMatP= 5.49D-07
 IDIUse=1 WtCom= 1.00D+00 WtEn= 0.00D+00
 Coeff-Com:  0.120D-03-0.204D-03 0.324D-04 0.382D-05-0.611D-05 0.798D-03
 Coeff-Com:  0.364D-02 0.237D-03-0.113D-01-0.363D-01-0.336D-01 0.128D+00
 Coeff-Com:  0.438D+00 0.511D+00
 Coeff:      0.120D-03-0.204D-03 0.324D-04 0.382D-05-0.611D-05 0.798D-03
 Coeff:      0.364D-02 0.237D-03-0.113D-01-0.363D-01-0.336D-01 0.128D+00
 Coeff:      0.438D+00 0.511D+00
 Gap=     0.086 Goal=   None    Shift=    0.000
 Gap=     0.133 Goal=   None    Shift=    0.000
 RMSDP=2.22D-06 MaxDP=1.10D-04 DE=-1.83D-07 OVMax= 9.33D-05

 Cycle  15  Pass 1  IDiag  1:
 RMSU=  1.46D-06    CP:  9.43D-01 -1.42D-03  3.83D-01  2.51D-03  5.28D-01
                    CP:  4.99D-01  8.29D-01  6.91D-01  9.18D-01  1.39D+00
                    CP:  1.18D+00  1.08D+00  1.08D+00  8.92D-01
 E= -921.351132634220     Delta-E=       -0.000000039700 Rises=F Damp=F
 DIIS: error= 2.84D-06 at cycle  15 NSaved=  15.
 NSaved=15 IEnMin=15 EnMin= -921.351132634220     IErMin=15 ErrMin= 2.84D-06
 ErrMax= 2.84D-06  0.00D+00 EMaxC= 1.00D-01 BMatC= 1.21D-08 BMatP= 1.46D-07
 IDIUse=1 WtCom= 1.00D+00 WtEn= 0.00D+00
 Coeff-Com:  0.684D-04-0.911D-04-0.364D-04 0.763D-06-0.479D-04 0.347D-03
 Coeff-Com:  0.155D-02 0.234D-02 0.362D-02-0.729D-02-0.245D-01-0.172D-01
 Coeff-Com:  0.235D-01 0.192D+00 0.826D+00
 Coeff:      0.684D-04-0.911D-04-0.364D-04 0.763D-06-0.479D-04 0.347D-03
 Coeff:      0.155D-02 0.234D-02 0.362D-02-0.729D-02-0.245D-01-0.172D-01
 Coeff:      0.235D-01 0.192D+00 0.826D+00
 Gap=     0.086 Goal=   None    Shift=    0.000
 Gap=     0.133 Goal=   None    Shift=    0.000
 RMSDP=1.18D-06 MaxDP=1.15D-04 DE=-3.97D-08 OVMax= 4.04D-05

 Cycle  16  Pass 1  IDiag  1:
 RMSU=  6.71D-07    CP:  9.43D-01 -1.42D-03  3.83D-01  2.50D-03  5.28D-01
                    CP:  4.99D-01  8.28D-01  6.91D-01  9.19D-01  1.39D+00
                    CP:  1.19D+00  1.09D+00  1.08D+00  9.35D-01  9.56D-01
 E= -921.351132638547     Delta-E=       -0.000000004327 Rises=F Damp=F
 DIIS: error= 1.52D-06 at cycle  16 NSaved=  16.
 NSaved=16 IEnMin=16 EnMin= -921.351132638547     IErMin=16 ErrMin= 1.52D-06
 ErrMax= 1.52D-06  0.00D+00 EMaxC= 1.00D-01 BMatC= 2.17D-09 BMatP= 1.21D-08
 IDIUse=1 WtCom= 1.00D+00 WtEn= 0.00D+00
 Coeff-Com:  0.337D-04-0.460D-04-0.167D-04 0.140D-05-0.269D-04 0.835D-04
 Coeff-Com:  0.431D-03 0.131D-02 0.313D-02-0.409D-03-0.920D-02-0.196D-01
 Coeff-Com: -0.304D-01 0.399D-01 0.377D+00 0.638D+00
 Coeff:      0.337D-04-0.460D-04-0.167D-04 0.140D-05-0.269D-04 0.835D-04
 Coeff:      0.431D-03 0.131D-02 0.313D-02-0.409D-03-0.920D-02-0.196D-01
 Coeff:     -0.304D-01 0.399D-01 0.377D+00 0.638D+00
 Gap=     0.086 Goal=   None    Shift=    0.000
 Gap=     0.133 Goal=   None    Shift=    0.000
 RMSDP=5.14D-07 MaxDP=3.48D-05 DE=-4.33D-09 OVMax= 1.35D-05

 Cycle  17  Pass 1  IDiag  1:
 RMSU=  2.91D-07    CP:  9.43D-01 -1.42D-03  3.83D-01  2.50D-03  5.28D-01
                    CP:  4.99D-01  8.28D-01  6.91D-01  9.19D-01  1.39D+00
                    CP:  1.19D+00  1.09D+00  1.10D+00  9.56D-01  1.01D+00
                    CP:  7.94D-01
 E= -921.351132639151     Delta-E=       -0.000000000604 Rises=F Damp=F
 DIIS: error= 1.45D-06 at cycle  17 NSaved=  17.
 NSaved=17 IEnMin=17 EnMin= -921.351132639151     IErMin=17 ErrMin= 1.45D-06
 ErrMax= 1.45D-06  0.00D+00 EMaxC= 1.00D-01 BMatC= 8.29D-10 BMatP= 2.17D-09
 IDIUse=1 WtCom= 1.00D+00 WtEn= 0.00D+00
 Coeff-Com: -0.736D-06 0.291D-05 0.218D-05-0.799D-06-0.451D-05-0.362D-04
 Coeff-Com: -0.112D-03 0.245D-03 0.847D-03 0.137D-02 0.117D-02-0.619D-02
 Coeff-Com: -0.253D-01-0.253D-01 0.211D-01 0.428D+00 0.605D+00
 Coeff:     -0.736D-06 0.291D-05 0.218D-05-0.799D-06-0.451D-05-0.362D-04
 Coeff:     -0.112D-03 0.245D-03 0.847D-03 0.137D-02 0.117D-02-0.619D-02
 Coeff:     -0.253D-01-0.253D-01 0.211D-01 0.428D+00 0.605D+00
 Gap=     0.086 Goal=   None    Shift=    0.000
 Gap=     0.133 Goal=   None    Shift=    0.000
 RMSDP=2.59D-07 MaxDP=2.30D-05 DE=-6.04D-10 OVMax= 1.36D-05

 Cycle  18  Pass 1  IDiag  1:
 RMSU=  1.21D-07    CP:  9.43D-01 -1.42D-03  3.83D-01  2.50D-03  5.28D-01
                    CP:  4.99D-01  8.28D-01  6.91D-01  9.19D-01  1.39D+00
                    CP:  1.19D+00  1.09D+00  1.10D+00  9.52D-01  1.03D+00
                    CP:  9.51D-01  9.20D-01
 E= -921.351132639519     Delta-E=       -0.000000000368 Rises=F Damp=F
 DIIS: error= 4.04D-07 at cycle  18 NSaved=  18.
 NSaved=18 IEnMin=18 EnMin= -921.351132639519     IErMin=18 ErrMin= 4.04D-07
 ErrMax= 4.04D-07  0.00D+00 EMaxC= 1.00D-01 BMatC= 1.08D-10 BMatP= 8.29D-10
 IDIUse=1 WtCom= 1.00D+00 WtEn= 0.00D+00
 Coeff-Com: -0.644D-05 0.871D-05 0.328D-05-0.183D-06 0.176D-05-0.365D-04
 Coeff-Com: -0.132D-03-0.123D-03-0.151D-03 0.671D-03 0.215D-02 0.104D-02
 Coeff-Com: -0.523D-02-0.184D-01-0.663D-01 0.597D-01 0.273D+00 0.753D+00
 Coeff:     -0.644D-05 0.871D-05 0.328D-05-0.183D-06 0.176D-05-0.365D-04
 Coeff:     -0.132D-03-0.123D-03-0.151D-03 0.671D-03 0.215D-02 0.104D-02
 Coeff:     -0.523D-02-0.184D-01-0.663D-01 0.597D-01 0.273D+00 0.753D+00
 Gap=     0.086 Goal=   None    Shift=    0.000
 Gap=     0.133 Goal=   None    Shift=    0.000
 RMSDP=1.02D-07 MaxDP=9.43D-06 DE=-3.68D-10 OVMax= 6.53D-06

 Cycle  19  Pass 1  IDiag  1:
 RMSU=  5.94D-08    CP:  9.43D-01 -1.42D-03  3.83D-01  2.50D-03  5.28D-01
                    CP:  4.99D-01  8.28D-01  6.91D-01  9.19D-01  1.39D+00
                    CP:  1.19D+00  1.09D+00  1.10D+00  9.53D-01  1.03D+00
                    CP:  9.29D-01  1.00D+00  8.09D-01
 E= -921.351132639591     Delta-E=       -0.000000000072 Rises=F Damp=F
 DIIS: error= 2.21D-07 at cycle  19 NSaved=  19.
 NSaved=19 IEnMin=19 EnMin= -921.351132639591     IErMin=19 ErrMin= 2.21D-07
 ErrMax= 2.21D-07  0.00D+00 EMaxC= 1.00D-01 BMatC= 4.90D-11 BMatP= 1.08D-10
 IDIUse=1 WtCom= 1.00D+00 WtEn= 0.00D+00
 Coeff-Com: -0.455D-05 0.560D-05 0.485D-06-0.314D-07 0.381D-05-0.265D-05
 Coeff-Com: -0.189D-04-0.181D-03-0.473D-03-0.276D-03 0.743D-03 0.303D-02
 Coeff-Com:  0.726D-02 0.121D-02-0.419D-01-0.134D+00-0.830D-01 0.429D+00
 Coeff-Com:  0.819D+00
 Coeff:     -0.455D-05 0.560D-05 0.485D-06-0.314D-07 0.381D-05-0.265D-05
 Coeff:     -0.189D-04-0.181D-03-0.473D-03-0.276D-03 0.743D-03 0.303D-02
 Coeff:      0.726D-02 0.121D-02-0.419D-01-0.134D+00-0.830D-01 0.429D+00
 Coeff:      0.819D+00
 Gap=     0.086 Goal=   None    Shift=    0.000
 Gap=     0.133 Goal=   None    Shift=    0.000
 RMSDP=5.92D-08 MaxDP=7.07D-06 DE=-7.19D-11 OVMax= 5.22D-06

 Cycle  20  Pass 1  IDiag  1:
 RMSU=  3.87D-08    CP:  9.43D-01 -1.42D-03  3.83D-01  2.50D-03  5.28D-01
                    CP:  4.99D-01  8.28D-01  6.91D-01  9.19D-01  1.39D+00
                    CP:  1.19D+00  1.09D+00  1.09D+00  9.51D-01  1.02D+00
                    CP:  9.51D-01  9.93D-01  8.84D-01  1.25D+00
 E= -921.351132639633     Delta-E=       -0.000000000042 Rises=F Damp=F
 DIIS: error= 1.34D-07 at cycle  20 NSaved=  20.
 NSaved=20 IEnMin=20 EnMin= -921.351132639633     IErMin=20 ErrMin= 1.34D-07
 ErrMax= 1.34D-07  0.00D+00 EMaxC= 1.00D-01 BMatC= 9.07D-12 BMatP= 4.90D-11
 IDIUse=1 WtCom= 1.00D+00 WtEn= 0.00D+00
 Coeff-Com: -0.199D-06 0.313D-06-0.107D-05 0.945D-07 0.970D-06 0.867D-05
 Coeff-Com:  0.244D-04-0.541D-04-0.133D-03-0.242D-03-0.224D-03 0.721D-03
 Coeff-Com:  0.400D-02 0.584D-02 0.139D-02-0.675D-01-0.107D+00-0.824D-01
 Coeff-Com:  0.292D+00 0.954D+00
 Coeff:     -0.199D-06 0.313D-06-0.107D-05 0.945D-07 0.970D-06 0.867D-05
 Coeff:      0.244D-04-0.541D-04-0.133D-03-0.242D-03-0.224D-03 0.721D-03
 Coeff:      0.400D-02 0.584D-02 0.139D-02-0.675D-01-0.107D+00-0.824D-01
 Coeff:      0.292D+00 0.954D+00
 Gap=     0.086 Goal=   None    Shift=    0.000
 Gap=     0.133 Goal=   None    Shift=    0.000
 RMSDP=4.16D-08 MaxDP=6.55D-06 DE=-4.18D-11 OVMax= 3.53D-06

 Cycle  21  Pass 1  IDiag  1:
 Restarting incremental Fock formation.
 E= -921.351132639668     Delta-E=       -0.000000000035 Rises=F Damp=F
 DIIS: error= 7.08D-08 at cycle  21 NSaved=  20.
 NSaved=20 IEnMin=20 EnMin= -921.351132639668     IErMin=20 ErrMin= 7.08D-08
 ErrMax= 7.08D-08  0.00D+00 EMaxC= 1.00D-01 BMatC= 3.71D-12 BMatP= 9.07D-12
 IDIUse=1 WtCom= 1.00D+00 WtEn= 0.00D+00
 Coeff-Com:  0.424D-06-0.231D-06-0.360D-06 0.190D-06 0.447D-05 0.114D-04
 Coeff-Com: -0.536D-05 0.126D-04-0.462D-04-0.207D-03-0.243D-03 0.701D-03
 Coeff-Com:  0.288D-02 0.749D-02-0.140D-01-0.443D-01-0.136D+00 0.553D-02
 Coeff-Com:  0.559D+00 0.619D+00
 Coeff:      0.424D-06-0.231D-06-0.360D-06 0.190D-06 0.447D-05 0.114D-04
 Coeff:     -0.536D-05 0.126D-04-0.462D-04-0.207D-03-0.243D-03 0.701D-03
 Coeff:      0.288D-02 0.749D-02-0.140D-01-0.443D-01-0.136D+00 0.553D-02
 Coeff:      0.559D+00 0.619D+00
 Gap=     0.086 Goal=   None    Shift=    0.000
 Gap=     0.133 Goal=   None    Shift=    0.000
 RMSDP=1.90D-08 MaxDP=2.94D-06 DE=-3.50D-11 OVMax= 1.40D-06

 Cycle  22  Pass 1  IDiag  1:
 RMSU=  1.89D-08    CP:  1.00D+00
 E= -921.351132639665     Delta-E=        0.000000000003 Rises=F Damp=F
 DIIS: error= 3.66D-08 at cycle  22 NSaved=  20.
 NSaved=20 IEnMin=19 EnMin= -921.351132639668     IErMin=20 ErrMin= 3.66D-08
 ErrMax= 3.66D-08  0.00D+00 EMaxC= 1.00D-01 BMatC= 7.69D-13 BMatP= 3.71D-12
 IDIUse=1 WtCom= 1.00D+00 WtEn= 0.00D+00
 Coeff-Com:  0.204D-06 0.365D-06-0.112D-06-0.102D-05-0.354D-05 0.350D-05
 Coeff-Com:  0.267D-04 0.529D-04 0.142D-04-0.249D-03-0.544D-03-0.361D-03
 Coeff-Com:  0.758D-03 0.710D-02 0.635D-02-0.342D-01-0.566D-01 0.264D-01
 Coeff-Com:  0.311D+00 0.740D+00
 Coeff:      0.204D-06 0.365D-06-0.112D-06-0.102D-05-0.354D-05 0.350D-05
 Coeff:      0.267D-04 0.529D-04 0.142D-04-0.249D-03-0.544D-03-0.361D-03
 Coeff:      0.758D-03 0.710D-02 0.635D-02-0.342D-01-0.566D-01 0.264D-01
 Coeff:      0.311D+00 0.740D+00
 Gap=     0.086 Goal=   None    Shift=    0.000
 Gap=     0.133 Goal=   None    Shift=    0.000
 RMSDP=9.71D-09 MaxDP=1.42D-06 DE= 3.18D-12 OVMax= 5.63D-07

 Cycle  23  Pass 1  IDiag  1:
 RMSU=  7.38D-09    CP:  1.00D+00  6.68D-01
 E= -921.351132639667     Delta-E=       -0.000000000002 Rises=F Damp=F
 DIIS: error= 1.72D-08 at cycle  23 NSaved=  20.
 NSaved=20 IEnMin=18 EnMin= -921.351132639668     IErMin=20 ErrMin= 1.72D-08
 ErrMax= 1.72D-08  0.00D+00 EMaxC= 1.00D-01 BMatC= 2.07D-13 BMatP= 7.69D-13
 IDIUse=1 WtCom= 1.00D+00 WtEn= 0.00D+00
 Coeff-Com:  0.154D-06-0.205D-06-0.768D-06-0.743D-06 0.664D-05 0.171D-04
 Coeff-Com:  0.222D-04-0.126D-05-0.118D-03-0.325D-03-0.376D-03 0.337D-03
 Coeff-Com:  0.671D-02 0.937D-02-0.180D-02-0.351D-01-0.775D-01 0.683D-01
 Coeff-Com:  0.403D+00 0.627D+00
 Coeff:      0.154D-06-0.205D-06-0.768D-06-0.743D-06 0.664D-05 0.171D-04
 Coeff:      0.222D-04-0.126D-05-0.118D-03-0.325D-03-0.376D-03 0.337D-03
 Coeff:      0.671D-02 0.937D-02-0.180D-02-0.351D-01-0.775D-01 0.683D-01
 Coeff:      0.403D+00 0.627D+00
 Gap=     0.086 Goal=   None    Shift=    0.000
 Gap=     0.133 Goal=   None    Shift=    0.000
 RMSDP=3.67D-09 MaxDP=3.89D-07 DE=-1.82D-12 OVMax= 2.54D-07

 SCF Done:  E(UB3LYP) =  -921.351132640     A.U. after   23 cycles
            NFock= 23  Conv=0.37D-08     -V/T= 2.0043
 <Sx>= 0.0000 <Sy>= 0.0000 <Sz>= 0.5000 <S**2>= 0.7601 S= 0.5050
 <L.S>=  0.00000000000    
 KE= 9.173915101229D+02 PE=-5.414644256420D+03 EE= 1.950552197038D+03
 Annihilation of the first spin contaminant:
 S**2 before annihilation     0.7601,   after     0.7501
 Leave Link  502 at Wed Dec 27 19:59:24 2023, MaxMem=  4026531840 cpu:            6749.2 elap:             864.7
 (Enter /sysapps/ubuntu-applications/gaussian/Gaussian/AVX2/g16/l601.exe)
 Copying SCF densities to generalized density rwf, IOpCl= 1 IROHF=0.

 **********************************************************************

            Population analysis using the SCF density.

 **********************************************************************

 Alpha  occ. eigenvalues --  -18.95225 -18.95003 -10.10399 -10.10147 -10.08293
 Alpha  occ. eigenvalues --  -10.07766 -10.07134 -10.07094 -10.07011 -10.06800
 Alpha  occ. eigenvalues --  -10.06399 -10.06349 -10.06340 -10.06099 -10.05775
 Alpha  occ. eigenvalues --  -10.05670 -10.05570 -10.05516 -10.05443 -10.05249
 Alpha  occ. eigenvalues --  -10.05012 -10.05004  -0.87970  -0.87698  -0.76311
 Alpha  occ. eigenvalues --   -0.74247  -0.72119  -0.68434  -0.66625  -0.63970
 Alpha  occ. eigenvalues --   -0.63498  -0.62485  -0.60008  -0.58080  -0.54423
 Alpha  occ. eigenvalues --   -0.51562  -0.50559  -0.48944  -0.47398  -0.44179
 Alpha  occ. eigenvalues --   -0.42375  -0.40177  -0.38815  -0.37657  -0.35875
 Alpha  occ. eigenvalues --   -0.34824  -0.33494  -0.33421  -0.32984  -0.32467
 Alpha  occ. eigenvalues --   -0.32288  -0.31151  -0.30501  -0.29941  -0.29519
 Alpha  occ. eigenvalues --   -0.28944  -0.28593  -0.27821  -0.27671  -0.26308
 Alpha  occ. eigenvalues --   -0.25973  -0.25395  -0.24210  -0.23454  -0.22830
 Alpha  occ. eigenvalues --   -0.22489  -0.21531  -0.19912  -0.16309  -0.14421
 Alpha  occ. eigenvalues --   -0.14013  -0.13169  -0.11967  -0.10916  -0.10811
 Alpha  occ. eigenvalues --   -0.02345
 Alpha virt. eigenvalues --    0.06296   0.06425   0.07369   0.07899   0.08019
 Alpha virt. eigenvalues --    0.09371   0.09486   0.09989   0.10327   0.10734
 Alpha virt. eigenvalues --    0.11475   0.11745   0.12119   0.12226   0.12916
 Alpha virt. eigenvalues --    0.13244   0.14315   0.15062   0.15107   0.15196
 Alpha virt. eigenvalues --    0.15876   0.16728   0.16878   0.17154   0.17672
 Alpha virt. eigenvalues --    0.17957   0.18239   0.18629   0.18838   0.19194
 Alpha virt. eigenvalues --    0.19390   0.19524   0.19707   0.20309   0.20352
 Alpha virt. eigenvalues --    0.20582   0.20780   0.21064   0.21412   0.21571
 Alpha virt. eigenvalues --    0.21613   0.22194   0.22630   0.22657   0.23298
 Alpha virt. eigenvalues --    0.23679   0.23871   0.24237   0.24531   0.24595
 Alpha virt. eigenvalues --    0.25016   0.25069   0.25600   0.25862   0.26217
 Alpha virt. eigenvalues --    0.26608   0.26870   0.27051   0.27696   0.28071
 Alpha virt. eigenvalues --    0.28415   0.28605   0.28915   0.29044   0.29946
 Alpha virt. eigenvalues --    0.30300   0.30946   0.31015   0.31548   0.31753
 Alpha virt. eigenvalues --    0.32209   0.32787   0.32976   0.33005   0.33396
 Alpha virt. eigenvalues --    0.33824   0.33902   0.34539   0.34715   0.35096
 Alpha virt. eigenvalues --    0.35641   0.35939   0.36215   0.36760   0.37126
 Alpha virt. eigenvalues --    0.37192   0.37383   0.37653   0.38111   0.38425
 Alpha virt. eigenvalues --    0.38862   0.38920   0.39071   0.39650   0.39864
 Alpha virt. eigenvalues --    0.40373   0.40562   0.40922   0.41373   0.41740
 Alpha virt. eigenvalues --    0.42390   0.42945   0.43003   0.43451   0.43694
 Alpha virt. eigenvalues --    0.43731   0.44011   0.44482   0.44643   0.45965
 Alpha virt. eigenvalues --    0.46353   0.46947   0.47195   0.47700   0.48316
 Alpha virt. eigenvalues --    0.48569   0.48925   0.49283   0.50438   0.51082
 Alpha virt. eigenvalues --    0.51669   0.52647   0.53592   0.54160   0.54388
 Alpha virt. eigenvalues --    0.54793   0.55587   0.56475   0.57123   0.57475
 Alpha virt. eigenvalues --    0.58082   0.59544   0.60318   0.61790   0.62846
 Alpha virt. eigenvalues --    0.64012   0.65247   0.65590   0.65664   0.66392
 Alpha virt. eigenvalues --    0.66398   0.67446   0.67913   0.68252   0.68407
 Alpha virt. eigenvalues --    0.68461   0.68884   0.69781   0.70674   0.70693
 Alpha virt. eigenvalues --    0.70765   0.70971   0.71722   0.72878   0.72933
 Alpha virt. eigenvalues --    0.73309   0.73801   0.74495   0.75197   0.76138
 Alpha virt. eigenvalues --    0.76597   0.76925   0.77118   0.77639   0.78228
 Alpha virt. eigenvalues --    0.78408   0.78550   0.79442   0.79591   0.79610
 Alpha virt. eigenvalues --    0.81179   0.81300   0.81917   0.82144   0.82636
 Alpha virt. eigenvalues --    0.83456   0.83596   0.84156   0.84473   0.85508
 Alpha virt. eigenvalues --    0.85774   0.87380   0.88266   0.88583   0.89231
 Alpha virt. eigenvalues --    0.89327   0.90170   0.90415   0.92712   0.93232
 Alpha virt. eigenvalues --    0.94565   0.94840   0.95321   0.97101   0.98169
 Alpha virt. eigenvalues --    0.99432   1.00827   1.01402   1.03221   1.03651
 Alpha virt. eigenvalues --    1.04364   1.04646   1.05366   1.05697   1.05827
 Alpha virt. eigenvalues --    1.06065   1.06355   1.06761   1.07576   1.08340
 Alpha virt. eigenvalues --    1.08778   1.09619   1.09955   1.10540   1.11430
 Alpha virt. eigenvalues --    1.11544   1.11968   1.12457   1.14001   1.14020
 Alpha virt. eigenvalues --    1.14897   1.16199   1.16276   1.17292   1.19884
 Alpha virt. eigenvalues --    1.20678   1.20698   1.21321   1.21602   1.22721
 Alpha virt. eigenvalues --    1.23124   1.23820   1.24333   1.25233   1.26164
 Alpha virt. eigenvalues --    1.26274   1.29378   1.31196   1.33279   1.34505
 Alpha virt. eigenvalues --    1.36277   1.37841   1.38418   1.38807   1.39365
 Alpha virt. eigenvalues --    1.42346   1.44372   1.45046   1.45130   1.46553
 Alpha virt. eigenvalues --    1.47387   1.47956   1.48554   1.50151   1.51191
 Alpha virt. eigenvalues --    1.54221   1.54505   1.55679   1.57852   1.58245
 Alpha virt. eigenvalues --    1.58876   1.60428   1.61207   1.61369   1.61709
 Alpha virt. eigenvalues --    1.63341   1.63501   1.64117   1.65102   1.65320
 Alpha virt. eigenvalues --    1.65904   1.66671   1.67165   1.67786   1.67981
 Alpha virt. eigenvalues --    1.68263   1.69661   1.70570   1.70852   1.72455
 Alpha virt. eigenvalues --    1.73048   1.73068   1.75400   1.77044   1.78013
 Alpha virt. eigenvalues --    1.79280   1.80594   1.81335   1.82137   1.83029
 Alpha virt. eigenvalues --    1.84279   1.85239   1.86525   1.87168   1.88011
 Alpha virt. eigenvalues --    1.88669   1.89163   1.90077   1.91111   1.91360
 Alpha virt. eigenvalues --    1.92791   1.93441   1.94607   1.96239   1.98147
 Alpha virt. eigenvalues --    1.98222   1.98956   2.00331   2.01623   2.02994
 Alpha virt. eigenvalues --    2.04232   2.05149   2.05317   2.05331   2.05754
 Alpha virt. eigenvalues --    2.08010   2.08134   2.08392   2.09690   2.09834
 Alpha virt. eigenvalues --    2.10657   2.10829   2.11925   2.14167   2.15187
 Alpha virt. eigenvalues --    2.15448   2.17308   2.18013   2.19310   2.19500
 Alpha virt. eigenvalues --    2.21675   2.24735   2.24820   2.26675   2.28213
 Alpha virt. eigenvalues --    2.28925   2.29596   2.31567   2.33578   2.35331
 Alpha virt. eigenvalues --    2.37209   2.37607   2.39555   2.40237   2.42072
 Alpha virt. eigenvalues --    2.42795   2.45063   2.45973   2.46420   2.48208
 Alpha virt. eigenvalues --    2.49477   2.51028   2.54368   2.56044   2.56382
 Alpha virt. eigenvalues --    2.56831   2.58200   2.59873   2.60378   2.62359
 Alpha virt. eigenvalues --    2.63151   2.64891   2.66074   2.67330   2.67468
 Alpha virt. eigenvalues --    2.69396   2.69559   2.71300   2.74302   2.75558
 Alpha virt. eigenvalues --    2.75918   2.77762   2.77820   2.81093   2.81381
 Alpha virt. eigenvalues --    2.82184   2.83320   2.84159   2.84671   2.85417
 Alpha virt. eigenvalues --    2.85946   2.86865   2.88313   2.88672   2.89336
 Alpha virt. eigenvalues --    2.90399   2.91255   2.91729   2.92978   2.94355
 Alpha virt. eigenvalues --    2.95284   2.96334   2.96394   2.97286   2.97397
 Alpha virt. eigenvalues --    2.98852   3.00802   3.01700   3.02177   3.03402
 Alpha virt. eigenvalues --    3.03429   3.04342   3.05935   3.06284   3.09155
 Alpha virt. eigenvalues --    3.09702   3.09755   3.12244   3.14432   3.16362
 Alpha virt. eigenvalues --    3.20162   3.20964   3.22428   3.25271   3.26307
 Alpha virt. eigenvalues --    3.27429   3.29579   3.32014   3.33534   3.35348
 Alpha virt. eigenvalues --    3.35965   3.37733   3.41238   3.43790   3.45581
 Alpha virt. eigenvalues --    3.46086   3.48428   3.48624   3.52150   3.53712
 Alpha virt. eigenvalues --    3.55464   3.59502   3.62946   3.64260   3.65122
 Alpha virt. eigenvalues --    3.68527   3.69611   3.70925   3.72603   3.73918
 Alpha virt. eigenvalues --    3.79142   3.82030   3.85789   3.87402   3.87976
 Alpha virt. eigenvalues --    3.90587   3.92994   3.95762   3.97665   3.99146
 Alpha virt. eigenvalues --    4.04702   4.15513   4.19032   4.20170   4.31293
 Alpha virt. eigenvalues --    4.33974   4.38023   4.41587   4.44130   4.47203
 Alpha virt. eigenvalues --    4.53908   4.71994   4.93743   4.96695   4.97136
 Alpha virt. eigenvalues --    5.00647   5.20461   5.21941   5.42047   5.48370
 Alpha virt. eigenvalues --    5.89964   5.98166  23.62271  23.77147  23.90487
 Alpha virt. eigenvalues --   24.00797  24.03617  24.04777  24.05631  24.06818
 Alpha virt. eigenvalues --   24.07328  24.08067  24.08756  24.09322  24.12547
 Alpha virt. eigenvalues --   24.14083  24.17594  24.22656  24.23117  24.29953
 Alpha virt. eigenvalues --   24.30614  24.31276  50.19496  50.24719
  Beta  occ. eigenvalues --  -18.94627 -18.94453 -10.10262 -10.10037 -10.08295
  Beta  occ. eigenvalues --  -10.07736 -10.07138 -10.07102 -10.07026 -10.06689
  Beta  occ. eigenvalues --  -10.06363 -10.06324 -10.06313 -10.06090 -10.05677
  Beta  occ. eigenvalues --  -10.05651 -10.05548 -10.05482 -10.05379 -10.05110
  Beta  occ. eigenvalues --  -10.05054 -10.04970  -0.86989  -0.86693  -0.76203
  Beta  occ. eigenvalues --   -0.74079  -0.71973  -0.68139  -0.66470  -0.63824
  Beta  occ. eigenvalues --   -0.63350  -0.62425  -0.59830  -0.57936  -0.53804
  Beta  occ. eigenvalues --   -0.51483  -0.50395  -0.48775  -0.47314  -0.43988
  Beta  occ. eigenvalues --   -0.42201  -0.40040  -0.38742  -0.37525  -0.35713
  Beta  occ. eigenvalues --   -0.34695  -0.33436  -0.33291  -0.32931  -0.32323
  Beta  occ. eigenvalues --   -0.32228  -0.31094  -0.30394  -0.29377  -0.28924
  Beta  occ. eigenvalues --   -0.28839  -0.28232  -0.27735  -0.27383  -0.25986
  Beta  occ. eigenvalues --   -0.25813  -0.24134  -0.23388  -0.22737  -0.22618
  Beta  occ. eigenvalues --   -0.22392  -0.21370  -0.19114  -0.15756  -0.13592
  Beta  occ. eigenvalues --   -0.12817  -0.12486  -0.11426  -0.10404  -0.09945
  Beta virt. eigenvalues --    0.03362   0.06422   0.06908   0.07898   0.08013
  Beta virt. eigenvalues --    0.08163   0.09366   0.09647   0.09983   0.10649
  Beta virt. eigenvalues --    0.10730   0.11479   0.11771   0.12224   0.12605
  Beta virt. eigenvalues --    0.12912   0.13243   0.14314   0.15055   0.15236
  Beta virt. eigenvalues --    0.15512   0.15890   0.16885   0.17085   0.17274
  Beta virt. eigenvalues --    0.17676   0.18105   0.18246   0.18840   0.19105
  Beta virt. eigenvalues --    0.19203   0.19529   0.19712   0.19814   0.20365
  Beta virt. eigenvalues --    0.20589   0.20779   0.20814   0.21095   0.21417
  Beta virt. eigenvalues --    0.21576   0.21927   0.22222   0.22679   0.22774
  Beta virt. eigenvalues --    0.23319   0.23690   0.23925   0.24248   0.24578
  Beta virt. eigenvalues --    0.24599   0.25015   0.25147   0.25603   0.25955
  Beta virt. eigenvalues --    0.26241   0.26624   0.27057   0.27085   0.27802
  Beta virt. eigenvalues --    0.28074   0.28425   0.28615   0.29069   0.29090
  Beta virt. eigenvalues --    0.29958   0.30365   0.30959   0.31124   0.31700
  Beta virt. eigenvalues --    0.31797   0.32250   0.32863   0.33026   0.33199
  Beta virt. eigenvalues --    0.33412   0.33856   0.33966   0.34561   0.34800
  Beta virt. eigenvalues --    0.35186   0.35900   0.35988   0.36269   0.36908
[...]
 4,-0.00073832,0.00113969,0.00039137,0.00000984,-0.00000025,-0.00000242
 ,0.06171686,0.12611460,-0.13314769,-0.00031103,-0.00072960,-0.00059745
 ,-0.00058227,0.00331923,0.00484931,0.00513565,0.00695340,-0.00302111,-
 0.00038607,-0.00270252,-0.00290275,0.00001047,0.00001253,0.00000262,-0
 .00027176,-0.00064945,-0.00017574,-0.00049474,-0.00029133,-0.00014138,
 -0.00060010,0.00068759,-0.00010102,-0.06740741,-0.14169583,0.13628157,
 0.01263837,0.01613818,-0.01325538,-0.00272294,0.00422813,0.00017408,0.
 00100183,0.00045019,-0.00065429,0.00002131,0.00015635,-0.00015778,0.00
 050953,-0.00058758,0.00006549,-0.00044070,-0.00176962,0.00048716,-0.00
 618520,0.00839085,-0.00330205,0.00182581,-0.00074317,0.00007155,-0.000
 15700,0.00033325,-0.00018145,-0.00059918,0.00035846,0.00003590,-0.0001
 1674,-0.00027000,0.00021776,0.00018647,-0.00009199,-0.00001812,-0.0000
 8539,0.00000983,0.00003039,0.00023844,-0.00007672,-0.00005164,-0.00140
 725,-0.00725295,0.00462951,0.00041195,-0.00063815,0.00027016,0.0000170
 1,-0.00002538,0.00002768,-0.00012792,-0.00006039,0.00008663,0.00003665
 ,-0.00001495,0.00000281,-0.00035438,0.00036004,-0.00009815,0.00003988,
 -0.00000859,-0.00000777,-0.00035139,0.00050931,-0.00055579,-0.08609341
 ,-0.07184844,0.06110995,-0.00678873,-0.01985045,0.01635749,-0.00366649
 ,0.00228918,0.00263290,-0.00004285,-0.00073253,0.00055431,0.00003279,0
 .00002188,-0.00002329,-0.00004493,-0.00008066,0.00002383,0.00000428,0.
 00013062,-0.00009381,-0.00002147,-0.00004521,0.00007791,0.00001691,-0.
 00013991,-0.00021346,0.09181347,-0.00849272,-0.01295354,0.01363124,0.0
 0413364,-0.00042616,0.00282874,-0.00091600,-0.00051035,0.00056175,-0.0
 0000961,0.00000610,-0.00009952,-0.00006443,-0.00030717,-0.00006491,-0.
 00072543,-0.00015039,-0.00123266,0.00130081,0.00019667,-0.00044673,0.0
 0032878,0.00003330,0.00024885,0.00000011,0.00009916,-0.00010042,-0.000
 06745,0.00003882,0.00013358,-0.00012231,-0.00001958,0.00006371,0.00005
 858,-0.00003397,-0.00002873,-0.00003306,0.00004737,-0.00000272,-0.0000
 1330,-0.00003561,-0.00001708,-0.00467143,-0.00261095,0.00224639,0.0000
 2326,0.00000194,-0.00001899,0.00002292,0.00000966,0.00001929,0.0000040
 9,0.00001718,-0.00000106,0.00000178,0.00000283,0.00000783,0.00027348,-
 0.00014188,0.00003440,-0.00000056,0.00000146,-0.00000114,0.00063250,-0
 .00017413,-0.00076833,-0.06726781,-0.21112749,0.13168750,0.00272622,0.
 00703684,-0.00277384,0.00240556,0.00341761,0.00268995,0.00013308,0.000
 34340,-0.00013237,-0.00000218,-0.00000127,0.00000461,-0.00001752,-0.00
 001584,-0.00000934,-0.00003863,-0.00009447,0.00005710,0.00000312,0.000
 00405,0.00001970,-0.00020651,-0.00023392,-0.00036459,0.07163680,0.2183
 7393,0.00259098,0.00552965,-0.00051807,0.00023728,0.00279882,0.0042039
 5,0.00022531,0.00011218,-0.00025194,-0.00005118,-0.00015397,-0.0000370
 1,-0.00027193,0.00010804,-0.00042090,-0.00019107,-0.00088578,-0.001792
 12,0.00124326,-0.00276857,0.00154985,-0.00061938,0.00060168,0.00040437
 ,0.00003310,-0.00021024,0.00006746,0.00031043,-0.00000646,0.00011434,0
 .00012300,0.00011249,-0.00009576,-0.00011512,0.00002078,-0.00002424,0.
 00005815,-0.00001684,0.00001803,-0.00009262,0.00000380,-0.00004098,0.0
 0299876,0.00307876,-0.00448319,-0.00015561,0.00019857,-0.00009234,-0.0
 0000347,0.00003516,0.00002989,0.00004519,0.00001998,-0.00001032,-0.000
 00797,0.00001334,0.00000997,-0.00004246,0.00000600,0.00006135,-0.00001
 294,0.00000149,0.00000268,-0.00063470,-0.00072812,-0.00036764,0.058156
 83,0.13319816,-0.14565226,0.00183039,0.00464706,0.00052610,0.00256269,
 0.00272990,0.00622512,-0.00000738,0.00015558,0.00010886,-0.00000781,-0
 .00000329,0.00000945,0.00001352,0.00003645,0.00000009,0.00001507,0.000
 00145,-0.00003137,0.00001643,0.00001051,-0.00004328,-0.00017059,-0.000
 38698,-0.00060102,-0.06687979,-0.14564422,0.14430504,-0.00377419,-0.00
 036800,0.00417880,-0.00065886,-0.00050014,0.00028426,0.00012812,-0.000
 19155,-0.00018219,-0.00006792,-0.00004323,0.00008043,-0.00049285,-0.00
 017877,0.00009643,-0.00007705,0.00134466,-0.00077275,-0.00022149,0.000
 30204,-0.00006849,0.00021069,-0.00012268,-0.00001777,-0.00000366,0.000
 15014,-0.00010381,0.00008073,-0.00002395,0.00000930,-0.00009015,0.0000
 0425,0.00002766,0.00005753,-0.00007124,0.00002700,-0.00005066,0.000065
 41,-0.00002822,-0.00001920,-0.00003511,0.00003134,0.00012325,-0.000330
 96,0.00020814,-0.00020097,0.00015768,-0.00004477,-0.00000030,0.0000324
 2,0.00001474,0.00000777,-0.00000374,0.00000402,-0.00000045,0.00000854,
 -0.00000600,-0.00001715,0.00000603,0.00000259,-0.00001464,0.00000068,0
 .00000523,0.00055577,-0.00150415,0.00255037,-0.01508921,0.02426390,-0.
 00971532,-0.14754828,0.12060537,-0.04003535,0.00817209,-0.00860224,0.0
 0344638,0.00065563,-0.00061849,-0.00032494,-0.00001214,-0.00001164,0.0
 0001276,0.00001916,0.00002380,0.00000661,0.00000817,0.00001358,-0.0000
 2352,0.00000334,0.00000720,-0.00003760,0.00047407,-0.00039002,0.000289
 75,0.00082021,-0.00107114,-0.00123386,0.15653473,0.00034583,0.00362903
 ,0.00283792,-0.00063502,0.00004441,-0.00031735,-0.00009120,-0.00016939
 ,-0.00037610,0.00001029,-0.00003084,0.00007538,-0.00004762,0.00001237,
 -0.00034607,0.00014223,-0.00010187,0.00014755,0.00013873,-0.00009646,0
 .00012063,-0.00011434,0.00001589,-0.00002664,0.00002867,-0.00008793,0.
 00003068,-0.00005866,0.00009081,0.00000101,0.00004473,-0.00000497,-0.0
 0000989,-0.00002500,0.00003118,-0.00001179,0.00003943,-0.00003174,0.00
 000207,-0.00000201,0.00002034,-0.00000767,0.00006380,0.00016739,-0.000
 05901,0.00009774,-0.00009156,0.00000856,0.00002642,0.00002243,0.000046
 37,-0.00000861,0.00000577,0.00000725,0.00000139,-0.00000745,0.00000306
 ,0.00003822,-0.00005519,0.00002453,0.00001352,0.00000020,-0.00000287,-
 0.00269189,-0.00059299,0.00471756,-0.00066660,0.00217690,0.00066114,0.
 12055432,-0.20160157,0.06868142,0.01629808,-0.01412099,0.00490104,0.00
 070948,0.00044068,-0.00151659,0.00000966,0.00001133,-0.00000796,0.0000
 0471,0.00003256,0.00002570,0.00004421,-0.00002311,-0.00002337,-0.00002
 320,0.00000612,-0.00005150,0.00078984,-0.00074362,0.00060253,-0.000719
 62,-0.00074156,-0.00252154,-0.13292522,0.21196111,0.00371937,0.0030732
 9,0.00501611,0.00037048,-0.00036183,-0.00066130,-0.00024642,-0.0003435
 0,-0.00049886,0.00004555,0.00009295,0.00001688,0.00001201,-0.00030259,
 -0.00035890,0.00000025,-0.00024794,0.00035935,0.00003655,0.00006696,0.
 00010669,-0.00002321,-0.00002378,-0.00006069,-0.00002556,-0.00000933,-
 0.00001133,0.00003170,-0.00001038,0.00005890,0.00000169,0.00000336,-0.
 00000030,-0.00000277,0.00000342,-0.00000118,-0.00001144,-0.00000646,-0
 .00000048,0.00000997,0.00000322,0.00000205,-0.00004526,0.00007083,0.00
 007770,-0.00000610,-0.00001116,-0.00001921,0.00001861,0.00004441,0.000
 07337,0.00000712,0.00000565,0.00000667,-0.00000139,0.00000070,-0.00000
 199,-0.00001806,0.00003523,-0.00001395,-0.00000301,0.00000134,0.000002
 76,0.00331323,0.00432944,0.00148815,0.00633407,-0.00753635,0.00563242,
 -0.04000983,0.06865967,-0.06431204,-0.01256752,0.01309330,-0.00246792,
 -0.00118967,-0.00105522,-0.00045839,-0.00000094,-0.00000095,0.00000481
 ,-0.00000468,-0.00005270,-0.00001328,-0.00004324,-0.00001328,-0.000014
 12,0.00000550,0.00001052,0.00002901,-0.00046914,0.00098880,0.00011208,
 -0.00146040,-0.00240640,-0.00299965,0.04183007,-0.07751291,0.05972091,
 0.00014867,0.00009872,-0.00010926,-0.00026300,0.00022994,-0.00009309,0
 .00012688,-0.00010457,-0.00000382,-0.00009626,-0.00006889,0.00007273,-
 0.00000011,0.00004584,-0.00003128,0.00006261,0.00011477,-0.00009718,-0
 .00002111,-0.00007542,0.00005388,0.00006707,0.00000743,-0.00002471,0.0
 0000020,0.00004414,-0.00002882,-0.00002182,-0.00002839,0.00002633,-0.0
 0002572,-0.00000813,0.00001496,0.00002625,-0.00001508,0.00000103,-0.00
 001859,0.00002378,-0.00001034,-0.00000987,-0.00000658,0.00000768,-0.00
 014377,-0.00001561,0.00005975,-0.00002211,0.00004091,-0.00002022,-0.00
 000222,0.00000620,0.00000306,0.00000415,0.00000067,-0.00000194,-0.0000
 0179,0.00000172,-0.00000048,-0.00002705,-0.00003658,0.00005511,-0.0000
 0356,0.00000075,0.00000080,0.00195979,-0.00194003,0.00055689,0.0002430
 7,-0.00150544,0.00101533,-0.00612925,0.00213046,0.00112999,-0.00626271
 ,-0.02625284,0.01866009,-0.05729100,-0.03950543,0.02931103,-0.00000171
 ,-0.00000293,0.00000262,0.00001571,0.00004651,0.00001980,0.00003003,-0
 .00000132,-0.00001502,-0.00001156,0.00000104,-0.00006756,-0.00007436,0
 .00110520,-0.00058961,-0.00033640,0.00009338,-0.00001003,0.00007551,-0
 .00010762,-0.00005344,0.06362762,0.00000828,0.00016903,-0.00011061,-0.
 00030806,0.00023115,-0.00011058,-0.00005571,-0.00012116,0.00004042,-0.
 00000989,0.00006415,-0.00004544,-0.00001773,-0.00004950,0.00003483,-0.
 00001125,0.00008624,-0.00005706,-0.00005120,0.00000888,0.00000930,0.00
 007265,-0.00002749,-0.00000274,0.00000496,0.00007407,-0.00004982,0.000
 05165,-0.00010094,0.00004994,-0.00002595,0.00000137,0.00001045,0.00002
 205,-0.00002716,0.00001017,-0.00002307,0.00002935,-0.00001357,-0.00001
 361,-0.00001524,0.00001456,-0.00005275,-0.00004203,0.00004818,-0.00008
 634,0.00010365,-0.00004072,-0.00001105,0.00001075,0.00000893,0.0000072
 9,-0.00000123,-0.00000192,-0.00000161,0.00000456,-0.00000234,-0.000035
 38,0.00001278,0.00004781,-0.00001005,0.00000076,0.00000302,0.00167658,
 0.00032511,-0.00083790,0.00044591,-0.00000418,0.00012599,-0.00015090,0
 .00104465,0.00032435,0.00027401,-0.00009925,-0.00102070,-0.04254021,-0
 .20769553,0.11901905,-0.00000420,-0.00000662,0.00000597,0.00001790,0.0
 0000653,0.00000519,-0.00000715,0.00000642,-0.00001340,0.00000451,-0.00
 000447,-0.00004439,-0.00019935,0.00056403,-0.00009855,-0.00003587,-0.0
 0000153,-0.00010456,0.00009496,0.00015146,-0.00032672,0.04491649,0.224
 57823,-0.00004904,-0.00014752,0.00011510,0.00026399,-0.00028209,0.0000
 1454,-0.00003614,0.00005833,-0.00011340,0.00003576,-0.00002548,-0.0000
 0713,0.00000970,0.00001275,-0.00001587,-0.00001944,-0.00010047,0.00005
 889,0.00004210,0.00001596,-0.00002729,-0.00006937,0.00001951,0.0000165
 5,-0.00000380,-0.00006439,0.00004173,-0.00002464,0.00007775,-0.0000388
 3,0.00002731,0.00000482,-0.00000785,-0.00002368,0.00002295,-0.00000714
 ,0.00002025,-0.00002968,0.00000903,0.00001250,0.00001252,-0.00001177,0
 .00008162,0.00003788,-0.00004556,0.00006238,-0.00008380,0.00002988,0.0
 0001428,0.00000321,0.00001220,-0.00000627,0.00000027,0.00000137,0.0000
 0168,-0.00000348,0.00000177,0.00005448,0.00004822,0.00001931,0.0000078
 5,-0.00000054,-0.00000191,-0.00176412,0.00036290,0.00025108,-0.0002466
 6,0.00077103,0.00000818,0.00258996,-0.00043973,0.00087414,0.00134612,0
 .00768285,-0.00694208,0.03129947,0.11802803,-0.13381664,0.00000347,0.0
 0000563,-0.00000425,-0.00002446,-0.00005249,-0.00002293,-0.00001134,-0
 .00001528,-0.00000419,-0.00000702,0.00000485,0.00001696,0.00025045,-0.
 00054261,0.00055687,0.00007377,-0.00014687,-0.00011109,-0.00018784,-0.
 00025660,-0.00008116,-0.03534893,-0.13176458,0.14265390,0.00038854,0.0
 0016955,0.00001028,-0.00137030,-0.00033376,-0.00145639,-0.00003656,-0.
 00036393,0.00008421,-0.00011089,0.00006343,0.00014920,0.00013960,-0.00
 011908,0.00000273,-0.00032360,0.00007236,0.00019545,-0.00040160,0.0004
 0953,-0.00014128,0.00028067,-0.00005243,-0.00007173,-0.00004407,0.0001
 4321,-0.00008239,-0.00007803,-0.00009321,0.00007555,-0.00008504,-0.000
 02534,0.00004795,0.00007329,-0.00004979,0.00000272,-0.00007229,0.00006
 073,-0.00001725,0.00000321,-0.00002530,0.00002111,0.00028492,-0.000356
 01,0.00014112,-0.00006555,0.00007068,-0.00002788,-0.00003215,0.0000195
 0,0.00001676,0.00000743,-0.00000246,0.00000153,-0.00000391,0.00000693,
 -0.00000309,-0.00003208,-0.00001776,-0.00000344,-0.00001344,0.00000158
 ,0.00000457,-0.00200471,-0.00127559,0.00223139,-0.00081763,-0.00004750
 ,-0.00062756,0.00136364,0.00055655,-0.00157053,-0.00959315,0.02761782,
 0.01606870,-0.05125713,0.03888181,0.02550990,-0.00000795,-0.00001120,0
 .00001083,0.00002036,0.00000283,-0.00000479,-0.00001832,0.00001985,-0.
 00001050,0.00001912,0.00000816,-0.00002248,0.00019988,0.00042291,0.000
 53335,-0.00001792,-0.00002150,0.00003790,0.00036912,-0.00029034,0.0005
 9245,0.00022046,-0.00504959,-0.00404110,0.05963523,-0.00065889,0.00072
 447,-0.00011232,-0.00033012,0.00016784,0.00043636,0.00020725,-0.000066
 36,-0.00006906,-0.00015389,-0.00014207,0.00013459,-0.00006456,0.000250
 61,-0.00015374,0.00041321,-0.00013796,-0.00022659,-0.00000282,-0.00015
 997,0.00009349,-0.00002274,0.00003309,0.00000118,0.00001430,-0.0000405
 8,0.00001035,-0.00004430,0.00007681,-0.00001382,0.00001376,-0.00001219
 ,0.00000517,0.00000087,0.00001069,-0.00000638,0.00001979,-0.00000767,-
 0.00000245,-0.00000368,0.00001242,-0.00000220,0.00000090,0.00009501,-0
 .00005090,0.00006728,-0.00005860,0.00002102,0.00000544,-0.00000350,0.0
 0000609,-0.00000812,0.00000059,0.00000119,0.00000124,-0.00000507,0.000
 00164,0.00000809,-0.00003736,-0.00001640,0.00000971,-0.00000038,-0.000
 00331,0.00100439,0.00010277,-0.00061499,0.00151853,-0.00007016,-0.0000
 4523,-0.00147642,0.00001000,0.00126494,0.00236290,0.00133429,0.0010214
 2,0.03720577,-0.22160527,-0.10784602,0.00000591,0.00000641,-0.00000727
 ,0.00000036,0.00003966,0.00001642,0.00002977,-0.00000622,0.00000446,-0
 .00001981,-0.00000026,-0.00000080,-0.00019603,0.00003853,-0.00050870,0
 .00000675,-0.00004615,-0.00002206,-0.00008137,-0.00014890,-0.00049674,
 0.00408148,-0.02050830,-0.01356594,-0.04315688,0.24058725,-0.00020383,
 -0.00024858,0.00005656,0.00043415,-0.00004777,0.00003901,-0.00007130,0
 .00024367,0.00000074,0.00009057,0.00003522,-0.00009073,-0.00010129,0.0
 0005271,0.00000730,0.00018368,0.00000346,-0.00004552,0.00032467,-0.000
 30209,0.00009757,-0.00023675,0.00003655,0.00005020,0.00002619,-0.00012
 113,0.00007304,0.00006073,0.00007918,-0.00007051,0.00007059,0.00002229
 ,-0.00003666,-0.00006377,0.00004250,-0.00000553,0.00005627,-0.00005218
 ,0.00001887,0.00000200,0.00002155,-0.00001946,-0.00022531,0.00029115,-
 0.00011056,0.00004816,-0.00005955,0.00002525,0.00001209,-0.00000942,-0
 .00000929,-0.00000536,0.00000203,-0.00000131,0.00000239,-0.00000546,0.
 00000239,0.00000234,0.00001128,0.00000421,0.00001065,-0.00000126,-0.00
 000334,-0.00047655,0.00088186,-0.00090259,0.00004941,0.00018830,0.0001
 3388,0.00058000,-0.00021263,0.00125281,0.00266350,-0.00652595,-0.00352
 697,0.02468519,-0.10893634,-0.11358368,0.00000654,0.00000930,-0.000008
 68,-0.00001095,-0.00001491,-0.00000557,0.00000798,-0.00001333,0.000001
 18,-0.00000434,0.00000697,0.00000246,-0.00000069,-0.00007861,0.0001777
 8,0.00005280,0.00000928,-0.00002918,-0.00008991,0.00034364,-0.00053252
 ,-0.00416617,0.01609297,0.01114039,-0.02791570,0.12122726,0.12028229,0
 .00050170,-0.00015572,-0.00031285,-0.00041701,0.00137439,0.00126905,0.
 00002864,-0.00024423,0.00033328,-0.00015827,-0.00005127,-0.00006591,0.
 00019408,-0.00017559,0.00007320,-0.00054663,-0.00003454,0.00004083,-0.
 00048474,0.00053876,-0.00017764,0.00035970,-0.00005848,-0.00006641,-0.
 00005185,0.00019118,-0.00010336,-0.00007645,-0.00012510,0.00012046,-0.
 00010967,-0.00003050,0.00005325,0.00009377,-0.00006052,0.00001332,-0.0
 0009144,0.00008062,-0.00001874,-0.00000010,-0.00003996,0.00001978,0.00
 034382,-0.00046252,0.00018375,-0.00009389,0.00010962,-0.00003359,-0.00
 004263,0.00000542,-0.00000900,0.00000972,-0.00000581,-0.00000259,-0.00
 000506,0.00000932,-0.00000490,-0.00002395,0.00000385,0.00002137,-0.000
 01962,0.00000085,0.00000448,-0.00211930,-0.00227365,0.00125368,-0.0007
 0782,0.00077741,0.00077303,0.00192984,0.00177509,-0.00034984,-0.022421
 10,0.00163980,-0.02245979,-0.13853374,-0.00431984,-0.12359055,-0.00001
 200,-0.00001679,0.00001329,0.00002833,0.00001297,-0.00000743,-0.000025
 65,0.00002800,-0.00000545,0.00002242,-0.00000171,-0.00000611,-0.000145
 59,-0.00033116,-0.00059856,-0.00005459,-0.00003652,0.00000962,0.000043
 28,-0.00099435,-0.00014655,0.00415595,0.00110367,0.00566673,0.00338085
 ,-0.00075806,0.00420202,0.15504901,-0.00029364,0.00038894,-0.00028890,
 -0.00044460,-0.00035771,-0.00029490,0.00020727,-0.00006337,0.00006307,
 -0.00011226,-0.00009980,0.00011571,0.00002199,0.00010722,-0.00007195,0
 .00017898,0.00002583,0.00005655,-0.00016417,0.00007996,0.00001263,0.00
 010972,-0.00001393,-0.00004095,0.00000085,0.00005310,-0.00002774,-0.00
 005670,-0.00001979,0.00001982,-0.00003067,-0.00001694,0.00002188,0.000
 03485,-0.00001936,-0.00000003,-0.00001772,0.00002801,-0.00000904,-0.00
 000745,-0.00001017,0.00000430,0.00011351,-0.00010812,0.00003192,0.0000
 0637,0.00000569,-0.00000693,-0.00000200,-0.00000509,-0.00000332,-0.000
 00130,-0.00000111,0.00000075,-0.00000028,0.00000070,-0.00000006,0.0000
 1999,-0.00000306,0.00001622,-0.00000107,0.00000042,0.,0.00138682,-0.00
 045515,-0.00028610,0.00079528,-0.00035849,-0.00022886,-0.00130859,0.00
 048171,0.00067233,0.00209709,-0.00019868,0.00100906,-0.00458366,-0.045
 54007,-0.00260351,-0.00000056,-0.00000168,0.00000161,-0.00000874,-0.00
 000475,0.00000995,0.00000726,-0.00000523,-0.00000883,-0.00001081,0.000
 00134,-0.00003062,0.00012381,0.00046715,0.00026741,-0.00002762,-0.0000
 0435,0.00003278,-0.00000706,-0.00016984,0.00023515,0.01668546,0.001231
 46,0.02035209,-0.01723577,-0.00043349,-0.02297196,0.00252541,0.0450186
 4,0.00053160,-0.00046854,0.00029438,0.00051201,-0.00039847,-0.00040778
 ,-0.00016601,0.00008182,-0.00006280,0.00017039,0.00012327,-0.00008720,
 0.00001774,-0.00019526,0.00009893,-0.00030800,0.00000996,0.00000677,0.
 00007184,0.00004404,-0.00006189,-0.00002661,-0.00001159,0.00002203,-0.
 00000541,0.00000107,-0.00000923,0.00005747,-0.00003764,0.00001887,0.00
 000480,0.00001729,-0.00000920,-0.00001328,-0.00000169,0.00000411,-0.00
 000304,-0.00000400,0.00000314,0.00000313,-0.00000205,0.00000523,-0.000
 04883,-0.00000609,0.00003218,-0.00004159,0.00004056,-0.00000859,0.0000
 0934,0.00000532,0.00000264,0.00000513,-0.00000043,-0.00000185,-0.00000
 060,0.00000204,-0.00000223,-0.00001086,0.00000265,-0.00003749,-0.00000
 568,0.00000003,0.00000184,0.00013719,0.00017998,-0.00016493,-0.0009449
 5,0.00004904,0.00030070,0.00080390,0.00044878,0.00018129,0.00701540,0.
 00043247,0.01085070,-0.12139920,-0.00215332,-0.20215179,-0.00000389,-0
 .00000408,0.00000315,0.00000589,-0.00001314,-0.00000255,-0.00001722,0.
 00000562,0.00000773,0.00000785,-0.00000362,0.00003109,0.00005656,-0.00
 023402,0.00007869,-0.00002889,0.00001599,-0.00003422,-0.00023354,-0.00
 019020,-0.00020064,-0.01031919,-0.00120554,-0.01456280,-0.00974158,-0.
 00048068,-0.01438384,0.13390813,0.00395045,0.22024557\\0.00000581,0.00
 000533,0.00000031,-0.00000668,-0.00000509,0.00001121,0.00000346,-0.000
 00017,0.00000018,-0.00000817,0.00000195,0.00000222,0.00000028,-0.00000
 275,0.00000156,-0.00000594,0.00000106,-0.00000260,-0.00000885,0.000006
 04,0.00000238,-0.00000181,0.00000816,-0.00000400,0.00000989,-0.0000122
 6,0.00000428,0.00000089,-0.00000419,-0.00000536,0.00000134,-0.00000441
 ,0.00000363,0.00000443,-0.00000232,-0.00000314,0.00000205,0.00000290,-
 0.00000359,-0.00000622,0.00000387,-0.00000017,0.00000335,-0.00000707,0
 .00000264,0.00000463,0.00000754,-0.00000745,0.00000135,0.00000096,-0.0
 0000095,-0.00000178,-0.00000139,-0.00000041,-0.00000003,-0.00000271,-0
 .00000089,0.00000877,0.00000068,0.00000236,-0.00000040,-0.00000256,-0.
 00000010,0.00000339,0.00000507,-0.00000278,0.00000008,-0.00000640,-0.0
 0000283,-0.00000517,-0.00000444,0.00000050,-0.00000475,0.00000871,-0.0
 0000322,0.00000230,-0.00000334,0.00000223,-0.00000183,0.00000043,-0.00
 000015,-0.00000059,-0.00000235,-0.00000005,-0.00000145,0.00000081,0.00
 000082,-0.00000056,0.00000136,-0.00000102,0.00000099,0.00000051,-0.000
 00070,0.00000035,0.00000154,0.00000147,0.00000021,-0.00000014,0.000000
 98,0.00000067,0.00000124,-0.00000110,-0.00000013,0.00000065,0.00000303
 ,0.00000010,0.00000279,0.00000071\\\@


 It takes a long time to grow an old friend.
                            -- John Leonard
 Job cpu time:       0 days 19 hours 15 minutes 25.0 seconds.
 Elapsed time:       0 days  2 hours 58 minutes 12.5 seconds.
 File lengths (MBytes):  RWF=   2181 Int=      0 D2E=      0 Chk=     36 Scr=      1
 Normal termination of Gaussian 16 at Wed Dec 27 22:59:52 2023.
