
Running Job 1 of 1 315-rad-COSMO.in
qchem 315-rad-COSMO.in_3102106.0 /expanse/lustre/scratch/selhajj/temp_project/qcscratch/28884390/qchem3102106/ 0
/cm/shared/apps/spack/cpu/opt/spack/linux-centos8-zen2/gcc-10.2.0/qchem-5.4-akfmr7b3t57bfs6qan3padb2wnb2i7cl/exe/qcprog.exe_s 315-rad-COSMO.in_3102106.0 /expanse/lustre/scratch/selhajj/temp_project/qcscratch/28884390/qchem3102106/
                  Welcome to Q-Chem
     A Quantum Leap Into The Future Of Chemistry


 Q-Chem 5.4, Q-Chem, Inc., Pleasanton, CA (2021)

 License issued to: University of California, San Diego (site)

 E. Epifanovsky,  A. T. B. Gilbert,  Xintian Feng,  Joonho Lee,  Yuezhi Mao,  
 N. Mardirossian,  P. Pokhilko,  A. White,  M. Wormit,  M. P. Coons,  
 A. L. Dempwolff,  Zhengting Gan,  D. Hait,  P. R. Horn,  L. D. Jacobson,  
 I. Kaliman,  J. Kussmann,  A. W. Lange,  Ka Un Lao,  D. S. Levine,  Jie Liu,  
 S. C. McKenzie,  A. F. Morrison,  K. Nanda,  F. Plasser,  D. R. Rehn,  
 M. L. Vidal,  Zhi-Qiang You,  Ying Zhu,  B. Alam,  B. Albrecht,  
 A. Aldossary,  E. Alguire,  J. H. Andersen,  D. Barton,  K. Begam,  A. Behn,  
 Y. A. Bernard,  E. J. Berquist,  H. Burton,  A. Carreras,  K. Carter-Fenk,  
 R. Chakraborty,  A. D. Chien,  K. D. Closser,  V. Cofer-Shabica,  
 S. Dasgupta,  Jia Deng,  M. de Wergifosse,  M. Diedenhofen,  Hainam Do,  
 S. Ehlert,  Po-Tung Fang,  S. Fatehi,  Qingguo Feng,  J. Gayvert,  
 Qinghui Ge,  G. Gidofalvi,  M. Goldey,  J. Gomes,  C. Gonzalez-Espinoza,  
 S. Gulania,  A. Gunina,  M. W. D. Hanson-Heine,  P. H. P. Harbach,  
 A. W. Hauser,  M. F. Herbst,  M. Hernandez Vera,  M. Hodecker,  
 Z. C. Holden,  S. Houck,  Xunkun Huang,  Kerwin Hui,  B. C. Huynh,  
 M. Ivanov,  Hyunjun Ji,  Hanjie Jiang,  B. Kaduk,  S. Kaehler,  
 K. Khistyaev,  Jaehoon Kim,  P. Klunzinger,  Z. Koczor-Benda,  
 Joong Hoon Koh,  D. Kosenkov,  L. Koulias,  T. Kowalczyk,  C. M. Krauter,  
 K. Kue,  A. Kunitsa,  T. Kus,  A. Landau,  K. V. Lawler,  D. Lefrancois,  
 S. Lehtola,  Rain Li,  Yi-Pei Li,  Jiashu Liang,  M. Liebenthal,  
 Hung-Hsuan Lin,  You-Sheng Lin,  Fenglai Liu,  Kuan-Yu Liu,  
 M. Loipersberger,  A. Luenser,  A. Manjanath,  P. Manohar,  E. Mansoor,  
 S. F. Manzer,  Shan-Ping Mao,  A. V. Marenich,  T. Markovich,  S. Mason,  
 S. A. Maurer,  P. F. McLaughlin,  M. F. S. J. Menger,  J.-M. Mewes,  
 S. A. Mewes,  P. Morgante,  J. W. Mullinax,  T. S. Nguyen-Beck,  
 K. J. Oosterbaan,  G. Paran,  Alexander C. Paul,  Suranjan K. Paul,  
 F. Pavosevic,  Zheng Pei,  S. Prager,  E. I. Proynov,  E. Ramos,  B. Rana,  
 A. E. Rask,  A. Rettig,  R. M. Richard,  F. Rob,  E. Rossomme,  T. Scheele,  
 M. Scheurer,  M. Schneider,  N. Sergueev,  S. M. Sharada,  W. Skomorowski,  
 D. W. Small,  C. J. Stein,  Yu-Chuan Su,  E. J. Sundstrom,  Zhen Tao,  
 J. Thirman,  T. Tsuchimochi,  N. M. Tubman,  S. P. Veccham,  O. Vydrov,  
 J. Wenzel,  J. Witte,  A. Yamada,  Kun Yao,  S. Yeganeh,  S. R. Yost,  
 A. Zech,  Igor Ying Zhang,  Xing Zhang,  Yu Zhang,  D. Zuev,  
 A. Aspuru-Guzik,  A. T. Bell,  N. A. Besley,  K. B. Bravaya,  B. R. Brooks,  
 D. Casanova,  Jeng-Da Chai,  S. Coriani,  C. J. Cramer,  
 A. E. DePrince, III,  R. A. DiStasio Jr.,  A. Dreuw,  B. D. Dunietz,  
 T. R. Furlani,  W. A. Goddard III,  S. Grimme,  S. Hammes-Schiffer,  
 T. Head-Gordon,  W. J. Hehre,  Chao-Ping Hsu,  T.-C. Jagau,  Yousung Jung,  
 A. Klamt,  Jing Kong,  D. S. Lambrecht,  WanZhen Liang,  N. J. Mayhall,  
 C. W. McCurdy,  J. B. Neaton,  C. Ochsenfeld,  J. A. Parkhill,  R. Peverati,  
 V. A. Rassolov,  Yihan Shao,  L. V. Slipchenko,  T. Stauch,  R. P. Steele,  
 J. E. Subotnik,  A. J. W. Thom,  A. Tkatchenko,  D. G. Truhlar,  
 T. Van Voorhis,  T. A. Wesolowski,  K. B. Whaley,  H. L. Woodcock III,  
 P. M. Zimmerman,  S. Faraji,  P. M. W. Gill,  M. Head-Gordon,  
 J. M. Herbert,  A. I. Krylov

 Contributors to earlier versions of Q-Chem not listed above: 
 R. D. Adamson,  B. Austin,  R. Baer,  J. Baker,  G. J. O. Beran,  
 K. Brandhorst,  S. T. Brown,  E. F. C. Byrd,  A. K. Chakraborty,  
 G. K. L. Chan,  Chun-Min Chang,  Yunqing Chen,  C.-L. Cheng,  
 Siu Hung Chien,  D. M. Chipman,  D. L. Crittenden,  H. Dachsel,  
 R. J. Doerksen,  A. D. Dutoi,  R. G. Edgar,  J. Fosso-Tande,  
 L. Fusti-Molnar,  D. Ghosh,  A. Ghysels,  A. Golubeva-Zadorozhnaya,  
 J. Gonthier,  M. S. Gordon,  S. R. Gwaltney,  G. Hawkins,  J. E. Herr,  
 A. Heyden,  S. Hirata,  E. G. Hohenstein,  G. Kedziora,  F. J. Keil,  
 C. Kelley,  Jihan Kim,  R. A. King,  R. Z. Khaliullin,  P. P. Korambath,  
 W. Kurlancheek,  A. Laurent,  A. M. Lee,  M. S. Lee,  S. V. Levchenko,  
 Ching Yeh Lin,  D. Liotard,  E. Livshits,  R. C. Lochan,  I. Lotan,  
 L. A. Martinez-Martinez,  P. E. Maslen,  N. Nair,  D. P. O'Neill,  
 D. Neuhauser,  E. Neuscamman,  C. M. Oana,  R. Olivares-Amaya,  R. Olson,  
 T. M. Perrine,  B. Peters,  P. A. Pieniazek,  A. Prociuk,  Y. M. Rhee,  
 J. Ritchie,  M. A. Rohrdanz,  E. Rosta,  N. J. Russ,  H. F. Schaefer III,  
 M. W. Schmidt,  N. E. Schultz,  S. Sharma,  N. Shenvi,  C. D. Sherrill,  
 A. C. Simmonett,  A. Sodt,  T. Stein,  D. Stuck,  K. S. Thanthiriwatte,  
 V. Vanovschi,  L. Vogt,  Tao Wang,  A. Warshel,  M. A. Watson,  
 C. F. Williams,  Q. Wu,  X. Xu,  Jun Yang,  W. Zhang,  Yan Zhao

 Please cite Q-Chem as follows:
 Y. Shao et al., Mol. Phys. 113, 184-215 (2015)
 DOI: 10.1080/00268976.2014.952696

 Q-Chem 5.4.0 for Intel X86 EM64T Linux

 Parts of Q-Chem use Armadillo 9.800.1 (Horizon Scraper).
 http://arma.sourceforge.net/

 Q-Chem begins on Thu Feb 22 14:42:22 2024  

 Host: 
0

     Scratch files written to /expanse/lustre/scratch/selhajj/temp_project/qcscratch/28884390/qchem3102106//
 May1621 |scratch|qcdevops|jenkins|workspace|build_RNUM    
 Processing $rem in /cm/shared/apps/spack/cpu/opt/spack/linux-centos8-zen2/gcc-10.2.0/qchem-5.4-akfmr7b3t57bfs6qan3padb2wnb2i7cl/config/preferences:
 Processing $rem in /home/selhajj/.qchemrc:

 Checking the input file for inconsistencies... 
 Q-Chem warning in module libgen/CheckREMs.C, line 172:

 Found a $solvent section, which is only used for PCM and Kirkwood-Onsager solvation models

	...done.

--------------------------------------------------------------
User input:
--------------------------------------------------------------
$molecule
-2 2
C                 -5.0387930000     -0.0931450000     -3.9542600000
C                 -4.4824440000     -0.0681670000     -5.2224950000
C                 -3.0803140000      0.0018760000     -5.3709760000
C                 -4.2364120000     -0.0501970000     -2.7970930000
C                 -2.8232980000      0.0203240000     -2.9486870000
C                 -2.2733180000      0.0449630000     -4.2476830000
C                 -4.8948320000     -0.0800570000     -1.4653540000
C                 -3.9842070000     -0.0318260000     -0.3319050000
C                 -2.6180270000      0.0361820000     -0.5000110000
C                 -1.9480950000      0.0668200000     -1.7718800000
O                 -6.1410680000     -0.1423170000     -1.3878230000
O                 -0.6856950000      0.1298700000     -1.8854360000
S                 -4.6257680000     -0.0596440000      1.3973980000
O                 -5.4808660000      1.1509990000      1.5383350000
O                 -5.3566950000     -1.3483750000      1.5444010000
O                 -3.3971290000      0.0034420000      2.2489370000
H                 -6.1120720000     -0.1466410000     -3.8055070000
H                 -5.1225920000     -0.1023410000     -6.1012280000
H                 -2.6376810000      0.0218140000     -6.3645800000
H                 -1.1923390000      0.0990260000     -4.3255180000
H                 -1.9962640000      0.0693630000      0.3873150000
$end
$rem
MAX_SCF_CYCLES=200
BASIS  =  6-311++G(d,p)
GUI  =  2
JOB_TYPE  =  SP
METHOD  =  B3LYP
SOLVENT_METHOD = COSMO
$end
$solvent
dielectric 37.219
opticaldielectric 1.43
$end





--------------------------------------------------------------
 ----------------------------------------------------------------
             Standard Nuclear Orientation (Angstroms)
    I     Atom           X                Y                Z
 ----------------------------------------------------------------
    1      C       2.3443585603    -1.7432453018     0.0000945640
    2      C       3.7081768397    -1.5012374182    -0.0000082619
    3      C       4.1836416702    -0.1720066860    -0.0001553501
    4      C       1.4093977674    -0.6894219858     0.0000813646
    5      C       1.8904814154     0.6497582284    -0.0000008657
    6      C       3.2826879394     0.8783116336    -0.0001564297
    7      C      -0.0402385930    -1.0157526499     0.0001026550
    8      C      -0.9265854276     0.1377897374     0.0001733076
    9      C      -0.4405429682     1.4274002343     0.0002134960
   10      C       0.9536342347     1.7790651958     0.0001325616
   11      O      -0.4099348167    -2.2100374708     0.0001094884
   12      O       1.3621563176     2.9805782961     0.0000604655
   13      S      -2.7585710311    -0.0782933874    -0.0000626204
   14      O      -3.0855767819    -0.8154056828    -1.2516396271
   15      O      -3.0859768887    -0.8163852982     1.2508240601
   16      O      -3.2958616491     1.3181201847     0.0004185995
   17      H       1.9463031878    -2.7524375548     0.0001708231
   18      H       4.4108873433    -2.3314945814     0.0000170020
   19      H       5.2537275348     0.0241734235    -0.0002661245
   20      H       3.6136474199     1.9117343486    -0.0002462550
   21      H      -1.1559470690     2.2417924036     0.0002803411
 ----------------------------------------------------------------
 Molecular Point Group                 C1    NOp =  1
 Largest Abelian Subgroup              C1    NOp =  1
 Nuclear Repulsion Energy =        1180.08573434 hartrees
 There are       62 alpha and       61 beta electrons
 Requested basis set is 6-311++G(d,p)
 There are 128 shells and 395 basis functions

 Total QAlloc Memory Limit   8000 MB
 Mega-Array Size       188 MB
 MEM_STATIC part       192 MB
 A cutoff of  1.0D-08 yielded   5855 shell pairs
 There are     58544 function pairs (     62887 Cartesian)
 Smallest overlap matrix eigenvalue = 3.27E-07

 Q-Chem warning in module stvman/mkSTV.C, line 323:

 Overlap eigenvalue is smaller than square root of threshold
 Use THRESH >= 12 to get rid of this warning

 Linear dependence detected in AO basis
 Tighter screening thresholds may be required for diffuse basis sets
 Use S2THRESH > 14 and THRESH = 14 in case of SCF convergence issues
 Number of orthogonalized atomic orbitals = 392
 Maximum deviation from orthogonality = 2.277E-10

 Scale SEOQF with 1.000000e-02/1.000000e-01/1.000000e-01

 Standard Electronic Orientation quadrupole field applied
 Nucleus-field energy     =     0.0000000169 hartrees
 Guess from superposition of atomic densities
 Warning:  Energy on first SCF cycle will be non-variational
 SAD guess density has 121.000000 electrons

 -----------------------------------------------------------------------
  General SCF calculation program by
  Eric Jon Sundstrom, Paul Horn, Yuezhi Mao, Dmitri Zuev, Alec White,
  David Stuck, Shaama M.S., Shane Yost, Joonho Lee, David Small,
  Daniel Levine, Susi Lehtola, Hugh Burton, Evgeny Epifanovsky,
  Bang C. Huynh
 -----------------------------------------------------------------------
 Exchange:     0.2000 Hartree-Fock + 0.0800 Slater + 0.7200 B88
 Correlation:  0.1900 VWN1RPA + 0.8100 LYP
 Using SG-1 standard quadrature grid
 using 8 threads for integral computing
 -------------------------------------------------------
 OpenMP Integral computing Module                
 Release: version 1.0, May 2013, Q-Chem Inc. Pittsburgh 
 -------------------------------------------------------
 A unrestricted SCF calculation will be
 performed using DIIS
 SCF converges when DIIS error is below 1.0e-05
 ---------------------------------------
  Cycle       Energy         DIIS error
 ---------------------------------------
    1   -1162.3224929133      1.71e-02  
    2   -1158.0748917739      2.93e-03  
    3   -1154.2093128118      6.55e-03  
    4   -1158.3073643210      1.78e-03  
    5   -1158.5759453194      5.62e-04  
    6   -1158.5913744031      4.30e-04  
    7   -1158.6049727159      1.53e-04  
    8   -1158.6064671829      6.89e-05  
    9   -1158.6068118615      1.76e-05  
   10   -1158.6068491763      1.13e-05  
   11   -1158.6068643029      5.32e-06  Convergence criterion met
 ---------------------------------------
 SCF time:   CPU 268.52s  wall 34.00s 
<S^2> =          0.760562492
 SCF   energy in the final basis set =    -1158.6068643029
 Total energy in the final basis set =    -1158.6068643029
 Exchange:     0.2000 Hartree-Fock + 0.0800 Slater + 0.7200 B88
 Correlation:  0.1900 VWN1RPA + 0.8100 LYP
 Using SG-1 standard quadrature grid
 in get_qchem_info
 IBasis=      401111
 IBasis=      401111
 USING 1082 GRID
 MICHARGE=          -2
 Set epsilon to    37.2190017700195     
==== cosmo data ====
outfile: 315-rad-COSMO.out.cosmo.0
phsran:    0.00000D+00
ampran:    0.10000D-04
volume:   1599.2504737
area:    798.4542116
routf:      0.8500000
rsolv [a.u]:      2.4566438
disex:     10.0000000
disex2:   4621.7649935
fepsi:      0.9731320
eps :    37.2190018
lcavity:     1
nppa:  1082
nspa:    92
nsph:    32
maxnps:  1632
natoms:    21
Atom   Radius [a.u.] nuc. charge
    1      3.7794520    6
    2      3.7794520    6
    3      3.7794520    6
    4      3.7794520    6
    5      3.7794520    6
    6      3.7794520    6
    7      3.7794520    6
    8      3.7794520    6
    9      3.7794520    6
   10      3.7794520    6
   11      3.2503287    8
   12      3.2503287    8
   13      4.0818081   16
   14      3.2503287    8
   15      3.2503287    8
   16      3.2503287    8
   17      2.4566438    1
   18      2.4566438    1
   19      2.4566438    1
   20      2.4566438    1
   21      2.4566438    1
=== end cosmo data ===
 number of segments:          875
 f_epsilon=  0.973132003749614     
Ediel:   -0.2687297
 A unrestricted SCF calculation will be
 performed using Roothaan-Hall, DIIS
 SCF converges when DIIS error is below 1.0e-05
 ---------------------------------------
  Cycle       Energy         DIIS error
 ---------------------------------------
 number of segments:          875
 f_epsilon=  0.973132003749614     
Ediel:   -0.2980681
    1   -1158.8755967901      1.81e-04  Roothaan Step
 ---------------------------------------
  Cycle       Energy         DIIS error
 ---------------------------------------
 number of segments:          875
 f_epsilon=  0.973132003749614     
Ediel:   -0.2898937
    1   -1158.8850855560      1.76e-04  
 number of segments:          875
 f_epsilon=  0.973132003749614     
Ediel:   -0.2961071
    2   -1158.8813454747      3.00e-04  
 number of segments:          875
 f_epsilon=  0.973132003749614     
Ediel:   -0.2967122
    3   -1158.8876464458      3.44e-05  
 number of segments:          875
 f_epsilon=  0.973132003749614     
Ediel:   -0.2969207
    4   -1158.8877200314      1.63e-05  
    5   -1158.8877428174      7.28e-06  Convergence criterion met
 ---------------------------------------
 SCF time:   CPU 192.20s  wall 25.00s 
<S^2> =          0.758547825
before final oc correction, ETot:     -1158.8877428174
 number of outlayer segments:          422
SCF energy after oc correction:     -1158.8986493313
 SCF   energy in the final basis set =    -1158.8986493313
 Total energy in the final basis set =    -1158.8877428174
 
 --------------------------------------------------------------
 
                    Orbital Energies (a.u.)
 --------------------------------------------------------------
 
 Alpha MOs
 -- Occupied --
-89.0432 -19.0890 -19.0890 -19.0870 -19.0830 -19.0824 -10.2358 -10.2267
-10.1887 -10.1776 -10.1759 -10.1739 -10.1734 -10.1707 -10.1705 -10.1682
 -8.1018  -6.0646  -6.0646  -6.0634  -1.1049  -1.0117  -1.0013  -0.9710
 -0.9673  -0.8590  -0.8109  -0.7508  -0.7463  -0.6849  -0.6367  -0.6168
 -0.5793  -0.5563  -0.5102  -0.5037  -0.4840  -0.4616  -0.4524  -0.4497
 -0.4333  -0.4247  -0.4217  -0.4203  -0.4113  -0.3910  -0.3842  -0.3562
 -0.3553  -0.3385  -0.3343  -0.3332  -0.3093  -0.2975  -0.2920  -0.2778
 -0.2577  -0.2554  -0.2516  -0.2511  -0.2400  -0.1604
 -- Virtual --
 -0.0367  -0.0222   0.0032   0.0148   0.0200   0.0311   0.0371   0.0422
  0.0472   0.0510   0.0593   0.0646   0.0655   0.0663   0.0770   0.0833
  0.0895   0.0981   0.1013   0.1027   0.1045   0.1166   0.1196   0.1227
  0.1248   0.1275   0.1313   0.1343   0.1350   0.1447   0.1455   0.1482
  0.1489   0.1556   0.1638   0.1708   0.1727   0.1760   0.1832   0.1931
  0.1956   0.1997   0.2058   0.2114   0.2176   0.2182   0.2298   0.2346
  0.2364   0.2449   0.2467   0.2496   0.2538   0.2650   0.2703   0.2733
  0.2734   0.2758   0.2792   0.2847   0.2904   0.2948   0.3037   0.3049
  0.3070   0.3135   0.3146   0.3153   0.3185   0.3211   0.3296   0.3345
  0.3417   0.3500   0.3520   0.3584   0.3632   0.3634   0.3781   0.3797
  0.3842   0.3951   0.3992   0.4104   0.4186   0.4192   0.4237   0.4471
  0.4788   0.4894   0.4935   0.5181   0.5304   0.5388   0.5497   0.5504
  0.5576   0.5646   0.5820   0.5967   0.5981   0.6048   0.6071   0.6183
  0.6319   0.6392   0.6438   0.6473   0.6674   0.6716   0.6751   0.6926
  0.7186   0.7320   0.7368   0.7467   0.7505   0.7783   0.7890   0.7915
  0.7981   0.8251   0.8349   0.8644   0.8725   0.8792   0.8852   0.8957
  0.9131   0.9295   0.9348   0.9497   0.9528   0.9626   0.9644   0.9723
  0.9870   0.9996   1.0067   1.0264   1.0283   1.0461   1.0575   1.0702
  1.0830   1.0931   1.0967   1.1172   1.1205   1.1295   1.1349   1.1540
  1.1594   1.1641   1.1675   1.1765   1.1977   1.2066   1.2079   1.2199
  1.2209   1.2408   1.2546   1.2599   1.2787   1.2800   1.3026   1.3172
  1.3252   1.3499   1.4038   1.4148   1.4855   1.5008   1.5154   1.5280
  1.5313   1.5455   1.5703   1.5706   1.5774   1.6204   1.6449   1.6506
  1.6554   1.6770   1.6857   1.7123   1.7357   1.7507   1.7518   1.7686
  1.7819   1.7992   1.8119   1.8227   1.8533   1.8732   1.8816   1.8922
  1.9104   1.9221   1.9470   1.9505   1.9663   1.9666   1.9780   2.0041
  2.0228   2.0365   2.0539   2.0633   2.0807   2.1306   2.1559   2.1699
  2.1803   2.2237   2.2805   2.3029   2.3402   2.3728   2.3911   2.4539
  2.4823   2.5138   2.5498   2.6152   2.6278   2.6511   2.6741   2.7072
  2.7264   2.7418   2.7457   2.7524   2.7707   2.7780   2.7826   2.7857
  2.7932   2.8104   2.8377   2.8399   2.8505   2.8584   2.8612   2.8687
  2.8743   2.8888   2.8915   2.8916   2.9055   2.9357   2.9366   2.9607
  2.9633   2.9784   2.9875   3.0529   3.0612   3.0991   3.1196   3.1447
  3.1569   3.1879   3.2223   3.2335   3.2593   3.2732   3.3199   3.3441
  3.3488   3.3816   3.4223   3.4536   3.5016   3.5339   3.5531   3.5739
  3.5862   3.6027   3.6161   3.6333   3.7597   3.8152   3.8844   4.0453
  4.0677   4.1587   4.2003   4.2704   4.3644   4.7781   4.8452   5.0122
  5.0449   5.0639   5.0719   5.0725   5.0826   5.0943   5.1230   5.1380
  5.2446   5.2747   5.2887   5.3220   5.7294   5.8141   8.1961  17.4084
 17.4113  17.4949  23.5488  23.7546  23.9105  23.9430  23.9477  23.9595
 24.0289  24.1117  24.1325  24.1856  49.8867  49.9151  49.9764  50.0365
 50.0852 189.2828
 
 Beta MOs
 -- Occupied --
-89.0432 -19.0888 -19.0888 -19.0871 -19.0772 -19.0759 -10.2346 -10.2249
-10.1870 -10.1770 -10.1757 -10.1737 -10.1730 -10.1706 -10.1705 -10.1664
 -8.1018  -6.0647  -6.0646  -6.0635  -1.1048  -1.0017  -0.9896  -0.9707
 -0.9673  -0.8570  -0.8054  -0.7491  -0.7444  -0.6755  -0.6345  -0.6143
 -0.5778  -0.5538  -0.5081  -0.5018  -0.4812  -0.4602  -0.4517  -0.4494
 -0.4320  -0.4236  -0.4179  -0.4067  -0.4058  -0.3885  -0.3593  -0.3550
 -0.3466  -0.3375  -0.3340  -0.3329  -0.3026  -0.2954  -0.2917  -0.2553
 -0.2535  -0.2509  -0.2463  -0.2453  -0.2349
 -- Virtual --
 -0.0931  -0.0286  -0.0107   0.0034   0.0149   0.0202   0.0314   0.0373
  0.0474   0.0514   0.0558   0.0594   0.0657   0.0690   0.0693   0.0771
  0.0881   0.0902   0.0985   0.1025   0.1030   0.1054   0.1168   0.1226
  0.1231   0.1252   0.1277   0.1315   0.1352   0.1363   0.1450   0.1467
  0.1491   0.1495   0.1559   0.1643   0.1723   0.1732   0.1772   0.1836
  0.1955   0.1957   0.1998   0.2057   0.2142   0.2178   0.2199   0.2308
  0.2349   0.2381   0.2459   0.2501   0.2503   0.2552   0.2660   0.2712
  0.2739   0.2751   0.2765   0.2795   0.2850   0.2910   0.2956   0.3042
  0.3066   0.3076   0.3146   0.3161   0.3182   0.3209   0.3224   0.3301
  0.3356   0.3428   0.3525   0.3530   0.3588   0.3635   0.3640   0.3793
  0.3803   0.3849   0.3956   0.4001   0.4116   0.4189   0.4207   0.4266
  0.4486   0.4793   0.4912   0.4946   0.5188   0.5319   0.5403   0.5506
  0.5515   0.5637   0.5649   0.5829   0.5973   0.6003   0.6061   0.6083
  0.6256   0.6337   0.6418   0.6459   0.6501   0.6685   0.6744   0.6762
  0.6964   0.7195   0.7328   0.7394   0.7481   0.7509   0.7792   0.7897
  0.7945   0.7992   0.8258   0.8365   0.8648   0.8737   0.8802   0.8863
  0.8974   0.9140   0.9309   0.9357   0.9503   0.9553   0.9668   0.9674
  0.9751   0.9882   1.0011   1.0074   1.0272   1.0294   1.0500   1.0577
  1.0727   1.0863   1.0936   1.1031   1.1219   1.1234   1.1356   1.1380
  1.1563   1.1629   1.1671   1.1722   1.1773   1.1982   1.2083   1.2088
  1.2212   1.2290   1.2428   1.2567   1.2674   1.2813   1.2870   1.3034
  1.3186   1.3283   1.3518   1.4062   1.4173   1.4866   1.5050   1.5167
  1.5287   1.5320   1.5479   1.5712   1.5718   1.5782   1.6221   1.6493
  1.6511   1.6571   1.6782   1.6878   1.7171   1.7379   1.7520   1.7532
  1.7704   1.7857   1.8004   1.8172   1.8249   1.8544   1.8778   1.8831
  1.8968   1.9131   1.9236   1.9483   1.9523   1.9675   1.9718   1.9796
  2.0053   2.0244   2.0378   2.0597   2.0651   2.0825   2.1324   2.1575
  2.1750   2.1833   2.2268   2.2828   2.3056   2.3421   2.3757   2.3946
  2.4552   2.4824   2.5145   2.5516   2.6161   2.6354   2.6526   2.6776
  2.7083   2.7268   2.7433   2.7526   2.7545   2.7710   2.7830   2.7830
  2.7887   2.7935   2.8140   2.8387   2.8403   2.8515   2.8612   2.8667
  2.8697   2.8752   2.8931   2.8936   2.8986   2.9073   2.9456   2.9495
  2.9667   2.9730   2.9851   2.9942   3.0560   3.0682   3.1023   3.1212
  3.1450   3.1604   3.1891   3.2237   3.2361   3.2619   3.2746   3.3367
  3.3448   3.3641   3.3825   3.4230   3.4557   3.5040   3.5359   3.5544
  3.5750   3.5864   3.6043   3.6180   3.6353   3.7629   3.8184   3.8886
  4.0458   4.0689   4.1630   4.2014   4.2738   4.3670   4.7833   4.8459
  5.0123   5.0459   5.0662   5.0720   5.0946   5.0959   5.1072   5.1235
  5.1381   5.2498   5.2749   5.2916   5.3239   5.7347   5.8193   8.1961
 17.4084  17.4112  17.4949  23.5497  23.7561  23.9121  23.9440  23.9489
 23.9601  24.0294  24.1119  24.1345  24.1858  49.8869  49.9151  49.9765
 50.0428  50.0912 189.2827
 --------------------------------------------------------------
 
          Ground-State Mulliken Net Atomic Charges

     Atom                 Charge (a.u.)    Spin (a.u.)
  --------------------------------------------------------
      1 C                     0.141823       0.018207
      2 C                    -0.433778       0.031765
      3 C                    -0.418637       0.008618
      4 C                    -0.042119       0.009924
      5 C                     0.487957       0.030326
      6 C                     0.069198       0.027785
      7 C                    -0.490528       0.085854
      8 C                    -0.493381       0.123089
      9 C                     0.039473       0.124751
     10 C                    -0.388266       0.100572
     11 O                    -0.435118       0.213127
     12 O                    -0.523679       0.234942
     13 S                     0.761965      -0.001729
     14 O                    -0.409965       0.006982
     15 O                    -0.410035       0.006985
     16 O                    -0.469522      -0.001201
     17 H                     0.178268      -0.001602
     18 H                     0.205962      -0.002502
     19 H                     0.208655      -0.000980
     20 H                     0.175205      -0.003354
     21 H                     0.246522      -0.011559
  --------------------------------------------------------
  Sum of atomic charges =    -2.000000
  Sum of spin   charges =     1.000000

 -----------------------------------------------------------------
                    Cartesian Multipole Moments
 -----------------------------------------------------------------
    Charge (ESU x 10^10)
                -9.6064
    Dipole Moment (Debye)
         X      16.5267      Y      -1.6117      Z       0.0020
       Tot      16.6051
    Quadrupole Moments (Debye-Ang)
        XX    -163.1532     XY     -16.1826     YY    -144.9385
        XZ      -0.0033     YZ      -0.0003     ZZ    -114.8759
    Octopole Moments (Debye-Ang^2)
       XXX     215.6047    XXY     -15.6816    XYY       3.1067
       YYY     -60.2569    XXZ      -0.0059    XYZ      -0.0028
       YYZ      -0.0036    XZZ      11.8516    YZZ       8.8731
       ZZZ       0.0149
    Hexadecapole Moments (Debye-Ang^3)
      XXXX   -4376.3853   XXXY     -28.5082   XXYY    -976.0048
      XYYY    -136.6748   YYYY   -1602.2431   XXXZ      -0.0074
      XXYZ       0.0067   XYYZ       0.0210   YYYZ      -0.0056
      XXZZ    -834.9637   XYZZ     -16.1655   YYZZ    -267.7695
      XZZZ      -0.0375   YZZZ      -0.0031   ZZZZ    -258.4850
 -----------------------------------------------------------------
 Total job time:  61.47s(wall), 468.30s(cpu) 
 Thu Feb 22 14:43:24 2024

        *************************************************************
        *                                                           *
        *  Thank you very much for using Q-Chem.  Have a nice day.  *
        *                                                           *
        *************************************************************


