 Entering Gaussian System, Link 0=g16
 Input=313-rad.com
 Output=313-rad.log
 Initial command:
 /sysapps/ubuntu-applications/gaussian/Gaussian/AVX2/g16/l1.exe "/scratch/selhajj1/4264052/Gau-49730.inp" -scrdir="/scratch/selhajj1/4264052/"
 Entering Link 1 = /sysapps/ubuntu-applications/gaussian/Gaussian/AVX2/g16/l1.exe PID=     49732.
  
 Copyright (c) 1988,1990,1992,1993,1995,1998,2003,2009,2016,
            Gaussian, Inc.  All Rights Reserved.
  
 This is part of the Gaussian(R) 16 program.  It is based on
 the Gaussian(R) 09 system (copyright 2009, Gaussian, Inc.),
 the Gaussian(R) 03 system (copyright 2003, Gaussian, Inc.),
 the Gaussian(R) 98 system (copyright 1998, Gaussian, Inc.),
 the Gaussian(R) 94 system (copyright 1995, Gaussian, Inc.),
 the Gaussian 92(TM) system (copyright 1992, Gaussian, Inc.),
 the Gaussian 90(TM) system (copyright 1990, Gaussian, Inc.),
 the Gaussian 88(TM) system (copyright 1988, Gaussian, Inc.),
 the Gaussian 86(TM) system (copyright 1986, Carnegie Mellon
 University), and the Gaussian 82(TM) system (copyright 1983,
 Carnegie Mellon University). Gaussian is a federally registered
 trademark of Gaussian, Inc.
  
 This software contains proprietary and confidential information,
 including trade secrets, belonging to Gaussian, Inc.
  
 This software is provided under written license and may be
 used, copied, transmitted, or stored only in accord with that
 written license.
  
 The following legend is applicable only to US Government
 contracts under FAR:
  
                    RESTRICTED RIGHTS LEGEND
  
 Use, reproduction and disclosure by the US Government is
 subject to restrictions as set forth in subparagraphs (a)
 and (c) of the Commercial Computer Software - Restricted
 Rights clause in FAR 52.227-19.
  
 Gaussian, Inc.
 340 Quinnipiac St., Bldg. 40, Wallingford CT 06492
  
  
 ---------------------------------------------------------------
 Warning -- This program may not be used in any manner that
 competes with the business of Gaussian, Inc. or will provide
 assistance to any competitor of Gaussian, Inc.  The licensee
 of this program is prohibited from giving any competitor of
 Gaussian, Inc. access to this program.  By using this program,
 the user acknowledges that Gaussian, Inc. is engaged in the
 business of creating and licensing software in the field of
 computational chemistry and represents and warrants to the
 licensee that it is not a competitor of Gaussian, Inc. and that
 it will not use this program in any manner prohibited above.
 ---------------------------------------------------------------
  

 Cite this work as:
 Gaussian 16, Revision A.03,
 M. J. Frisch, G. W. Trucks, H. B. Schlegel, G. E. Scuseria, 
 M. A. Robb, J. R. Cheeseman, G. Scalmani, V. Barone, 
 G. A. Petersson, H. Nakatsuji, X. Li, M. Caricato, A. V. Marenich, 
 J. Bloino, B. G. Janesko, R. Gomperts, B. Mennucci, H. P. Hratchian, 
 J. V. Ortiz, A. F. Izmaylov, J. L. Sonnenberg, D. Williams-Young, 
 F. Ding, F. Lipparini, F. Egidi, J. Goings, B. Peng, A. Petrone, 
 T. Henderson, D. Ranasinghe, V. G. Zakrzewski, J. Gao, N. Rega, 
 G. Zheng, W. Liang, M. Hada, M. Ehara, K. Toyota, R. Fukuda, 
 J. Hasegawa, M. Ishida, T. Nakajima, Y. Honda, O. Kitao, H. Nakai, 
 T. Vreven, K. Throssell, J. A. Montgomery, Jr., J. E. Peralta, 
 F. Ogliaro, M. J. Bearpark, J. J. Heyd, E. N. Brothers, K. N. Kudin, 
 V. N. Staroverov, T. A. Keith, R. Kobayashi, J. Normand, 
 K. Raghavachari, A. P. Rendell, J. C. Burant, S. S. Iyengar, 
 J. Tomasi, M. Cossi, J. M. Millam, M. Klene, C. Adamo, R. Cammi, 
 J. W. Ochterski, R. L. Martin, K. Morokuma, O. Farkas, 
 J. B. Foresman, and D. J. Fox, Gaussian, Inc., Wallingford CT, 2016.
 
 ******************************************
 Gaussian 16:  ES64L-G16RevA.03 25-Dec-2016
                 9-Jan-2024 
 ******************************************
 %chk=313-rad.chk
 %nproc=8
 Will use up to    8 processors via shared memory.
 %mem=30GB
 --------------------------------------
 #P UB3LYP/6-311++G(d,p) nosym opt freq
 --------------------------------------
 1/18=20,19=15,26=3,38=1/1,3;
 2/9=110,12=2,15=1,17=6,18=5,40=1/2;
 3/5=4,6=6,7=1111,11=2,25=1,30=1,71=1,74=-5,116=2/1,2,3;
 4//1;
 5/5=2,38=5/2;
 6/7=2,8=2,9=2,10=2,28=1/1;
 7/30=1/1,2,3,16;
 1/18=20,19=15,26=3/3(2);
 2/9=110,15=1/2;
 99//99;
 2/9=110,15=1/2;
 3/5=4,6=6,7=1111,11=2,25=1,30=1,71=1,74=-5,116=2/1,2,3;
 4/5=5,16=3,69=1/1;
 5/5=2,38=5/2;
 7/30=1/1,2,3,16;
 1/18=20,19=15,26=3/3(-5);
 2/9=110,15=1/2;
 6/7=2,8=2,9=2,10=2,19=2,28=1/1;
 99/9=1/99;
 Leave Link    1 at Tue Jan  9 01:53:32 2024, MaxMem=  4026531840 cpu:               0.5 elap:               0.1
 (Enter /sysapps/ubuntu-applications/gaussian/Gaussian/AVX2/g16/l101.exe)
 -------
 Radical
 -------
 Symbolic Z-matrix:
 Charge = -1 Multiplicity = 2
 C                    -5.51489  -0.04041  -0.43108 
 C                    -5.74877  -0.48827  -1.71977 
 C                    -4.68736  -0.56335  -2.64033 
 C                    -4.22449   0.34493  -0.02092 
 C                    -3.15611   0.26941  -0.949 
 C                    -3.41209  -0.18883  -2.25522 
 C                    -4.02882   0.82439   1.36928 
 C                    -2.66477   1.18606   1.70212 
 C                    -1.62283   1.10466   0.78972 
 C                    -1.78528   0.66073  -0.56486 
 S                    -2.32707   1.89577   3.31049 
 C                    -2.43077   0.53588   4.46055 
 C                    -2.56756  -0.80093   4.07597 
 C                    -2.3347    0.84632   5.82496 
 C                    -2.36828  -0.14743   6.80342 
 C                    -2.60146  -1.79608   5.04852 
 C                    -2.49975  -1.48239   6.40301 
 C                    -2.30107   0.21712   8.26927 
 O                    -4.98431   0.89075   2.17225 
 O                    -0.82474   0.59846  -1.37707 
 H                    -6.31284   0.02823   0.29927 
 H                    -6.75009  -0.78198  -2.0205 
 H                    -4.87009  -0.91485  -3.65156 
 H                    -2.57416  -0.23543  -2.94148 
 H                    -0.6191    1.38588   1.08871 
 H                    -2.64801  -1.05306   3.02656 
 H                    -2.23646   1.88598   6.1247 
 H                    -2.70716  -2.83208   4.742 
 H                    -2.5258   -2.27121   7.14883 
 H                    -1.78046   1.1663    8.42061 
 H                    -1.77905  -0.551     8.84721 
 H                    -3.30488   0.32226   8.69727 
 
 ITRead=  0  0  0  0  0  0  0  0  0  0  0  0  0  0  0  0  0  0  0  0
 ITRead=  0  0  0  0  0  0  0  0  0  0  0  0
 MicOpt= -1 -1 -1 -1 -1 -1 -1 -1 -1 -1 -1 -1 -1 -1 -1 -1 -1 -1 -1 -1
 MicOpt= -1 -1 -1 -1 -1 -1 -1 -1 -1 -1 -1 -1
 NAtoms=     32 NQM=       32 NQMF=       0 NMMI=      0 NMMIF=      0
                NMic=       0 NMicF=      0.
                    Isotopes and Nuclear Properties:
 (Nuclear quadrupole moments (NQMom) in fm**2, nuclear magnetic moments (NMagM)
  in nuclear magnetons)

  Atom         1           2           3           4           5           6           7           8           9          10
 IAtWgt=          12          12          12          12          12          12          12          12          12          12
 AtmWgt=  12.0000000  12.0000000  12.0000000  12.0000000  12.0000000  12.0000000  12.0000000  12.0000000  12.0000000  12.0000000
 NucSpn=           0           0           0           0           0           0           0           0           0           0
 AtZEff=  -0.0000000  -0.0000000  -0.0000000  -0.0000000  -0.0000000  -0.0000000  -0.0000000  -0.0000000  -0.0000000  -0.0000000
 NQMom=    0.0000000   0.0000000   0.0000000   0.0000000   0.0000000   0.0000000   0.0000000   0.0000000   0.0000000   0.0000000
 NMagM=    0.0000000   0.0000000   0.0000000   0.0000000   0.0000000   0.0000000   0.0000000   0.0000000   0.0000000   0.0000000
 AtZNuc=   6.0000000   6.0000000   6.0000000   6.0000000   6.0000000   6.0000000   6.0000000   6.0000000   6.0000000   6.0000000

  Atom        11          12          13          14          15          16          17          18          19          20
 IAtWgt=          32          12          12          12          12          12          12          12          16          16
 AtmWgt=  31.9720718  12.0000000  12.0000000  12.0000000  12.0000000  12.0000000  12.0000000  12.0000000  15.9949146  15.9949146
 NucSpn=           0           0           0           0           0           0           0           0           0           0
 AtZEff=  -0.0000000  -0.0000000  -0.0000000  -0.0000000  -0.0000000  -0.0000000  -0.0000000  -0.0000000  -0.0000000  -0.0000000
 NQMom=    0.0000000   0.0000000   0.0000000   0.0000000   0.0000000   0.0000000   0.0000000   0.0000000   0.0000000   0.0000000
 NMagM=    0.0000000   0.0000000   0.0000000   0.0000000   0.0000000   0.0000000   0.0000000   0.0000000   0.0000000   0.0000000
 AtZNuc=  16.0000000   6.0000000   6.0000000   6.0000000   6.0000000   6.0000000   6.0000000   6.0000000   8.0000000   8.0000000

  Atom        21          22          23          24          25          26          27          28          29          30
 IAtWgt=           1           1           1           1           1           1           1           1           1           1
 AtmWgt=   1.0078250   1.0078250   1.0078250   1.0078250   1.0078250   1.0078250   1.0078250   1.0078250   1.0078250   1.0078250
 NucSpn=           1           1           1           1           1           1           1           1           1           1
 AtZEff=  -0.0000000  -0.0000000  -0.0000000  -0.0000000  -0.0000000  -0.0000000  -0.0000000  -0.0000000  -0.0000000  -0.0000000
 NQMom=    0.0000000   0.0000000   0.0000000   0.0000000   0.0000000   0.0000000   0.0000000   0.0000000   0.0000000   0.0000000
 NMagM=    2.7928460   2.7928460   2.7928460   2.7928460   2.7928460   2.7928460   2.7928460   2.7928460   2.7928460   2.7928460
 AtZNuc=   1.0000000   1.0000000   1.0000000   1.0000000   1.0000000   1.0000000   1.0000000   1.0000000   1.0000000   1.0000000

  Atom        31          32
 IAtWgt=           1           1
 AtmWgt=   1.0078250   1.0078250
 NucSpn=           1           1
 AtZEff=  -0.0000000  -0.0000000
 NQMom=    0.0000000   0.0000000
 NMagM=    2.7928460   2.7928460
 AtZNuc=   1.0000000   1.0000000
 Leave Link  101 at Tue Jan  9 01:53:32 2024, MaxMem=  4026531840 cpu:               3.0 elap:               0.4
 (Enter /sysapps/ubuntu-applications/gaussian/Gaussian/AVX2/g16/l103.exe)

 GradGradGradGradGradGradGradGradGradGradGradGradGradGradGradGradGradGrad
 Berny optimization.
 Initialization pass.
                           ----------------------------
                           !    Initial Parameters    !
                           ! (Angstroms and Degrees)  !
 --------------------------                            --------------------------
 ! Name  Definition              Value          Derivative Info.                !
 --------------------------------------------------------------------------------
 ! R1    R(1,2)                  1.3842         estimate D2E/DX2                !
 ! R2    R(1,4)                  1.4078         estimate D2E/DX2                !
 ! R3    R(1,21)                 1.0839         estimate D2E/DX2                !
 ! R4    R(2,3)                  1.407          estimate D2E/DX2                !
 ! R5    R(2,22)                 1.086          estimate D2E/DX2                !
 ! R6    R(3,6)                  1.3838         estimate D2E/DX2                !
 ! R7    R(3,23)                 1.0861         estimate D2E/DX2                !
 ! R8    R(4,5)                  1.4172         estimate D2E/DX2                !
 ! R9    R(4,7)                  1.4835         estimate D2E/DX2                !
 ! R10   R(5,6)                  1.4077         estimate D2E/DX2                !
 ! R11   R(5,10)                 1.4764         estimate D2E/DX2                !
 ! R12   R(6,24)                 1.0841         estimate D2E/DX2                !
 ! R13   R(7,8)                  1.4499         estimate D2E/DX2                !
 ! R14   R(7,19)                 1.2499         estimate D2E/DX2                !
 ! R15   R(8,9)                  1.3874         estimate D2E/DX2                !
 ! R16   R(8,11)                 1.7901         estimate D2E/DX2                !
 ! R17   R(9,10)                 1.4347         estimate D2E/DX2                !
 ! R18   R(9,25)                 1.0844         estimate D2E/DX2                !
 ! R19   R(10,20)                1.2594         estimate D2E/DX2                !
 ! R20   R(11,12)                1.784          estimate D2E/DX2                !
 ! R21   R(12,13)                1.3977         estimate D2E/DX2                !
 ! R22   R(12,14)                1.4026         estimate D2E/DX2                !
 ! R23   R(13,16)                1.3919         estimate D2E/DX2                !
 ! R24   R(13,26)                1.0823         estimate D2E/DX2                !
 ! R25   R(14,15)                1.395          estimate D2E/DX2                !
 ! R26   R(14,27)                1.0865         estimate D2E/DX2                !
 ! R27   R(15,17)                1.3999         estimate D2E/DX2                !
 ! R28   R(15,18)                1.512          estimate D2E/DX2                !
 ! R29   R(16,17)                1.394          estimate D2E/DX2                !
 ! R30   R(16,28)                1.0856         estimate D2E/DX2                !
 ! R31   R(17,29)                1.0859         estimate D2E/DX2                !
 ! R32   R(18,30)                1.0931         estimate D2E/DX2                !
 ! R33   R(18,31)                1.0939         estimate D2E/DX2                !
 ! R34   R(18,32)                1.0963         estimate D2E/DX2                !
 ! A1    A(2,1,4)              120.9766         estimate D2E/DX2                !
 ! A2    A(2,1,21)             121.562          estimate D2E/DX2                !
 ! A3    A(4,1,21)             117.4614         estimate D2E/DX2                !
 ! A4    A(1,2,3)              119.9293         estimate D2E/DX2                !
 ! A5    A(1,2,22)             120.0745         estimate D2E/DX2                !
 ! A6    A(3,2,22)             119.9962         estimate D2E/DX2                !
 ! A7    A(2,3,6)              119.9132         estimate D2E/DX2                !
 ! A8    A(2,3,23)             119.9696         estimate D2E/DX2                !
 ! A9    A(6,3,23)             120.1172         estimate D2E/DX2                !
 ! A10   A(1,4,5)              119.0536         estimate D2E/DX2                !
 ! A11   A(1,4,7)              118.8413         estimate D2E/DX2                !
 ! A12   A(5,4,7)              122.1043         estimate D2E/DX2                !
 ! A13   A(4,5,6)              119.2032         estimate D2E/DX2                !
 ! A14   A(4,5,10)             121.0268         estimate D2E/DX2                !
 ! A15   A(6,5,10)             119.77           estimate D2E/DX2                !
 ! A16   A(3,6,5)              120.9241         estimate D2E/DX2                !
 ! A17   A(3,6,24)             121.6354         estimate D2E/DX2                !
 ! A18   A(5,6,24)             117.4405         estimate D2E/DX2                !
 ! A19   A(4,7,8)              114.8236         estimate D2E/DX2                !
 ! A20   A(4,7,19)             121.2229         estimate D2E/DX2                !
 ! A21   A(8,7,19)             123.9513         estimate D2E/DX2                !
 ! A22   A(7,8,9)              122.7483         estimate D2E/DX2                !
 ! A23   A(7,8,11)             118.8568         estimate D2E/DX2                !
 ! A24   A(9,8,11)             118.1943         estimate D2E/DX2                !
 ! A25   A(8,9,10)             123.645          estimate D2E/DX2                !
 ! A26   A(8,9,25)             119.9079         estimate D2E/DX2                !
 ! A27   A(10,9,25)            116.4471         estimate D2E/DX2                !
 ! A28   A(5,10,9)             115.6449         estimate D2E/DX2                !
 ! A29   A(5,10,20)            121.8183         estimate D2E/DX2                !
 ! A30   A(9,10,20)            122.5355         estimate D2E/DX2                !
 ! A31   A(8,11,12)            105.4278         estimate D2E/DX2                !
 ! A32   A(11,12,13)           123.8732         estimate D2E/DX2                !
 ! A33   A(11,12,14)           117.0269         estimate D2E/DX2                !
 ! A34   A(13,12,14)           119.0811         estimate D2E/DX2                !
 ! A35   A(12,13,16)           119.5992         estimate D2E/DX2                !
 ! A36   A(12,13,26)           119.7933         estimate D2E/DX2                !
 ! A37   A(16,13,26)           120.6074         estimate D2E/DX2                !
 ! A38   A(12,14,15)           121.5335         estimate D2E/DX2                !
 ! A39   A(12,14,27)           119.1024         estimate D2E/DX2                !
 ! A40   A(15,14,27)           119.3635         estimate D2E/DX2                !
 ! A41   A(14,15,17)           118.7476         estimate D2E/DX2                !
 ! A42   A(14,15,18)           120.4758         estimate D2E/DX2                !
 ! A43   A(17,15,18)           120.7564         estimate D2E/DX2                !
 ! A44   A(13,16,17)           121.0809         estimate D2E/DX2                !
 ! A45   A(13,16,28)           119.1701         estimate D2E/DX2                !
 ! A46   A(17,16,28)           119.7489         estimate D2E/DX2                !
 ! A47   A(15,17,16)           119.9564         estimate D2E/DX2                !
 ! A48   A(15,17,29)           119.9025         estimate D2E/DX2                !
 ! A49   A(16,17,29)           120.1407         estimate D2E/DX2                !
 ! A50   A(15,18,30)           111.392          estimate D2E/DX2                !
 ! A51   A(15,18,31)           111.3544         estimate D2E/DX2                !
 ! A52   A(15,18,32)           111.156          estimate D2E/DX2                !
 ! A53   A(30,18,31)           108.018          estimate D2E/DX2                !
 ! A54   A(30,18,32)           107.3833         estimate D2E/DX2                !
 ! A55   A(31,18,32)           107.3401         estimate D2E/DX2                !
 ! D1    D(4,1,2,3)              0.0208         estimate D2E/DX2                !
 ! D2    D(4,1,2,22)           179.9911         estimate D2E/DX2                !
 ! D3    D(21,1,2,3)           179.9835         estimate D2E/DX2                !
 ! D4    D(21,1,2,22)           -0.0462         estimate D2E/DX2                !
 ! D5    D(2,1,4,5)              0.0015         estimate D2E/DX2                !
 ! D6    D(2,1,4,7)            179.6843         estimate D2E/DX2                !
 ! D7    D(21,1,4,5)          -179.9627         estimate D2E/DX2                !
 ! D8    D(21,1,4,7)            -0.2799         estimate D2E/DX2                !
 ! D9    D(1,2,3,6)             -0.02           estimate D2E/DX2                !
 ! D10   D(1,2,3,23)           179.9867         estimate D2E/DX2                !
 ! D11   D(22,2,3,6)          -179.9903         estimate D2E/DX2                !
 ! D12   D(22,2,3,23)            0.0163         estimate D2E/DX2                !
 ! D13   D(2,3,6,5)             -0.0033         estimate D2E/DX2                !
 ! D14   D(2,3,6,24)          -179.9964         estimate D2E/DX2                !
 ! D15   D(23,3,6,5)           179.9901         estimate D2E/DX2                !
 ! D16   D(23,3,6,24)           -0.0031         estimate D2E/DX2                !
 ! D17   D(1,4,5,6)             -0.0244         estimate D2E/DX2                !
 ! D18   D(1,4,5,10)          -179.9152         estimate D2E/DX2                !
 ! D19   D(7,4,5,6)           -179.6963         estimate D2E/DX2                !
 ! D20   D(7,4,5,10)             0.4129         estimate D2E/DX2                !
 ! D21   D(1,4,7,8)            179.4399         estimate D2E/DX2                !
 ! D22   D(1,4,7,19)            -0.0425         estimate D2E/DX2                !
 ! D23   D(5,4,7,8)             -0.8875         estimate D2E/DX2                !
 ! D24   D(5,4,7,19)           179.6301         estimate D2E/DX2                !
 ! D25   D(4,5,6,3)              0.0254         estimate D2E/DX2                !
 ! D26   D(4,5,6,24)          -179.9812         estimate D2E/DX2                !
 ! D27   D(10,5,6,3)           179.9176         estimate D2E/DX2                !
 ! D28   D(10,5,6,24)           -0.089          estimate D2E/DX2                !
 ! D29   D(4,5,10,9)             0.3424         estimate D2E/DX2                !
 ! D30   D(4,5,10,20)          179.9373         estimate D2E/DX2                !
 ! D31   D(6,5,10,9)          -179.5477         estimate D2E/DX2                !
 ! D32   D(6,5,10,20)            0.0471         estimate D2E/DX2                !
 ! D33   D(4,7,8,9)              0.6402         estimate D2E/DX2                !
 ! D34   D(4,7,8,11)           175.3968         estimate D2E/DX2                !
 ! D35   D(19,7,8,9)          -179.8935         estimate D2E/DX2                !
 ! D36   D(19,7,8,11)           -5.1369         estimate D2E/DX2                !
 ! D37   D(7,8,9,10)             0.1033         estimate D2E/DX2                !
 ! D38   D(7,8,9,25)          -179.9147         estimate D2E/DX2                !
 ! D39   D(11,8,9,10)         -174.6863         estimate D2E/DX2                !
 ! D40   D(11,8,9,25)            5.2957         estimate D2E/DX2                !
 ! D41   D(7,8,11,12)           74.5275         estimate D2E/DX2                !
 ! D42   D(9,8,11,12)         -110.4756         estimate D2E/DX2                !
 ! D43   D(8,9,10,5)            -0.6096         estimate D2E/DX2                !
 ! D44   D(8,9,10,20)          179.7988         estimate D2E/DX2                !
 ! D45   D(25,9,10,5)          179.4079         estimate D2E/DX2                !
 ! D46   D(25,9,10,20)          -0.1837         estimate D2E/DX2                !
 ! D47   D(8,11,12,13)           7.7146         estimate D2E/DX2                !
 ! D48   D(8,11,12,14)        -173.8809         estimate D2E/DX2                !
 ! D49   D(11,12,13,16)        178.1636         estimate D2E/DX2                !
 ! D50   D(11,12,13,26)         -1.9533         estimate D2E/DX2                !
 ! D51   D(14,12,13,16)         -0.2101         estimate D2E/DX2                !
 ! D52   D(14,12,13,26)        179.673          estimate D2E/DX2                !
 ! D53   D(11,12,14,15)       -178.2749         estimate D2E/DX2                !
 ! D54   D(11,12,14,27)          2.007          estimate D2E/DX2                !
 ! D55   D(13,12,14,15)          0.2093         estimate D2E/DX2                !
 ! D56   D(13,12,14,27)       -179.5088         estimate D2E/DX2                !
 ! D57   D(12,13,16,17)         -0.0659         estimate D2E/DX2                !
 ! D58   D(12,13,16,28)       -179.9535         estimate D2E/DX2                !
 ! D59   D(26,13,16,17)       -179.948          estimate D2E/DX2                !
 ! D60   D(26,13,16,28)          0.1643         estimate D2E/DX2                !
 ! D61   D(12,14,15,17)          0.0692         estimate D2E/DX2                !
 ! D62   D(12,14,15,18)       -178.3103         estimate D2E/DX2                !
 ! D63   D(27,14,15,17)        179.7866         estimate D2E/DX2                !
 ! D64   D(27,14,15,18)          1.4071         estimate D2E/DX2                !
 ! D65   D(14,15,17,16)         -0.3458         estimate D2E/DX2                !
 ! D66   D(14,15,17,29)        179.8694         estimate D2E/DX2                !
 ! D67   D(18,15,17,16)        178.0289         estimate D2E/DX2                !
 ! D68   D(18,15,17,29)         -1.7558         estimate D2E/DX2                !
 ! D69   D(14,15,18,30)        -26.5391         estimate D2E/DX2                !
 ! D70   D(14,15,18,31)       -147.1929         estimate D2E/DX2                !
 ! D71   D(14,15,18,32)         93.1739         estimate D2E/DX2                !
 ! D72   D(17,15,18,30)        155.1142         estimate D2E/DX2                !
 ! D73   D(17,15,18,31)         34.4605         estimate D2E/DX2                !
 ! D74   D(17,15,18,32)        -85.1728         estimate D2E/DX2                !
 ! D75   D(13,16,17,15)          0.3491         estimate D2E/DX2                !
 ! D76   D(13,16,17,29)       -179.8667         estimate D2E/DX2                !
 ! D77   D(28,16,17,15)       -179.764          estimate D2E/DX2                !
 ! D78   D(28,16,17,29)          0.0203         estimate D2E/DX2                !
 --------------------------------------------------------------------------------
 Trust Radius=3.00D-01 FncErr=1.00D-07 GrdErr=1.00D-06 EigMax=2.50D+02 EigMin=1.00D-04
 Number of steps in this run=    177 maximum allowed number of steps=    192.
 GradGradGradGradGradGradGradGradGradGradGradGradGradGradGradGradGradGrad

 Leave Link  103 at Tue Jan  9 01:53:32 2024, MaxMem=  4026531840 cpu:               0.1 elap:               0.0
 (Enter /sysapps/ubuntu-applications/gaussian/Gaussian/AVX2/g16/l202.exe)
                          Input orientation:                          
 ---------------------------------------------------------------------
 Center     Atomic      Atomic             Coordinates (Angstroms)
 Number     Number       Type             X           Y           Z
 ---------------------------------------------------------------------
      1          6           0       -5.514886   -0.040414   -0.431077
      2          6           0       -5.748770   -0.488265   -1.719766
      3          6           0       -4.687361   -0.563347   -2.640333
      4          6           0       -4.224488    0.344933   -0.020924
      5          6           0       -3.156110    0.269413   -0.948997
      6          6           0       -3.412085   -0.188832   -2.255224
      7          6           0       -4.028817    0.824387    1.369278
      8          6           0       -2.664772    1.186062    1.702119
      9          6           0       -1.622828    1.104655    0.789721
     10          6           0       -1.785283    0.660726   -0.564861
     11         16           0       -2.327072    1.895769    3.310490
     12          6           0       -2.430766    0.535880    4.460546
     13          6           0       -2.567563   -0.800932    4.075967
     14          6           0       -2.334703    0.846320    5.824960
     15          6           0       -2.368275   -0.147428    6.803420
     16          6           0       -2.601461   -1.796079    5.048524
     17          6           0       -2.499754   -1.482393    6.403007
     18          6           0       -2.301068    0.217116    8.269272
     19          8           0       -4.984311    0.890750    2.172252
     20          8           0       -0.824741    0.598458   -1.377072
     21          1           0       -6.312839    0.028233    0.299270
     22          1           0       -6.750085   -0.781983   -2.020505
     23          1           0       -4.870090   -0.914848   -3.651561
     24          1           0       -2.574159   -0.235428   -2.941483
     25          1           0       -0.619096    1.385883    1.088712
     26          1           0       -2.648008   -1.053059    3.026561
     27          1           0       -2.236462    1.885976    6.124695
     28          1           0       -2.707160   -2.832079    4.742004
     29          1           0       -2.525802   -2.271214    7.148828
     30          1           0       -1.780456    1.166296    8.420608
     31          1           0       -1.779049   -0.551001    8.847212
     32          1           0       -3.304880    0.322255    8.697268
 ---------------------------------------------------------------------
                    Distance matrix (angstroms):
                    1          2          3          4          5
     1  C    0.000000
     2  C    1.384193   0.000000
     3  C    2.416416   1.407007   0.000000
     4  C    1.407780   2.429757   2.810788   0.000000
     5  C    2.434760   2.808923   2.428752   1.417199   0.000000
     6  C    2.787707   2.415879   1.383799   2.436596   1.407743
     7  C    2.489490   3.771404   4.293771   1.483518   2.538506
     8  C    3.765358   4.901399   5.099822   2.471657   2.847819
     9  C    4.236702   5.085107   4.892736   2.828950   2.464087
    10  C    3.797293   4.285232   3.772002   2.518991   1.476433
    11  S    5.283019   6.534150   6.857879   4.135650   4.634174
    12  C    5.811358   7.089025   7.531468   4.830887   5.464456
    13  C    5.438616   6.618788   7.046891   4.565405   5.171295
    14  C    7.073744   8.388079   8.898502   6.164174   6.847921
    15  C    7.889902   9.175435   9.733222   7.089402   7.803487
    16  C    6.449530   7.577973   8.061584   5.737373   6.367429
    17  C    7.607564   8.804762   9.349453   6.897878   7.586276
    18  C    9.278525  10.590802  11.194775   8.511359   9.257987
    19  O    2.815297   4.199272   5.036224   2.384380   3.670228
    20  O    4.827062   5.054154   4.226754   3.669018   2.393073
    21  H    1.083904   2.159039   3.410779   2.136360   3.403127
    22  H    2.145209   1.085977   2.164906   3.412756   3.894897
    23  H    3.398811   2.164690   1.086059   3.896842   3.412338
    24  H    3.871440   3.410964   2.159594   3.404419   2.136242
    25  H    5.320981   6.141135   5.852867   3.913275   3.440233
    26  H    4.604313   5.697485   6.042555   3.704974   4.220446
    27  H    7.578733   8.916776   9.425063   6.640459   7.314106
    28  H    6.514406   7.516603   7.972907   5.922936   6.496792
    29  H    8.447843   9.603041  10.169406   7.818894   8.510396
    30  H    9.682688  11.014185  11.566597   8.826516   9.512430
    31  H   10.015180  11.288208  11.849984   9.242657   9.926484
    32  H    9.399060  10.730524  11.455861   8.766588   9.647557
                    6          7          8          9         10
     6  C    0.000000
     7  C    3.813658   0.000000
     8  C    4.255511   1.449900   0.000000
     9  C    3.761149   2.490626   1.387352   0.000000
    10  C    2.495107   2.966669   2.487705   1.434698   0.000000
    11  S    6.041522   2.795013   1.790135   2.734245   4.103317
    12  C    6.825669   3.491839   2.843662   3.801477   5.068230
    13  C    6.416530   3.478950   3.097216   3.914486   4.928051
    14  C    8.217157   4.766928   4.149962   5.091869   6.416083
    15  C    9.118678   5.764696   5.281039   6.187728   7.435359
    16  C    7.522306   4.737197   4.482812   5.244939   6.181596
    17  C    8.801739   5.744362   5.407978   6.242659   7.324931
    18  C   10.590759   7.138894   6.648205   7.562501   8.860289
    19  O    4.820782   1.249856   2.385057   3.640977   4.216453
    20  O    2.843471   4.226060   3.634888   2.363931   1.259446
    21  H    3.871296   2.644907   4.076389   4.836882   4.652476
    22  H    3.398406   4.634259   5.866934   6.143740   5.371179
    23  H    2.145375   5.379731   6.159476   5.860724   4.639632
    24  H    1.084086   4.671391   4.857148   4.077099   2.659652
    25  H    4.632755   3.467015   2.144991   1.084418   2.149453
    26  H    5.406288   2.859724   2.601555   3.272641   4.071814
    27  H    8.712632   5.191676   4.498056   5.426689   6.815788
    28  H    7.512980   5.147019   5.038666   5.682798   6.419685
    29  H    9.672539   6.726440   6.452806   7.256039   8.285266
    30  H   10.884483   7.409000   6.776467   7.632764   8.999682
    31  H   11.227736   7.929227   7.406365   8.227318   9.489754
    32  H   10.964934   7.380763   7.077288   8.122238   9.392059
                   11         12         13         14         15
    11  S    0.000000
    12  C    1.784007   0.000000
    13  C    2.813536   1.397741   0.000000
    14  C    2.724695   1.402579   2.413843   0.000000
    15  C    4.046840   2.441285   2.811722   1.395008   0.000000
    16  C    4.089718   2.410993   1.391881   2.766999   2.419108
    17  C    4.583171   2.802024   2.425717   2.405054   1.399910
    18  C    5.235272   3.824242   4.323338   2.524221   1.511996
    19  O    3.060485   3.447146   3.510924   4.512723   5.419333
    20  O    5.090506   6.054834   5.893331   7.362791   8.358187
    21  H    5.333055   5.713529   5.383126   6.857702   7.608838
    22  H    7.426500   7.899196   7.393296   9.148677   9.872415
    23  H    7.926958   8.594254   8.064074   9.966662  10.777506
    24  H    6.609858   7.443488   7.040202   8.836178   9.747475
    25  H    2.848414   3.920959   4.183584   5.066210   6.169972
    26  H    2.979799   2.151333   1.082263   3.396592   3.893980
    27  H    2.815680   2.151721   3.395054   1.086452   2.147737
    28  H    4.954417   3.390982   2.142114   3.852549   3.401710
    29  H    5.668869   3.887887   3.406750   3.392368   2.157450
    30  H    5.190783   4.062317   4.833780   2.673380   2.164879
    31  H    6.078018   4.566058   4.842417   3.375687   2.164981
    32  H    5.696440   4.331227   4.812651   3.076693   2.164369
                   16         17         18         19         20
    16  C    0.000000
    17  C    1.394047   0.000000
    18  C    3.810040   2.531946   0.000000
    19  O    4.601083   5.450149   6.695314   0.000000
    20  O    7.083701   8.225888   9.766111   5.475871   0.000000
    21  H    6.297448   7.353721   8.924736   2.452954   5.766671
    22  H    8.258973   9.461049  11.254842   4.847185   6.117951
    23  H    9.034087  10.345769  12.246937   6.098363   4.881418
    24  H    8.141043   9.427616  11.223208   5.764321   2.490625
    25  H    5.452959   6.324999   7.466960   4.524856   2.596617
    26  H    2.154665   3.406860   5.405528   3.156984   5.044184
    27  H    3.853427   3.390087   2.718176   4.915583   7.741264
    28  H    1.085552   2.150256   4.680184   5.064435   7.263276
    29  H    2.154705   1.085894   2.738190   6.388160   9.155304
    30  H    4.562967   3.406414   1.093107   7.027273   9.860546
    31  H    4.081251   2.713125   1.093857   7.543702  10.332857
    32  H    4.277320   3.027972   1.096300   6.761620  10.378810
                   21         22         23         24         25
    21  H    0.000000
    22  H    2.495794   0.000000
    23  H    4.310451   2.492464   0.000000
    24  H    4.954768   4.311065   2.497423   0.000000
    25  H    5.906364   7.208044   6.770118   4.763758   0.000000
    26  H    4.694496   6.509485   7.039465   6.024245   3.717550
    27  H    7.348717   9.686851  10.505037   9.317187   5.312917
    28  H    6.396889   8.141232   8.877273   8.111489   5.957999
    29  H    8.157546  10.204854  11.134802  10.293743   7.330409
    30  H    9.369835  11.726459  12.633854  11.475709   7.426552
    31  H    9.693197  11.952900  12.880460  11.819692   8.080305
    32  H    8.925281  11.311916  12.508952  11.674994   8.138480
                   26         27         28         29         30
    26  H    0.000000
    27  H    4.290190   0.000000
    28  H    2.472075   4.938971   0.000000
    29  H    4.300223   4.291246   2.477955   0.000000
    30  H    5.896942   2.448897   5.511616   3.740246   0.000000
    31  H    5.906533   3.682415   4.787216   2.530075   1.769492
    32  H    5.871958   3.194507   5.094233   3.119409   1.764317
                   31         32
    31  H    0.000000
    32  H    1.764432   0.000000
 Symmetry turned off by external request.
 Stoichiometry    C17H12O2S(1-,2)
 Framework group  C1[X(C17H12O2S)]
 Deg. of freedom    90
 Full point group                 C1      NOp   1
 Rotational constants (GHZ):           0.7385817           0.1597440           0.1488007
 Leave Link  202 at Tue Jan  9 01:53:32 2024, MaxMem=  4026531840 cpu:               0.3 elap:               0.1
 (Enter /sysapps/ubuntu-applications/gaussian/Gaussian/AVX2/g16/l301.exe)
 Standard basis: 6-311++G(d,p) (5D, 7F)
 Ernie: Thresh=  0.10000D-02 Tol=  0.10000D-05 Strict=F.
   532 basis functions,   842 primitive gaussians,   552 cartesian basis functions
    74 alpha electrons       73 beta electrons
       nuclear repulsion energy      1506.5706087361 Hartrees.
 IExCor=  402 DFT=T Ex+Corr=B3LYP ExCW=0 ScaHFX=  0.200000
 ScaDFX=  0.800000  0.720000  1.000000  0.810000 ScalE2=  1.000000  1.000000
 IRadAn=      5 IRanWt=     -1 IRanGd=            0 ICorTp=0 IEmpDi=  4
 NAtoms=   32 NActive=   32 NUniq=   32 SFac= 1.00D+00 NAtFMM=   60 NAOKFM=F Big=F
 Integral buffers will be    131072 words long.
 Raffenetti 2 integral format.
 Two-electron integral symmetry is turned off.
 Leave Link  301 at Tue Jan  9 01:53:33 2024, MaxMem=  4026531840 cpu:               0.2 elap:               0.0
 (Enter /sysapps/ubuntu-applications/gaussian/Gaussian/AVX2/g16/l302.exe)
 NPDir=0 NMtPBC=     1 NCelOv=     1 NCel=       1 NClECP=     1 NCelD=      1
         NCelK=      1 NCelE2=     1 NClLst=     1 CellRange=     0.0.
 One-electron integrals computed using PRISM.
 NBasis=   532 RedAO= T EigKep=  1.15D-06  NBF=   532
 NBsUse=   528 1.00D-06 EigRej=  8.05D-07 NBFU=   528
 Precomputing XC quadrature grid using
 IXCGrd= 4 IRadAn=           5 IRanWt=          -1 IRanGd=           0 AccXCQ= 0.00D+00.
 Generated NRdTot=       0 NPtTot=           0 NUsed=           0 NTot=          32
 NSgBfM=   549   549   549   549   549 MxSgAt=    32 MxSgA2=    32.
 Leave Link  302 at Tue Jan  9 01:53:33 2024, MaxMem=  4026531840 cpu:               3.4 elap:               0.4
 (Enter /sysapps/ubuntu-applications/gaussian/Gaussian/AVX2/g16/l303.exe)
 DipDrv:  MaxL=1.
 Leave Link  303 at Tue Jan  9 01:53:33 2024, MaxMem=  4026531840 cpu:               0.4 elap:               0.1
 (Enter /sysapps/ubuntu-applications/gaussian/Gaussian/AVX2/g16/l401.exe)
 ExpMin= 3.60D-02 ExpMax= 9.34D+04 ExpMxC= 3.17D+03 IAcc=3 IRadAn=         5 AccDes= 0.00D+00
 Harris functional with IExCor=  402 and IRadAn=       5 diagonalized for initial guess.
 HarFok:  IExCor=  402 AccDes= 0.00D+00 IRadAn=         5 IDoV= 1 UseB2=F ITyADJ=14
 ICtDFT=  3500011 ScaDFX=  1.000000  1.000000  1.000000  1.000000
 FoFCou: FMM=F IPFlag=           0 FMFlag=      100000 FMFlg1=           0
         NFxFlg=           0 DoJE=T BraDBF=F KetDBF=T FulRan=T
         wScrn=  0.000000 ICntrl=       500 IOpCl=  0 I1Cent=   200000004 NGrid=           0
         NMat0=    1 NMatS0=      1 NMatT0=    0 NMatD0=    1 NMtDS0=    0 NMtDT0=    0
 Symmetry not used in FoFCou.
 Harris En= -1204.13537250714    
 JPrj=0 DoOrth=F DoCkMO=F.
 Initial guess <Sx>= 0.0000 <Sy>= 0.0000 <Sz>= 0.5000 <S**2>= 0.7500 S= 0.5000
 Leave Link  401 at Tue Jan  9 01:53:35 2024, MaxMem=  4026531840 cpu:              17.2 elap:               2.2
 (Enter /sysapps/ubuntu-applications/gaussian/Gaussian/AVX2/g16/l502.exe)
 Two-electron integral symmetry not used.
 UHF open shell SCF:
 Using DIIS extrapolation, IDIIS=  1040.
 NGot=  4026531840 LenX=  4025914092 LenY=  4025608836
 Requested convergence on RMS density matrix=1.00D-08 within 128 cycles.
 Requested convergence on MAX density matrix=1.00D-06.
 Requested convergence on             energy=1.00D-06.
 No special actions if energy rises.
 Fock matrices will be formed incrementally for  20 cycles.

 Cycle   1  Pass 1  IDiag  1:
 FoFJK:  IHMeth= 1 ICntrl=       0 DoSepK=F KAlg= 0 I1Cent=           0 FoldK=F
 IRaf= 810000000 NMat=       1 IRICut=       1 DoRegI=T DoRafI=F ISym2E= 0 IDoP0=0 IntGTp=1.
 FoFCou: FMM=F IPFlag=           0 FMFlag=      100000 FMFlg1=           0
         NFxFlg=           0 DoJE=F BraDBF=F KetDBF=F FulRan=T
         wScrn=  0.000000 ICntrl=         0 IOpCl=  1 I1Cent=           0 NGrid=           0
         NMat0=    1 NMatS0=      1 NMatT0=    0 NMatD0=    1 NMtDS0=    0 NMtDT0=    0
 Symmetry not used in FoFCou.
 E= -1203.33753572674    
 DIIS: error= 3.68D-02 at cycle   1 NSaved=   1.
 NSaved= 1 IEnMin= 1 EnMin= -1203.33753572674     IErMin= 1 ErrMin= 3.68D-02
 ErrMax= 3.68D-02  0.00D+00 EMaxC= 1.00D-01 BMatC= 2.79D+00 BMatP= 2.79D+00
 IDIUse=3 WtCom= 6.32D-01 WtEn= 3.68D-01
 Coeff-Com:  0.100D+01
 Coeff-En:   0.100D+01
 Coeff:      0.100D+01
 Gap=     0.165 Goal=   None    Shift=    0.000
 Gap=     0.193 Goal=   None    Shift=    0.000
 GapD=    0.165 DampG=1.000 DampE=0.500 DampFc=0.5000 IDamp=-1.
 Damping current iteration by 5.00D-01
 RMSDP=1.12D+00 MaxDP=2.82D+02              OVMax= 9.81D-01

 Cycle   2  Pass 1  IDiag  1:
 RMSU=  5.49D-01    CP:  2.62D+00
 E= -1202.81231164678     Delta-E=        0.525224079960 Rises=F Damp=T
 DIIS: error= 4.04D-02 at cycle   2 NSaved=   2.
 NSaved= 2 IEnMin= 1 EnMin= -1203.33753572674     IErMin= 1 ErrMin= 3.68D-02
 ErrMax= 4.04D-02  0.00D+00 EMaxC= 1.00D-01 BMatC= 1.24D+00 BMatP= 2.79D+00
 IDIUse=3 WtCom= 5.96D-01 WtEn= 4.04D-01
 Coeff-Com:  0.361D+00 0.639D+00
 Coeff-En:   0.697D+00 0.303D+00
 Coeff:      0.497D+00 0.503D+00
 Gap=    -0.000 Goal=   None    Shift=    0.000
 Gap=     0.193 Goal=   None    Shift=    0.000
 RMSDP=5.55D-01 MaxDP=1.41D+02 DE= 5.25D-01 OVMax= 5.99D-01

 Cycle   3  Pass 1  IDiag  1:
 RMSU=  2.77D-02    CP:  1.24D+00  5.94D-03
 E= -1203.54260609997     Delta-E=       -0.730294453193 Rises=F Damp=F
 DIIS: error= 4.12D-02 at cycle   3 NSaved=   3.
 NSaved= 3 IEnMin= 3 EnMin= -1203.54260609997     IErMin= 1 ErrMin= 3.68D-02
 ErrMax= 4.12D-02  0.00D+00 EMaxC= 1.00D-01 BMatC= 1.58D+00 BMatP= 1.24D+00
 IDIUse=2 WtCom= 0.00D+00 WtEn= 1.00D+00
 EnCoef did     2 forward-backward iterations
 Coeff-En:   0.270D+00 0.159D+00 0.572D+00
 Coeff:      0.270D+00 0.159D+00 0.572D+00
 Gap=     0.232 Goal=   None    Shift=    0.000
 Gap=     0.172 Goal=   None    Shift=    0.000
 RMSDP=5.77D-02 MaxDP=4.36D+00 DE=-7.30D-01 OVMax= 9.88D-01

 Cycle   4  Pass 1  IDiag  1:
 RMSU=  5.63D-02    CP:  1.24D+00  9.35D-03  5.54D-01
 E= -1200.65906244598     Delta-E=        2.883543653989 Rises=F Damp=F
 DIIS: error= 1.60D-01 at cycle   4 NSaved=   4.
 NSaved= 4 IEnMin= 3 EnMin= -1203.54260609997     IErMin= 1 ErrMin= 3.68D-02
 ErrMax= 1.60D-01  0.00D+00 EMaxC= 1.00D-01 BMatC= 7.68D+00 BMatP= 1.24D+00
 IDIUse=2 WtCom= 0.00D+00 WtEn= 1.00D+00
 EnCoef did     2 forward-backward iterations
 Coeff-En:   0.112D+00 0.000D+00 0.716D+00 0.172D+00
 Coeff:      0.112D+00 0.000D+00 0.716D+00 0.172D+00
 Gap=     0.006 Goal=   None    Shift=    0.000
 Gap=     0.008 Goal=   None    Shift=    0.000
 RMSDP=5.04D-02 MaxDP=4.42D+00 DE= 2.88D+00 OVMax= 9.94D-01

 Cycle   5  Pass 1  IDiag  1:
 RMSU=  2.15D-02    CP:  1.10D+00  3.42D-04  2.91D-01  2.25D-01
 E= -1203.87064995518     Delta-E=       -3.211587509194 Rises=F Damp=F
 DIIS: error= 2.84D-02 at cycle   5 NSaved=   5.
 NSaved= 5 IEnMin= 5 EnMin= -1203.87064995518     IErMin= 5 ErrMin= 2.84D-02
 ErrMax= 2.84D-02  0.00D+00 EMaxC= 1.00D-01 BMatC= 4.73D-01 BMatP= 1.24D+00
 IDIUse=3 WtCom= 7.16D-01 WtEn= 2.84D-01
 Coeff-Com:  0.536D-01 0.107D+00 0.317D+00-0.141D-01 0.537D+00
 Coeff-En:   0.000D+00 0.000D+00 0.239D+00 0.000D+00 0.761D+00
 Coeff:      0.384D-01 0.763D-01 0.295D+00-0.101D-01 0.601D+00
 Gap=     0.122 Goal=   None    Shift=    0.000
 Gap=     0.143 Goal=   None    Shift=    0.000
 RMSDP=1.40D-02 MaxDP=2.25D+00 DE=-3.21D+00 OVMax= 1.98D-01

 Cycle   6  Pass 1  IDiag  1:
 RMSU=  1.19D-02    CP:  1.12D+00  2.07D-03  3.03D-01  2.10D-01  6.62D-01
 E= -1203.96411043078     Delta-E=       -0.093460475602 Rises=F Damp=F
 DIIS: error= 7.40D-03 at cycle   6 NSaved=   6.
 NSaved= 6 IEnMin= 6 EnMin= -1203.96411043078     IErMin= 6 ErrMin= 7.40D-03
 ErrMax= 7.40D-03  0.00D+00 EMaxC= 1.00D-01 BMatC= 7.29D-02 BMatP= 4.73D-01
 IDIUse=3 WtCom= 9.26D-01 WtEn= 7.40D-02
 Coeff-Com:  0.103D-02 0.518D-01 0.123D+00-0.251D-01 0.365D+00 0.485D+00
 Coeff-En:   0.000D+00 0.000D+00 0.000D+00 0.000D+00 0.143D+00 0.857D+00
 Coeff:      0.958D-03 0.480D-01 0.114D+00-0.233D-01 0.348D+00 0.512D+00
 Gap=     0.107 Goal=   None    Shift=    0.000
 Gap=     0.131 Goal=   None    Shift=    0.000
 RMSDP=6.32D-03 MaxDP=5.04D-01 DE=-9.35D-02 OVMax= 5.62D-02

 Cycle   7  Pass 1  IDiag  1:
 RMSU=  4.64D-03    CP:  1.09D+00  2.33D-03  3.49D-01  2.20D-01  7.43D-01
                    CP:  7.46D-01
 E= -1203.98256372563     Delta-E=       -0.018453294848 Rises=F Damp=F
 DIIS: error= 2.33D-03 at cycle   7 NSaved=   7.
 NSaved= 7 IEnMin= 7 EnMin= -1203.98256372563     IErMin= 7 ErrMin= 2.33D-03
 ErrMax= 2.33D-03  0.00D+00 EMaxC= 1.00D-01 BMatC= 7.87D-03 BMatP= 7.29D-02
 IDIUse=3 WtCom= 9.77D-01 WtEn= 2.33D-02
 Coeff-Com: -0.128D-02 0.196D-01 0.279D-01-0.118D-01 0.823D-01 0.263D+00
 Coeff-Com:  0.620D+00
 Coeff-En:   0.000D+00 0.000D+00 0.000D+00 0.000D+00 0.000D+00 0.702D-01
 Coeff-En:   0.930D+00
 Coeff:     -0.125D-02 0.192D-01 0.273D-01-0.116D-01 0.804D-01 0.258D+00
 Coeff:      0.628D+00
 Gap=     0.095 Goal=   None    Shift=    0.000
 Gap=     0.132 Goal=   None    Shift=    0.000
 RMSDP=1.64D-03 MaxDP=1.27D-01 DE=-1.85D-02 OVMax= 1.57D-02

 Cycle   8  Pass 1  IDiag  1:
 RMSU=  1.26D-03    CP:  1.10D+00  2.07D-03  3.48D-01  2.22D-01  7.47D-01
                    CP:  7.81D-01  8.45D-01
 E= -1203.98448782269     Delta-E=       -0.001924097068 Rises=F Damp=F
 DIIS: error= 8.73D-04 at cycle   8 NSaved=   8.
 NSaved= 8 IEnMin= 8 EnMin= -1203.98448782269     IErMin= 8 ErrMin= 8.73D-04
 ErrMax= 8.73D-04  0.00D+00 EMaxC= 1.00D-01 BMatC= 1.58D-03 BMatP= 7.87D-03
 IDIUse=3 WtCom= 9.91D-01 WtEn= 8.73D-03
 Coeff-Com:  0.169D-03 0.270D-03 0.300D-02-0.176D-02-0.108D-01 0.752D-01
 Coeff-Com:  0.386D+00 0.548D+00
 Coeff-En:   0.000D+00 0.000D+00 0.000D+00 0.000D+00 0.000D+00 0.000D+00
 Coeff-En:   0.537D-01 0.946D+00
 Coeff:      0.168D-03 0.267D-03 0.298D-02-0.175D-02-0.107D-01 0.746D-01
 Coeff:      0.383D+00 0.551D+00
 Gap=     0.095 Goal=   None    Shift=    0.000
 Gap=     0.132 Goal=   None    Shift=    0.000
 RMSDP=7.99D-04 MaxDP=6.22D-02 DE=-1.92D-03 OVMax= 7.56D-03

 Cycle   9  Pass 1  IDiag  1:
 RMSU=  5.49D-04    CP:  1.09D+00  2.16D-03  3.53D-01  2.27D-01  7.48D-01
                    CP:  7.85D-01  9.46D-01  1.01D+00
 E= -1203.98489259365     Delta-E=       -0.000404770953 Rises=F Damp=F
 DIIS: error= 2.35D-04 at cycle   9 NSaved=   9.
 NSaved= 9 IEnMin= 9 EnMin= -1203.98489259365     IErMin= 9 ErrMin= 2.35D-04
 ErrMax= 2.35D-04  0.00D+00 EMaxC= 1.00D-01 BMatC= 1.36D-04 BMatP= 1.58D-03
 IDIUse=3 WtCom= 9.98D-01 WtEn= 2.35D-03
 Coeff-Com:  0.881D-03-0.916D-03-0.108D-02 0.358D-03-0.136D-01 0.924D-02
 Coeff-Com:  0.975D-01 0.256D+00 0.652D+00
 Coeff-En:   0.000D+00 0.000D+00 0.000D+00 0.000D+00 0.000D+00 0.000D+00
 Coeff-En:   0.000D+00 0.000D+00 0.100D+01
 Coeff:      0.879D-03-0.914D-03-0.108D-02 0.358D-03-0.136D-01 0.922D-02
 Coeff:      0.973D-01 0.255D+00 0.653D+00
 Gap=     0.097 Goal=   None    Shift=    0.000
 Gap=     0.132 Goal=   None    Shift=    0.000
 RMSDP=5.70D-04 MaxDP=7.13D-02 DE=-4.05D-04 OVMax= 3.78D-03

 Cycle  10  Pass 1  IDiag  1:
 RMSU=  2.82D-04    CP:  1.09D+00  2.16D-03  3.53D-01  2.22D-01  7.33D-01
                    CP:  7.94D-01  9.34D-01  1.01D+00  6.11D-01
 E= -1203.98493845438     Delta-E=       -0.000045860737 Rises=F Damp=F
 DIIS: error= 1.88D-04 at cycle  10 NSaved=  10.
 NSaved=10 IEnMin=10 EnMin= -1203.98493845438     IErMin=10 ErrMin= 1.88D-04
 ErrMax= 1.88D-04  0.00D+00 EMaxC= 1.00D-01 BMatC= 4.70D-05 BMatP= 1.36D-04
 IDIUse=3 WtCom= 9.98D-01 WtEn= 1.88D-03
 Coeff-Com:  0.795D-03-0.786D-03-0.124D-02 0.359D-03-0.452D-02-0.122D-01
 Coeff-Com: -0.374D-01 0.717D-02 0.382D+00 0.666D+00
 Coeff-En:   0.000D+00 0.000D+00 0.000D+00 0.000D+00 0.000D+00 0.000D+00
 Coeff-En:   0.000D+00 0.000D+00 0.000D+00 0.100D+01
 Coeff:      0.794D-03-0.785D-03-0.124D-02 0.358D-03-0.451D-02-0.122D-01
 Coeff:     -0.373D-01 0.716D-02 0.381D+00 0.666D+00
 Gap=     0.097 Goal=   None    Shift=    0.000
 Gap=     0.133 Goal=   None    Shift=    0.000
 RMSDP=2.84D-04 MaxDP=3.06D-02 DE=-4.59D-05 OVMax= 2.13D-03

 Cycle  11  Pass 1  IDiag  1:
 RMSU=  1.41D-04    CP:  1.09D+00  2.15D-03  3.52D-01  2.24D-01  7.39D-01
                    CP:  7.92D-01  9.48D-01  1.07D+00  7.73D-01  8.27D-01
 E= -1203.98495594731     Delta-E=       -0.000017492928 Rises=F Damp=F
 DIIS: error= 6.77D-05 at cycle  11 NSaved=  11.
 NSaved=11 IEnMin=11 EnMin= -1203.98495594731     IErMin=11 ErrMin= 6.77D-05
 ErrMax= 6.77D-05  0.00D+00 EMaxC= 1.00D-01 BMatC= 9.42D-06 BMatP= 4.70D-05
 IDIUse=1 WtCom= 1.00D+00 WtEn= 0.00D+00
 Coeff-Com:  0.317D-03-0.266D-03-0.566D-04 0.167D-03 0.504D-03-0.111D-01
 Coeff-Com: -0.493D-01-0.601D-01 0.681D-01 0.345D+00 0.707D+00
 Coeff:      0.317D-03-0.266D-03-0.566D-04 0.167D-03 0.504D-03-0.111D-01
 Coeff:     -0.493D-01-0.601D-01 0.681D-01 0.345D+00 0.707D+00
 Gap=     0.097 Goal=   None    Shift=    0.000
 Gap=     0.133 Goal=   None    Shift=    0.000
 RMSDP=7.87D-05 MaxDP=8.85D-03 DE=-1.75D-05 OVMax= 1.31D-03

 Cycle  12  Pass 1  IDiag  1:
 RMSU=  4.63D-05    CP:  1.09D+00  2.16D-03  3.53D-01  2.24D-01  7.37D-01
                    CP:  7.91D-01  9.56D-01  1.08D+00  8.11D-01  9.13D-01
                    CP:  1.02D+00
 E= -1203.98495980668     Delta-E=       -0.000003859369 Rises=F Damp=F
 DIIS: error= 5.17D-05 at cycle  12 NSaved=  12.
 NSaved=12 IEnMin=12 EnMin= -1203.98495980668     IErMin=12 ErrMin= 5.17D-05
 ErrMax= 5.17D-05  0.00D+00 EMaxC= 1.00D-01 BMatC= 3.13D-06 BMatP= 9.42D-06
 IDIUse=1 WtCom= 1.00D+00 WtEn= 0.00D+00
 Coeff-Com:  0.688D-05 0.518D-04 0.373D-03-0.126D-04 0.901D-03-0.435D-02
 Coeff-Com: -0.203D-01-0.355D-01-0.507D-01 0.173D-01 0.416D+00 0.676D+00
 Coeff:      0.688D-05 0.518D-04 0.373D-03-0.126D-04 0.901D-03-0.435D-02
 Coeff:     -0.203D-01-0.355D-01-0.507D-01 0.173D-01 0.416D+00 0.676D+00
 Gap=     0.097 Goal=   None    Shift=    0.000
 Gap=     0.133 Goal=   None    Shift=    0.000
 RMSDP=4.57D-05 MaxDP=4.72D-03 DE=-3.86D-06 OVMax= 6.39D-04

 Cycle  13  Pass 1  IDiag  1:
 RMSU=  2.75D-05    CP:  1.09D+00  2.16D-03  3.53D-01  2.24D-01  7.38D-01
                    CP:  7.91D-01  9.55D-01  1.10D+00  8.33D-01  9.01D-01
                    CP:  1.13D+00  8.77D-01
 E= -1203.98496106008     Delta-E=       -0.000001253398 Rises=F Damp=F
 DIIS: error= 1.89D-05 at cycle  13 NSaved=  13.
 NSaved=13 IEnMin=13 EnMin= -1203.98496106008     IErMin=13 ErrMin= 1.89D-05
 ErrMax= 1.89D-05  0.00D+00 EMaxC= 1.00D-01 BMatC= 4.98D-07 BMatP= 3.13D-06
 IDIUse=1 WtCom= 1.00D+00 WtEn= 0.00D+00
 Coeff-Com: -0.939D-05 0.523D-04 0.304D-03-0.172D-04 0.311D-03-0.129D-02
 Coeff-Com: -0.512D-02-0.104D-01-0.311D-01-0.377D-01 0.102D+00 0.353D+00
 Coeff-Com:  0.630D+00
 Coeff:     -0.939D-05 0.523D-04 0.304D-03-0.172D-04 0.311D-03-0.129D-02
 Coeff:     -0.512D-02-0.104D-01-0.311D-01-0.377D-01 0.102D+00 0.353D+00
 Coeff:      0.630D+00
 Gap=     0.097 Goal=   None    Shift=    0.000
 Gap=     0.133 Goal=   None    Shift=    0.000
 RMSDP=2.12D-05 MaxDP=3.08D-03 DE=-1.25D-06 OVMax= 1.97D-04

 Cycle  14  Pass 1  IDiag  1:
 RMSU=  1.32D-05    CP:  1.09D+00  2.16D-03  3.53D-01  2.24D-01  7.37D-01
                    CP:  7.90D-01  9.55D-01  1.10D+00  8.26D-01  8.99D-01
                    CP:  1.18D+00  9.96D-01  1.08D+00
 E= -1203.98496120356     Delta-E=       -0.000000143485 Rises=F Damp=F
 DIIS: error= 7.20D-06 at cycle  14 NSaved=  14.
 NSaved=14 IEnMin=14 EnMin= -1203.98496120356     IErMin=14 ErrMin= 7.20D-06
 ErrMax= 7.20D-06  0.00D+00 EMaxC= 1.00D-01 BMatC= 1.03D-07 BMatP= 4.98D-07
 IDIUse=1 WtCom= 1.00D+00 WtEn= 0.00D+00
 Coeff-Com:  0.344D-05 0.210D-04 0.108D-03-0.141D-04-0.358D-04 0.107D-03
 Coeff-Com:  0.109D-02 0.106D-02-0.670D-02-0.246D-01-0.317D-01 0.652D-01
 Coeff-Com:  0.356D+00 0.639D+00
 Coeff:      0.344D-05 0.210D-04 0.108D-03-0.141D-04-0.358D-04 0.107D-03
 Coeff:      0.109D-02 0.106D-02-0.670D-02-0.246D-01-0.317D-01 0.652D-01
 Coeff:      0.356D+00 0.639D+00
 Gap=     0.097 Goal=   None    Shift=    0.000
 Gap=     0.133 Goal=   None    Shift=    0.000
 RMSDP=7.52D-06 MaxDP=7.64D-04 DE=-1.43D-07 OVMax= 9.34D-05

 Cycle  15  Pass 1  IDiag  1:
 RMSU=  4.49D-06    CP:  1.09D+00  2.16D-03  3.53D-01  2.24D-01  7.38D-01
                    CP:  7.90D-01  9.56D-01  1.10D+00  8.26D-01  8.93D-01
                    CP:  1.17D+00  1.06D+00  1.16D+00  1.12D+00
 E= -1203.98496123955     Delta-E=       -0.000000035990 Rises=F Damp=F
 DIIS: error= 2.85D-06 at cycle  15 NSaved=  15.
 NSaved=15 IEnMin=15 EnMin= -1203.98496123955     IErMin=15 ErrMin= 2.85D-06
 ErrMax= 2.85D-06  0.00D+00 EMaxC= 1.00D-01 BMatC= 1.50D-08 BMatP= 1.03D-07
 IDIUse=1 WtCom= 1.00D+00 WtEn= 0.00D+00
 Coeff-Com:  0.925D-05-0.833D-05 0.189D-05 0.135D-05-0.833D-04 0.215D-03
 Coeff-Com:  0.110D-02 0.191D-02 0.310D-02-0.297D-02-0.324D-01-0.302D-01
 Coeff-Com:  0.440D-01 0.294D+00 0.722D+00
 Coeff:      0.925D-05-0.833D-05 0.189D-05 0.135D-05-0.833D-04 0.215D-03
 Coeff:      0.110D-02 0.191D-02 0.310D-02-0.297D-02-0.324D-01-0.302D-01
 Coeff:      0.440D-01 0.294D+00 0.722D+00
 Gap=     0.097 Goal=   None    Shift=    0.000
 Gap=     0.133 Goal=   None    Shift=    0.000
 RMSDP=5.98D-06 MaxDP=9.46D-04 DE=-3.60D-08 OVMax= 7.97D-05

 Cycle  16  Pass 1  IDiag  1:
 RMSU=  3.64D-06    CP:  1.09D+00  2.16D-03  3.53D-01  2.24D-01  7.38D-01
                    CP:  7.90D-01  9.55D-01  1.10D+00  8.27D-01  8.91D-01
                    CP:  1.16D+00  1.04D+00  1.24D+00  1.18D+00  1.02D+00
 E= -1203.98496124576     Delta-E=       -0.000000006210 Rises=F Damp=F
 DIIS: error= 1.60D-06 at cycle  16 NSaved=  16.
 NSaved=16 IEnMin=16 EnMin= -1203.98496124576     IErMin=16 ErrMin= 1.60D-06
 ErrMax= 1.60D-06  0.00D+00 EMaxC= 1.00D-01 BMatC= 6.18D-09 BMatP= 1.50D-08
 IDIUse=1 WtCom= 1.00D+00 WtEn= 0.00D+00
 Coeff-Com:  0.718D-05-0.509D-05-0.157D-04 0.167D-05-0.415D-04 0.126D-03
 Coeff-Com:  0.496D-03 0.998D-03 0.318D-02 0.329D-02-0.128D-01-0.307D-01
 Coeff-Com: -0.539D-01 0.294D-01 0.456D+00 0.603D+00
 Coeff:      0.718D-05-0.509D-05-0.157D-04 0.167D-05-0.415D-04 0.126D-03
 Coeff:      0.496D-03 0.998D-03 0.318D-02 0.329D-02-0.128D-01-0.307D-01
 Coeff:     -0.539D-01 0.294D-01 0.456D+00 0.603D+00
 Gap=     0.097 Goal=   None    Shift=    0.000
 Gap=     0.133 Goal=   None    Shift=    0.000
 RMSDP=2.51D-06 MaxDP=2.03D-04 DE=-6.21D-09 OVMax= 2.59D-05

 Cycle  17  Pass 1  IDiag  1:
 RMSU=  1.12D-06    CP:  1.09D+00  2.16D-03  3.53D-01  2.24D-01  7.38D-01
                    CP:  7.90D-01  9.55D-01  1.10D+00  8.27D-01  8.87D-01
                    CP:  1.16D+00  1.06D+00  1.25D+00  1.26D+00  1.22D+00
                    CP:  8.30D-01
 E= -1203.98496124837     Delta-E=       -0.000000002607 Rises=F Damp=F
 DIIS: error= 7.57D-07 at cycle  17 NSaved=  17.
 NSaved=17 IEnMin=17 EnMin= -1203.98496124837     IErMin=17 ErrMin= 7.57D-07
 ErrMax= 7.57D-07  0.00D+00 EMaxC= 1.00D-01 BMatC= 7.34D-10 BMatP= 6.18D-09
 IDIUse=1 WtCom= 1.00D+00 WtEn= 0.00D+00
 Coeff-Com:  0.567D-06 0.180D-05-0.630D-05-0.744D-06 0.856D-06-0.412D-05
 Coeff-Com: -0.761D-04-0.779D-04 0.462D-03 0.192D-02 0.270D-02-0.393D-02
 Coeff-Com: -0.295D-01-0.575D-01 0.175D-01 0.229D+00 0.840D+00
 Coeff:      0.567D-06 0.180D-05-0.630D-05-0.744D-06 0.856D-06-0.412D-05
 Coeff:     -0.761D-04-0.779D-04 0.462D-03 0.192D-02 0.270D-02-0.393D-02
 Coeff:     -0.295D-01-0.575D-01 0.175D-01 0.229D+00 0.840D+00
 Gap=     0.097 Goal=   None    Shift=    0.000
 Gap=     0.133 Goal=   None    Shift=    0.000
 RMSDP=1.26D-06 MaxDP=1.24D-04 DE=-2.61D-09 OVMax= 1.40D-05

 Cycle  18  Pass 1  IDiag  1:
 RMSU=  5.57D-07    CP:  1.09D+00  2.16D-03  3.53D-01  2.24D-01  7.38D-01
                    CP:  7.90D-01  9.55D-01  1.10D+00  8.26D-01  8.88D-01
                    CP:  1.16D+00  1.06D+00  1.25D+00  1.28D+00  1.33D+00
                    CP:  9.21D-01  1.11D+00
 E= -1203.98496124903     Delta-E=       -0.000000000657 Rises=F Damp=F
 DIIS: error= 6.42D-07 at cycle  18 NSaved=  18.
 NSaved=18 IEnMin=18 EnMin= -1203.98496124903     IErMin=18 ErrMin= 6.42D-07
 ErrMax= 6.42D-07  0.00D+00 EMaxC= 1.00D-01 BMatC= 3.90D-10 BMatP= 7.34D-10
 IDIUse=1 WtCom= 1.00D+00 WtEn= 0.00D+00
 Coeff-Com: -0.195D-05 0.515D-06 0.106D-05 0.188D-06 0.705D-05-0.493D-04
 Coeff-Com: -0.186D-03-0.292D-03-0.587D-03 0.170D-03 0.508D-02 0.605D-02
 Coeff-Com: -0.154D-02-0.426D-01-0.126D+00-0.401D-01 0.515D+00 0.686D+00
 Coeff:     -0.195D-05 0.515D-06 0.106D-05 0.188D-06 0.705D-05-0.493D-04
 Coeff:     -0.186D-03-0.292D-03-0.587D-03 0.170D-03 0.508D-02 0.605D-02
 Coeff:     -0.154D-02-0.426D-01-0.126D+00-0.401D-01 0.515D+00 0.686D+00
 Gap=     0.097 Goal=   None    Shift=    0.000
 Gap=     0.133 Goal=   None    Shift=    0.000
 RMSDP=7.05D-07 MaxDP=9.34D-05 DE=-6.57D-10 OVMax= 1.12D-05

 Cycle  19  Pass 1  IDiag  1:
 RMSU=  3.46D-07    CP:  1.09D+00  2.16D-03  3.53D-01  2.24D-01  7.38D-01
                    CP:  7.90D-01  9.55D-01  1.10D+00  8.26D-01  8.87D-01
                    CP:  1.16D+00  1.06D+00  1.26D+00  1.29D+00  1.35D+00
                    CP:  9.65D-01  1.28D+00  9.91D-01
 E= -1203.98496124928     Delta-E=       -0.000000000254 Rises=F Damp=F
 DIIS: error= 3.12D-07 at cycle  19 NSaved=  19.
 NSaved=19 IEnMin=19 EnMin= -1203.98496124928     IErMin=19 ErrMin= 3.12D-07
 ErrMax= 3.12D-07  0.00D+00 EMaxC= 1.00D-01 BMatC= 1.53D-10 BMatP= 3.90D-10
 IDIUse=1 WtCom= 1.00D+00 WtEn= 0.00D+00
 Coeff-Com: -0.187D-05 0.207D-05 0.257D-05-0.492D-06 0.596D-05-0.289D-04
 Coeff-Com: -0.990D-04-0.167D-03-0.557D-03-0.468D-03 0.274D-02 0.520D-02
 Coeff-Com:  0.897D-02-0.105D-01-0.972D-01-0.100D+00 0.490D-01 0.450D+00
 Coeff-Com:  0.693D+00
 Coeff:     -0.187D-05 0.207D-05 0.257D-05-0.492D-06 0.596D-05-0.289D-04
 Coeff:     -0.990D-04-0.167D-03-0.557D-03-0.468D-03 0.274D-02 0.520D-02
 Coeff:      0.897D-02-0.105D-01-0.972D-01-0.100D+00 0.490D-01 0.450D+00
 Coeff:      0.693D+00
 Gap=     0.097 Goal=   None    Shift=    0.000
 Gap=     0.133 Goal=   None    Shift=    0.000
 RMSDP=4.53D-07 MaxDP=3.34D-05 DE=-2.54D-10 OVMax= 6.81D-06

 Cycle  20  Pass 1  IDiag  1:
 RMSU=  2.14D-07    CP:  1.09D+00  2.16D-03  3.53D-01  2.24D-01  7.38D-01
                    CP:  7.90D-01  9.55D-01  1.10D+00  8.26D-01  8.87D-01
                    CP:  1.16D+00  1.06D+00  1.26D+00  1.29D+00  1.38D+00
                    CP:  1.01D+00  1.34D+00  1.25D+00  1.00D+00
 E= -1203.98496124940     Delta-E=       -0.000000000116 Rises=F Damp=F
 DIIS: error= 1.02D-07 at cycle  20 NSaved=  20.
 NSaved=20 IEnMin=20 EnMin= -1203.98496124940     IErMin=20 ErrMin= 1.02D-07
 ErrMax= 1.02D-07  0.00D+00 EMaxC= 1.00D-01 BMatC= 3.30D-11 BMatP= 1.53D-10
 IDIUse=1 WtCom= 1.00D+00 WtEn= 0.00D+00
 Coeff-Com: -0.307D-06 0.489D-06 0.103D-05-0.752D-07 0.180D-05 0.129D-07
 Coeff-Com:  0.101D-05 0.654D-05-0.595D-04-0.279D-03-0.364D-03 0.107D-03
 Coeff-Com:  0.489D-02 0.971D-02-0.338D-02-0.284D-01-0.156D+00-0.164D-01
 Coeff-Com:  0.368D+00 0.822D+00
 Coeff:     -0.307D-06 0.489D-06 0.103D-05-0.752D-07 0.180D-05 0.129D-07
 Coeff:      0.101D-05 0.654D-05-0.595D-04-0.279D-03-0.364D-03 0.107D-03
 Coeff:      0.489D-02 0.971D-02-0.338D-02-0.284D-01-0.156D+00-0.164D-01
 Coeff:      0.368D+00 0.822D+00
 Gap=     0.097 Goal=   None    Shift=    0.000
 Gap=     0.133 Goal=   None    Shift=    0.000
 RMSDP=2.46D-07 MaxDP=2.53D-05 DE=-1.16D-10 OVMax= 4.61D-06

 Cycle  21  Pass 1  IDiag  1:
 Restarting incremental Fock formation.
 E= -1203.98496124941     Delta-E=       -0.000000000010 Rises=F Damp=F
 DIIS: error= 7.76D-08 at cycle  21 NSaved=  20.
 NSaved=20 IEnMin=20 EnMin= -1203.98496124941     IErMin=20 ErrMin= 7.76D-08
 ErrMax= 7.76D-08  0.00D+00 EMaxC= 1.00D-01 BMatC= 6.36D-12 BMatP= 3.30D-11
 IDIUse=1 WtCom= 1.00D+00 WtEn= 0.00D+00
 Coeff-Com:  0.322D-06 0.256D-08-0.959D-07-0.434D-06 0.530D-05 0.183D-04
 Coeff-Com:  0.303D-04 0.744D-04-0.676D-04-0.543D-03-0.844D-03 0.210D-03
 Coeff-Com:  0.538D-02 0.163D-01 0.981D-02-0.761D-01-0.109D+00 0.234D-01
 Coeff-Com:  0.347D+00 0.784D+00
 Coeff:      0.322D-06 0.256D-08-0.959D-07-0.434D-06 0.530D-05 0.183D-04
 Coeff:      0.303D-04 0.744D-04-0.676D-04-0.543D-03-0.844D-03 0.210D-03
 Coeff:      0.538D-02 0.163D-01 0.981D-02-0.761D-01-0.109D+00 0.234D-01
 Coeff:      0.347D+00 0.784D+00
 Gap=     0.097 Goal=   None    Shift=    0.000
 Gap=     0.133 Goal=   None    Shift=    0.000
 RMSDP=1.39D-07 MaxDP=1.44D-05 DE=-9.55D-12 OVMax= 1.85D-06

 Cycle  22  Pass 1  IDiag  1:
 RMSU=  1.35D-07    CP:  1.00D+00
 E= -1203.98496124946     Delta-E=       -0.000000000049 Rises=F Damp=F
 DIIS: error= 5.54D-08 at cycle  22 NSaved=  20.
 NSaved=20 IEnMin=20 EnMin= -1203.98496124946     IErMin=20 ErrMin= 5.54D-08
 ErrMax= 5.54D-08  0.00D+00 EMaxC= 1.00D-01 BMatC= 3.24D-12 BMatP= 6.36D-12
 IDIUse=1 WtCom= 1.00D+00 WtEn= 0.00D+00
 Coeff-Com:  0.285D-06-0.123D-06-0.888D-07 0.483D-05 0.139D-04 0.180D-04
 Coeff-Com:  0.554D-04 0.238D-05-0.313D-03-0.568D-03-0.790D-03 0.166D-02
 Coeff-Com:  0.112D-01 0.125D-01-0.129D-01-0.659D-01-0.615D-01 0.128D-01
 Coeff-Com:  0.500D+00 0.604D+00
 Coeff:      0.285D-06-0.123D-06-0.888D-07 0.483D-05 0.139D-04 0.180D-04
 Coeff:      0.554D-04 0.238D-05-0.313D-03-0.568D-03-0.790D-03 0.166D-02
 Coeff:      0.112D-01 0.125D-01-0.129D-01-0.659D-01-0.615D-01 0.128D-01
 Coeff:      0.500D+00 0.604D+00
 Gap=     0.097 Goal=   None    Shift=    0.000
 Gap=     0.133 Goal=   None    Shift=    0.000
 RMSDP=5.99D-08 MaxDP=6.37D-06 DE=-4.87D-11 OVMax= 7.09D-07

 Cycle  23  Pass 1  IDiag  1:
 RMSU=  5.40D-08    CP:  1.00D+00  1.06D+00
 E= -1203.98496124944     Delta-E=        0.000000000014 Rises=F Damp=F
 DIIS: error= 1.47D-08 at cycle  23 NSaved=  20.
 NSaved=20 IEnMin=19 EnMin= -1203.98496124946     IErMin=20 ErrMin= 1.47D-08
 ErrMax= 1.47D-08  0.00D+00 EMaxC= 1.00D-01 BMatC= 5.86D-13 BMatP= 3.24D-12
 IDIUse=1 WtCom= 1.00D+00 WtEn= 0.00D+00
 Coeff-Com: -0.204D-06-0.274D-06 0.112D-05 0.398D-05 0.377D-05 0.103D-04
 Coeff-Com:  0.319D-04-0.132D-04-0.642D-04-0.637D-03-0.910D-03 0.146D-02
 Coeff-Com:  0.475D-02 0.188D-01-0.498D-02-0.467D-01-0.117D+00 0.375D-01
 Coeff-Com:  0.313D+00 0.795D+00
 Coeff:     -0.204D-06-0.274D-06 0.112D-05 0.398D-05 0.377D-05 0.103D-04
 Coeff:      0.319D-04-0.132D-04-0.642D-04-0.637D-03-0.910D-03 0.146D-02
 Coeff:      0.475D-02 0.188D-01-0.498D-02-0.467D-01-0.117D+00 0.375D-01
 Coeff:      0.313D+00 0.795D+00
 Gap=     0.097 Goal=   None    Shift=    0.000
 Gap=     0.133 Goal=   None    Shift=    0.000
 RMSDP=3.34D-08 MaxDP=3.31D-06 DE= 1.41D-11 OVMax= 4.59D-07

 Cycle  24  Pass 1  IDiag  1:
 RMSU=  2.47D-08    CP:  1.00D+00  1.09D+00  1.40D+00
 E= -1203.98496124943     Delta-E=        0.000000000015 Rises=F Damp=F
 DIIS: error= 1.22D-08 at cycle  24 NSaved=  20.
 NSaved=20 IEnMin=18 EnMin= -1203.98496124946     IErMin=20 ErrMin= 1.22D-08
 ErrMax= 1.22D-08  0.00D+00 EMaxC= 1.00D-01 BMatC= 1.58D-13 BMatP= 5.86D-13
 IDIUse=1 WtCom= 1.00D+00 WtEn= 0.00D+00
 Coeff-Com:  0.159D-06 0.356D-06 0.786D-06 0.220D-08-0.440D-06 0.174D-04
 Coeff-Com:  0.747D-05 0.293D-04-0.135D-03-0.384D-03-0.415D-04 0.107D-02
 Coeff-Com:  0.912D-02 0.377D-02-0.152D-01-0.506D-01-0.470D-01 0.454D-01
 Coeff-Com:  0.380D+00 0.674D+00
 Coeff:      0.159D-06 0.356D-06 0.786D-06 0.220D-08-0.440D-06 0.174D-04
 Coeff:      0.747D-05 0.293D-04-0.135D-03-0.384D-03-0.415D-04 0.107D-02
 Coeff:      0.912D-02 0.377D-02-0.152D-01-0.506D-01-0.470D-01 0.454D-01
 Coeff:      0.380D+00 0.674D+00
 Gap=     0.097 Goal=   None    Shift=    0.000
 Gap=     0.133 Goal=   None    Shift=    0.000
 RMSDP=1.46D-08 MaxDP=1.57D-06 DE= 1.46D-11 OVMax= 1.10D-07

 Cycle  25  Pass 1  IDiag  1:
 RMSU=  1.18D-08    CP:  1.00D+00  1.15D+00  1.41D+00  1.10D+00
 E= -1203.98496124942     Delta-E=        0.000000000009 Rises=F Damp=F
 DIIS: error= 8.78D-09 at cycle  25 NSaved=  20.
 NSaved=20 IEnMin=17 EnMin= -1203.98496124946     IErMin=20 ErrMin= 8.78D-09
 ErrMax= 8.78D-09  0.00D+00 EMaxC= 1.00D-01 BMatC= 3.86D-14 BMatP= 1.58D-13
 IDIUse=1 WtCom= 1.00D+00 WtEn= 0.00D+00
 Coeff-Com: -0.356D-06-0.638D-06-0.116D-05-0.671D-05-0.259D-05 0.162D-04
 Coeff-Com:  0.656D-04 0.970D-04-0.157D-03-0.103D-02-0.119D-02 0.177D-02
 Coeff-Com:  0.589D-02 0.376D-02-0.249D-02-0.450D-01-0.554D-01 0.364D-01
 Coeff-Com:  0.364D+00 0.693D+00
 Coeff:     -0.356D-06-0.638D-06-0.116D-05-0.671D-05-0.259D-05 0.162D-04
 Coeff:      0.656D-04 0.970D-04-0.157D-03-0.103D-02-0.119D-02 0.177D-02
 Coeff:      0.589D-02 0.376D-02-0.249D-02-0.450D-01-0.554D-01 0.364D-01
 Coeff:      0.364D+00 0.693D+00
 Gap=     0.097 Goal=   None    Shift=    0.000
 Gap=     0.133 Goal=   None    Shift=    0.000
 RMSDP=6.10D-09 MaxDP=4.43D-07 DE= 8.64D-12 OVMax= 9.96D-08

 SCF Done:  E(UB3LYP) =  -1203.98496125     A.U. after   25 cycles
            NFock= 25  Conv=0.61D-08     -V/T= 2.0033
 <Sx>= 0.0000 <Sy>= 0.0000 <Sz>= 0.5000 <S**2>= 0.7605 S= 0.5052
 <L.S>=  0.00000000000    
 KE= 1.199991322434D+03 PE=-5.855310001689D+03 EE= 1.944763109269D+03
 Annihilation of the first spin contaminant:
 S**2 before annihilation     0.7605,   after     0.7500
 Leave Link  502 at Tue Jan  9 01:59:34 2024, MaxMem=  4026531840 cpu:            2863.8 elap:             358.6
 (Enter /sysapps/ubuntu-applications/gaussian/Gaussian/AVX2/g16/l601.exe)
 Copying SCF densities to generalized density rwf, IOpCl= 1 IROHF=0.

 **********************************************************************

            Population analysis using the SCF density.

 **********************************************************************

 Alpha  occ. eigenvalues --  -88.73730 -18.95439 -18.95344 -10.10725 -10.10526
 Alpha  occ. eigenvalues --  -10.10021 -10.09392 -10.09140 -10.08131 -10.07719
 Alpha  occ. eigenvalues --  -10.07651 -10.07584 -10.07121 -10.06761 -10.06691
 Alpha  occ. eigenvalues --  -10.06083 -10.05974 -10.05961 -10.05923 -10.05043
 Alpha  occ. eigenvalues --   -7.82313  -5.78713  -5.78304  -5.77726  -0.88285
 Alpha  occ. eigenvalues --   -0.87593  -0.77010  -0.74661  -0.71059  -0.68588
 Alpha  occ. eigenvalues --   -0.66873  -0.63855  -0.63794  -0.60323  -0.59119
 Alpha  occ. eigenvalues --   -0.55218  -0.50913  -0.50520  -0.49996  -0.46997
 Alpha  occ. eigenvalues --   -0.44249  -0.41404  -0.39480  -0.38615  -0.37648
 Alpha  occ. eigenvalues --   -0.35446  -0.34910  -0.34334  -0.33726  -0.32125
 Alpha  occ. eigenvalues --   -0.31870  -0.31352  -0.30822  -0.30071  -0.29475
 Alpha  occ. eigenvalues --   -0.28543  -0.27559  -0.27103  -0.26052  -0.25519
 Alpha  occ. eigenvalues --   -0.25174  -0.24432  -0.23770  -0.22688  -0.21578
 Alpha  occ. eigenvalues --   -0.18767  -0.15922  -0.15376  -0.14348  -0.14072
 Alpha  occ. eigenvalues --   -0.12165  -0.11518  -0.10292  -0.03577
 Alpha virt. eigenvalues --    0.06158   0.07733   0.07788   0.07836   0.07939
 Alpha virt. eigenvalues --    0.08116   0.08914   0.09414   0.09924   0.10340
 Alpha virt. eigenvalues --    0.10853   0.11215   0.12164   0.12818   0.13210
 Alpha virt. eigenvalues --    0.13497   0.14076   0.14349   0.15122   0.15565
 Alpha virt. eigenvalues --    0.15702   0.16394   0.16670   0.16920   0.17384
 Alpha virt. eigenvalues --    0.17745   0.17995   0.18451   0.18715   0.18795
 Alpha virt. eigenvalues --    0.18964   0.19217   0.19458   0.19816   0.19945
 Alpha virt. eigenvalues --    0.20578   0.20744   0.21078   0.21274   0.21474
 Alpha virt. eigenvalues --    0.21861   0.22163   0.22655   0.22794   0.23023
 Alpha virt. eigenvalues --    0.23208   0.23339   0.23626   0.24033   0.24238
 Alpha virt. eigenvalues --    0.24557   0.24802   0.24972   0.25202   0.25818
 Alpha virt. eigenvalues --    0.26204   0.26687   0.26893   0.27218   0.27624
 Alpha virt. eigenvalues --    0.28166   0.28216   0.29319   0.29526   0.29929
 Alpha virt. eigenvalues --    0.30096   0.30579   0.31397   0.31531   0.31763
 Alpha virt. eigenvalues --    0.31956   0.32351   0.32542   0.33035   0.33113
 Alpha virt. eigenvalues --    0.33338   0.34105   0.34527   0.34554   0.34963
 Alpha virt. eigenvalues --    0.35651   0.35823   0.36310   0.36412   0.36966
 Alpha virt. eigenvalues --    0.37085   0.37351   0.37860   0.38391   0.38583
 Alpha virt. eigenvalues --    0.38771   0.38986   0.39546   0.39624   0.40019
 Alpha virt. eigenvalues --    0.40514   0.40692   0.40952   0.41449   0.41808
 Alpha virt. eigenvalues --    0.42214   0.42499   0.43376   0.43667   0.44221
 Alpha virt. eigenvalues --    0.44380   0.44929   0.45099   0.45827   0.46171
 Alpha virt. eigenvalues --    0.46323   0.46986   0.47158   0.48035   0.48928
 Alpha virt. eigenvalues --    0.49352   0.49823   0.50410   0.51632   0.52861
 Alpha virt. eigenvalues --    0.53652   0.53761   0.54377   0.55226   0.55623
 Alpha virt. eigenvalues --    0.56216   0.56513   0.59538   0.60548   0.61498
 Alpha virt. eigenvalues --    0.62493   0.63267   0.63981   0.64384   0.64895
 Alpha virt. eigenvalues --    0.65823   0.66174   0.66321   0.67003   0.67432
 Alpha virt. eigenvalues --    0.67776   0.68177   0.69392   0.70383   0.71049
 Alpha virt. eigenvalues --    0.71080   0.71489   0.71977   0.72950   0.73809
 Alpha virt. eigenvalues --    0.74237   0.74720   0.75260   0.75573   0.75898
 Alpha virt. eigenvalues --    0.76427   0.76841   0.77212   0.77904   0.78531
 Alpha virt. eigenvalues --    0.78770   0.79355   0.80027   0.80704   0.81175
 Alpha virt. eigenvalues --    0.82417   0.83077   0.83649   0.84041   0.84778
 Alpha virt. eigenvalues --    0.85514   0.85871   0.86443   0.87008   0.88262
 Alpha virt. eigenvalues --    0.89071   0.89797   0.90860   0.91151   0.92298
 Alpha virt. eigenvalues --    0.93530   0.93823   0.94329   0.95437   0.96215
 Alpha virt. eigenvalues --    0.97161   0.97668   0.98375   0.99920   1.00388
 Alpha virt. eigenvalues --    1.01083   1.01815   1.02855   1.03418   1.04122
 Alpha virt. eigenvalues --    1.04775   1.05083   1.05366   1.05619   1.06525
 Alpha virt. eigenvalues --    1.06938   1.07894   1.09887   1.10683   1.11007
 Alpha virt. eigenvalues --    1.11828   1.11911   1.13241   1.13770   1.14216
 Alpha virt. eigenvalues --    1.15086   1.15614   1.16733   1.17464   1.18382
 Alpha virt. eigenvalues --    1.19409   1.20380   1.21483   1.22408   1.23187
 Alpha virt. eigenvalues --    1.23453   1.24586   1.25411   1.25863   1.26290
 Alpha virt. eigenvalues --    1.27642   1.29614   1.32156   1.34715   1.36170
 Alpha virt. eigenvalues --    1.37946   1.39464   1.41191   1.41890   1.42553
 Alpha virt. eigenvalues --    1.43621   1.44449   1.45416   1.46140   1.46877
 Alpha virt. eigenvalues --    1.48153   1.51273   1.52927   1.54562   1.56135
 Alpha virt. eigenvalues --    1.60307   1.61184   1.62145   1.62439   1.63084
 Alpha virt. eigenvalues --    1.63307   1.63990   1.64328   1.65727   1.66481
 Alpha virt. eigenvalues --    1.67118   1.67687   1.68136   1.68987   1.70524
 Alpha virt. eigenvalues --    1.71585   1.73233   1.74176   1.74586   1.76297
 Alpha virt. eigenvalues --    1.76529   1.78225   1.79468   1.81186   1.82001
 Alpha virt. eigenvalues --    1.83146   1.83720   1.84403   1.85443   1.85877
 Alpha virt. eigenvalues --    1.87233   1.88062   1.88465   1.91083   1.91580
 Alpha virt. eigenvalues --    1.92731   1.93896   1.94128   1.95076   1.97928
 Alpha virt. eigenvalues --    2.00195   2.01231   2.01628   2.02354   2.02593
 Alpha virt. eigenvalues --    2.02782   2.04352   2.04769   2.06088   2.07524
 Alpha virt. eigenvalues --    2.07563   2.08237   2.09329   2.10268   2.11891
 Alpha virt. eigenvalues --    2.12850   2.13402   2.13991   2.14103   2.14573
 Alpha virt. eigenvalues --    2.16225   2.17657   2.19085   2.19356   2.22755
 Alpha virt. eigenvalues --    2.23571   2.25779   2.27281   2.28586   2.29958
 Alpha virt. eigenvalues --    2.30494   2.31880   2.33946   2.35177   2.40502
 Alpha virt. eigenvalues --    2.41739   2.41972   2.44518   2.45779   2.47974
 Alpha virt. eigenvalues --    2.48956   2.50976   2.52615   2.54579   2.56722
 Alpha virt. eigenvalues --    2.58342   2.59255   2.61509   2.62595   2.63560
 Alpha virt. eigenvalues --    2.63873   2.66513   2.68531   2.71259   2.73182
 Alpha virt. eigenvalues --    2.76015   2.77414   2.77706   2.78784   2.79565
 Alpha virt. eigenvalues --    2.81286   2.81962   2.82127   2.83203   2.84603
 Alpha virt. eigenvalues --    2.85272   2.86507   2.87410   2.88243   2.88854
 Alpha virt. eigenvalues --    2.89573   2.90297   2.91079   2.91365   2.92173
 Alpha virt. eigenvalues --    2.92529   2.95075   2.96099   2.96869   2.97013
 Alpha virt. eigenvalues --    2.99815   3.00701   3.01504   3.01625   3.02296
 Alpha virt. eigenvalues --    3.03282   3.03578   3.04435   3.06158   3.08656
 Alpha virt. eigenvalues --    3.09820   3.11177   3.18732   3.19771   3.22539
 Alpha virt. eigenvalues --    3.24189   3.25922   3.28975   3.30513   3.32852
 Alpha virt. eigenvalues --    3.33389   3.36943   3.39085   3.40185   3.45898
 Alpha virt. eigenvalues --    3.46636   3.46903   3.49015   3.49693   3.52890
 Alpha virt. eigenvalues --    3.56960   3.62325   3.63232   3.65357   3.67671
 Alpha virt. eigenvalues --    3.68883   3.69466   3.72500   3.76365   3.77322
 Alpha virt. eigenvalues --    3.87480   3.88061   3.90332   3.91461   3.93872
 Alpha virt. eigenvalues --    4.02477   4.12790   4.15105   4.17829   4.24244
 Alpha virt. eigenvalues --    4.25558   4.29225   4.31283   4.39704   4.42123
 Alpha virt. eigenvalues --    4.47607   4.89614   4.94610   4.96302   5.21113
 Alpha virt. eigenvalues --    5.23766   5.37957   5.43203   5.87896   5.96103
 Alpha virt. eigenvalues --    8.18328  17.52281  17.69254  17.72196  23.66647
 Alpha virt. eigenvalues --   23.67658  23.89373  24.01167  24.03919  24.04922
 Alpha virt. eigenvalues --   24.06429  24.06860  24.07665  24.08358  24.15604
 Alpha virt. eigenvalues --   24.16780  24.19212  24.22369  24.23278  24.28289
 Alpha virt. eigenvalues --   24.30074  50.17359  50.21883 189.36993
  Beta  occ. eigenvalues --  -88.73733 -18.94833 -18.94612 -10.10639 -10.10510
  Beta  occ. eigenvalues --  -10.09929 -10.09393 -10.09140 -10.08132 -10.07718
  Beta  occ. eigenvalues --  -10.07649 -10.07418 -10.07118 -10.06740 -10.06661
  Beta  occ. eigenvalues --  -10.06036 -10.05969 -10.05955 -10.05896 -10.04800
  Beta  occ. eigenvalues --   -7.82315  -5.78718  -5.78310  -5.77725  -0.87252
  Beta  occ. eigenvalues --   -0.86332  -0.76995  -0.74491  -0.70775  -0.68387
  Beta  occ. eigenvalues --   -0.66765  -0.63720  -0.63653  -0.60255  -0.58861
  Beta  occ. eigenvalues --   -0.54472  -0.50860  -0.50433  -0.49755  -0.46876
  Beta  occ. eigenvalues --   -0.44033  -0.41371  -0.39265  -0.38433  -0.37586
  Beta  occ. eigenvalues --   -0.35307  -0.34792  -0.34332  -0.33574  -0.32057
  Beta  occ. eigenvalues --   -0.31711  -0.31309  -0.30798  -0.29782  -0.28451
  Beta  occ. eigenvalues --   -0.27945  -0.27314  -0.26962  -0.25936  -0.25193
  Beta  occ. eigenvalues --   -0.24259  -0.23228  -0.22777  -0.22481  -0.21199
  Beta  occ. eigenvalues --   -0.18702  -0.15544  -0.13809  -0.13490  -0.12712
  Beta  occ. eigenvalues --   -0.11543  -0.10958  -0.10070
  Beta virt. eigenvalues --    0.03228   0.06157   0.07817   0.07838   0.07939
  Beta virt. eigenvalues --    0.08078   0.08431   0.09338   0.09914   0.10017
  Beta virt. eigenvalues --    0.10346   0.10898   0.11241   0.12173   0.12828
  Beta virt. eigenvalues --    0.13231   0.13515   0.14094   0.14453   0.15222
  Beta virt. eigenvalues --    0.15613   0.15735   0.16464   0.16743   0.17375
  Beta virt. eigenvalues --    0.17753   0.17908   0.18323   0.18564   0.18819
  Beta virt. eigenvalues --    0.18930   0.19123   0.19259   0.19510   0.19846
  Beta virt. eigenvalues --    0.20009   0.20585   0.20831   0.21122   0.21334
  Beta virt. eigenvalues --    0.21515   0.22010   0.22216   0.22730   0.22916
  Beta virt. eigenvalues --    0.23083   0.23236   0.23391   0.23737   0.24089
  Beta virt. eigenvalues --    0.24463   0.24628   0.24840   0.24997   0.25221
  Beta virt. eigenvalues --    0.25827   0.26225   0.26723   0.26914   0.27293
  Beta virt. eigenvalues --    0.27664   0.28187   0.28236   0.29337   0.29560
  Beta virt. eigenvalues --    0.30001   0.30156   0.30632   0.31393   0.31554
  Beta virt. eigenvalues --    0.31824   0.32118   0.32407   0.32585   0.33147
  Beta virt. eigenvalues --    0.33259   0.33361   0.34243   0.34601   0.34727
  Beta virt. eigenvalues --    0.35058   0.35820   0.35904   0.36359   0.36450
  Beta virt. eigenvalues --    0.37059   0.37195   0.37382   0.37884   0.38500
  Beta virt. eigenvalues --    0.38618   0.38815   0.39042   0.39568   0.39704
  Beta virt. eigenvalues --    0.40081   0.40560   0.40754   0.41024   0.41551
  Beta virt. eigenvalues --    0.41868   0.42295   0.42565   0.43505   0.43803
  Beta virt. eigenvalues --    0.44414   0.44603   0.45040   0.45225   0.45911
  Beta virt. eigenvalues --    0.46289   0.46389   0.47084   0.47264   0.48192
  Beta virt. eigenvalues --    0.49029   0.49419   0.49933   0.50507   0.51745
  Beta virt. eigenvalues --    0.53129   0.53745   0.53845   0.54494   0.55405
  Beta virt. eigenvalues --    0.55674   0.56257   0.56596   0.59581   0.60705
  Beta virt. eigenvalues --    0.61555   0.62600   0.63370   0.64077   0.64436
  Beta virt. eigenvalues --    0.65015   0.65878   0.66240   0.66354   0.67054
  Beta virt. eigenvalues --    0.67490   0.67836   0.68262   0.69480   0.70477
  Beta virt. eigenvalues --    0.71105   0.71182   0.71618   0.72026   0.73104
  Beta virt. eigenvalues --    0.73893   0.74371   0.74847   0.75368   0.75662
  Beta virt. eigenvalues --    0.75974   0.76453   0.77114   0.77421   0.78003
  Beta virt. eigenvalues --    0.78703   0.78955   0.79442   0.80155   0.80786
  Beta virt. eigenvalues --    0.81267   0.82568   0.83215   0.83753   0.84106
  Beta virt. eigenvalues --    0.84876   0.85639   0.85973   0.86507   0.87187
  Beta virt. eigenvalues --    0.88403   0.89149   0.89854   0.91025   0.91251
  Beta virt. eigenvalues --    0.92445   0.93602   0.93886   0.94437   0.95479
  Beta virt. eigenvalues --    0.96248   0.97185   0.97701   0.98421   1.00005
  Beta virt. eigenvalues --    1.00440   1.01203   1.01865   1.02930   1.03497
  Beta virt. eigenvalues --    1.04202   1.04836   1.05137   1.05491   1.05764
  Beta virt. eigenvalues --    1.06641   1.06991   1.08129   1.09973   1.10809
  Beta virt. eigenvalues --    1.11157   1.11943   1.12036   1.13333   1.13852
  Beta virt. eigenvalues --    1.14368   1.15228   1.15657   1.16855   1.17627
  Beta virt. eigenvalues --    1.18597   1.19641   1.20626   1.21609   1.22523
  Beta virt. eigenvalues --    1.23313   1.23666   1.24917   1.26135   1.26451
  Beta virt. eigenvalues --    1.26494   1.27755   1.30509   1.32610   1.34873
  Beta virt. eigenvalues --    1.36751   1.38595   1.40030   1.41509   1.42190
  Beta virt. eigenvalues --    1.42678   1.43751   1.44925   1.45632   1.46314
  Beta virt. eigenvalues --    1.47038   1.48330   1.51450   1.53131   1.54734
  Beta virt. eigenvalues --    1.56140   1.60334   1.61287   1.62356   1.62576
  Beta virt. eigenvalues --    1.63160   1.63377   1.64062   1.64364   1.65759
  Beta virt. eigenvalues --    1.66648   1.67134   1.67740   1.68156   1.68993
  Beta virt. eigenvalues --    1.70544   1.71813   1.73385   1.74240   1.74748
  Beta virt. eigenvalues --    1.76417   1.76621   1.78375   1.79539   1.81269
  Beta virt. eigenvalues --    1.82195   1.83201   1.83866   1.84500   1.85492
  Beta virt. eigenvalues --    1.85943   1.87562   1.88259   1.88662   1.91210
  Beta virt. eigenvalues --    1.91778   1.93021   1.94017   1.94223   1.95177
  Beta virt. eigenvalues --    1.98331   2.00284   2.01415   2.01714   2.02626
  Beta virt. eigenvalues --    2.02796   2.02972   2.04406   2.04886   2.06242
  Beta virt. eigenvalues --    2.07605   2.07699   2.08620   2.09433   2.10294
  Beta virt. eigenvalues --    2.11937   2.13090   2.13477   2.14218   2.14264
  Beta virt. eigenvalues --    2.14724   2.16285   2.17889   2.19189   2.19578
  Beta virt. eigenvalues --    2.22862   2.23690   2.25874   2.27425   2.29055
  Beta virt. eigenvalues --    2.30025   2.30584   2.32052   2.34012   2.35420
  Beta virt. eigenvalues --    2.40720   2.41951   2.42051   2.44621   2.45853
  Beta virt. eigenvalues --    2.48012   2.49252   2.51237   2.52636   2.54587
  Beta virt. eigenvalues --    2.56812   2.58367   2.59294   2.61566   2.62636
  Beta virt. eigenvalues --    2.63566   2.63887   2.66696   2.68534   2.71265
[...]
 000992,0.00000596,-0.00000568,0.00001059,-0.00000269,0.00024438,-0.000
 06619,-0.00043485,-0.00117166,0.00010341,-0.00001059,0.00004586,0.0001
 4415,0.00028220,-0.00004246,-0.00004403,-0.00001985,-0.00089231,-0.000
 03067,0.00033282,0.00189323,-0.00219358,-0.00053495,0.00638919,-0.0006
 0411,-0.00080690,-0.03630370,-0.02477064,-0.00769904,0.00291227,-0.001
 06281,-0.00107212,-0.00093908,0.00017497,-0.00008210,0.00646299,-0.000
 19495,0.00000355,-0.00359036,0.00133907,0.00041426,-0.00011991,0.00006
 768,0.00019663,-0.00002382,0.00001133,0.00003308,-0.00000345,-0.000004
 32,-0.00000138,-0.00000207,-0.00000368,-0.00000279,0.00000037,-0.00000
 058,-0.00000025,-0.00000008,-0.00000162,0.00000062,0.00001386,0.000016
 80,0.00002480,-0.00001505,-0.00010816,0.00001757,0.02580016,-0.0000172
 9,-0.00000219,-0.00001641,-0.00001101,0.00000727,0.00002710,0.00002350
 ,-0.00000084,-0.00002531,0.00005532,0.00004168,0.00009429,0.00007087,0
 .00001125,-0.00001036,-0.00001815,-0.00000237,-0.00000624,0.00015430,-
 0.00001760,0.00000364,-0.00004087,-0.00016024,-0.00057046,-0.00013459,
 0.00006983,0.00022233,-0.00009512,-0.00004848,-0.00002404,0.00035675,0
 .00062634,0.00056754,-0.00048000,-0.00446901,-0.00084912,-0.00046594,0
 .00145348,-0.00146384,-0.02488664,-0.30212852,-0.07048161,-0.00243248,
 -0.01926428,-0.00882906,0.00015195,0.00058370,0.00039777,-0.00040648,-
 0.00073844,0.00427026,-0.00027144,0.00064892,-0.00163827,-0.00014392,0
 .00006315,0.00007775,0.00004894,0.00000940,-0.00002986,0.00000134,-0.0
 0000314,0.00000369,-0.00000635,-0.00000314,-0.00000076,-0.00000093,-0.
 00000353,-0.00000620,0.00000339,-0.00000104,-0.00000079,-0.00000454,-0
 .00000179,-0.00000515,-0.00006325,-0.00028422,0.00018419,0.02794655,0.
 32361226,0.00000059,0.00002491,0.00004288,0.00002189,0.00000685,-0.000
 01689,-0.00001176,0.00000540,0.00001915,0.00010608,-0.00005745,-0.0000
 5007,-0.00005124,0.00000011,0.00001656,0.00000833,0.00001363,-0.000001
 17,-0.00021778,0.00005890,0.00034629,-0.00008011,0.00037715,-0.0002194
 8,0.00013153,0.00011127,0.00010878,-0.00001143,-0.00007745,-0.00000307
 ,0.00014047,-0.00103000,-0.00003594,-0.00262218,-0.03038362,-0.0042905
 3,-0.00055970,-0.00006459,-0.00590654,-0.00795589,-0.07102700,-0.07795
 621,0.00184218,0.02048689,0.00810840,0.00003639,0.00043093,-0.00094943
 ,-0.00016494,0.00330773,-0.00269193,0.00065713,0.00126848,0.00121955,0
 .00012890,0.00009765,-0.00015382,-0.00003392,0.00003028,0.00006873,0.0
 0000382,-0.00000726,-0.00000289,0.00000667,0.00000010,0.00000595,0.000
 00185,-0.00000064,0.00000594,-0.00000300,-0.00000274,0.00000161,-0.000
 02331,0.00000030,-0.00001804,-0.00018655,-0.00161703,-0.00015673,0.008
 91775,0.07731718,0.08210906,0.00000181,-0.00002494,-0.00001207,-0.0000
 1209,-0.00000162,0.00000988,0.00001100,-0.00000148,-0.00000813,0.00000
 330,0.00003579,0.00004028,0.00002614,-0.00000057,0.00000008,-0.0000080
 0,0.00000108,-0.00000110,0.00008973,0.00004306,-0.00012782,-0.00000430
 ,-0.00005064,-0.00002258,0.00001333,0.00000639,0.00003548,0.00000330,-
 0.00002213,-0.00004933,-0.00004699,0.00008880,0.00004457,0.00713086,-0
 .00040362,-0.00004891,0.00348457,-0.00085418,-0.00044943,-0.00087996,0
 .00016083,-0.00015100,0.00698558,-0.00061431,-0.00090435,-0.03846554,-
 0.02718645,-0.00889665,0.00254049,-0.00206514,-0.00028648,0.00025575,-
 0.00016967,0.00017732,-0.00004429,-0.00007879,0.00010977,-0.00004103,0
 .00002029,0.00002797,-0.00000761,0.00001017,-0.00000375,-0.00000302,0.
 00000098,-0.00000300,0.00000043,0.00000121,0.00000169,-0.00000058,-0.0
 0000168,0.00000266,-0.00000519,-0.00000836,0.00000150,-0.00415092,0.00
 043004,0.00035202,-0.00092780,0.00007050,0.00004116,0.02798104,0.00000
 901,0.00003528,0.00005635,0.00004187,0.00001722,-0.00003768,-0.0000346
 4,0.00001049,0.00004898,0.00005425,-0.00005564,-0.00015282,-0.00012392
 ,-0.00000021,0.00003131,0.00002852,0.00001748,0.00000652,-0.00027725,0
 .00003878,0.00024088,-0.00008741,0.00006322,-0.00000154,0.00024375,0.0
 0003679,-0.00006736,0.00008719,-0.00001400,-0.00004496,-0.00018655,-0.
 00084527,-0.00042958,-0.00062403,-0.00145654,0.00374087,-0.00228785,-0
 .01797803,-0.00869230,0.00016069,0.00050948,0.00068767,-0.00048933,0.0
 0207502,-0.00135937,-0.02709997,-0.30482945,-0.07325232,-0.00052097,-0
 .00383168,0.00071666,-0.00007672,-0.00031708,0.00021799,0.00021813,0.0
 0008371,-0.00010884,-0.00009312,0.00004345,0.00011843,0.00000902,-0.00
 001878,-0.00000577,0.00001456,-0.00000138,0.00001007,0.00000361,-0.000
 00045,0.00001121,-0.00000696,-0.00000620,0.00000485,0.00000710,-0.0000
 1335,-0.00001884,0.00048057,0.00093954,0.00009284,0.00007057,-0.000086
 40,-0.00007629,0.03009502,0.32486617,-0.00001433,-0.00000612,-0.000013
 91,-0.00000715,-0.00001383,0.00001009,0.00000384,-0.00000106,-0.000013
 64,-0.00001102,0.00001453,0.00003382,0.00002589,-0.00000403,-0.0000163
 2,-0.00000114,-0.00001072,0.00000005,0.00008322,-0.00001659,-0.0000910
 7,0.00002772,-0.00011931,0.00006344,-0.00004544,-0.00002464,0.00000889
 ,0.00000066,0.00002035,-0.00001229,0.00013094,0.00076678,0.00022583,-0
 .00014439,0.00381983,-0.00214459,0.00208306,0.02161492,0.00940871,0.00
 003609,0.00061598,-0.00097305,-0.00059497,-0.00038414,-0.00549361,-0.0
 0880746,-0.07321063,-0.08026659,-0.00295999,-0.03047761,-0.00344291,-0
 .00021664,-0.00133569,0.00008940,-0.00006554,-0.00003170,0.00005676,0.
 00000105,-0.00001942,-0.00000598,-0.00000422,0.00000556,-0.00000053,-0
 .00000003,0.00000311,-0.00000105,-0.00000029,0.00000201,0.00000087,0.0
 0000040,0.00000344,-0.00000190,-0.00000064,0.00000942,0.00000201,0.000
 21556,-0.00052115,0.00091047,0.00004735,-0.00007786,0.00007940,0.00991
 096,0.07898964,0.08115417,0.00000990,-0.00000146,-0.00000484,0.0000006
 2,-0.00000094,-0.00000549,-0.00000701,-0.00000078,0.00000196,-0.000022
 39,-0.00001968,-0.00000750,-0.00001941,0.00000619,-0.00000694,0.000003
 65,0.00000328,0.00000640,0.00011869,-0.00004794,-0.00004708,-0.0002518
 1,0.00006128,0.00002467,0.00002075,0.00004276,0.00003821,0.00002987,-0
 .00001879,-0.00000685,-0.00033523,0.00001246,0.00007505,-0.00089803,-0
 .00003670,-0.00012809,0.00655987,-0.00074944,-0.00069999,0.00571457,-0
 .00105042,-0.00044708,0.00155228,-0.00217428,0.00163107,0.00143077,0.0
 0197338,-0.00164748,-0.03081777,-0.00674010,0.00294890,-0.00276397,-0.
 00035805,0.00098486,-0.00005587,0.00000137,0.00004775,-0.00003847,0.00
 000735,0.00002479,-0.00000108,0.00000232,-0.00000068,-0.00000127,0.000
 00044,-0.00000271,0.00000034,-0.00000021,0.00000138,-0.00000034,-0.000
 00053,0.00000096,0.00000114,0.00000660,0.00000471,0.00043578,0.0000430
 4,-0.00011728,0.00054267,-0.00007266,0.00012517,-0.00383779,0.00036437
 ,0.00031450,0.02314592,-0.00000206,0.00000528,0.00002587,0.00001599,0.
 00000013,-0.00001444,-0.00001452,0.00000189,0.00001753,0.00003406,-0.0
 0001014,-0.00004952,-0.00004684,-0.00000997,0.00000989,0.00001432,0.00
 000513,0.00000242,-0.00008219,0.00003541,0.00008339,-0.00004071,-0.000
 05617,0.00001721,0.00010459,0.00002197,0.00001206,0.00003850,-0.000003
 59,-0.00004308,0.00002589,0.00013096,-0.00000047,0.00001463,-0.0002698
 4,-0.00106324,-0.00054866,0.00114706,-0.00170455,-0.00096211,-0.004485
 31,-0.00334125,-0.00045241,-0.01732514,0.02326501,0.00016852,0.0079236
 2,-0.00664638,-0.00695398,-0.20023617,0.13396308,0.00102564,0.00108002
 ,0.00151907,0.00007241,-0.00000045,-0.00001039,-0.00005247,0.00001050,
 0.00007046,-0.00000068,-0.00000127,-0.00000578,0.00000804,0.00000255,0
 .00000444,0.00000175,0.00000273,0.00000764,-0.00000415,-0.00000034,0.0
 0000099,0.00000184,-0.00000201,-0.00000940,-0.00003027,0.00019917,-0.0
 0032287,-0.00009341,-0.00104767,0.00113904,0.00041818,0.00080432,0.000
 54302,0.00790230,0.21182560,0.00000746,-0.00001211,-0.00002292,-0.0000
 2370,0.00000235,0.00001883,0.00002392,-0.00000643,-0.00002371,-0.00002
 358,0.00002650,0.00007291,0.00007453,0.00000883,-0.00000047,-0.0000223
 3,-0.00000360,-0.00000743,0.00004457,-0.00001627,-0.00000393,0.0000834
 9,0.00011403,-0.00008792,-0.00014788,0.00001097,0.00005928,-0.00008778
 ,-0.00000324,0.00007373,0.00003663,0.00010503,0.00000379,-0.00005789,-
 0.00102703,-0.00028366,-0.00085709,-0.00312908,-0.00467901,-0.00047412
 ,-0.00223686,0.00070784,-0.00038326,-0.00686945,0.00703395,0.00137143,
 0.02491569,-0.01603826,0.00274862,0.13437472,-0.18390692,0.00017758,-0
 .00074544,0.00086033,-0.00004808,0.00002823,-0.00003724,0.00009102,-0.
 00001256,-0.00010138,0.00000105,0.00000319,0.00000793,-0.00001183,-0.0
 0000325,-0.00000588,-0.00000277,-0.00000300,-0.00001165,0.00000591,0.0
 0000096,-0.00000200,-0.00000185,-0.00000695,0.00000928,0.00001709,0.00
 114960,-0.00072219,0.00000801,-0.00035045,0.00040773,0.00022483,-0.000
 50421,0.00095265,-0.00288283,-0.14597489,0.19509828,0.00000021,0.00000
 200,-0.00000696,-0.00000566,0.00000323,0.00000389,0.00000557,-0.000000
 22,-0.00000493,-0.00000473,-0.00000421,0.00001722,0.00001653,0.0000040
 2,-0.00000085,-0.00000567,0.00000014,-0.00000291,-0.00000106,-0.000007
 98,0.00000084,-0.00000965,0.00003460,-0.00002006,-0.00002386,0.0000117
 0,0.00001457,-0.00002155,-0.00000492,0.00001715,0.00000751,0.00003085,
 -0.00002454,-0.00005914,-0.00017104,-0.00028814,0.00005902,0.00050705,
 -0.00022645,0.00049267,-0.00035238,0.00057441,-0.00074550,0.00070981,0
 .00121114,0.00029451,-0.00008171,0.00083536,0.00069503,0.00019398,-0.0
 0054730,-0.10569476,-0.10864098,-0.01772866,-0.00001312,0.00003037,-0.
 00002099,0.00001862,0.00000190,-0.00002369,0.00000118,-0.00000233,0.00
 000286,-0.00000255,-0.00000229,-0.00000068,-0.00000048,-0.00000168,-0.
 00000270,0.00000171,-0.00000072,-0.00000011,-0.00000152,-0.00000408,0.
 00000415,-0.00001557,0.00002667,0.00001653,0.00005723,0.00040164,-0.00
 030805,-0.00008559,0.00000880,-0.00001722,-0.00014399,-0.00010084,0.00
 009026,0.11118814,0.00000175,0.,-0.00001226,-0.00000890,0.00000195,0.0
 0000745,0.00000928,0.00000158,-0.00001006,-0.00001288,0.00000480,0.000
 02380,0.00003091,0.00000287,-0.00000012,-0.00000881,-0.00000205,-0.000
 00347,-0.00000584,-0.00001818,0.00000075,0.00004653,0.00005904,-0.0000
 0871,-0.00007021,-0.00000572,-0.00000574,-0.00004294,0.00000485,0.0000
 4108,0.00000205,0.00010407,-0.00009992,0.00058106,-0.00025203,-0.00039
 479,0.00006357,0.00044916,-0.00005152,0.00069681,0.00052329,0.00221343
 ,-0.00238547,-0.00779675,-0.00128397,0.00022060,-0.00046324,0.00037784
 ,-0.00072831,0.00060601,-0.00221672,-0.10793685,-0.24259930,-0.0280031
 6,-0.00000693,0.00002547,-0.00003796,0.00005420,-0.00000279,-0.0000559
 3,0.00000194,-0.00000194,0.00000470,-0.00000450,-0.00000280,-0.0000014
 4,-0.00000106,-0.00000295,-0.00000525,0.00000288,-0.00000082,-0.000000
 77,-0.00000093,-0.00000249,0.00000557,-0.00014861,0.00006096,-0.000010
 32,-0.00058264,0.00070254,-0.00018065,0.00000196,-0.00006064,-0.000187
 88,-0.00007435,0.00043568,0.00008795,0.11999694,0.26337163,0.00000189,
 0.00000395,0.00000239,0.00000092,0.00000120,-0.00000133,-0.00000041,0.
 00000046,0.00000124,0.00000456,-0.00000538,-0.00000489,-0.00000211,0.0
 0000311,0.00000203,-0.00000039,0.00000057,-0.00000074,-0.00003381,0.00
 000706,0.00004523,-0.00000477,0.00000719,-0.00001386,-0.00000075,0.000
 01171,0.00001063,-0.00000579,-0.00000317,0.00000931,0.00002252,0.00004
 247,-0.00003084,0.00013608,-0.00011527,0.00005146,-0.00010760,0.000087
 19,-0.00001683,0.00043012,-0.00163949,0.00167580,-0.01521461,-0.029342
 69,-0.00432807,0.00060204,-0.00144451,0.00003439,-0.00062785,0.0006915
 1,-0.00566478,-0.01610782,-0.02551597,-0.05041427,0.00001404,0.0000250
 9,-0.00003762,0.00000692,0.00000361,-0.00000441,0.00000149,-0.00000160
 ,0.00000091,-0.00000030,-0.00000067,0.00000006,0.00000002,-0.00000063,
 -0.00000044,0.00000015,-0.00000049,0.00000002,0.00000011,-0.00000372,-
 0.00000072,0.00001215,0.00006755,0.00001199,-0.00012014,0.00101977,-0.
 00011229,0.00002188,-0.00013972,-0.00044041,-0.00021536,-0.00012079,0.
 00008582,0.01683476,0.03174620,0.05644912,0.00000101,-0.00000286,-0.00
 001048,-0.00000808,0.00000060,0.00000675,0.00000869,-0.00000143,-0.000
 00860,-0.00001243,0.00000153,0.00002049,0.00002538,0.00000345,-0.00000
 142,-0.00000803,-0.00000206,-0.00000331,0.00000504,-0.00000446,-0.0000
 1553,-0.00000105,0.00000607,-0.00001162,-0.00004625,0.00000157,0.00001
 004,-0.00002803,0.00000355,0.00002499,-0.00000293,-0.00004177,-0.00000
 954,0.00020295,0.00041292,0.00078067,-0.00003823,-0.00051259,0.0000359
 7,0.00035338,-0.00050446,-0.00024891,-0.00047107,-0.00020737,0.0014680
 6,-0.00007895,-0.00011094,-0.00038102,0.00072560,0.00059144,0.00013793
 ,-0.10520699,0.08715050,-0.06601893,-0.00000948,0.00000799,-0.00002419
 ,0.00003001,-0.00000470,-0.00003807,0.00000082,0.00000113,0.00000390,-
 0.00000468,-0.00000144,-0.00000210,-0.00000097,-0.00000154,-0.00000481
 ,0.00000254,0.00000019,-0.00000060,-0.00000070,-0.00000280,0.00000515,
 0.00001069,-0.00003215,0.00002315,-0.00001686,0.00016786,0.00001930,-0
 .00002738,-0.00000529,-0.00003315,-0.00004983,-0.00049807,-0.00005279,
 0.00847179,-0.01111634,0.00951157,0.11085527,-0.00000137,0.00000296,0.
 00001301,0.00000950,-0.00000031,-0.00000734,-0.00000955,0.00000189,0.0
 0000971,0.00001970,-0.00000403,-0.00002286,-0.00003059,-0.00000470,0.0
 0000331,0.00000909,0.00000308,0.00000337,-0.00000159,0.00001709,0.0000
 2086,-0.00004379,0.00000553,-0.00004681,0.00005758,0.00001530,0.000014
 83,0.00003919,-0.00001089,-0.00003671,-0.00001557,-0.00010847,0.000026
 61,0.00011282,0.00019017,-0.00046860,-0.00009064,0.00021152,-0.0002039
 3,0.00028310,-0.00027440,-0.00034345,-0.00514170,0.00593627,-0.0040838
 1,-0.00045101,0.00036280,0.00053946,-0.00041509,0.00035026,-0.00143286
 ,0.08701131,-0.17713886,0.09442484,0.00000195,0.00000707,0.00002812,-0
 .00004855,0.00001000,0.00005301,-0.00000116,-0.00000119,-0.00000434,0.
 00000507,0.00000160,0.00000211,0.00000134,0.00000168,0.00000578,-0.000
 00284,-0.00000048,0.00000112,0.00000251,-0.00000081,-0.00000771,0.0001
 6138,0.00002324,0.00002289,0.00009150,0.00040277,-0.00023231,0.0000665
 8,0.00001739,0.00006196,0.00051682,0.00010998,0.00008376,0.01443780,-0
 .01864937,0.01382677,-0.09769529,0.19055165,0.00000014,-0.00000737,-0.
 00002547,-0.00001768,0.00000268,0.00001577,0.00001678,-0.00000332,-0.0
 0002072,-0.00002655,0.00000799,0.00006254,0.00005528,0.00000889,-0.000
 00914,-0.00001558,-0.00000384,-0.00000370,0.00008195,-0.00003084,-0.00
 007788,0.00005792,0.00011949,-0.00011725,-0.00013778,-0.00001714,0.000
 00448,-0.00004649,-0.00001031,0.00005114,0.00001985,-0.00026261,-0.000
 12203,0.00107781,0.00101151,-0.00052366,-0.00012527,-0.00026619,0.0000
 2465,-0.00118777,-0.00301673,-0.00452592,-0.01417624,0.02374858,-0.018
 20891,0.00051497,-0.00001034,-0.00050512,0.00105927,0.00191177,0.00187
 529,-0.06472905,0.09285272,-0.11335437,-0.00008193,0.00003112,0.000005
 20,0.00006664,-0.00001104,-0.00008011,0.00000099,0.00000087,0.00000636
 ,-0.00000837,-0.00000303,-0.00000404,-0.00000191,-0.00000313,-0.000008
 38,0.00000460,0.00000052,-0.00000165,-0.00000005,0.00000816,0.00000566
 ,-0.00008827,-0.00008894,0.00003201,-0.00037917,-0.00005269,0.00011205
 ,-0.00000182,-0.00001827,0.00001032,-0.00058878,-0.00099113,0.00040727
 ,0.00314967,-0.00295512,0.00176000,0.07059640,-0.10277862,0.12687359,-
 0.00000141,0.00000394,0.00001561,0.00001065,-0.00000186,-0.00000941,-0
 .00000968,0.00000070,0.00001184,0.00001707,-0.00000312,-0.00003487,-0.
 00003031,-0.00000509,0.00000610,0.00001018,0.00000240,0.00000195,-0.00
 004423,0.00001038,0.00004628,-0.00001030,-0.00002387,0.00000629,0.0000
 5671,-0.00000155,-0.00000953,0.00002601,-0.00000060,-0.00002314,-0.000
 02257,-0.00003178,0.00002512,0.00010383,0.00017237,0.00017742,-0.00006
 007,0.00003905,-0.00022914,0.00032842,0.00041386,-0.00022593,0.0053944
 6,0.00005734,0.00061145,0.00013539,0.00007111,0.00055939,0.00043126,-0
 .00068164,-0.00023674,-0.25992883,0.02088127,0.08576687,0.00005223,-0.
 00001192,-0.00000327,-0.00002399,0.00000353,0.00003952,-0.00000064,0.0
 0000037,-0.00000421,0.00000566,0.00000244,0.00000282,0.00000097,0.0000
 0228,0.00000492,-0.00000301,0.00000015,0.00000018,0.00000308,0.0000024
 9,-0.00000736,-0.00010576,0.00002781,0.00001883,-0.00026461,0.00009876
 ,0.00004065,0.00002074,0.00001699,0.00004237,-0.00032257,0.00003671,0.
 00007138,-0.01447534,0.00142509,0.00484049,-0.01468122,0.00112147,0.00
 491044,0.28338787,0.00000187,-0.00000149,-0.00000548,-0.00000457,-0.00
 000076,0.00000461,0.00000547,-0.00000024,-0.00000570,-0.00000299,0.000
 00325,0.00001250,0.00001637,0.00000152,-0.00000043,-0.00000497,-0.0000
 0142,-0.00000197,-0.00002231,-0.00001520,0.00002429,0.00004021,0.00001
 767,-0.00000369,-0.00003081,0.00000361,0.00000675,-0.00001852,0.000002
 72,0.00001793,-0.00006435,-0.00004837,0.00009852,0.00000720,-0.0009606
 4,-0.00114672,0.00011005,0.00104747,-0.00042548,0.00039308,-0.00025173
 ,0.00194561,0.00686305,-0.00065691,-0.00388556,-0.00062074,-0.00012355
 ,0.00114434,-0.00067379,-0.00035363,-0.00175576,0.02196550,-0.04733989
 ,-0.00843116,0.00000272,0.00000730,-0.00003518,0.00002094,-0.00000290,
 -0.00002442,0.00000044,0.00000188,0.00000207,-0.00000304,-0.00000059,-
 0.00000157,-0.00000058,-0.00000089,-0.00000299,0.00000136,0.00000023,-
 0.00000035,0.00000091,-0.00000265,0.00000143,0.00002207,0.00000044,0.0
 0001738,-0.00018119,0.00003032,0.00008024,0.00003269,-0.00004325,-0.00
 002819,0.00040236,-0.00029395,-0.00000698,-0.02702611,0.00350716,0.010
 78867,0.02239674,-0.00202876,-0.00917366,-0.02362908,0.04750324,0.0000
 0559,-0.00000434,-0.00002928,-0.00002086,0.00000354,0.00001689,0.00001
 767,-0.00000093,-0.00002124,-0.00002956,0.00001286,0.00007015,0.000059
 59,0.00000670,-0.00000939,-0.00001916,-0.00000228,-0.00000317,0.000069
 48,-0.00004523,-0.00003953,0.00011575,0.00009474,-0.00004297,-0.000126
 94,-0.00000093,-0.00000120,-0.00005507,-0.00000133,0.00005552,-0.00002
 128,-0.00007232,-0.00004202,-0.00162032,-0.00001166,0.00000315,0.00019
 051,-0.00047171,-0.00025747,-0.00041235,-0.00153040,-0.00054850,0.0281
 2952,-0.00372751,-0.01629633,-0.00123907,0.00038836,-0.00103573,-0.000
 18304,0.00159482,0.00037664,0.08944056,-0.00834973,-0.07830164,-0.0001
 0673,0.00004410,-0.00000487,0.00006125,-0.00000603,-0.00008285,0.00000
 097,-0.00000093,0.00000595,-0.00000949,-0.00000482,-0.00000503,-0.0000
 0195,-0.00000407,-0.00000871,0.00000512,-0.00000061,-0.00000046,-0.000
 00787,-0.00000550,0.00001123,0.00012890,-0.00004617,0.00003607,0.00082
 998,0.00025296,-0.00008704,-0.00003560,-0.00006440,-0.00008902,0.00057
 861,-0.00038293,0.00013497,-0.00354860,0.00101701,0.00093111,-0.015779
 31,0.00052782,0.00634205,-0.09641630,0.01079093,0.08892274\\-0.0000007
 2,-0.00000028,0.00000099,-0.00000041,-0.00000088,-0.00000001,0.0000000
 3,-0.00000051,-0.00000067,-0.00000040,-0.00000018,0.00000100,0.0000004
 7,0.00000024,-0.00000037,-0.00000095,0.00000002,0.00000038,-0.00000003
 ,0.00000049,-0.00000104,-0.00000074,-0.00000028,0.00000043,-0.00000066
 ,0.00000034,0.00000053,-0.00000091,0.00000036,-0.00000015,-0.00000026,
 0.00000126,-0.00000161,-0.00000014,-0.00000235,0.00000093,0.00000197,0
 .00000370,-0.00000118,0.00000009,-0.00000102,0.00000223,0.00000101,0.0
 0000287,-0.00000066,0.,-0.00000154,0.00000242,0.00000143,-0.00000189,-
 0.00000289,-0.00000064,-0.00000046,-0.00000013,-0.00000040,-0.00000114
 ,0.00000050,-0.00000074,0.00000080,0.00000005,0.00000021,-0.00000088,0
 .00000001,-0.00000030,-0.00000094,0.00000043,-0.00000039,-0.00000017,0
 .00000047,-0.00000047,0.00000027,-0.00000017,-0.00000061,0.00000071,-0
 .00000057,-0.00000022,-0.00000046,-0.00000060,-0.00000042,0.00000033,-
 0.00000074,0.00000118,0.00000069,-0.00000022,0.00000073,0.00000047,0.0
 0000048,0.00000049,0.00000012,-0.00000008,0.00000119,0.00000025,-0.000
 00050,0.00000064,0.00000007,0.00000072\\\@


 MANHOOD BEGINS BY TRYING TO SHAVE FACE,
 AND ENDS BY TRYING TO SAVE FACE.
 Job cpu time:       0 days  7 hours 20 minutes 17.4 seconds.
 Elapsed time:       0 days  0 hours 55 minutes  5.9 seconds.
 File lengths (MBytes):  RWF=   1730 Int=      0 D2E=      0 Chk=     30 Scr=      1
 Normal termination of Gaussian 16 at Tue Jan  9 02:55:27 2024.
