 Entering Gaussian System, Link 0=g16
 Input=224-an.com
 Output=224-an.log
 Initial command:
 /sysapps/ubuntu-applications/gaussian/Gaussian/AVX2/g16/l1.exe "/scratch/selhajj1/4407408/Gau-569609.inp" -scrdir="/scratch/selhajj1/4407408/"
 Entering Link 1 = /sysapps/ubuntu-applications/gaussian/Gaussian/AVX2/g16/l1.exe PID=    569611.
  
 Copyright (c) 1988,1990,1992,1993,1995,1998,2003,2009,2016,
            Gaussian, Inc.  All Rights Reserved.
  
 This is part of the Gaussian(R) 16 program.  It is based on
 the Gaussian(R) 09 system (copyright 2009, Gaussian, Inc.),
 the Gaussian(R) 03 system (copyright 2003, Gaussian, Inc.),
 the Gaussian(R) 98 system (copyright 1998, Gaussian, Inc.),
 the Gaussian(R) 94 system (copyright 1995, Gaussian, Inc.),
 the Gaussian 92(TM) system (copyright 1992, Gaussian, Inc.),
 the Gaussian 90(TM) system (copyright 1990, Gaussian, Inc.),
 the Gaussian 88(TM) system (copyright 1988, Gaussian, Inc.),
 the Gaussian 86(TM) system (copyright 1986, Carnegie Mellon
 University), and the Gaussian 82(TM) system (copyright 1983,
 Carnegie Mellon University). Gaussian is a federally registered
 trademark of Gaussian, Inc.
  
 This software contains proprietary and confidential information,
 including trade secrets, belonging to Gaussian, Inc.
  
 This software is provided under written license and may be
 used, copied, transmitted, or stored only in accord with that
 written license.
  
 The following legend is applicable only to US Government
 contracts under FAR:
  
                    RESTRICTED RIGHTS LEGEND
  
 Use, reproduction and disclosure by the US Government is
 subject to restrictions as set forth in subparagraphs (a)
 and (c) of the Commercial Computer Software - Restricted
 Rights clause in FAR 52.227-19.
  
 Gaussian, Inc.
 340 Quinnipiac St., Bldg. 40, Wallingford CT 06492
  
  
 ---------------------------------------------------------------
 Warning -- This program may not be used in any manner that
 competes with the business of Gaussian, Inc. or will provide
 assistance to any competitor of Gaussian, Inc.  The licensee
 of this program is prohibited from giving any competitor of
 Gaussian, Inc. access to this program.  By using this program,
 the user acknowledges that Gaussian, Inc. is engaged in the
 business of creating and licensing software in the field of
 computational chemistry and represents and warrants to the
 licensee that it is not a competitor of Gaussian, Inc. and that
 it will not use this program in any manner prohibited above.
 ---------------------------------------------------------------
  

 Cite this work as:
 Gaussian 16, Revision A.03,
 M. J. Frisch, G. W. Trucks, H. B. Schlegel, G. E. Scuseria, 
 M. A. Robb, J. R. Cheeseman, G. Scalmani, V. Barone, 
 G. A. Petersson, H. Nakatsuji, X. Li, M. Caricato, A. V. Marenich, 
 J. Bloino, B. G. Janesko, R. Gomperts, B. Mennucci, H. P. Hratchian, 
 J. V. Ortiz, A. F. Izmaylov, J. L. Sonnenberg, D. Williams-Young, 
 F. Ding, F. Lipparini, F. Egidi, J. Goings, B. Peng, A. Petrone, 
 T. Henderson, D. Ranasinghe, V. G. Zakrzewski, J. Gao, N. Rega, 
 G. Zheng, W. Liang, M. Hada, M. Ehara, K. Toyota, R. Fukuda, 
 J. Hasegawa, M. Ishida, T. Nakajima, Y. Honda, O. Kitao, H. Nakai, 
 T. Vreven, K. Throssell, J. A. Montgomery, Jr., J. E. Peralta, 
 F. Ogliaro, M. J. Bearpark, J. J. Heyd, E. N. Brothers, K. N. Kudin, 
 V. N. Staroverov, T. A. Keith, R. Kobayashi, J. Normand, 
 K. Raghavachari, A. P. Rendell, J. C. Burant, S. S. Iyengar, 
 J. Tomasi, M. Cossi, J. M. Millam, M. Klene, C. Adamo, R. Cammi, 
 J. W. Ochterski, R. L. Martin, K. Morokuma, O. Farkas, 
 J. B. Foresman, and D. J. Fox, Gaussian, Inc., Wallingford CT, 2016.
 
 ******************************************
 Gaussian 16:  ES64L-G16RevA.03 25-Dec-2016
                10-Feb-2024 
 ******************************************
 %chk=224-an.chk
 %nproc=8
 Will use up to    8 processors via shared memory.
 %mem=30GB
 ----------------------------------------------------------------------
 #P UB3LYP/6-311++G(d,p) nosym opt freq SCRF=(PCM,Solvent=n,n-DiMethylF
 ormamide)
 ----------------------------------------------------------------------
 1/18=20,19=15,26=3,38=1/1,3;
 2/9=110,12=2,15=1,17=6,18=5,40=1/2;
 3/5=4,6=6,7=1111,11=2,25=1,30=1,70=2201,71=1,72=148,74=-5,116=2/1,2,3;
 4//1;
 5/5=2,38=5,53=148/2;
 6/7=2,8=2,9=2,10=2,28=1/1;
 7/30=1/1,2,3,16;
 1/18=20,19=15,26=3/3(2);
 2/9=110,15=1/2;
 99//99;
 2/9=110,15=1/2;
 3/5=4,6=6,7=1111,11=2,25=1,30=1,70=2205,71=1,72=148,74=-5,116=2/1,2,3;
 4/5=5,16=3,69=1/1;
 5/5=2,38=5,53=148/2;
 7/30=1/1,2,3,16;
 1/18=20,19=15,26=3/3(-5);
 2/9=110,15=1/2;
 6/7=2,8=2,9=2,10=2,19=2,28=1/1;
 99/9=1/99;
 Leave Link    1 at Sat Feb 10 23:04:05 2024, MaxMem=  4026531840 cpu:               0.6 elap:               0.1
 (Enter /sysapps/ubuntu-applications/gaussian/Gaussian/AVX2/g16/l101.exe)
 -------
 Reduced
 -------
 Symbolic Z-matrix:
 Charge = -4 Multiplicity = 1
 C                     5.58647  -4.79694   0.7983 
 C                     6.636    -4.66213  -0.08735 
 C                     6.5969   -3.62668  -1.03928 
 C                     4.47885  -3.92778   0.76208 
 C                     4.40311  -2.90443  -0.2395 
 C                     5.51846  -2.75728  -1.13589 
 C                     3.43539  -4.17228   1.80319 
 C                     2.27448  -3.26916   1.83393 
 C                     2.16198  -2.29731   0.78563 
 C                     3.1794   -2.08925  -0.28867 
 C                     1.23804  -3.30582   2.8307 
 C                     0.15135  -2.44799   2.72384 
 C                     0.02416  -1.536     1.65991 
 C                     1.02556  -1.46855   0.71293 
 O                     3.56724  -5.12192   2.59277 
 O                     2.96345  -1.25733  -1.18527 
 S                     1.14515  -4.38901   4.36757 
 O                    -0.06985  -3.86698   5.08823 
 O                     2.38054  -4.14525   5.15841 
 O                     0.9318   -5.79091   3.91595 
 S                     5.76079  -1.46511  -2.48334 
 O                     7.16427  -1.72325  -2.96473 
 O                     4.77142  -1.74765  -3.55854 
 O                     5.65423  -0.12807  -1.84144 
 H                     5.57776  -5.56601   1.5606 
 H                     7.48912  -5.34512  -0.05376 
 H                     7.4211   -3.48287  -1.72452 
 H                    -0.60572  -2.49772   3.49452 
 H                    -0.85636  -0.89144   1.59152 
 H                     0.98321  -0.77086  -0.11416 
 
 ITRead=  0  0  0  0  0  0  0  0  0  0  0  0  0  0  0  0  0  0  0  0
 ITRead=  0  0  0  0  0  0  0  0  0  0
 MicOpt= -1 -1 -1 -1 -1 -1 -1 -1 -1 -1 -1 -1 -1 -1 -1 -1 -1 -1 -1 -1
 MicOpt= -1 -1 -1 -1 -1 -1 -1 -1 -1 -1
 NAtoms=     30 NQM=       30 NQMF=       0 NMMI=      0 NMMIF=      0
                NMic=       0 NMicF=      0.
                    Isotopes and Nuclear Properties:
 (Nuclear quadrupole moments (NQMom) in fm**2, nuclear magnetic moments (NMagM)
  in nuclear magnetons)

  Atom         1           2           3           4           5           6           7           8           9          10
 IAtWgt=          12          12          12          12          12          12          12          12          12          12
 AtmWgt=  12.0000000  12.0000000  12.0000000  12.0000000  12.0000000  12.0000000  12.0000000  12.0000000  12.0000000  12.0000000
 NucSpn=           0           0           0           0           0           0           0           0           0           0
 AtZEff=  -0.0000000  -0.0000000  -0.0000000  -0.0000000  -0.0000000  -0.0000000  -0.0000000  -0.0000000  -0.0000000  -0.0000000
 NQMom=    0.0000000   0.0000000   0.0000000   0.0000000   0.0000000   0.0000000   0.0000000   0.0000000   0.0000000   0.0000000
 NMagM=    0.0000000   0.0000000   0.0000000   0.0000000   0.0000000   0.0000000   0.0000000   0.0000000   0.0000000   0.0000000
 AtZNuc=   6.0000000   6.0000000   6.0000000   6.0000000   6.0000000   6.0000000   6.0000000   6.0000000   6.0000000   6.0000000

  Atom        11          12          13          14          15          16          17          18          19          20
 IAtWgt=          12          12          12          12          16          16          32          16          16          16
 AtmWgt=  12.0000000  12.0000000  12.0000000  12.0000000  15.9949146  15.9949146  31.9720718  15.9949146  15.9949146  15.9949146
 NucSpn=           0           0           0           0           0           0           0           0           0           0
 AtZEff=  -0.0000000  -0.0000000  -0.0000000  -0.0000000  -0.0000000  -0.0000000  -0.0000000  -0.0000000  -0.0000000  -0.0000000
 NQMom=    0.0000000   0.0000000   0.0000000   0.0000000   0.0000000   0.0000000   0.0000000   0.0000000   0.0000000   0.0000000
 NMagM=    0.0000000   0.0000000   0.0000000   0.0000000   0.0000000   0.0000000   0.0000000   0.0000000   0.0000000   0.0000000
 AtZNuc=   6.0000000   6.0000000   6.0000000   6.0000000   8.0000000   8.0000000  16.0000000   8.0000000   8.0000000   8.0000000

  Atom        21          22          23          24          25          26          27          28          29          30
 IAtWgt=          32          16          16          16           1           1           1           1           1           1
 AtmWgt=  31.9720718  15.9949146  15.9949146  15.9949146   1.0078250   1.0078250   1.0078250   1.0078250   1.0078250   1.0078250
 NucSpn=           0           0           0           0           1           1           1           1           1           1
 AtZEff=  -0.0000000  -0.0000000  -0.0000000  -0.0000000  -0.0000000  -0.0000000  -0.0000000  -0.0000000  -0.0000000  -0.0000000
 NQMom=    0.0000000   0.0000000   0.0000000   0.0000000   0.0000000   0.0000000   0.0000000   0.0000000   0.0000000   0.0000000
 NMagM=    0.0000000   0.0000000   0.0000000   0.0000000   2.7928460   2.7928460   2.7928460   2.7928460   2.7928460   2.7928460
 AtZNuc=  16.0000000   8.0000000   8.0000000   8.0000000   1.0000000   1.0000000   1.0000000   1.0000000   1.0000000   1.0000000
 Leave Link  101 at Sat Feb 10 23:04:06 2024, MaxMem=  4026531840 cpu:               5.2 elap:               0.9
 (Enter /sysapps/ubuntu-applications/gaussian/Gaussian/AVX2/g16/l103.exe)

 GradGradGradGradGradGradGradGradGradGradGradGradGradGradGradGradGradGrad
 Berny optimization.
 Initialization pass.
                           ----------------------------
                           !    Initial Parameters    !
                           ! (Angstroms and Degrees)  !
 --------------------------                            --------------------------
 ! Name  Definition              Value          Derivative Info.                !
 --------------------------------------------------------------------------------
 ! R1    R(1,2)                  1.3799         estimate D2E/DX2                !
 ! R2    R(1,4)                  1.4084         estimate D2E/DX2                !
 ! R3    R(1,25)                 1.0829         estimate D2E/DX2                !
 ! R4    R(2,3)                  1.4071         estimate D2E/DX2                !
 ! R5    R(2,26)                 1.0934         estimate D2E/DX2                !
 ! R6    R(3,6)                  1.3886         estimate D2E/DX2                !
 ! R7    R(3,27)                 1.0815         estimate D2E/DX2                !
 ! R8    R(4,5)                  1.4339         estimate D2E/DX2                !
 ! R9    R(4,7)                  1.4942         estimate D2E/DX2                !
 ! R10   R(5,6)                  1.4385         estimate D2E/DX2                !
 ! R11   R(5,10)                 1.4712         estimate D2E/DX2                !
 ! R12   R(6,21)                 1.8826         estimate D2E/DX2                !
 ! R13   R(7,8)                  1.4712         estimate D2E/DX2                !
 ! R14   R(7,15)                 1.242          estimate D2E/DX2                !
 ! R15   R(8,9)                  1.4339         estimate D2E/DX2                !
 ! R16   R(8,11)                 1.4384         estimate D2E/DX2                !
 ! R17   R(9,10)                 1.4942         estimate D2E/DX2                !
 ! R18   R(9,14)                 1.4084         estimate D2E/DX2                !
 ! R19   R(10,16)                1.242          estimate D2E/DX2                !
 ! R20   R(11,12)                1.3886         estimate D2E/DX2                !
 ! R21   R(11,17)                1.8825         estimate D2E/DX2                !
 ! R22   R(12,13)                1.4071         estimate D2E/DX2                !
 ! R23   R(12,28)                1.0815         estimate D2E/DX2                !
 ! R24   R(13,14)                1.3799         estimate D2E/DX2                !
 ! R25   R(13,29)                1.0934         estimate D2E/DX2                !
 ! R26   R(14,30)                1.0829         estimate D2E/DX2                !
 ! R27   R(17,18)                1.506          estimate D2E/DX2                !
 ! R28   R(17,19)                1.487          estimate D2E/DX2                !
 ! R29   R(17,20)                1.4882         estimate D2E/DX2                !
 ! R30   R(21,22)                1.506          estimate D2E/DX2                !
 ! R31   R(21,23)                1.4882         estimate D2E/DX2                !
 ! R32   R(21,24)                1.487          estimate D2E/DX2                !
 ! A1    A(2,1,4)              121.4237         estimate D2E/DX2                !
 ! A2    A(2,1,25)             121.8243         estimate D2E/DX2                !
 ! A3    A(4,1,25)             116.7485         estimate D2E/DX2                !
 ! A4    A(1,2,3)              119.0108         estimate D2E/DX2                !
 ! A5    A(1,2,26)             120.8458         estimate D2E/DX2                !
 ! A6    A(3,2,26)             120.1433         estimate D2E/DX2                !
 ! A7    A(2,3,6)              121.9643         estimate D2E/DX2                !
 ! A8    A(2,3,27)             120.3546         estimate D2E/DX2                !
 ! A9    A(6,3,27)             117.6808         estimate D2E/DX2                !
 ! A10   A(1,4,5)              119.9958         estimate D2E/DX2                !
 ! A11   A(1,4,7)              115.4871         estimate D2E/DX2                !
 ! A12   A(5,4,7)              124.5131         estimate D2E/DX2                !
 ! A13   A(4,5,6)              117.8604         estimate D2E/DX2                !
 ! A14   A(4,5,10)             117.5628         estimate D2E/DX2                !
 ! A15   A(6,5,10)             124.5716         estimate D2E/DX2                !
 ! A16   A(3,6,5)              119.6552         estimate D2E/DX2                !
 ! A17   A(3,6,21)             112.3071         estimate D2E/DX2                !
 ! A18   A(5,6,21)             128.0285         estimate D2E/DX2                !
 ! A19   A(4,7,8)              117.7223         estimate D2E/DX2                !
 ! A20   A(4,7,15)             119.6002         estimate D2E/DX2                !
 ! A21   A(8,7,15)             122.6741         estimate D2E/DX2                !
 ! A22   A(7,8,9)              117.5623         estimate D2E/DX2                !
 ! A23   A(7,8,11)             124.57           estimate D2E/DX2                !
 ! A24   A(9,8,11)             117.8623         estimate D2E/DX2                !
 ! A25   A(8,9,10)             124.5129         estimate D2E/DX2                !
 ! A26   A(8,9,14)             119.9914         estimate D2E/DX2                !
 ! A27   A(10,9,14)            115.4918         estimate D2E/DX2                !
 ! A28   A(5,10,9)             117.7232         estimate D2E/DX2                !
 ! A29   A(5,10,16)            122.6758         estimate D2E/DX2                !
 ! A30   A(9,10,16)            119.5977         estimate D2E/DX2                !
 ! A31   A(8,11,12)            119.6566         estimate D2E/DX2                !
 ! A32   A(8,11,17)            128.02           estimate D2E/DX2                !
 ! A33   A(12,11,17)           112.3136         estimate D2E/DX2                !
 ! A34   A(11,12,13)           121.961          estimate D2E/DX2                !
 ! A35   A(11,12,28)           117.6834         estimate D2E/DX2                !
 ! A36   A(13,12,28)           120.3553         estimate D2E/DX2                !
 ! A37   A(12,13,14)           119.0114         estimate D2E/DX2                !
 ! A38   A(12,13,29)           120.145          estimate D2E/DX2                !
 ! A39   A(14,13,29)           120.8434         estimate D2E/DX2                !
 ! A40   A(9,14,13)            121.4249         estimate D2E/DX2                !
 ! A41   A(9,14,30)            116.7506         estimate D2E/DX2                !
 ! A42   A(13,14,30)           121.8209         estimate D2E/DX2                !
 ! A43   A(11,17,18)           103.3569         estimate D2E/DX2                !
 ! A44   A(11,17,19)           107.39           estimate D2E/DX2                !
 ! A45   A(11,17,20)           107.5387         estimate D2E/DX2                !
 ! A46   A(18,17,19)           111.0358         estimate D2E/DX2                !
 ! A47   A(18,17,20)           110.8595         estimate D2E/DX2                !
 ! A48   A(19,17,20)           115.7807         estimate D2E/DX2                !
 ! A49   A(6,21,22)            103.3615         estimate D2E/DX2                !
 ! A50   A(6,21,23)            107.5311         estimate D2E/DX2                !
 ! A51   A(6,21,24)            107.3963         estimate D2E/DX2                !
 ! A52   A(22,21,23)           110.8588         estimate D2E/DX2                !
 ! A53   A(22,21,24)           111.0323         estimate D2E/DX2                !
 ! A54   A(23,21,24)           115.7822         estimate D2E/DX2                !
 ! D1    D(4,1,2,3)              0.4126         estimate D2E/DX2                !
 ! D2    D(4,1,2,26)          -179.7147         estimate D2E/DX2                !
 ! D3    D(25,1,2,3)          -178.8789         estimate D2E/DX2                !
 ! D4    D(25,1,2,26)            0.9938         estimate D2E/DX2                !
 ! D5    D(2,1,4,5)              2.181          estimate D2E/DX2                !
 ! D6    D(2,1,4,7)           -178.5167         estimate D2E/DX2                !
 ! D7    D(25,1,4,5)          -178.4931         estimate D2E/DX2                !
 ! D8    D(25,1,4,7)             0.8091         estimate D2E/DX2                !
 ! D9    D(1,2,3,6)             -1.6442         estimate D2E/DX2                !
 ! D10   D(1,2,3,27)           178.1767         estimate D2E/DX2                !
 ! D11   D(26,2,3,6)           178.4821         estimate D2E/DX2                !
 ! D12   D(26,2,3,27)           -1.6969         estimate D2E/DX2                !
 ! D13   D(2,3,6,5)              0.2356         estimate D2E/DX2                !
 ! D14   D(2,3,6,21)           179.2235         estimate D2E/DX2                !
 ! D15   D(27,3,6,5)          -179.5899         estimate D2E/DX2                !
 ! D16   D(27,3,6,21)           -0.602          estimate D2E/DX2                !
 ! D17   D(1,4,5,6)             -3.4904         estimate D2E/DX2                !
 ! D18   D(1,4,5,10)           175.7181         estimate D2E/DX2                !
 ! D19   D(7,4,5,6)            177.2739         estimate D2E/DX2                !
 ! D20   D(7,4,5,10)            -3.5176         estimate D2E/DX2                !
 ! D21   D(1,4,7,8)            178.3425         estimate D2E/DX2                !
 ! D22   D(1,4,7,15)            -2.3163         estimate D2E/DX2                !
 ! D23   D(5,4,7,8)             -2.3909         estimate D2E/DX2                !
 ! D24   D(5,4,7,15)           176.9504         estimate D2E/DX2                !
 ! D25   D(4,5,6,3)              2.3062         estimate D2E/DX2                !
 ! D26   D(4,5,6,21)          -176.5051         estimate D2E/DX2                !
 ! D27   D(10,5,6,3)          -176.8417         estimate D2E/DX2                !
 ! D28   D(10,5,6,21)            4.3471         estimate D2E/DX2                !
 ! D29   D(4,5,10,9)             5.6905         estimate D2E/DX2                !
 ! D30   D(4,5,10,16)         -173.6472         estimate D2E/DX2                !
 ! D31   D(6,5,10,9)          -175.1593         estimate D2E/DX2                !
 ! D32   D(6,5,10,16)            5.503          estimate D2E/DX2                !
 ! D33   D(3,6,21,22)           -5.1076         estimate D2E/DX2                !
 ! D34   D(3,6,21,23)          112.2041         estimate D2E/DX2                !
 ! D35   D(3,6,21,24)         -122.5579         estimate D2E/DX2                !
 ! D36   D(5,6,21,22)          173.7759         estimate D2E/DX2                !
 ! D37   D(5,6,21,23)          -68.9125         estimate D2E/DX2                !
 ! D38   D(5,6,21,24)           56.3256         estimate D2E/DX2                !
 ! D39   D(4,7,8,9)              5.7688         estimate D2E/DX2                !
 ! D40   D(4,7,8,11)          -175.1009         estimate D2E/DX2                !
 ! D41   D(15,7,8,9)          -173.5507         estimate D2E/DX2                !
 ! D42   D(15,7,8,11)            5.5796         estimate D2E/DX2                !
 ! D43   D(7,8,9,10)            -3.6016         estimate D2E/DX2                !
 ! D44   D(7,8,9,14)           175.6497         estimate D2E/DX2                !
 ! D45   D(11,8,9,10)          177.2085         estimate D2E/DX2                !
 ! D46   D(11,8,9,14)           -3.5403         estimate D2E/DX2                !
 ! D47   D(7,8,11,12)         -176.763          estimate D2E/DX2                !
 ! D48   D(7,8,11,17)            4.4679         estimate D2E/DX2                !
 ! D49   D(9,8,11,12)            2.3649         estimate D2E/DX2                !
 ! D50   D(9,8,11,17)         -176.4042         estimate D2E/DX2                !
 ! D51   D(8,9,10,5)            -2.3067         estimate D2E/DX2                !
 ! D52   D(8,9,10,16)          177.0521         estimate D2E/DX2                !
 ! D53   D(14,9,10,5)          178.4117         estimate D2E/DX2                !
 ! D54   D(14,9,10,16)          -2.2294         estimate D2E/DX2                !
 ! D55   D(8,9,14,13)            2.1856         estimate D2E/DX2                !
 ! D56   D(8,9,14,30)         -178.4861         estimate D2E/DX2                !
 ! D57   D(10,9,14,13)        -178.4979         estimate D2E/DX2                !
 ! D58   D(10,9,14,30)           0.8304         estimate D2E/DX2                !
 ! D59   D(8,11,12,13)           0.2126         estimate D2E/DX2                !
 ! D60   D(8,11,12,28)        -179.581          estimate D2E/DX2                !
 ! D61   D(17,11,12,13)        179.1645         estimate D2E/DX2                !
 ! D62   D(17,11,12,28)         -0.6291         estimate D2E/DX2                !
 ! D63   D(8,11,17,18)         173.6373         estimate D2E/DX2                !
 ! D64   D(8,11,17,19)          56.1879         estimate D2E/DX2                !
 ! D65   D(8,11,17,20)         -69.0491         estimate D2E/DX2                !
 ! D66   D(12,11,17,18)         -5.2065         estimate D2E/DX2                !
 ! D67   D(12,11,17,19)       -122.6559         estimate D2E/DX2                !
 ! D68   D(12,11,17,20)        112.1071         estimate D2E/DX2                !
 ! D69   D(11,12,13,14)         -1.6676         estimate D2E/DX2                !
 ! D70   D(11,12,13,29)        178.4767         estimate D2E/DX2                !
 ! D71   D(28,12,13,14)        178.1206         estimate D2E/DX2                !
 ! D72   D(28,12,13,29)         -1.7351         estimate D2E/DX2                !
 ! D73   D(12,13,14,9)           0.4451         estimate D2E/DX2                !
 ! D74   D(12,13,14,30)       -178.849          estimate D2E/DX2                !
 ! D75   D(29,13,14,9)        -179.7002         estimate D2E/DX2                !
 ! D76   D(29,13,14,30)          1.0057         estimate D2E/DX2                !
 --------------------------------------------------------------------------------
 Trust Radius=3.00D-01 FncErr=1.00D-07 GrdErr=1.00D-06 EigMax=2.50D+02 EigMin=1.00D-04
 Number of steps in this run=    172 maximum allowed number of steps=    180.
 GradGradGradGradGradGradGradGradGradGradGradGradGradGradGradGradGradGrad

 Leave Link  103 at Sat Feb 10 23:04:06 2024, MaxMem=  4026531840 cpu:               0.3 elap:               0.1
 (Enter /sysapps/ubuntu-applications/gaussian/Gaussian/AVX2/g16/l202.exe)
                          Input orientation:                          
 ---------------------------------------------------------------------
 Center     Atomic      Atomic             Coordinates (Angstroms)
 Number     Number       Type             X           Y           Z
 ---------------------------------------------------------------------
      1          6           0        5.586465   -4.796938    0.798303
      2          6           0        6.636003   -4.662127   -0.087351
      3          6           0        6.596900   -3.626675   -1.039276
      4          6           0        4.478853   -3.927777    0.762077
      5          6           0        4.403109   -2.904430   -0.239503
      6          6           0        5.518456   -2.757280   -1.135894
      7          6           0        3.435390   -4.172282    1.803193
      8          6           0        2.274482   -3.269158    1.833926
      9          6           0        2.161982   -2.297307    0.785628
     10          6           0        3.179401   -2.089253   -0.288669
     11          6           0        1.238038   -3.305817    2.830704
     12          6           0        0.151352   -2.447992    2.723836
     13          6           0        0.024161   -1.535995    1.659908
     14          6           0        1.025563   -1.468553    0.712927
     15          8           0        3.567236   -5.121922    2.592770
     16          8           0        2.963452   -1.257327   -1.185272
     17         16           0        1.145148   -4.389009    4.367571
     18          8           0       -0.069853   -3.866981    5.088228
     19          8           0        2.380540   -4.145249    5.158410
     20          8           0        0.931796   -5.790909    3.915951
     21         16           0        5.760793   -1.465106   -2.483337
     22          8           0        7.164269   -1.723246   -2.964725
     23          8           0        4.771417   -1.747648   -3.558539
     24          8           0        5.654227   -0.128073   -1.841438
     25          1           0        5.577757   -5.566014    1.560598
     26          1           0        7.489123   -5.345119   -0.053758
     27          1           0        7.421096   -3.482866   -1.724524
     28          1           0       -0.605716   -2.497722    3.494518
     29          1           0       -0.856356   -0.891436    1.591518
     30          1           0        0.983214   -0.770859   -0.114160
 ---------------------------------------------------------------------
                    Distance matrix (angstroms):
                    1          2          3          4          5
     1  C    0.000000
     2  C    1.379887   0.000000
     3  C    2.401498   1.407072   0.000000
     4  C    1.408388   2.431891   2.796723   0.000000
     5  C    2.461495   2.845780   2.444175   1.433924   0.000000
     6  C    2.811752   2.444749   1.388605   2.460311   1.438461
     7  C    2.455020   3.749404   4.286311   1.494162   2.591628
     8  C    3.791551   4.965333   5.202538   2.538088   2.993858
     9  C    4.239741   5.135302   4.976544   2.833175   2.538138
    10  C    3.782463   4.313735   3.821829   2.484515   1.471187
    11  C    5.026223   6.284318   6.617938   3.894732   4.427749
    12  C    6.226209   7.406475   7.556149   4.976497   5.202610
    13  C    6.505024   7.519446   7.406581   5.135270   4.965437
    14  C    5.646881   6.505105   6.226355   4.239742   3.791660
    15  O    2.720848   4.100218   4.960482   2.368220   3.692929
    16  O    4.831523   5.126961   4.340169   3.635920   2.383283
    17  S    5.712388   7.076045   7.716006   4.932130   5.834674
    18  O    7.159763   8.508077   9.058126   6.277739   7.022721
    19  O    5.450980   6.774521   7.513849   4.876264   5.896430
    20  O    5.689785   7.059643   7.831449   5.098999   6.135925
    21  S    4.679814   4.089949   2.730708   4.270929   2.991613
    22  O    5.108564   4.146730   2.766280   5.095142   4.055371
    23  O    5.380013   4.901022   3.634531   4.848327   3.534090
    24  O    5.363872   4.959672   3.711107   4.753688   3.440879
    25  H    1.082888   2.156996   3.399858   2.128156   3.421139
    26  H    2.155601   1.093353   2.172638   3.425809   3.938902
    27  H    3.384865   2.165032   1.081455   3.877876   3.412934
    28  H    7.134359   8.364026   8.585307   5.946775   6.260723
    29  H    7.575756   8.554072   8.363829   6.194497   5.921719
    30  H    6.183189   6.862704   6.365925   4.790972   4.032805
                    6          7          8          9         10
     6  C    0.000000
     7  C    3.870352   0.000000
     8  C    4.427778   1.471151   0.000000
     9  C    3.894835   2.484459   1.433904   0.000000
    10  C    2.575894   2.963178   2.591614   1.494169   0.000000
    11  C    5.861465   2.575829   1.438446   2.460305   3.870324
    12  C    6.618080   3.821736   2.444163   2.796782   4.286369
    13  C    6.284530   4.313586   2.845713   2.431921   3.749478
    14  C    5.026435   3.782340   2.461426   1.408392   2.455093
    15  O    4.827186   1.242027   2.383231   3.635788   4.201213
    16  O    2.963164   4.201263   3.692926   2.368197   1.242027
    17  S    7.216404   3.445027   2.991458   4.270771   5.577422
    18  O    8.438029   4.813667   4.055093   5.094834   6.529088
    19  O    7.168768   3.517232   3.439619   4.752250   5.876731
    20  O    7.467362   3.653995   3.535090   4.849488   6.035960
    21  S    1.882563   5.577691   5.835043   4.932558   3.445245
    22  O    2.668811   6.529576   7.023312   6.278341   4.813981
    23  O    2.728852   6.034235   6.134196   5.097358   3.652843
    24  O    2.725611   5.878962   5.898931   4.878814   3.518818
    25  H    3.894043   2.567309   4.032602   4.790881   4.610831
    26  H    3.428040   4.610484   5.921608   6.194526   5.406436
    27  H    2.119670   5.367116   6.260661   5.946822   4.689969
    28  H    7.682029   4.689911   3.412949   3.877938   5.367165
    29  H    7.180416   5.406278   3.938841   3.425828   4.610553
    30  H    5.055515   4.610758   3.421098   2.128181   2.567461
                   11         12         13         14         15
    11  C    0.000000
    12  C    1.388586   0.000000
    13  C    2.444694   1.407075   0.000000
    14  C    2.811701   2.401520   1.379901   0.000000
    15  O    2.963109   4.339970   5.126645   4.831254   0.000000
    16  O    4.827155   4.960516   4.100261   2.720880   5.438129
    17  S    1.882523   2.730759   4.089956   4.679721   3.090888
    18  O    2.668689   2.766371   4.146771   5.108390   4.585914
    19  O    2.725467   3.711753   4.959863   5.363113   2.990760
    20  O    2.728961   3.633913   4.900798   5.380606   3.023887
    21  S    7.216825   7.716641   7.076754   5.713013   6.629544
    22  O    8.438705   9.059028   8.509021   7.160566   7.441465
    23  O    7.465593   7.829669   7.057863   5.688123   7.118594
    24  O    7.171450   7.517006   6.777854   5.454007   6.996875
    25  H    5.055178   6.365615   6.862459   6.183058   2.303213
    26  H    7.180177   8.363687   8.554048   7.575829   4.736573
    27  H    7.681904   8.585339   8.364170   7.134526   6.014796
    28  H    2.119692   1.081469   2.165054   3.384894   5.011298
    29  H    3.428017   2.172668   1.093363   2.155599   6.202232
    30  H    3.893992   3.399852   2.156973   1.082887   5.739023
                   16         17         18         19         20
    16  O    0.000000
    17  S    6.629308   0.000000
    18  O    7.440970   1.506017   0.000000
    19  O    6.994439   1.486956   2.467141   0.000000
    20  O    7.120637   1.488222   2.465570   2.520072   0.000000
    21  S    3.090835   8.762895   9.853630   8.775282   9.109482
    22  O    4.585891   9.853866  11.035315   9.733215  10.135744
    23  O    3.023499   9.107680  10.133906   9.351470   9.325162
    24  O    2.990993   8.777196   9.734721   8.709340   9.355030
    25  H    5.739266   5.377031   6.872146   5.018468   5.213753
    26  H    6.202585   7.791554   9.260833   7.396215   7.678272
    27  H    5.011428   8.793307  10.132890   8.556912   8.902417
    28  H    6.014813   2.721160   2.168394   3.794813   3.658774
    29  H    4.736599   4.893414   4.658265   5.812703   5.710106
    30  H    2.303318   5.762217   6.144897   6.413971   6.437806
                   21         22         23         24         25
    21  S    0.000000
    22  O    1.506026   0.000000
    23  O    1.488205   2.465553   0.000000
    24  O    1.486959   2.467099   2.520082   0.000000
    25  H    5.762322   6.145115   6.437054   6.414897   0.000000
    26  H    4.893310   4.658028   5.710623   5.812075   2.511625
    27  H    2.720985   2.168022   3.659971   3.793433   4.304583
    28  H    8.793946  10.133820   8.900662   8.560055   7.168668
    29  H    7.792317   9.261840   7.676458   7.399703   7.953015
    30  H    5.377754   6.873005   5.212326   5.021457   6.848953
                   26         27         28         29         30
    26  H    0.000000
    27  H    2.502813   0.000000
    28  H    9.285707   9.624896   0.000000
    29  H    9.601523   9.285896   2.502875   0.000000
    30  H    7.953261   7.169001   4.304569   2.511552   0.000000
 Symmetry turned off by external request.
 Stoichiometry    C14H6O8S2(4-)
 Framework group  C1[X(C14H6O8S2)]
 Deg. of freedom    84
 Full point group                 C1      NOp   1
 Rotational constants (GHZ):           0.5008184           0.1174892           0.0992744
 Leave Link  202 at Sat Feb 10 23:04:06 2024, MaxMem=  4026531840 cpu:               0.5 elap:               0.1
 (Enter /sysapps/ubuntu-applications/gaussian/Gaussian/AVX2/g16/l301.exe)
 Standard basis: 6-311++G(d,p) (5D, 7F)
 Ernie: Thresh=  0.10000D-02 Tol=  0.10000D-05 Strict=F.
   586 basis functions,   946 primitive gaussians,   610 cartesian basis functions
    95 alpha electrons       95 beta electrons
       nuclear repulsion energy      2361.4530210652 Hartrees.
 IExCor=  402 DFT=T Ex+Corr=B3LYP ExCW=0 ScaHFX=  0.200000
 ScaDFX=  0.800000  0.720000  1.000000  0.810000 ScalE2=  1.000000  1.000000
 IRadAn=      5 IRanWt=     -1 IRanGd=            0 ICorTp=0 IEmpDi=  4
 NAtoms=   30 NActive=   30 NUniq=   30 SFac= 1.00D+00 NAtFMM=   60 NAOKFM=F Big=F
 Integral buffers will be    131072 words long.
 Raffenetti 2 integral format.
 Two-electron integral symmetry is turned off.
 ------------------------------------------------------------------------------
 Polarizable Continuum Model (PCM)
 =================================
 Model                : PCM.
 Atomic radii         : UFF (Universal Force Field).
 Polarization charges : Total charges.
 Charge compensation  : None.
 Solution method      : On-the-fly selection.
 Cavity type          : Scaled VdW (van der Waals Surface) (Alpha=1.100).
 Cavity algorithm     : GePol (No added spheres)
                        Default sphere list used, NSphG=   30.
                        Lebedev-Laikov grids with approx.  5.0 points / Ang**2.
                        Smoothing algorithm: York/Karplus (Gamma=1.0000).
                        Polarization charges: spherical gaussians, with
                                              point-specific exponents (IZeta= 3).
                        Self-potential: point-specific (ISelfS= 7).
                        Self-field    : sphere-specific E.n sum rule (ISelfD= 2).
 1st derivatives      : Analytical E(r).r(x)/FMM algorithm (CHGder, D1EAlg=3).
                        Cavity 1st derivative terms included.
 Solvent              : n,n-DiMethylFormamide, Eps=  37.219000 Eps(inf)=   2.046330
 ------------------------------------------------------------------------------
 GePol: Number of generator spheres                  =      30
 GePol: Total number of spheres                      =      30
 GePol: Number of exposed spheres                    =      30 (100.00%)
 GePol: Number of points                             =    2649
 GePol: Average weight of points                     =       0.13
 GePol: Minimum weight of points                     =   0.11D-09
 GePol: Maximum weight of points                     =    0.20577
 GePol: Number of points with low weight             =     131
 GePol: Fraction of low-weight points (<1% of avg)   =       4.95%
 GePol: Cavity surface area                          =    349.078 Ang**2
 GePol: Cavity volume                                =    392.141 Ang**3
 Leave Link  301 at Sat Feb 10 23:04:07 2024, MaxMem=  4026531840 cpu:               0.9 elap:               0.2
 (Enter /sysapps/ubuntu-applications/gaussian/Gaussian/AVX2/g16/l302.exe)
 NPDir=0 NMtPBC=     1 NCelOv=     1 NCel=       1 NClECP=     1 NCelD=      1
         NCelK=      1 NCelE2=     1 NClLst=     1 CellRange=     0.0.
 One-electron integrals computed using PRISM.
 NBasis=   586 RedAO= T EigKep=  1.11D-06  NBF=   586
 NBsUse=   578 1.00D-06 EigRej=  6.33D-07 NBFU=   578
 Precomputing XC quadrature grid using
 IXCGrd= 4 IRadAn=           5 IRanWt=          -1 IRanGd=           0 AccXCQ= 0.00D+00.
 Generated NRdTot=       0 NPtTot=           0 NUsed=           0 NTot=          32
 NSgBfM=   599   599   599   599   599 MxSgAt=    30 MxSgA2=    30.
 Leave Link  302 at Sat Feb 10 23:04:08 2024, MaxMem=  4026531840 cpu:               6.2 elap:               0.9
 (Enter /sysapps/ubuntu-applications/gaussian/Gaussian/AVX2/g16/l303.exe)
 DipDrv:  MaxL=1.
 Leave Link  303 at Sat Feb 10 23:04:08 2024, MaxMem=  4026531840 cpu:               1.4 elap:               0.3
 (Enter /sysapps/ubuntu-applications/gaussian/Gaussian/AVX2/g16/l401.exe)
 ExpMin= 3.60D-02 ExpMax= 9.34D+04 ExpMxC= 3.17D+03 IAcc=3 IRadAn=         5 AccDes= 0.00D+00
 Harris functional with IExCor=  402 and IRadAn=       5 diagonalized for initial guess.
 HarFok:  IExCor=  402 AccDes= 0.00D+00 IRadAn=         5 IDoV= 1 UseB2=F ITyADJ=14
 ICtDFT=  3500011 ScaDFX=  1.000000  1.000000  1.000000  1.000000
 FoFCou: FMM=F IPFlag=           0 FMFlag=      100000 FMFlg1=           0
         NFxFlg=           0 DoJE=T BraDBF=F KetDBF=T FulRan=T
         wScrn=  0.000000 ICntrl=       500 IOpCl=  0 I1Cent=   200000004 NGrid=           0
         NMat0=    1 NMatS0=      1 NMatT0=    0 NMatD0=    1 NMtDS0=    0 NMtDT0=    0
 Symmetry not used in FoFCou.
 Harris En= -1936.52944869669    
 JPrj=0 DoOrth=F DoCkMO=F.
 Initial guess <Sx>= 0.0000 <Sy>= 0.0000 <Sz>= 0.0000 <S**2>=-0.0000 S=-0.0000
 Leave Link  401 at Sat Feb 10 23:04:14 2024, MaxMem=  4026531840 cpu:              46.4 elap:               6.0
 (Enter /sysapps/ubuntu-applications/gaussian/Gaussian/AVX2/g16/l502.exe)
 Two-electron integral symmetry not used.
 UHF open shell SCF:
 Using DIIS extrapolation, IDIIS=  1040.
 NGot=  4026531840 LenX=  4025778608 LenY=  4025405898
 Requested convergence on RMS density matrix=1.00D-08 within 128 cycles.
 Requested convergence on MAX density matrix=1.00D-06.
 Requested convergence on             energy=1.00D-06.
 No special actions if energy rises.
 Fock matrices will be formed incrementally for  20 cycles.

 Cycle   1  Pass 1  IDiag  1:
 FoFJK:  IHMeth= 1 ICntrl=       0 DoSepK=F KAlg= 0 I1Cent=           0 FoldK=F
 IRaf= 790000000 NMat=       1 IRICut=       1 DoRegI=T DoRafI=F ISym2E= 0 IDoP0=0 IntGTp=1.
 FoFCou: FMM=F IPFlag=           0 FMFlag=      100000 FMFlg1=           0
         NFxFlg=           0 DoJE=F BraDBF=F KetDBF=F FulRan=T
         wScrn=  0.000000 ICntrl=         0 IOpCl=  1 I1Cent=           0 NGrid=           0
         NMat0=    1 NMatS0=      1 NMatT0=    0 NMatD0=    1 NMtDS0=    0 NMtDT0=    0
 Symmetry not used in FoFCou.
 Inv3:  Mode=1 IEnd=    21051603.
 Iteration    1 A*A^-1 deviation from unit magnitude is 3.22D-15 for    745.
 Iteration    1 A*A^-1 deviation from orthogonality  is 1.51D-15 for   2083   1917.
 Iteration    1 A^-1*A deviation from unit magnitude is 3.55D-15 for   1878.
 Iteration    1 A^-1*A deviation from orthogonality  is 1.47D-13 for   1524   1492.
 E= -1934.90360685212    
 DIIS: error= 7.53D-02 at cycle   1 NSaved=   1.
 NSaved= 1 IEnMin= 1 EnMin= -1934.90360685212     IErMin= 1 ErrMin= 7.53D-02
 ErrMax= 7.53D-02  0.00D+00 EMaxC= 1.00D-01 BMatC= 6.52D+00 BMatP= 6.52D+00
 IDIUse=3 WtCom= 2.47D-01 WtEn= 7.53D-01
 Coeff-Com:  0.100D+01
 Coeff-En:   0.100D+01
 Coeff:      0.100D+01
 Gap=     0.038 Goal=   None    Shift=    0.000
 Gap=     0.038 Goal=   None    Shift=    0.000
 GapD=    0.038 DampG=0.250 DampE=0.500 DampFc=0.2500 IDamp=-1.
 Damping current iteration by 2.50D-01
 RMSDP=6.04D-01 MaxDP=3.92D+01              OVMax= 9.94D-01

 Cycle   2  Pass 1  IDiag  1:
 RMSU=  1.13D-01    CP:  1.77D+00
 E= -1935.29172059876     Delta-E=       -0.388113746632 Rises=F Damp=T
 DIIS: error= 2.52D-02 at cycle   2 NSaved=   2.
 NSaved= 2 IEnMin= 2 EnMin= -1935.29172059876     IErMin= 2 ErrMin= 2.52D-02
 ErrMax= 2.52D-02  0.00D+00 EMaxC= 1.00D-01 BMatC= 9.38D-01 BMatP= 6.52D+00
 IDIUse=3 WtCom= 7.48D-01 WtEn= 2.52D-01
 Coeff-Com: -0.476D+00 0.148D+01
 Coeff-En:   0.000D+00 0.100D+01
 Coeff:     -0.356D+00 0.136D+01
 Gap=    -0.004 Goal=   None    Shift=    0.000
 Gap=    -0.004 Goal=   None    Shift=    0.000
 RMSDP=1.39D-01 MaxDP=8.90D+00 DE=-3.88D-01 OVMax= 9.09D-01

 Cycle   3  Pass 1  IDiag  1:
 RMSU=  2.26D-02    CP:  1.19D+00 -8.68D-03
 E= -1935.95329824484     Delta-E=       -0.661577646079 Rises=F Damp=F
 DIIS: error= 2.09D-02 at cycle   3 NSaved=   3.
 NSaved= 3 IEnMin= 3 EnMin= -1935.95329824484     IErMin= 3 ErrMin= 2.09D-02
 ErrMax= 2.09D-02  0.00D+00 EMaxC= 1.00D-01 BMatC= 4.93D-01 BMatP= 9.38D-01
 IDIUse=3 WtCom= 7.91D-01 WtEn= 2.09D-01
 Coeff-Com: -0.292D+00 0.874D+00 0.418D+00
 Coeff-En:   0.000D+00 0.000D+00 0.100D+01
 Coeff:     -0.231D+00 0.691D+00 0.540D+00
 Gap=     0.049 Goal=   None    Shift=    0.000
 Gap=     0.049 Goal=   None    Shift=    0.000
 RMSDP=8.73D-03 MaxDP=7.49D-01 DE=-6.62D-01 OVMax= 1.65D-01

 Cycle   4  Pass 1  IDiag  1:
 RMSU=  5.67D-03    CP:  1.14D+00 -1.70D-02  9.05D-01
 E= -1936.03221122693     Delta-E=       -0.078912982095 Rises=F Damp=F
 DIIS: error= 1.06D-02 at cycle   4 NSaved=   4.
 NSaved= 4 IEnMin= 4 EnMin= -1936.03221122693     IErMin= 4 ErrMin= 1.06D-02
 ErrMax= 1.06D-02  0.00D+00 EMaxC= 1.00D-01 BMatC= 1.67D-01 BMatP= 4.93D-01
 IDIUse=3 WtCom= 8.94D-01 WtEn= 1.06D-01
 Coeff-Com: -0.871D-01 0.202D+00 0.351D+00 0.534D+00
 Coeff-En:   0.000D+00 0.000D+00 0.267D+00 0.733D+00
 Coeff:     -0.779D-01 0.181D+00 0.342D+00 0.555D+00
 Gap=     0.058 Goal=   None    Shift=    0.000
 Gap=     0.058 Goal=   None    Shift=    0.000
 RMSDP=4.55D-03 MaxDP=3.79D-01 DE=-7.89D-02 OVMax= 6.18D-02

 Cycle   5  Pass 1  IDiag  1:
 RMSU=  2.22D-03    CP:  1.16D+00 -2.17D-02  1.03D+00  6.68D-01
 E= -1936.06482030689     Delta-E=       -0.032609079963 Rises=F Damp=F
 DIIS: error= 2.18D-03 at cycle   5 NSaved=   5.
 NSaved= 5 IEnMin= 5 EnMin= -1936.06482030689     IErMin= 5 ErrMin= 2.18D-03
 ErrMax= 2.18D-03  0.00D+00 EMaxC= 1.00D-01 BMatC= 6.23D-03 BMatP= 1.67D-01
 IDIUse=3 WtCom= 9.78D-01 WtEn= 2.18D-02
 Coeff-Com: -0.217D-01 0.374D-01 0.130D+00 0.283D+00 0.571D+00
 Coeff-En:   0.000D+00 0.000D+00 0.000D+00 0.000D+00 0.100D+01
 Coeff:     -0.212D-01 0.366D-01 0.127D+00 0.277D+00 0.581D+00
 Gap=     0.059 Goal=   None    Shift=    0.000
 Gap=     0.059 Goal=   None    Shift=    0.000
 RMSDP=2.41D-03 MaxDP=3.37D-01 DE=-3.26D-02 OVMax= 1.22D-02

 Cycle   6  Pass 1  IDiag  1:
 RMSU=  8.05D-04    CP:  1.14D+00 -2.25D-02  1.01D+00  7.42D-01  9.84D-01
 E= -1936.06591635270     Delta-E=       -0.001096045807 Rises=F Damp=F
 DIIS: error= 9.50D-04 at cycle   6 NSaved=   6.
 NSaved= 6 IEnMin= 6 EnMin= -1936.06591635270     IErMin= 6 ErrMin= 9.50D-04
 ErrMax= 9.50D-04  0.00D+00 EMaxC= 1.00D-01 BMatC= 1.13D-03 BMatP= 6.23D-03
 IDIUse=3 WtCom= 9.91D-01 WtEn= 9.50D-03
 Coeff-Com: -0.191D-02-0.596D-03 0.233D-01 0.778D-01 0.360D+00 0.542D+00
 Coeff-En:   0.000D+00 0.000D+00 0.000D+00 0.000D+00 0.152D+00 0.848D+00
 Coeff:     -0.189D-02-0.590D-03 0.231D-01 0.770D-01 0.358D+00 0.545D+00
 Gap=     0.059 Goal=   None    Shift=    0.000
 Gap=     0.059 Goal=   None    Shift=    0.000
 RMSDP=2.90D-04 MaxDP=1.21D-02 DE=-1.10D-03 OVMax= 4.51D-03

 Cycle   7  Pass 1  IDiag  1:
 RMSU=  2.18D-04    CP:  1.14D+00 -2.22D-02  1.01D+00  7.29D-01  1.00D+00
                    CP:  8.00D-01
 E= -1936.06614639192     Delta-E=       -0.000230039217 Rises=F Damp=F
 DIIS: error= 2.74D-04 at cycle   7 NSaved=   7.
 NSaved= 7 IEnMin= 7 EnMin= -1936.06614639192     IErMin= 7 ErrMin= 2.74D-04
 ErrMax= 2.74D-04  0.00D+00 EMaxC= 1.00D-01 BMatC= 1.11D-04 BMatP= 1.13D-03
 IDIUse=3 WtCom= 9.97D-01 WtEn= 2.74D-03
 Coeff-Com:  0.107D-02-0.308D-02 0.120D-02 0.155D-01 0.160D+00 0.318D+00
 Coeff-Com:  0.507D+00
 Coeff-En:   0.000D+00 0.000D+00 0.000D+00 0.000D+00 0.000D+00 0.888D-02
 Coeff-En:   0.991D+00
 Coeff:      0.107D-02-0.307D-02 0.120D-02 0.155D-01 0.160D+00 0.318D+00
 Coeff:      0.508D+00
 Gap=     0.059 Goal=   None    Shift=    0.000
 Gap=     0.059 Goal=   None    Shift=    0.000
 RMSDP=1.25D-04 MaxDP=1.46D-02 DE=-2.30D-04 OVMax= 1.73D-03

 Cycle   8  Pass 1  IDiag  1:
 RMSU=  5.94D-05    CP:  1.14D+00 -2.23D-02  1.01D+00  7.29D-01  1.00D+00
                    CP:  8.14D-01  8.34D-01
 E= -1936.06617262122     Delta-E=       -0.000026229303 Rises=F Damp=F
 DIIS: error= 5.58D-05 at cycle   8 NSaved=   8.
 NSaved= 8 IEnMin= 8 EnMin= -1936.06617262122     IErMin= 8 ErrMin= 5.58D-05
 ErrMax= 5.58D-05  0.00D+00 EMaxC= 1.00D-01 BMatC= 7.79D-06 BMatP= 1.11D-04
 IDIUse=1 WtCom= 1.00D+00 WtEn= 0.00D+00
 Coeff-Com:  0.805D-03-0.133D-02-0.103D-02 0.711D-03 0.519D-01 0.111D+00
 Coeff-Com:  0.249D+00 0.588D+00
 Coeff:      0.805D-03-0.133D-02-0.103D-02 0.711D-03 0.519D-01 0.111D+00
 Coeff:      0.249D+00 0.588D+00
 Gap=     0.059 Goal=   None    Shift=    0.000
 Gap=     0.059 Goal=   None    Shift=    0.000
 RMSDP=3.72D-05 MaxDP=4.35D-03 DE=-2.62D-05 OVMax= 7.95D-04

 Cycle   9  Pass 1  IDiag  1:
 RMSU=  1.75D-05    CP:  1.14D+00 -2.23D-02  1.01D+00  7.26D-01  1.01D+00
                    CP:  7.95D-01  8.74D-01  8.42D-01
 E= -1936.06617415909     Delta-E=       -0.000001537867 Rises=F Damp=F
 DIIS: error= 3.35D-05 at cycle   9 NSaved=   9.
 NSaved= 9 IEnMin= 9 EnMin= -1936.06617415909     IErMin= 9 ErrMin= 3.35D-05
 ErrMax= 3.35D-05  0.00D+00 EMaxC= 1.00D-01 BMatC= 1.40D-06 BMatP= 7.79D-06
 IDIUse=1 WtCom= 1.00D+00 WtEn= 0.00D+00
 Coeff-Com:  0.438D-03-0.634D-03-0.621D-03-0.841D-03 0.166D-01 0.358D-01
 Coeff-Com:  0.863D-01 0.345D+00 0.517D+00
 Coeff:      0.438D-03-0.634D-03-0.621D-03-0.841D-03 0.166D-01 0.358D-01
 Coeff:      0.863D-01 0.345D+00 0.517D+00
 Gap=     0.059 Goal=   None    Shift=    0.000
 Gap=     0.059 Goal=   None    Shift=    0.000
 RMSDP=2.24D-05 MaxDP=2.88D-03 DE=-1.54D-06 OVMax= 4.89D-04

 Cycle  10  Pass 1  IDiag  1:
 RMSU=  1.02D-05    CP:  1.14D+00 -2.23D-02  1.01D+00  7.26D-01  1.01D+00
                    CP:  7.98D-01  8.70D-01  9.23D-01  6.74D-01
 E= -1936.06617443412     Delta-E=       -0.000000275033 Rises=F Damp=F
 DIIS: error= 2.07D-05 at cycle  10 NSaved=  10.
 NSaved=10 IEnMin=10 EnMin= -1936.06617443412     IErMin=10 ErrMin= 2.07D-05
 ErrMax= 2.07D-05  0.00D+00 EMaxC= 1.00D-01 BMatC= 2.69D-07 BMatP= 1.40D-06
 IDIUse=1 WtCom= 1.00D+00 WtEn= 0.00D+00
 Coeff-Com:  0.223D-03-0.322D-03-0.279D-03-0.577D-03 0.572D-02 0.121D-01
 Coeff-Com:  0.266D-01 0.169D+00 0.347D+00 0.440D+00
 Coeff:      0.223D-03-0.322D-03-0.279D-03-0.577D-03 0.572D-02 0.121D-01
 Coeff:      0.266D-01 0.169D+00 0.347D+00 0.440D+00
 Gap=     0.059 Goal=   None    Shift=    0.000
 Gap=     0.059 Goal=   None    Shift=    0.000
 RMSDP=6.87D-06 MaxDP=1.01D-03 DE=-2.75D-07 OVMax= 2.44D-04

 Cycle  11  Pass 1  IDiag  1:
 RMSU=  4.02D-06    CP:  1.14D+00 -2.23D-02  1.01D+00  7.26D-01  1.01D+00
                    CP:  7.99D-01  8.76D-01  9.20D-01  8.43D-01  7.31D-01
 E= -1936.06617449285     Delta-E=       -0.000000058729 Rises=F Damp=F
 DIIS: error= 7.13D-06 at cycle  11 NSaved=  11.
 NSaved=11 IEnMin=11 EnMin= -1936.06617449285     IErMin=11 ErrMin= 7.13D-06
 ErrMax= 7.13D-06  0.00D+00 EMaxC= 1.00D-01 BMatC= 3.44D-08 BMatP= 2.69D-07
 IDIUse=1 WtCom= 1.00D+00 WtEn= 0.00D+00
 Coeff-Com:  0.173D-04-0.201D-04 0.228D-04-0.110D-03-0.107D-02-0.229D-02
 Coeff-Com: -0.991D-02 0.163D-01 0.777D-01 0.277D+00 0.642D+00
 Coeff:      0.173D-04-0.201D-04 0.228D-04-0.110D-03-0.107D-02-0.229D-02
 Coeff:     -0.991D-02 0.163D-01 0.777D-01 0.277D+00 0.642D+00
 Gap=     0.059 Goal=   None    Shift=    0.000
 Gap=     0.059 Goal=   None    Shift=    0.000
 RMSDP=2.54D-06 MaxDP=4.05D-04 DE=-5.87D-08 OVMax= 9.12D-05

 Cycle  12  Pass 1  IDiag  1:
 RMSU=  9.34D-07    CP:  1.14D+00 -2.23D-02  1.01D+00  7.26D-01  1.01D+00
                    CP:  7.98D-01  8.77D-01  9.33D-01  8.12D-01  8.69D-01
                    CP:  9.08D-01
 E= -1936.06617450153     Delta-E=       -0.000000008676 Rises=F Damp=F
 DIIS: error= 1.37D-06 at cycle  12 NSaved=  12.
 NSaved=12 IEnMin=12 EnMin= -1936.06617450153     IErMin=12 ErrMin= 1.37D-06
 ErrMax= 1.37D-06  0.00D+00 EMaxC= 1.00D-01 BMatC= 3.71D-09 BMatP= 3.44D-08
 IDIUse=1 WtCom= 1.00D+00 WtEn= 0.00D+00
 Coeff-Com: -0.403D-05 0.778D-05 0.230D-04-0.244D-04-0.811D-03-0.153D-02
 Coeff-Com: -0.636D-02 0.122D-02 0.163D-01 0.103D+00 0.346D+00 0.542D+00
 Coeff:     -0.403D-05 0.778D-05 0.230D-04-0.244D-04-0.811D-03-0.153D-02
 Coeff:     -0.636D-02 0.122D-02 0.163D-01 0.103D+00 0.346D+00 0.542D+00
 Gap=     0.059 Goal=   None    Shift=    0.000
 Gap=     0.059 Goal=   None    Shift=    0.000
 RMSDP=8.21D-07 MaxDP=1.18D-04 DE=-8.68D-09 OVMax= 2.03D-05

 Cycle  13  Pass 1  IDiag  1:
 RMSU=  3.85D-07    CP:  1.14D+00 -2.23D-02  1.01D+00  7.26D-01  1.01D+00
                    CP:  7.98D-01  8.77D-01  9.35D-01  8.28D-01  8.87D-01
                    CP:  1.00D+00  1.01D+00
 E= -1936.06617450238     Delta-E=       -0.000000000850 Rises=F Damp=F
 DIIS: error= 7.55D-07 at cycle  13 NSaved=  13.
 NSaved=13 IEnMin=13 EnMin= -1936.06617450238     IErMin=13 ErrMin= 7.55D-07
 ErrMax= 7.55D-07  0.00D+00 EMaxC= 1.00D-01 BMatC= 6.80D-10 BMatP= 3.71D-09
 IDIUse=1 WtCom= 1.00D+00 WtEn= 0.00D+00
 Coeff-Com: -0.340D-05 0.203D-05 0.640D-05 0.582D-05-0.272D-03-0.394D-03
 Coeff-Com: -0.206D-02-0.150D-02-0.615D-02 0.437D-02 0.928D-01 0.332D+00
 Coeff-Com:  0.582D+00
 Coeff:     -0.340D-05 0.203D-05 0.640D-05 0.582D-05-0.272D-03-0.394D-03
 Coeff:     -0.206D-02-0.150D-02-0.615D-02 0.437D-02 0.928D-01 0.332D+00
 Coeff:      0.582D+00
 Gap=     0.059 Goal=   None    Shift=    0.000
 Gap=     0.059 Goal=   None    Shift=    0.000
 RMSDP=4.10D-07 MaxDP=4.30D-05 DE=-8.50D-10 OVMax= 8.05D-06

 Cycle  14  Pass 1  IDiag  1:
 RMSU=  1.66D-07    CP:  1.14D+00 -2.23D-02  1.01D+00  7.26D-01  1.01D+00
                    CP:  7.98D-01  8.77D-01  9.34D-01  8.26D-01  8.86D-01
                    CP:  1.00D+00  1.06D+00  6.08D-01
 E= -1936.06617450258     Delta-E=       -0.000000000204 Rises=F Damp=F
 DIIS: error= 1.69D-07 at cycle  14 NSaved=  14.
 NSaved=14 IEnMin=14 EnMin= -1936.06617450258     IErMin=14 ErrMin= 1.69D-07
 ErrMax= 1.69D-07  0.00D+00 EMaxC= 1.00D-01 BMatC= 6.49D-11 BMatP= 6.80D-10
 IDIUse=1 WtCom= 1.00D+00 WtEn= 0.00D+00
 Coeff-Com: -0.216D-05 0.278D-05 0.129D-05 0.189D-05-0.762D-04-0.490D-04
 Coeff-Com: -0.445D-03-0.803D-03-0.588D-02-0.128D-01 0.938D-02 0.120D+00
 Coeff-Com:  0.293D+00 0.598D+00
 Coeff:     -0.216D-05 0.278D-05 0.129D-05 0.189D-05-0.762D-04-0.490D-04
 Coeff:     -0.445D-03-0.803D-03-0.588D-02-0.128D-01 0.938D-02 0.120D+00
 Coeff:      0.293D+00 0.598D+00
 Gap=     0.059 Goal=   None    Shift=    0.000
 Gap=     0.059 Goal=   None    Shift=    0.000
 RMSDP=1.42D-07 MaxDP=1.63D-05 DE=-2.04D-10 OVMax= 4.66D-06

 Cycle  15  Pass 1  IDiag  1:
 RMSU=  5.64D-08    CP:  1.14D+00 -2.23D-02  1.01D+00  7.26D-01  1.01D+00
                    CP:  7.99D-01  8.77D-01  9.34D-01  8.28D-01  8.88D-01
                    CP:  1.01D+00  1.06D+00  6.92D-01  9.21D-01
 E= -1936.06617450257     Delta-E=        0.000000000008 Rises=F Damp=F
 DIIS: error= 7.62D-08 at cycle  15 NSaved=  15.
 NSaved=15 IEnMin=14 EnMin= -1936.06617450258     IErMin=15 ErrMin= 7.62D-08
 ErrMax= 7.62D-08  0.00D+00 EMaxC= 1.00D-01 BMatC= 1.15D-11 BMatP= 6.49D-11
 IDIUse=1 WtCom= 1.00D+00 WtEn= 0.00D+00
 Coeff-Com: -0.327D-06 0.906D-06 0.377D-07-0.873D-06 0.325D-05 0.370D-04
 Coeff-Com:  0.766D-04-0.371D-04-0.158D-02-0.704D-02-0.985D-02-0.178D-02
 Coeff-Com:  0.135D-01 0.315D+00 0.692D+00
 Coeff:     -0.327D-06 0.906D-06 0.377D-07-0.873D-06 0.325D-05 0.370D-04
 Coeff:      0.766D-04-0.371D-04-0.158D-02-0.704D-02-0.985D-02-0.178D-02
 Coeff:      0.135D-01 0.315D+00 0.692D+00
 Gap=     0.059 Goal=   None    Shift=    0.000
 Gap=     0.059 Goal=   None    Shift=    0.000
 RMSDP=5.14D-08 MaxDP=2.83D-06 DE= 7.73D-12 OVMax= 2.15D-06

 Cycle  16  Pass 1  IDiag  1:
 RMSU=  1.84D-08    CP:  1.14D+00 -2.23D-02  1.01D+00  7.26D-01  1.01D+00
                    CP:  7.99D-01  8.77D-01  9.34D-01  8.27D-01  8.86D-01
                    CP:  1.01D+00  1.07D+00  6.57D-01  1.02D+00  1.04D+00
 E= -1936.06617450260     Delta-E=       -0.000000000025 Rises=F Damp=F
 DIIS: error= 2.60D-08 at cycle  16 NSaved=  16.
 NSaved=16 IEnMin=16 EnMin= -1936.06617450260     IErMin=16 ErrMin= 2.60D-08
 ErrMax= 2.60D-08  0.00D+00 EMaxC= 1.00D-01 BMatC= 1.22D-12 BMatP= 1.15D-11
 IDIUse=1 WtCom= 1.00D+00 WtEn= 0.00D+00
 Coeff-Com:  0.142D-06-0.681D-07-0.364D-07-0.486D-06 0.929D-05 0.273D-04
 Coeff-Com:  0.730D-04 0.555D-04-0.354D-03-0.295D-02-0.598D-02-0.118D-01
 Coeff-Com: -0.208D-01 0.133D+00 0.377D+00 0.532D+00
 Coeff:      0.142D-06-0.681D-07-0.364D-07-0.486D-06 0.929D-05 0.273D-04
 Coeff:      0.730D-04 0.555D-04-0.354D-03-0.295D-02-0.598D-02-0.118D-01
 Coeff:     -0.208D-01 0.133D+00 0.377D+00 0.532D+00
 Gap=     0.059 Goal=   None    Shift=    0.000
 Gap=     0.059 Goal=   None    Shift=    0.000
 RMSDP=2.75D-08 MaxDP=1.90D-06 DE=-2.46D-11 OVMax= 5.21D-07

 Cycle  17  Pass 1  IDiag  1:
 RMSU=  8.66D-09    CP:  1.14D+00 -2.23D-02  1.01D+00  7.26D-01  1.01D+00
                    CP:  7.99D-01  8.77D-01  9.34D-01  8.28D-01  8.86D-01
                    CP:  1.01D+00  1.07D+00  6.80D-01  1.02D+00  1.08D+00
                    CP:  8.54D-01
 E= -1936.06617450253     Delta-E=        0.000000000069 Rises=F Damp=F
 DIIS: error= 1.12D-08 at cycle  17 NSaved=  17.
 NSaved=17 IEnMin=16 EnMin= -1936.06617450260     IErMin=17 ErrMin= 1.12D-08
 ErrMax= 1.12D-08  0.00D+00 EMaxC= 1.00D-01 BMatC= 2.56D-13 BMatP= 1.22D-12
 IDIUse=1 WtCom= 1.00D+00 WtEn= 0.00D+00
 Coeff-Com:  0.146D-06-0.198D-06 0.746D-07-0.121D-07 0.441D-05 0.842D-05
 Coeff-Com:  0.198D-04 0.367D-04 0.127D-03-0.197D-03-0.792D-03-0.578D-02
 Coeff-Com: -0.147D-01 0.583D-02 0.480D-01 0.334D+00 0.633D+00
 Coeff:      0.146D-06-0.198D-06 0.746D-07-0.121D-07 0.441D-05 0.842D-05
 Coeff:      0.198D-04 0.367D-04 0.127D-03-0.197D-03-0.792D-03-0.578D-02
 Coeff:     -0.147D-01 0.583D-02 0.480D-01 0.334D+00 0.633D+00
 Gap=     0.059 Goal=   None    Shift=    0.000
 Gap=     0.059 Goal=   None    Shift=    0.000
 RMSDP=1.55D-08 MaxDP=1.66D-06 DE= 6.87D-11 OVMax= 3.06D-07

 Cycle  18  Pass 1  IDiag  1:
 RMSU=  2.63D-09    CP:  1.14D+00 -2.23D-02  1.01D+00  7.26D-01  1.01D+00
                    CP:  7.99D-01  8.77D-01  9.34D-01  8.28D-01  8.86D-01
                    CP:  1.01D+00  1.07D+00  6.70D-01  1.05D+00  1.10D+00
                    CP:  9.59D-01  9.11D-01
 E= -1936.06617450258     Delta-E=       -0.000000000055 Rises=F Damp=F
 DIIS: error= 3.75D-09 at cycle  18 NSaved=  18.
 NSaved=18 IEnMin=16 EnMin= -1936.06617450260     IErMin=18 ErrMin= 3.75D-09
 ErrMax= 3.75D-09  0.00D+00 EMaxC= 1.00D-01 BMatC= 3.20D-14 BMatP= 2.56D-13
 IDIUse=1 WtCom= 1.00D+00 WtEn= 0.00D+00
 Coeff-Com:  0.595D-07-0.697D-07 0.999D-07 0.771D-07 0.152D-05 0.214D-05
 Coeff-Com:  0.447D-05 0.128D-04 0.991D-04 0.985D-04 0.711D-04-0.248D-02
 Coeff-Com: -0.657D-02-0.895D-02-0.723D-02 0.143D+00 0.350D+00 0.532D+00
 Coeff:      0.595D-07-0.697D-07 0.999D-07 0.771D-07 0.152D-05 0.214D-05
 Coeff:      0.447D-05 0.128D-04 0.991D-04 0.985D-04 0.711D-04-0.248D-02
 Coeff:     -0.657D-02-0.895D-02-0.723D-02 0.143D+00 0.350D+00 0.532D+00
 Gap=     0.059 Goal=   None    Shift=    0.000
 Gap=     0.059 Goal=   None    Shift=    0.000
 RMSDP=2.30D-09 MaxDP=2.68D-07 DE=-5.50D-11 OVMax= 6.83D-08

 Error on total polarization charges =  0.03311
 SCF Done:  E(UB3LYP) =  -1936.06617450     A.U. after   18 cycles
            NFock= 18  Conv=0.23D-08     -V/T= 2.0028
 <Sx>= 0.0000 <Sy>= 0.0000 <Sz>= 0.0000 <S**2>=-0.0000 S=-0.0000
 <L.S>=  0.00000000000    
 KE= 1.930687371203D+03 PE=-9.381391717710D+03 EE= 3.153185150939D+03
 Annihilation of the first spin contaminant:
 S**2 before annihilation    -0.0000,   after    -0.0000
 Leave Link  502 at Sat Feb 10 23:14:54 2024, MaxMem=  4026531840 cpu:            5055.8 elap:             640.5
 (Enter /sysapps/ubuntu-applications/gaussian/Gaussian/AVX2/g16/l601.exe)
 Copying SCF densities to generalized density rwf, IOpCl= 1 IROHF=0.

 **********************************************************************

            Population analysis using the SCF density.

 **********************************************************************

 Alpha  occ. eigenvalues --  -89.01988 -89.01975 -19.06565 -19.06549 -19.06545
 Alpha  occ. eigenvalues --  -19.06529 -19.06207 -19.06200 -19.00553 -19.00546
 Alpha  occ. eigenvalues --  -10.17060 -10.17059 -10.16894 -10.16890 -10.14238
 Alpha  occ. eigenvalues --  -10.14230 -10.14114 -10.14112 -10.13984 -10.13983
 Alpha  occ. eigenvalues --  -10.13729 -10.13728 -10.12892 -10.12889  -8.07826
 Alpha  occ. eigenvalues --   -8.07814  -6.04108  -6.04100  -6.04096  -6.04088
 Alpha  occ. eigenvalues --   -6.03984  -6.03972  -1.07932  -1.07918  -0.94937
 Alpha  occ. eigenvalues --   -0.94828  -0.94810  -0.94680  -0.93867  -0.93850
 Alpha  occ. eigenvalues --   -0.82397  -0.81949  -0.74181  -0.72400  -0.72327
 Alpha  occ. eigenvalues --   -0.70304  -0.62180  -0.61630  -0.59417  -0.58007
 Alpha  occ. eigenvalues --   -0.56980  -0.52763  -0.50480  -0.50006  -0.48722
 Alpha  occ. eigenvalues --   -0.45140  -0.44456  -0.43693  -0.42931  -0.42824
 Alpha  occ. eigenvalues --   -0.42713  -0.42684  -0.42258  -0.41375  -0.41172
 Alpha  occ. eigenvalues --   -0.37589  -0.37196  -0.36805  -0.36138  -0.34170
 Alpha  occ. eigenvalues --   -0.33955  -0.33841  -0.32565  -0.32232  -0.31296
 Alpha  occ. eigenvalues --   -0.31043  -0.30996  -0.30522  -0.30270  -0.30158
 Alpha  occ. eigenvalues --   -0.28045  -0.27541  -0.26753  -0.26466  -0.26053
 Alpha  occ. eigenvalues --   -0.25841  -0.23176  -0.22976  -0.22616  -0.21984
 Alpha  occ. eigenvalues --   -0.21560  -0.21408  -0.18637  -0.18013  -0.08466
 Alpha virt. eigenvalues --   -0.02586   0.00699   0.01073   0.01276   0.01385
 Alpha virt. eigenvalues --    0.02261   0.03033   0.03267   0.04687   0.04815
 Alpha virt. eigenvalues --    0.05071   0.05485   0.05677   0.06351   0.06938
 Alpha virt. eigenvalues --    0.07437   0.07912   0.07989   0.08379   0.09058
 Alpha virt. eigenvalues --    0.09704   0.09935   0.10172   0.10302   0.10875
 Alpha virt. eigenvalues --    0.10911   0.11678   0.11761   0.12166   0.12210
 Alpha virt. eigenvalues --    0.12718   0.12883   0.13435   0.13508   0.13856
 Alpha virt. eigenvalues --    0.13928   0.14324   0.14332   0.14628   0.14842
 Alpha virt. eigenvalues --    0.15256   0.15425   0.15546   0.16128   0.16532
 Alpha virt. eigenvalues --    0.17445   0.17734   0.18138   0.18412   0.18859
 Alpha virt. eigenvalues --    0.19009   0.19222   0.19305   0.19979   0.20674
 Alpha virt. eigenvalues --    0.21137   0.21601   0.21676   0.22026   0.23026
 Alpha virt. eigenvalues --    0.23193   0.23535   0.24522   0.24542   0.24985
 Alpha virt. eigenvalues --    0.25418   0.25800   0.25860   0.26225   0.26285
 Alpha virt. eigenvalues --    0.26949   0.27443   0.27537   0.27961   0.28512
 Alpha virt. eigenvalues --    0.28819   0.29227   0.29322   0.29345   0.29590
 Alpha virt. eigenvalues --    0.29628   0.29831   0.30821   0.30849   0.31219
 Alpha virt. eigenvalues --    0.31666   0.31891   0.31992   0.32287   0.32303
 Alpha virt. eigenvalues --    0.33069   0.33368   0.33615   0.33854   0.33881
 Alpha virt. eigenvalues --    0.33970   0.34403   0.34846   0.35144   0.35461
 Alpha virt. eigenvalues --    0.35678   0.36028   0.36524   0.36718   0.37154
 Alpha virt. eigenvalues --    0.37554   0.37638   0.38376   0.38981   0.39370
 Alpha virt. eigenvalues --    0.39691   0.40827   0.40990   0.41360   0.41704
 Alpha virt. eigenvalues --    0.42231   0.42922   0.43612   0.43930   0.44948
 Alpha virt. eigenvalues --    0.45373   0.46302   0.46513   0.46983   0.48036
 Alpha virt. eigenvalues --    0.49003   0.49249   0.49709   0.50938   0.52552
 Alpha virt. eigenvalues --    0.53832   0.54808   0.54993   0.55352   0.55438
 Alpha virt. eigenvalues --    0.56777   0.58055   0.58601   0.58891   0.60509
 Alpha virt. eigenvalues --    0.61256   0.61644   0.62427   0.62710   0.63372
 Alpha virt. eigenvalues --    0.64064   0.64702   0.64990   0.65267   0.65833
 Alpha virt. eigenvalues --    0.66015   0.67053   0.67832   0.68458   0.69173
 Alpha virt. eigenvalues --    0.70370   0.71032   0.71155   0.72621   0.73017
 Alpha virt. eigenvalues --    0.73415   0.74709   0.75380   0.76589   0.78504
 Alpha virt. eigenvalues --    0.79179   0.79879   0.80008   0.81616   0.81713
 Alpha virt. eigenvalues --    0.83031   0.83114   0.86302   0.86760   0.87144
 Alpha virt. eigenvalues --    0.88528   0.88881   0.89902   0.90625   0.90822
 Alpha virt. eigenvalues --    0.91936   0.92305   0.94150   0.94435   0.96325
 Alpha virt. eigenvalues --    0.97029   0.97204   0.97840   0.97991   0.98785
 Alpha virt. eigenvalues --    0.98872   1.00061   1.00610   1.01198   1.02169
 Alpha virt. eigenvalues --    1.02254   1.02854   1.03736   1.04406   1.05238
 Alpha virt. eigenvalues --    1.05940   1.06702   1.08253   1.08490   1.09759
 Alpha virt. eigenvalues --    1.09816   1.09956   1.10729   1.12217   1.13667
 Alpha virt. eigenvalues --    1.14013   1.14652   1.14759   1.15973   1.17619
 Alpha virt. eigenvalues --    1.17787   1.18003   1.19150   1.19188   1.19499
 Alpha virt. eigenvalues --    1.20655   1.21992   1.22238   1.22687   1.22994
 Alpha virt. eigenvalues --    1.23013   1.23817   1.24069   1.24161   1.26181
 Alpha virt. eigenvalues --    1.26606   1.27430   1.27811   1.27858   1.28115
 Alpha virt. eigenvalues --    1.28435   1.28924   1.30048   1.31201   1.31792
 Alpha virt. eigenvalues --    1.32563   1.34281   1.34668   1.37003   1.38217
 Alpha virt. eigenvalues --    1.40794   1.43623   1.45264   1.45798   1.50107
 Alpha virt. eigenvalues --    1.52442   1.53406   1.53991   1.54012   1.55520
 Alpha virt. eigenvalues --    1.57432   1.57610   1.58036   1.59019   1.59770
 Alpha virt. eigenvalues --    1.61036   1.61926   1.61975   1.64830   1.66124
 Alpha virt. eigenvalues --    1.66301   1.66963   1.68025   1.69127   1.71415
 Alpha virt. eigenvalues --    1.72177   1.75283   1.75909   1.75970   1.76973
 Alpha virt. eigenvalues --    1.77359   1.78688   1.79517   1.82888   1.83833
 Alpha virt. eigenvalues --    1.86660   1.87570   1.87833   1.89141   1.89722
 Alpha virt. eigenvalues --    1.89802   1.89836   1.93009   1.93942   1.94513
 Alpha virt. eigenvalues --    1.95025   1.95872   1.96707   1.97106   1.97469
 Alpha virt. eigenvalues --    2.00774   2.00918   2.01436   2.02075   2.03595
 Alpha virt. eigenvalues --    2.05141   2.05610   2.06387   2.07008   2.07028
 Alpha virt. eigenvalues --    2.12180   2.12403   2.13888   2.14305   2.15493
 Alpha virt. eigenvalues --    2.17507   2.19545   2.22994   2.24426   2.27391
 Alpha virt. eigenvalues --    2.30348   2.32750   2.35924   2.37962   2.40024
 Alpha virt. eigenvalues --    2.40615   2.42135   2.46282   2.49004   2.49606
 Alpha virt. eigenvalues --    2.53441   2.55527   2.59324   2.63420   2.65664
 Alpha virt. eigenvalues --    2.68401   2.69856   2.74584   2.74796   2.75166
 Alpha virt. eigenvalues --    2.76349   2.76745   2.78377   2.78414   2.80502
 Alpha virt. eigenvalues --    2.80885   2.81156   2.81200   2.82024   2.82167
 Alpha virt. eigenvalues --    2.82503   2.82922   2.83608   2.85391   2.86034
 Alpha virt. eigenvalues --    2.86052   2.86574   2.86882   2.87031   2.88535
 Alpha virt. eigenvalues --    2.88868   2.89970   2.90538   2.90646   2.91095
 Alpha virt. eigenvalues --    2.92761   2.93020   2.93474   2.94309   2.95280
 Alpha virt. eigenvalues --    2.95461   2.95753   2.98139   2.99012   2.99678
 Alpha virt. eigenvalues --    2.99778   3.01776   3.02553   3.03167   3.05250
 Alpha virt. eigenvalues --    3.07766   3.08880   3.09524   3.13860   3.14361
 Alpha virt. eigenvalues --    3.16569   3.17372   3.18087   3.18525   3.19159
 Alpha virt. eigenvalues --    3.20475   3.23937   3.25749   3.26295   3.27093
 Alpha virt. eigenvalues --    3.28326   3.33557   3.34903   3.39169   3.41380
 Alpha virt. eigenvalues --    3.41809   3.43693   3.44187   3.45491   3.47147
 Alpha virt. eigenvalues --    3.48750   3.56437   3.57817   3.58887   3.61036
 Alpha virt. eigenvalues --    3.61247   3.61863   3.61962   3.62712   3.63706
 Alpha virt. eigenvalues --    3.65413   3.72542   3.77790   3.81741   3.89402
 Alpha virt. eigenvalues --    3.94564   4.01734   4.08322   4.09659   4.20223
 Alpha virt. eigenvalues --    4.20659   4.32397   4.34276   4.53445   4.81721
 Alpha virt. eigenvalues --    4.86438   4.87910   5.04937   5.05078   5.07937
 Alpha virt. eigenvalues --    5.08329   5.09279   5.09582   5.09714   5.10047
 Alpha virt. eigenvalues --    5.13675   5.14509   5.16928   5.17185   5.17382
 Alpha virt. eigenvalues --    5.18091   5.18325   5.19337   5.30109   5.30283
 Alpha virt. eigenvalues --    5.33393   5.33860   5.39636   5.41266   5.84117
 Alpha virt. eigenvalues --    5.91880   8.22407   8.23237  17.43833  17.44021
 Alpha virt. eigenvalues --   17.45441  17.45517  17.53494  17.53730  23.57128
 Alpha virt. eigenvalues --   23.67574  23.92895  23.94420  23.95951  23.96272
 Alpha virt. eigenvalues --   23.97362  24.01977  24.03668  24.05662  24.11857
 Alpha virt. eigenvalues --   24.12122  24.21404  24.21474  49.91720  49.91972
 Alpha virt. eigenvalues --   49.94509  49.94693  50.00580  50.00600  50.14162
 Alpha virt. eigenvalues --   50.18978 189.31544 189.32342
  Beta  occ. eigenvalues --  -89.01988 -89.01975 -19.06565 -19.06549 -19.06545
  Beta  occ. eigenvalues --  -19.06529 -19.06207 -19.06200 -19.00553 -19.00546
  Beta  occ. eigenvalues --  -10.17060 -10.17059 -10.16894 -10.16890 -10.14238
  Beta  occ. eigenvalues --  -10.14230 -10.14114 -10.14112 -10.13984 -10.13983
  Beta  occ. eigenvalues --  -10.13729 -10.13728 -10.12892 -10.12889  -8.07826
  Beta  occ. eigenvalues --   -8.07814  -6.04108  -6.04100  -6.04096  -6.04088
  Beta  occ. eigenvalues --   -6.03984  -6.03972  -1.07932  -1.07918  -0.94937
  Beta  occ. eigenvalues --   -0.94828  -0.94810  -0.94680  -0.93867  -0.93850
  Beta  occ. eigenvalues --   -0.82397  -0.81949  -0.74181  -0.72400  -0.72327
  Beta  occ. eigenvalues --   -0.70304  -0.62180  -0.61630  -0.59417  -0.58007
  Beta  occ. eigenvalues --   -0.56980  -0.52763  -0.50480  -0.50006  -0.48722
  Beta  occ. eigenvalues --   -0.45140  -0.44456  -0.43693  -0.42931  -0.42824
  Beta  occ. eigenvalues --   -0.42713  -0.42684  -0.42258  -0.41375  -0.41172
  Beta  occ. eigenvalues --   -0.37589  -0.37196  -0.36805  -0.36138  -0.34170
  Beta  occ. eigenvalues --   -0.33955  -0.33841  -0.32565  -0.32232  -0.31296
  Beta  occ. eigenvalues --   -0.31043  -0.30996  -0.30522  -0.30270  -0.30158
  Beta  occ. eigenvalues --   -0.28045  -0.27541  -0.26753  -0.26466  -0.26053
  Beta  occ. eigenvalues --   -0.25841  -0.23176  -0.22976  -0.22616  -0.21984
  Beta  occ. eigenvalues --   -0.21560  -0.21408  -0.18637  -0.18013  -0.08466
  Beta virt. eigenvalues --   -0.02586   0.00699   0.01073   0.01276   0.01385
  Beta virt. eigenvalues --    0.02261   0.03033   0.03267   0.04687   0.04815
  Beta virt. eigenvalues --    0.05071   0.05485   0.05677   0.06351   0.06938
  Beta virt. eigenvalues --    0.07437   0.07912   0.07989   0.08379   0.09058
  Beta virt. eigenvalues --    0.09704   0.09935   0.10172   0.10302   0.10875
  Beta virt. eigenvalues --    0.10911   0.11678   0.11761   0.12166   0.12210
  Beta virt. eigenvalues --    0.12718   0.12883   0.13435   0.13508   0.13856
  Beta virt. eigenvalues --    0.13928   0.14324   0.14332   0.14628   0.14842
  Beta virt. eigenvalues --    0.15256   0.15425   0.15546   0.16128   0.16532
  Beta virt. eigenvalues --    0.17445   0.17734   0.18138   0.18412   0.18859
  Beta virt. eigenvalues --    0.19009   0.19222   0.19305   0.19979   0.20674
  Beta virt. eigenvalues --    0.21137   0.21601   0.21676   0.22026   0.23026
  Beta virt. eigenvalues --    0.23193   0.23535   0.24522   0.24542   0.24985
  Beta virt. eigenvalues --    0.25418   0.25800   0.25860   0.26225   0.26285
  Beta virt. eigenvalues --    0.26949   0.27443   0.27537   0.27961   0.28512
  Beta virt. eigenvalues --    0.28819   0.29227   0.29322   0.29345   0.29590
  Beta virt. eigenvalues --    0.29628   0.29831   0.30821   0.30849   0.31219
  Beta virt. eigenvalues --    0.31666   0.31891   0.31992   0.32287   0.32303
  Beta virt. eigenvalues --    0.33069   0.33368   0.33615   0.33854   0.33881
  Beta virt. eigenvalues --    0.33970   0.34403   0.34846   0.35144   0.35461
  Beta virt. eigenvalues --    0.35678   0.36028   0.36524   0.36718   0.37154
  Beta virt. eigenvalues --    0.37554   0.37638   0.38376   0.38981   0.39370
  Beta virt. eigenvalues --    0.39691   0.40827   0.40990   0.41360   0.41704
  Beta virt. eigenvalues --    0.42231   0.42922   0.43612   0.43930   0.44948
  Beta virt. eigenvalues --    0.45373   0.46302   0.46513   0.46983   0.48036
  Beta virt. eigenvalues --    0.49003   0.49249   0.49709   0.50938   0.52552
  Beta virt. eigenvalues --    0.53832   0.54808   0.54993   0.55352   0.55438
  Beta virt. eigenvalues --    0.56777   0.58055   0.58601   0.58891   0.60509
  Beta virt. eigenvalues --    0.61256   0.61644   0.62427   0.62710   0.63372
  Beta virt. eigenvalues --    0.64064   0.64702   0.64990   0.65267   0.65833
  Beta virt. eigenvalues --    0.66015   0.67053   0.67832   0.68458   0.69173
  Beta virt. eigenvalues --    0.70370   0.71032   0.71155   0.72621   0.73017
  Beta virt. eigenvalues --    0.73415   0.74709   0.75380   0.76589   0.78504
  Beta virt. eigenvalues --    0.79179   0.79879   0.80008   0.81616   0.81713
  Beta virt. eigenvalues --    0.83031   0.83114   0.86302   0.86760   0.87144
  Beta virt. eigenvalues --    0.88528   0.88881   0.89902   0.90625   0.90822
  Beta virt. eigenvalues --    0.91936   0.92305   0.94150   0.94435   0.96325
  Beta virt. eigenvalues --    0.97029   0.97204   0.97840   0.97991   0.98785
  Beta virt. eigenvalues --    0.98872   1.00061   1.00610   1.01198   1.02169
  Beta virt. eigenvalues --    1.02254   1.02854   1.03736   1.04406   1.05238
  Beta virt. eigenvalues --    1.05940   1.06702   1.08253   1.08490   1.09759
  Beta virt. eigenvalues --    1.09816   1.09956   1.10729   1.12217   1.13667
  Beta virt. eigenvalues --    1.14013   1.14652   1.14759   1.15973   1.17619
  Beta virt. eigenvalues --    1.17787   1.18003   1.19150   1.19188   1.19499
  Beta virt. eigenvalues --    1.20655   1.21992   1.22238   1.22687   1.22994
  Beta virt. eigenvalues --    1.23013   1.23817   1.24069   1.24161   1.26181
  Beta virt. eigenvalues --    1.26606   1.27430   1.27811   1.27858   1.28115
  Beta virt. eigenvalues --    1.28435   1.28924   1.30048   1.31201   1.31792
  Beta virt. eigenvalues --    1.32563   1.34281   1.34668   1.37003   1.38217
  Beta virt. eigenvalues --    1.40794   1.43623   1.45264   1.45798   1.50107
  Beta virt. eigenvalues --    1.52442   1.53406   1.53991   1.54012   1.55520
  Beta virt. eigenvalues --    1.57432   1.57610   1.58036   1.59019   1.59770
  Beta virt. eigenvalues --    1.61036   1.61926   1.61975   1.64830   1.66124
  Beta virt. eigenvalues --    1.66301   1.66963   1.68025   1.69127   1.71415
  Beta virt. eigenvalues --    1.72177   1.75283   1.75909   1.75970   1.76973
  Beta virt. eigenvalues --    1.77359   1.78688   1.79517   1.82888   1.83833
  Beta virt. eigenvalues --    1.86660   1.87570   1.87833   1.89141   1.89722
  Beta virt. eigenvalues --    1.89802   1.89836   1.93009   1.93942   1.94513
  Beta virt. eigenvalues --    1.95025   1.95872   1.96707   1.97106   1.97469
  Beta virt. eigenvalues --    2.00774   2.00918   2.01436   2.02075   2.03595
  Beta virt. eigenvalues --    2.05141   2.05610   2.06387   2.07008   2.07028
  Beta virt. eigenvalues --    2.12180   2.12403   2.13888   2.14305   2.15493
  Beta virt. eigenvalues --    2.17507   2.19545   2.22994   2.24426   2.27391
  Beta virt. eigenvalues --    2.30348   2.32750   2.35924   2.37962   2.40024
  Beta virt. eigenvalues --    2.40615   2.42135   2.46282   2.49004   2.49606
  Beta virt. eigenvalues --    2.53441   2.55527   2.59324   2.63420   2.65664
  Beta virt. eigenvalues --    2.68401   2.69856   2.74584   2.74796   2.75166
  Beta virt. eigenvalues --    2.76349   2.76745   2.78377   2.78414   2.80502
  Beta virt. eigenvalues --    2.80885   2.81156   2.81200   2.82024   2.82167
  Beta virt. eigenvalues --    2.82503   2.82922   2.83608   2.85391   2.86034
  Beta virt. eigenvalues --    2.86052   2.86574   2.86882   2.87031   2.88535
  Beta virt. eigenvalues --    2.88868   2.89970   2.90538   2.90646   2.91095
  Beta virt. eigenvalues --    2.92761   2.93020   2.93474   2.94309   2.95280
  Beta virt. eigenvalues --    2.95461   2.95753   2.98139   2.99012   2.99678
  Beta virt. eigenvalues --    2.99778   3.01776   3.02553   3.03167   3.05250
  Beta virt. eigenvalues --    3.07766   3.08880   3.09524   3.13860   3.14361
  Beta virt. eigenvalues --    3.16569   3.17372   3.18087   3.18525   3.19159
  Beta virt. eigenvalues --    3.20475   3.23937   3.25749   3.26295   3.27093
  Beta virt. eigenvalues --    3.28326   3.33557   3.34903   3.39169   3.41380
  Beta virt. eigenvalues --    3.41809   3.43693   3.44187   3.45491   3.47147
  Beta virt. eigenvalues --    3.48750   3.56437   3.57817   3.58887   3.61036
  Beta virt. eigenvalues --    3.61247   3.61863   3.61962   3.62712   3.63706
  Beta virt. eigenvalues --    3.65413   3.72542   3.77790   3.81741   3.89402
  Beta virt. eigenvalues --    3.94564   4.01734   4.08322   4.09659   4.20223
  Beta virt. eigenvalues --    4.20659   4.32397   4.34276   4.53445   4.81721
  Beta virt. eigenvalues --    4.86438   4.87910   5.04937   5.05078   5.07937
  Beta virt. eigenvalues --    5.08329   5.09279   5.09582   5.09714   5.10047
  Beta virt. eigenvalues --    5.13675   5.14509   5.16928   5.17185   5.17382
  Beta virt. eigenvalues --    5.18091   5.18325   5.19337   5.30109   5.30283
  Beta virt. eigenvalues --    5.33393   5.33860   5.39636   5.41266   5.84117
  Beta virt. eigenvalues --    5.91880   8.22407   8.23237  17.43833  17.44021
  Beta virt. eigenvalues --   17.45441  17.45517  17.53494  17.53730  23.57128
  Beta virt. eigenvalues --   23.67574  23.92895  23.94420  23.95951  23.96272
  Beta virt. eigenvalues --   23.97362  24.01977  24.03668  24.05662  24.11857
  Beta virt. eigenvalues --   24.12122  24.21404  24.21474  49.91720  49.91972
  Beta virt. eigenvalues --   49.94509  49.94693  50.00580  50.00600  50.14162
  Beta virt. eigenvalues --   50.18978 189.31544 189.32342
          Condensed to atoms (all electrons):
               1          2          3          4          5          6
     1  C   16.449616  -4.632081  -3.478225  -3.604840   0.049708   3.090782
     2  C   -4.632081  13.705246  -2.156617  -3.052163  -0.125499  -2.105550
     3  C   -3.478225  -2.156617  48.145335   5.676499  -8.891934 -10.045834
     4  C   -3.604840  -3.052163   5.676499  30.831235   4.919904  -1.416522
     5  C    0.049708  -0.125499  -8.891934   4.919904  23.918948   2.213631
     6  C    3.090782  -2.105550 -10.045834  -1.416522   2.213631  29.422024
     7  C   -5.268743   4.090823  -9.753127  -7.382237   4.260565  -2.421323
     8  C    0.225601   0.947670  -3.933800 -11.433629  -7.957123  -3.198436
     9  C    1.395480  -1.032164   0.641002  -1.822096 -11.350514  -0.619777
    10  C    0.763562   0.216370 -12.001154  -6.539172   4.559276  -5.107442
    11  C    1.310568  -0.319929  -0.759715  -0.655074  -3.223610  -0.426540
    12  C    0.546304  -0.106919  -0.398923   0.613513  -3.933098  -0.758290
    13  C   -0.248532   0.119632  -0.101328  -1.026863   0.982163  -0.303039
    14  C    0.085652  -0.246221   0.546611   1.402011   0.212698   1.303168
    15  O    0.070986   0.148706   0.020720  -0.707391  -0.099955  -0.055410
    16  O    0.000941  -0.006028   0.143845  -0.068968  -0.207403   0.106935
    17  S   -0.116880   0.034631  -0.045689  -0.485786  -0.227281  -0.070147
    18  O   -0.012932  -0.002023   0.000510   0.034177   0.021236   0.001938
    19  O   -0.009383   0.005634  -0.004201  -0.080121  -0.041480  -0.004793
    20  O   -0.012707   0.002958  -0.001751  -0.008642  -0.013817  -0.001411
    21  S   -0.632166   0.559577   1.246174   0.123204   0.770565  -2.689130
    22  O    0.051352   0.070548  -0.846845   0.033919   0.029988   0.558580
    23  O   -0.047671   0.031662   0.204439   0.026446   0.021668  -0.236793
    24  O   -0.053142   0.052257   0.455238   0.019251   0.069062  -0.275426
    25  H    0.489829  -0.139398  -0.046812  -0.156993   0.020435   0.069541
    26  H   -0.192730   0.635931  -0.230588  -0.040356  -0.001293  -0.005040
    27  H    0.060533  -0.213620   0.909593  -0.008406  -0.100990  -0.143851
    28  H    0.003339  -0.001727   0.000289   0.026454  -0.014635   0.000800
    29  H   -0.002605   0.001254  -0.000945  -0.010849   0.019663  -0.002020
    30  H    0.004865  -0.005254   0.035431   0.031720  -0.020484   0.084440
               7          8          9         10         11         12
     1  C   -5.268743   0.225601   1.395480   0.763562   1.310568   0.546304
     2  C    4.090823   0.947670  -1.032164   0.216370  -0.319929  -0.106919
     3  C   -9.753127  -3.933800   0.641002 -12.001154  -0.759715  -0.398923
     4  C   -7.382237 -11.433629  -1.822096  -6.539172  -0.655074   0.613513
     5  C    4.260565  -7.957123 -11.350514   4.559276  -3.223610  -3.933098
     6  C   -2.421323  -3.198436  -0.619777  -5.107442  -0.426540  -0.758290
     7  C   31.876714   4.638246  -6.616562  10.131070  -5.157209 -12.210374
     8  C    4.638246  24.058455   4.840776   4.282961   2.317530  -9.085068
     9  C   -6.616562   4.840776  30.800627  -7.361358  -1.444459   5.814188
    10  C   10.131070   4.282961  -7.361358  31.589847  -2.426793  -9.736601
    11  C   -5.157209   2.317530  -1.444459  -2.426793  29.618633 -10.166019
    12  C  -12.210374  -9.085068   5.814188  -9.736601 -10.166019  48.582491
    13  C    0.261071  -0.129422  -3.145323   4.121571  -2.092807  -2.253693
    14  C    0.764341   0.062106  -3.602147  -5.294039   3.054855  -3.437470
    15  O    0.419334  -0.208087  -0.068186  -0.072382   0.107926   0.144423
    16  O   -0.071956  -0.100555  -0.707053   0.420156  -0.055775   0.020675
    17  S   -0.352653   0.768891   0.130108   0.225024  -2.698634   1.262863
    18  O    0.368636   0.033015   0.031607   0.009556   0.563475  -0.857897
    19  O   -0.414464   0.071736   0.020727   0.002360  -0.276602   0.459460
[...]
 014,-0.01565518,-0.00049329,-0.00390641,-0.01265448,-0.03930450,0.3660
 4420,-0.00085686,0.00057203,0.00030293,-0.00049660,-0.00007429,-0.0012
 9119,0.00203250,-0.00093936,0.00074220,0.00017726,-0.00091643,0.000133
 50,-0.00120631,-0.00040647,0.00156828,-0.00021486,0.01169812,0.0070827
 9,0.00024261,-0.00082812,0.00058131,-0.00047137,0.00048258,0.00003188,
 0.00029973,-0.00063668,-0.00006027,0.00087783,-0.00131088,0.00103190,0
 .00021032,0.00001483,-0.00010929,-0.00002363,0.00002158,-0.00007414,0.
 00024056,-0.00009052,-0.00007641,-0.00029364,0.00023814,-0.00002005,-0
 .00013925,0.00066766,-0.00055206,0.00307769,0.00204741,-0.00079563,-0.
 00012182,-0.00025050,0.00032791,0.00009689,0.00003467,-0.00012699,-0.0
 0000462,0.00003902,-0.00014258,0.00007219,0.00015021,-0.00006450,0.012
 17563,-0.12242136,-0.13677881,0.01229306,-0.02315453,0.00080447,-0.005
 95547,-0.03394172,-0.01228154,-0.02142258,0.16819429,0.13952690,-0.050
 73582,0.00879385,-0.00056150,0.00411214,-0.01590170,0.01699508,-0.0006
 8274,0.00239197,0.00508691,0.00428388,0.01790114,-0.01796993,-0.002507
 74,0.00283368,0.00290977,-0.00087145,0.00013508,0.00012534,-0.00250648
 ,0.00220098,-0.00218220,0.00134478,-0.00125594,-0.00006185,-0.00005091
 ,0.00024992,-0.00023990,0.00016176,0.00080769,-0.00149223,-0.00043117,
 0.00006935,0.00040145,0.00024410,-0.00017413,0.00003726,-0.00015328,0.
 00014657,-0.00004786,0.00019068,-0.00014146,0.00006962,0.00249063,-0.0
 0282802,0.00140653,-0.00030758,0.00008471,0.00023408,-0.00028638,0.000
 19736,0.00012260,0.00002850,-0.00002969,-0.00001216,0.00010264,-0.0000
 7840,-0.00015000,0.00016322,-0.00001195,-0.00008257,-0.00038099,-0.000
 39239,-0.00017840,0.00015063,-0.00012158,0.00004038,-0.00001776,0.0001
 1880,-0.00017075,0.00004666,-0.00016628,0.00000117,0.04562799,0.010218
 64,-0.18907069,0.14382626,0.00170400,0.00308597,0.00073936,0.00205931,
 0.00477495,0.00274810,0.00155307,-0.01070171,0.01491398,0.00384627,0.0
 0101320,0.00096109,0.00062670,-0.00016666,-0.00080604,-0.00074655,-0.0
 0412241,0.00186799,-0.00055096,0.00051810,-0.00026302,0.00006474,-0.00
 026516,0.00022972,-0.00060919,-0.00076891,0.00043699,0.00028893,0.0000
 2034,-0.00007869,-0.00004712,0.00013227,-0.00007335,0.00013135,-0.0000
 9730,0.00003459,-0.00011858,0.00013646,-0.00003277,-0.00402391,0.00367
 899,-0.00054313,0.00053265,-0.00015249,0.00025656,0.00012430,-0.000202
 39,0.00009652,0.00001888,0.00004007,-0.00005528,-0.00008151,0.00004185
 ,-0.00003556,-0.00007137,0.00004687,0.00002336,-0.00021408,-0.00024351
 ,-0.00056912,-0.00009449,-0.00001178,0.00008222,-0.00004988,0.00010014
 ,-0.00009317,-0.00001164,-0.00029705,0.00008901,-0.01258291,0.19411218
 ,-0.00100115,0.14450348,-0.18741236,-0.00172380,0.01438483,-0.00824098
 ,0.00574669,0.00233376,0.00228138,-0.00184290,0.00326577,0.00304586,0.
 00145868,0.00120516,0.00248809,-0.00010313,-0.00072712,0.00021002,0.00
 057203,-0.00026702,-0.00268779,-0.00041361,0.00008926,0.00009059,-0.00
 007471,0.00012962,-0.00011461,-0.00017992,-0.00047978,-0.00001710,0.00
 009553,0.00012184,-0.00001349,-0.00006620,-0.00000572,0.00008366,-0.00
 001762,0.00004315,-0.00000674,0.00002978,-0.00000282,0.00000202,0.0023
 2833,-0.00133695,-0.00127801,0.00004597,0.00033114,-0.00010602,0.00010
 880,0.00002768,-0.00018890,-0.00004091,-0.00000165,0.00007115,-0.00002
 157,0.00001715,0.00007664,-0.00010100,-0.00007076,0.00006751,-0.000069
 48,-0.00035191,-0.00051993,-0.00009801,0.00023657,-0.00008437,-0.00012
 123,0.00010908,-0.00026926,0.00002820,-0.00011044,0.00009726,-0.002381
 96,-0.16144084,0.19413567,-0.01487861,0.01577900,-0.00300738,-0.219054
 63,0.13985343,0.00175442,0.00179295,-0.00182963,0.00128225,0.00058898,
 0.00050034,0.00544067,-0.00007439,-0.00059568,0.00048300,0.00211981,0.
 00073057,0.00075313,-0.00058956,0.00154675,-0.00068702,-0.00048218,-0.
 00080505,0.00019976,0.00011849,0.00022022,-0.00023619,-0.00011966,-0.0
 0047915,0.00015207,-0.00004279,0.00015422,-0.00002915,-0.00005374,-0.0
 0001826,0.00019807,-0.00007329,0.00005697,-0.00005286,0.00006043,0.000
 00135,0.00004459,0.00007037,-0.00010622,0.00048812,-0.00016269,0.00030
 994,-0.00035499,0.00006506,0.00014291,-0.00028485,-0.00006464,-0.00002
 853,0.00011007,0.00001948,-0.00001043,0.00012133,-0.00006899,-0.000109
 74,0.00007008,0.00000620,-0.00053419,0.00082006,0.00014893,0.00017582,
 -0.00022742,-0.00005653,0.00005977,-0.00015703,0.00004109,0.00039666,-
 0.00010815,-0.00011717,-0.00207040,-0.00187642,0.23085878,-0.00360271,
 0.00463689,0.00030688,0.13961233,-0.15110380,0.01559965,0.01806184,-0.
 01074516,-0.00143301,0.00111429,0.00421628,0.00345301,-0.00038620,-0.0
 0006630,0.00000741,-0.00042559,-0.00078036,0.00472491,0.00032493,0.000
 07757,0.00024259,-0.00049296,-0.00033266,-0.00072381,-0.00007105,-0.00
 004140,0.00026703,-0.00011692,-0.00007394,-0.00058946,0.00007444,0.000
 02240,0.00008947,0.00006506,0.00013554,-0.00008429,-0.00000781,-0.0000
 7061,0.00007360,0.00008711,0.00005151,-0.00000983,0.00023073,0.0002768
 0,0.00018769,0.00014710,-0.00018545,0.00014625,-0.00002115,-0.00008483
 ,0.00011113,0.00002026,0.00001586,-0.00005138,-0.00001047,0.00000674,-
 0.00006615,0.00000987,0.00003991,-0.00001234,0.00121921,0.00113849,-0.
 00119995,-0.00038603,-0.00015869,0.00030842,0.00018342,-0.00031696,0.0
 0099925,-0.00015186,-0.00074939,0.00005756,-0.00156027,-0.00163305,-0.
 00261418,-0.15271689,0.15584961,0.01707662,-0.01450759,0.00390389,0.00
 133433,0.01589126,-0.04697415,-0.01816682,0.01271194,0.00178511,0.0047
 0641,0.00451183,0.00032672,0.00026717,-0.00007946,-0.00055685,0.001667
 30,0.00409427,-0.00079349,0.00016856,-0.00057437,0.00106184,0.00006324
 ,-0.00063889,-0.00081672,0.00013718,0.00017083,-0.00012983,-0.00048019
 ,-0.00028167,-0.00004994,0.00001092,-0.00000981,0.00015157,0.00012251,
 -0.00003180,0.00006093,0.00001134,0.00004585,-0.00009936,-0.00004248,0
 .00006096,0.00007896,0.00020745,0.00035978,0.00012839,0.00003257,-0.00
 008636,0.00005408,-0.00004935,-0.00000522,0.00003810,0.00000933,-0.000
 00396,-0.00001329,0.00001459,-0.00000640,-0.00003987,0.00001283,0.0000
 0501,-0.00000408,-0.00086901,-0.00011399,0.00104041,0.00027945,-0.0000
 4762,-0.00011609,-0.00009858,0.00009547,-0.00048701,0.00016346,0.00085
 649,-0.00015948,-0.00243043,-0.00221429,-0.00132241,-0.00360084,-0.018
 28517,0.04339115,0.00185317,0.00160605,0.00040850,0.00577998,0.0017145
 6,-0.00334671,-0.22097044,-0.01892521,0.14265411,-0.00014606,0.0001006
 2,-0.00062287,-0.00018013,0.00494941,-0.00024429,-0.01674037,-0.002456
 55,0.01574571,-0.00020096,0.00008787,-0.00030952,0.00024321,-0.0001045
 3,0.00005551,-0.00060685,0.00003348,-0.00049816,-0.00012728,-0.0003053
 9,0.00143823,-0.00003982,0.00003502,0.00007851,0.00000501,-0.00003971,
 0.00002950,-0.00007520,0.00011065,0.00001200,0.00005558,-0.00006942,0.
 00013474,0.00006817,-0.00027277,0.00017971,0.00006795,0.00015302,-0.00
 012181,0.00002338,0.00008500,-0.00013351,-0.00003228,-0.00001181,0.000
 05195,0.00001431,-0.00000974,0.00005743,-0.00002299,-0.00005350,0.0000
 2755,-0.00509345,-0.00018268,0.00074767,0.00162917,-0.00383929,0.00150
 206,0.00040032,0.00059429,-0.00038113,0.00050173,-0.00096650,-0.000502
 84,0.00009241,0.00012268,-0.00022997,-0.00000088,-0.00119608,-0.000558
 86,0.23353694,0.00173129,-0.00114940,0.00453036,-0.01712435,0.00160311
 ,0.01316591,-0.02190132,-0.05153449,0.03012429,0.00039420,-0.00095667,
 -0.00020118,0.00502234,-0.00059902,0.00341714,0.01334686,0.00661252,-0
 .01180260,-0.00062423,-0.00016255,0.00016380,0.00026280,-0.00013965,0.
 00014708,0.00026076,-0.00064011,-0.00047153,0.00006390,0.00127703,-0.0
 0034212,-0.00009292,0.00009320,0.00007610,0.00006915,-0.00013778,0.000
 09179,0.00010624,0.00008872,-0.00011485,-0.00006885,0.00012152,-0.0000
 6849,-0.00011987,0.00015587,-0.00013599,0.00005243,-0.00000011,0.00011
 463,-0.00000407,0.00000066,0.00000688,0.00000442,-0.00000235,-0.000003
 81,0.00000093,0.00000055,-0.00001041,0.00000002,0.00000204,-0.00000345
 ,0.00481491,-0.00362114,-0.00263413,-0.00217371,-0.00190557,0.00197805
 ,-0.00115115,0.00038916,-0.00081036,-0.00040832,-0.00029735,0.00066488
 ,-0.00064270,0.00007832,0.00060470,-0.00065718,-0.00008856,-0.00188504
 ,0.01884630,0.05083174,-0.00035578,0.00500345,0.00072519,0.01530174,0.
 00172775,-0.00887419,0.14459751,0.02646354,-0.15665605,-0.00005837,-0.
 00030532,-0.00047902,0.00071831,0.00328921,0.00342050,-0.00059275,-0.0
 0045582,0.00412636,-0.00049980,-0.00019968,0.00005201,0.00007261,-0.00
 008794,0.00023914,-0.00000150,-0.00058220,-0.00060061,0.00016007,0.000
 11129,0.00089204,0.00004414,0.00005854,-0.00000256,-0.00002375,-0.0000
 8661,0.00011422,0.00011935,0.00007619,-0.00008572,-0.00014480,0.000121
 62,0.00006865,0.00019273,-0.00000996,-0.00018464,0.00004490,0.00037298
 ,-0.00024951,-0.00004835,0.00003889,0.00000980,0.00000873,-0.00001683,
 0.00001221,0.00001732,-0.00001163,-0.00001226,0.00001685,-0.00001188,-
 0.00001018,-0.00292832,0.00050526,-0.00205024,-0.00004636,0.00307990,-
 0.00309436,-0.00012423,0.00031904,-0.00066073,0.00044333,-0.00120253,0
 .00028737,0.00052725,-0.00008748,-0.00034675,-0.00127159,-0.00150040,-
 0.00044920,-0.15615308,-0.03658631,0.16383669,0.00014070,-0.00015740,0
 .00008783,-0.00012861,0.00001710,0.00014584,-0.00002563,0.00009391,-0.
 00008613,-0.00087953,0.00010650,-0.00025001,0.00004178,0.00016387,-0.0
 0006024,0.00004446,-0.00001116,0.00004789,0.00019510,-0.00038995,0.001
 11192,-0.00044664,0.00555985,-0.00031600,-0.00057042,0.00019130,-0.000
 46827,0.00023330,-0.00008032,-0.00053675,-0.01447657,-0.00070377,0.017
 56994,-0.19426757,0.00240829,0.14551584,0.00637058,0.00066551,-0.00382
 827,0.00234608,0.00202481,-0.00003114,0.00007124,0.00002868,0.00006653
 ,0.00000955,-0.00023564,0.00025726,-0.00539820,0.00040985,0.00176559,0
 .00233507,-0.00293975,0.00146033,0.00049387,0.00055184,-0.00061208,0.0
 0027953,-0.00119572,-0.00034673,0.00005009,0.00004957,-0.00006713,-0.0
 0002994,-0.00000531,0.00001852,-0.00000854,-0.00000983,0.00003744,-0.0
 0002435,-0.00003499,0.00001075,0.00000150,-0.00000479,-0.00002470,-0.0
 0002195,-0.00000227,0.00001157,-0.00000545,0.00000056,0.00000135,0.203
 61863,0.00010944,0.00008581,-0.00005104,0.00004659,-0.00000682,0.00007
 974,0.00002199,0.00002748,-0.00006191,-0.00025191,-0.00073778,-0.00035
 667,0.00000157,0.00018173,-0.00001132,0.00002202,0.00004716,0.00004797
 ,0.00057043,0.00130492,-0.00061874,0.00486949,0.00053633,0.00362705,-0
 .00016628,-0.00074176,0.00005588,-0.00004658,-0.00034312,-0.00015295,0
 .01320476,0.00409431,-0.01345203,-0.00000671,-0.04485258,0.01325720,-0
 .01465423,0.00249306,0.01440085,0.00268176,-0.00019261,0.00426619,0.00
 005015,-0.00016500,0.00037074,-0.00022266,0.00013617,-0.00004725,0.003
 79861,-0.00450771,-0.00266380,-0.00172442,-0.00011917,0.00150045,-0.00
 143646,0.00051993,-0.00071541,-0.00021239,-0.00038334,0.00081799,0.000
 01657,-0.00006526,0.00005513,0.00001548,0.00002152,-0.00002680,-0.0000
 1585,0.00001158,-0.00002873,-0.00000615,0.00002751,-0.00000459,-0.0000
 2265,-0.00002162,-0.00000620,0.00001121,-0.00001448,-0.00001654,-0.000
 00028,-0.00000380,-0.00000154,-0.00517080,0.04324339,-0.00001607,0.000
 03150,0.00003539,0.00004630,-0.00004263,0.00008246,-0.00007127,0.00007
 312,-0.00004171,-0.00030531,-0.00040912,-0.00022924,-0.00020186,0.0002
 2141,0.00006832,0.00015914,0.00001511,-0.00002952,0.00059738,0.0000349
 3,0.00054545,-0.00031281,0.00322327,0.00254682,-0.00057428,-0.00008177
 ,-0.00022510,0.00010992,-0.00032322,-0.00019116,0.00057377,-0.00103438
 ,0.00424754,0.14969219,0.01173912,-0.18977513,0.01537338,-0.00056388,-
 0.01027895,-0.00037543,0.00454919,-0.00074029,0.00001206,0.00016563,-0
 .00006040,0.00008447,-0.00002581,-0.00011209,-0.00365590,0.00089201,-0
 .00104736,-0.00032793,0.00281209,-0.00537011,-0.00001405,0.00009559,-0
 .00047494,0.00036105,-0.00103585,0.00021684,-0.00003656,-0.00004066,0.
 00005415,0.00001983,0.00000498,-0.00001489,0.00000690,0.00000581,-0.00
 003019,0.00001299,0.00002152,-0.00000498,-0.00000187,-0.00001727,-0.00
 001028,-0.00000515,-0.00000535,-0.00000252,0.00000072,-0.00000114,-0.0
 0000498,-0.16075997,-0.01891429,0.20105052,0.00005799,0.00000158,0.000
 04466,-0.00004551,0.00004390,-0.00001225,-0.00010374,-0.00001891,0.000
 16794,0.00009152,0.00014931,-0.00012006,-0.00063371,-0.00076223,0.0002
 2640,-0.00000268,0.00017384,-0.00007170,-0.00005310,-0.00054885,0.0000
 3995,-0.00015762,-0.00050837,0.00034845,0.00097894,0.00078821,0.005646
 27,-0.00040423,0.00136838,-0.00091880,0.00231587,0.00107922,0.00024835
 ,0.00058137,-0.00067479,0.00131958,-0.22426166,0.13881939,-0.00381643,
 -0.01486275,0.01475234,-0.00342487,-0.00015136,0.00039241,-0.00025417,
 0.00012519,0.00003556,0.00047618,0.00006152,-0.00045031,0.00102744,0.0
 0010264,0.00013127,-0.00032964,-0.00009834,0.00002473,-0.00017810,0.00
 008992,0.00041788,-0.00020198,0.00010066,0.00017001,-0.00021138,-0.000
 07102,-0.00005003,0.00007301,-0.00000166,-0.00002338,0.00010843,-0.000
 06221,-0.00010707,0.00003175,-0.00000349,0.00001134,-0.00001524,-0.000
 02457,0.00000734,-0.00000305,-0.00002688,0.00001354,-0.00000900,-0.000
 14520,-0.00089917,-0.00104566,0.23680459,0.00008584,0.00005402,-0.0000
 0433,0.00000033,-0.00013286,0.00008153,0.00003566,0.00018691,-0.000071
 93,-0.00010345,-0.00013022,0.00042910,-0.00072034,-0.00030391,-0.00072
 116,0.00011603,0.00004283,0.00002027,0.00002480,-0.00009510,-0.0006775
 9,-0.00048086,0.00007663,-0.00016147,0.00157624,0.00448323,0.00356628,
 0.00071961,0.00001530,0.00009726,0.00031149,0.00042682,0.00460766,0.01
 618300,-0.00922790,-0.00142771,0.13925431,-0.14270644,0.01847793,-0.00
 290134,0.00381420,0.00050837,0.00004954,-0.00024395,0.00014087,0.00023
 550,0.00036432,0.00009145,0.00097489,0.00076783,-0.00133911,-0.0003058
 4,-0.00002074,0.00035453,0.00038597,-0.00021684,0.00095249,-0.00017914
 ,-0.00058869,0.00020277,-0.00003398,-0.00014122,0.00012623,0.00004595,
 0.00003411,-0.00005832,0.00000120,0.00002650,-0.00008586,0.00000965,0.
 00005886,-0.00000994,-0.00000540,-0.00000986,0.00000541,0.00001007,-0.
 00001523,-0.00000705,-0.00000149,-0.00000378,-0.00000262,-0.00147322,-
 0.00057597,-0.00132185,-0.15203400,0.14618224,-0.00004531,0.00005919,0
 .00008099,0.00003493,0.00001476,-0.00006895,0.00008540,0.00000033,0.00
 006030,0.00008878,0.00006441,-0.00001371,-0.00005275,-0.00049039,-0.00
 069786,0.00005669,0.00001794,0.00009684,-0.00032516,-0.00025936,-0.000
 08304,0.00024218,0.00012246,-0.00063383,0.00451540,0.00386362,-0.00029
 709,0.00050585,-0.00062927,0.00092137,0.00138015,0.00378878,-0.0021424
 9,-0.02003414,0.01390501,0.00146283,-0.00380052,0.01840358,-0.05020184
 ,0.01800982,-0.01460691,0.00472450,-0.00002579,-0.00008901,0.00008721,
 0.00015922,0.00036696,-0.00001684,-0.00078426,0.00001187,0.00134076,0.
 00025036,-0.00006377,-0.00020889,-0.00025882,0.00004406,-0.00058120,0.
 00024675,0.00078018,-0.00032905,-0.00005761,-0.00005109,0.00005277,0.0
 0002751,0.00000735,-0.00002181,0.00001777,0.00001130,-0.00005140,0.000
 01932,0.00002207,-0.00000660,0.00000640,-0.00000972,-0.00000155,-0.000
 00113,-0.00000732,-0.00000532,0.00000549,-0.00001543,-0.00000869,-0.00
 047256,-0.00182574,0.00016260,0.00251492,-0.02130834,0.04713254,0.0001
 8025,-0.00017242,0.00004988,-0.00014131,0.00014117,0.00000577,0.000214
 06,-0.00015699,0.00000576,-0.00009430,0.00019404,-0.00020136,0.0013951
 1,-0.00098007,0.00014352,-0.00039506,0.00008493,0.00039825,0.00015983,
 0.00069093,-0.00162993,-0.00246043,0.00311933,0.00228898,0.00352048,0.
 01675382,-0.01912881,-0.00273447,0.00212305,-0.00295345,-0.00101341,0.
 00019970,0.00015938,-0.00068117,0.00281035,0.00492274,0.00518478,-0.01
 423442,0.01755265,-0.05251253,0.01459317,-0.00899315,-0.00027063,0.000
 21980,0.00036774,0.00152874,-0.00290933,0.00141173,-0.00040383,-0.0003
 7735,0.00000937,0.00020065,-0.00015834,0.00005479,-0.00002140,0.000101
 81,-0.00015079,0.00001747,-0.00017078,0.00003615,-0.00039018,0.0001072
 5,0.00001186,0.00005763,-0.00001008,0.00001059,0.00017124,-0.00003283,
 -0.00013618,0.00017995,0.00000808,-0.00002196,0.00001147,-0.00002547,-
 0.00001048,-0.00000429,-0.00000970,0.00000276,-0.00000229,-0.00002195,
 -0.00000852,0.00019713,-0.00058353,0.00065405,-0.00020049,-0.00178100,
 -0.00230887,0.04830701,-0.00012043,0.00014651,-0.00001455,0.00012692,-
 0.00013725,0.00005556,-0.00009399,0.00017277,-0.00007996,0.00007249,-0
 .00030047,0.00028756,-0.00084761,0.00053196,-0.00032289,0.00035860,0.0
 0003749,-0.00011182,-0.00044609,-0.00079794,0.00050555,0.00406792,0.00
 174248,0.00043063,0.00239566,-0.00956544,0.01583667,-0.00022783,-0.003
 61923,0.00191040,0.00040094,-0.00015504,-0.00084351,0.00220823,0.00546
 443,0.00266401,0.00209673,0.00377854,-0.00009096,0.01522105,-0.1661390
 9,0.14203386,0.00037782,-0.00015809,0.00014179,-0.00343000,0.00231231,
 -0.00071016,-0.00037376,-0.00042205,-0.00043413,0.00000084,-0.00002969
 ,0.00011285,-0.00008047,0.00010654,-0.00010339,-0.00002917,-0.00031698
 ,0.00014599,0.00013066,-0.00016351,0.00008984,0.00002000,0.00003911,-0
 .00004537,-0.00005837,0.00002988,-0.00001996,-0.00007970,0.00003183,0.
 00001340,-0.00001562,-0.00001513,0.00000680,0.00001214,-0.00000670,-0.
 00000846,-0.00000398,-0.00001211,-0.00001890,0.00014328,0.00000012,-0.
 00006806,-0.00230313,-0.00212107,-0.00212754,-0.01952314,0.16956583,0.
 00001853,0.00001682,0.00002293,-0.00001750,0.00000803,0.00000693,-0.00
 011692,0.00003834,0.00009589,-0.00005623,0.00008997,-0.00009367,-0.000
 68607,0.00019676,0.00008870,0.00015736,0.00008886,-0.00009748,-0.00004
 064,-0.00058470,0.00004425,0.00142425,0.00162055,0.00179244,-0.0018572
 3,0.00318752,0.00251552,0.00072384,-0.00050243,-0.00287211,-0.00017522
 ,-0.00052397,0.00031468,0.00532576,0.00221714,0.00160065,-0.00213549,0
 .01359746,-0.00995468,-0.00997186,0.14280259,-0.20826635,-0.00005660,0
 .00046373,-0.00018370,0.00235354,-0.00117540,-0.00124578,-0.00017138,-
 0.00046859,-0.00030752,-0.00005117,0.00014971,-0.00013932,-0.00015772,
 0.00008451,-0.00024429,0.00002863,-0.00007359,0.00009628,0.00016988,0.
 00011849,-0.00016418,-0.00006819,-0.00003645,0.00005764,-0.00004399,-0
 .00000871,0.00010937,-0.00009924,-0.00010587,0.00002582,-0.00000024,0.
 00001398,-0.00002934,-0.00001741,0.00000778,-0.00000156,-0.00002661,0.
 00000122,-0.00001452,-0.00024859,0.00047635,-0.00036625,-0.00166100,-0
 .00246487,-0.00075256,0.00745753,-0.15923523,0.21796223\\0.00000525,0.
 00000412,0.00001036,-0.00000202,0.00001720,-0.00001491,-0.00000757,-0.
 00000450,0.00000050,0.00000189,0.00001463,-0.00001393,0.00002766,-0.00
 001450,-0.00000412,-0.00002450,0.00000544,0.00000724,-0.00000711,-0.00
 001705,0.00001805,0.00001094,-0.00000612,0.00001035,-0.00000172,-0.000
 00179,0.00001623,-0.00002298,0.00002239,-0.00004243,0.00000302,0.00000
 658,0.00001176,0.00001030,-0.00000728,-0.00000642,-0.00000296,-0.00000
 855,0.00001261,-0.00000423,-0.00000249,-0.00000453,0.00000031,0.000040
 68,-0.00002447,-0.00000428,-0.00003986,0.00002794,-0.00001418,0.000014
 62,0.00001498,0.00001196,-0.00000057,-0.00000212,0.00000824,-0.0000092
 3,-0.00001805,0.00003065,-0.00001328,0.00002851,0.00004056,0.00003980,
 0.00000572,-0.00003053,-0.00000524,-0.00000648,-0.00002034,-0.00001357
 ,-0.00000907,-0.00001661,-0.00002022,-0.00002067,0.00000483,0.00000790
 ,0.00000028,0.00000730,0.00000777,-0.00000087,0.00000025,0.00000868,-0
 .00000566,0.00000370,-0.00000514,0.00001054,-0.00000580,-0.00000913,0.
 00000166,-0.00000202,-0.00001130,-0.00000301\\\@


 TIME IS IN FACT THE HERO OF THE PLOT. THE TIME
 WITH WHICH WE HAVE TO DEAL IS OF THE ORDER OF TWO
 BILLION YEARS...GIVEN SO MUCH TIME, THE "IMPOSSIBLE"
 BECOMES POSSIBLE, THE POSSIBLE PROBABLE, THE PROBABLE
 VIRTUALLY CERTAIN.  ONE HAS ONLY TO WAIT, TIME
 ITSELF PERFORMS THE MIRACLES.
 "ORIGIN OF LIFE" LECTURES, GEORGE WALD, 1954
 Job cpu time:       0 days 16 hours  7 minutes 28.5 seconds.
 Elapsed time:       0 days  2 hours  2 minutes 47.8 seconds.
 File lengths (MBytes):  RWF=   2157 Int=      0 D2E=      0 Chk=     51 Scr=      1
 Normal termination of Gaussian 16 at Sun Feb 11 08:37:29 2024.
