 Entering Gaussian System, Link 0=g16
 Input=106.com
 Output=106.log
 Initial command:
 /sysapps/ubuntu-applications/gaussian/Gaussian/AVX2/g16/l1.exe "/scratch/selhajj1/4406540/Gau-2282902.inp" -scrdir="/scratch/selhajj1/4406540/"
 Entering Link 1 = /sysapps/ubuntu-applications/gaussian/Gaussian/AVX2/g16/l1.exe PID=   2282904.
  
 Copyright (c) 1988,1990,1992,1993,1995,1998,2003,2009,2016,
            Gaussian, Inc.  All Rights Reserved.
  
 This is part of the Gaussian(R) 16 program.  It is based on
 the Gaussian(R) 09 system (copyright 2009, Gaussian, Inc.),
 the Gaussian(R) 03 system (copyright 2003, Gaussian, Inc.),
 the Gaussian(R) 98 system (copyright 1998, Gaussian, Inc.),
 the Gaussian(R) 94 system (copyright 1995, Gaussian, Inc.),
 the Gaussian 92(TM) system (copyright 1992, Gaussian, Inc.),
 the Gaussian 90(TM) system (copyright 1990, Gaussian, Inc.),
 the Gaussian 88(TM) system (copyright 1988, Gaussian, Inc.),
 the Gaussian 86(TM) system (copyright 1986, Carnegie Mellon
 University), and the Gaussian 82(TM) system (copyright 1983,
 Carnegie Mellon University). Gaussian is a federally registered
 trademark of Gaussian, Inc.
  
 This software contains proprietary and confidential information,
 including trade secrets, belonging to Gaussian, Inc.
  
 This software is provided under written license and may be
 used, copied, transmitted, or stored only in accord with that
 written license.
  
 The following legend is applicable only to US Government
 contracts under FAR:
  
                    RESTRICTED RIGHTS LEGEND
  
 Use, reproduction and disclosure by the US Government is
 subject to restrictions as set forth in subparagraphs (a)
 and (c) of the Commercial Computer Software - Restricted
 Rights clause in FAR 52.227-19.
  
 Gaussian, Inc.
 340 Quinnipiac St., Bldg. 40, Wallingford CT 06492
  
  
 ---------------------------------------------------------------
 Warning -- This program may not be used in any manner that
 competes with the business of Gaussian, Inc. or will provide
 assistance to any competitor of Gaussian, Inc.  The licensee
 of this program is prohibited from giving any competitor of
 Gaussian, Inc. access to this program.  By using this program,
 the user acknowledges that Gaussian, Inc. is engaged in the
 business of creating and licensing software in the field of
 computational chemistry and represents and warrants to the
 licensee that it is not a competitor of Gaussian, Inc. and that
 it will not use this program in any manner prohibited above.
 ---------------------------------------------------------------
  

 Cite this work as:
 Gaussian 16, Revision A.03,
 M. J. Frisch, G. W. Trucks, H. B. Schlegel, G. E. Scuseria, 
 M. A. Robb, J. R. Cheeseman, G. Scalmani, V. Barone, 
 G. A. Petersson, H. Nakatsuji, X. Li, M. Caricato, A. V. Marenich, 
 J. Bloino, B. G. Janesko, R. Gomperts, B. Mennucci, H. P. Hratchian, 
 J. V. Ortiz, A. F. Izmaylov, J. L. Sonnenberg, D. Williams-Young, 
 F. Ding, F. Lipparini, F. Egidi, J. Goings, B. Peng, A. Petrone, 
 T. Henderson, D. Ranasinghe, V. G. Zakrzewski, J. Gao, N. Rega, 
 G. Zheng, W. Liang, M. Hada, M. Ehara, K. Toyota, R. Fukuda, 
 J. Hasegawa, M. Ishida, T. Nakajima, Y. Honda, O. Kitao, H. Nakai, 
 T. Vreven, K. Throssell, J. A. Montgomery, Jr., J. E. Peralta, 
 F. Ogliaro, M. J. Bearpark, J. J. Heyd, E. N. Brothers, K. N. Kudin, 
 V. N. Staroverov, T. A. Keith, R. Kobayashi, J. Normand, 
 K. Raghavachari, A. P. Rendell, J. C. Burant, S. S. Iyengar, 
 J. Tomasi, M. Cossi, J. M. Millam, M. Klene, C. Adamo, R. Cammi, 
 J. W. Ochterski, R. L. Martin, K. Morokuma, O. Farkas, 
 J. B. Foresman, and D. J. Fox, Gaussian, Inc., Wallingford CT, 2016.
 
 ******************************************
 Gaussian 16:  ES64L-G16RevA.03 25-Dec-2016
                10-Feb-2024 
 ******************************************
 %chk=106.chk
 %nproc=8
 Will use up to    8 processors via shared memory.
 %mem=30GB
 ----------------------------------------------------------------------
 #P UB3LYP/6-311++G(d,p) nosym opt freq SCRF=(PCM,Solvent=n,n-DiMethylF
 ormamide)
 ----------------------------------------------------------------------
 1/18=20,19=15,26=3,38=1/1,3;
 2/9=110,12=2,15=1,17=6,18=5,40=1/2;
 3/5=4,6=6,7=1111,11=2,25=1,30=1,70=2201,71=1,72=148,74=-5,116=2/1,2,3;
 4//1;
 5/5=2,38=5,53=148/2;
 6/7=2,8=2,9=2,10=2,28=1/1;
 7/30=1/1,2,3,16;
 1/18=20,19=15,26=3/3(2);
 2/9=110,15=1/2;
 99//99;
 2/9=110,15=1/2;
 3/5=4,6=6,7=1111,11=2,25=1,30=1,70=2205,71=1,72=148,74=-5,116=2/1,2,3;
 4/5=5,16=3,69=1/1;
 5/5=2,38=5,53=148/2;
 7/30=1/1,2,3,16;
 1/18=20,19=15,26=3/3(-5);
 2/9=110,15=1/2;
 6/7=2,8=2,9=2,10=2,19=2,28=1/1;
 99/9=1/99;
 Leave Link    1 at Sat Feb 10 10:39:06 2024, MaxMem=  4026531840 cpu:               0.8 elap:               0.1
 (Enter /sysapps/ubuntu-applications/gaussian/Gaussian/AVX2/g16/l101.exe)
 --------
 Oxidized
 --------
 Symbolic Z-matrix:
 Charge =  0 Multiplicity = 1
 C                    -0.75961  -1.69108   3.59192 
 C                     0.31774  -2.45578   2.89612 
 C                     0.40539  -2.30638   1.56203 
 C                    -0.49405  -1.43684   0.75072 
 C                    -1.53497  -0.69917   1.42612 
 C                    -1.69285  -0.79527   2.77883 
 O                    -0.93338  -1.74852   4.79962 
 O                    -0.31603  -1.37982  -0.46601 
 N                    -2.60263  -0.18466   3.56825 
 C                    -3.68808   0.75699   3.22307 
 C                    -4.38173   1.09873   4.55177 
 C                    -4.70794   0.09209   2.27844 
 C                    -3.1151    2.04773   2.60647 
 H                    -2.16284  -0.08266   0.80052 
 H                    -2.49842  -0.43079   4.54605 
 H                    -3.68178   1.56616   5.25043 
 H                    -4.79456   0.20079   5.02058 
 H                    -5.2028    1.79706   4.3792 
 H                    -5.12181  -0.80873   2.73808 
 H                    -4.26605  -0.18983   1.32244 
 H                    -5.53028   0.78305   2.07548 
 H                    -2.41324   2.52093   3.29749 
 H                    -3.9252    2.75289   2.40307 
 H                    -2.59126   1.86231   1.66842 
 C                     1.25214  -3.35522   3.71764 
 C                     0.43097  -4.45385   4.43675 
 C                     2.28668  -4.05111   2.81363 
 C                     2.02253  -2.50612   4.75883 
 H                     1.15386  -2.8201    0.97252 
 H                    -0.28056  -4.02885   5.14323 
 H                     1.10814  -5.11348   4.98739 
 H                    -0.11645  -5.06583   3.71374 
 H                     1.81265  -4.6947    2.06745 
 H                     2.93305  -4.68149   3.42926 
 H                     2.92602  -3.33283   2.29306 
 H                     1.34926  -2.03474   5.47334 
 H                     2.61122  -1.72687   4.26571 
 H                     2.71479  -3.14764   5.31208 
 
 ITRead=  0  0  0  0  0  0  0  0  0  0  0  0  0  0  0  0  0  0  0  0
 ITRead=  0  0  0  0  0  0  0  0  0  0  0  0  0  0  0  0  0  0
 MicOpt= -1 -1 -1 -1 -1 -1 -1 -1 -1 -1 -1 -1 -1 -1 -1 -1 -1 -1 -1 -1
 MicOpt= -1 -1 -1 -1 -1 -1 -1 -1 -1 -1 -1 -1 -1 -1 -1 -1 -1 -1
 NAtoms=     38 NQM=       38 NQMF=       0 NMMI=      0 NMMIF=      0
                NMic=       0 NMicF=      0.
                    Isotopes and Nuclear Properties:
 (Nuclear quadrupole moments (NQMom) in fm**2, nuclear magnetic moments (NMagM)
  in nuclear magnetons)

  Atom         1           2           3           4           5           6           7           8           9          10
 IAtWgt=          12          12          12          12          12          12          16          16          14          12
 AtmWgt=  12.0000000  12.0000000  12.0000000  12.0000000  12.0000000  12.0000000  15.9949146  15.9949146  14.0030740  12.0000000
 NucSpn=           0           0           0           0           0           0           0           0           2           0
 AtZEff=  -0.0000000  -0.0000000  -0.0000000  -0.0000000  -0.0000000  -0.0000000  -0.0000000  -0.0000000  -0.0000000  -0.0000000
 NQMom=    0.0000000   0.0000000   0.0000000   0.0000000   0.0000000   0.0000000   0.0000000   0.0000000   2.0440000   0.0000000
 NMagM=    0.0000000   0.0000000   0.0000000   0.0000000   0.0000000   0.0000000   0.0000000   0.0000000   0.4037610   0.0000000
 AtZNuc=   6.0000000   6.0000000   6.0000000   6.0000000   6.0000000   6.0000000   8.0000000   8.0000000   7.0000000   6.0000000

  Atom        11          12          13          14          15          16          17          18          19          20
 IAtWgt=          12          12          12           1           1           1           1           1           1           1
 AtmWgt=  12.0000000  12.0000000  12.0000000   1.0078250   1.0078250   1.0078250   1.0078250   1.0078250   1.0078250   1.0078250
 NucSpn=           0           0           0           1           1           1           1           1           1           1
 AtZEff=  -0.0000000  -0.0000000  -0.0000000  -0.0000000  -0.0000000  -0.0000000  -0.0000000  -0.0000000  -0.0000000  -0.0000000
 NQMom=    0.0000000   0.0000000   0.0000000   0.0000000   0.0000000   0.0000000   0.0000000   0.0000000   0.0000000   0.0000000
 NMagM=    0.0000000   0.0000000   0.0000000   2.7928460   2.7928460   2.7928460   2.7928460   2.7928460   2.7928460   2.7928460
 AtZNuc=   6.0000000   6.0000000   6.0000000   1.0000000   1.0000000   1.0000000   1.0000000   1.0000000   1.0000000   1.0000000

  Atom        21          22          23          24          25          26          27          28          29          30
 IAtWgt=           1           1           1           1          12          12          12          12           1           1
 AtmWgt=   1.0078250   1.0078250   1.0078250   1.0078250  12.0000000  12.0000000  12.0000000  12.0000000   1.0078250   1.0078250
 NucSpn=           1           1           1           1           0           0           0           0           1           1
 AtZEff=  -0.0000000  -0.0000000  -0.0000000  -0.0000000  -0.0000000  -0.0000000  -0.0000000  -0.0000000  -0.0000000  -0.0000000
 NQMom=    0.0000000   0.0000000   0.0000000   0.0000000   0.0000000   0.0000000   0.0000000   0.0000000   0.0000000   0.0000000
 NMagM=    2.7928460   2.7928460   2.7928460   2.7928460   0.0000000   0.0000000   0.0000000   0.0000000   2.7928460   2.7928460
 AtZNuc=   1.0000000   1.0000000   1.0000000   1.0000000   6.0000000   6.0000000   6.0000000   6.0000000   1.0000000   1.0000000

  Atom        31          32          33          34          35          36          37          38
 IAtWgt=           1           1           1           1           1           1           1           1
 AtmWgt=   1.0078250   1.0078250   1.0078250   1.0078250   1.0078250   1.0078250   1.0078250   1.0078250
 NucSpn=           1           1           1           1           1           1           1           1
 AtZEff=  -0.0000000  -0.0000000  -0.0000000  -0.0000000  -0.0000000  -0.0000000  -0.0000000  -0.0000000
 NQMom=    0.0000000   0.0000000   0.0000000   0.0000000   0.0000000   0.0000000   0.0000000   0.0000000
 NMagM=    2.7928460   2.7928460   2.7928460   2.7928460   2.7928460   2.7928460   2.7928460   2.7928460
 AtZNuc=   1.0000000   1.0000000   1.0000000   1.0000000   1.0000000   1.0000000   1.0000000   1.0000000
 Leave Link  101 at Sat Feb 10 10:39:07 2024, MaxMem=  4026531840 cpu:               3.6 elap:               0.5
 (Enter /sysapps/ubuntu-applications/gaussian/Gaussian/AVX2/g16/l103.exe)

 GradGradGradGradGradGradGradGradGradGradGradGradGradGradGradGradGradGrad
 Berny optimization.
 Initialization pass.
                           ----------------------------
                           !    Initial Parameters    !
                           ! (Angstroms and Degrees)  !
 --------------------------                            --------------------------
 ! Name  Definition              Value          Derivative Info.                !
 --------------------------------------------------------------------------------
 ! R1    R(1,2)                  1.4932         estimate D2E/DX2                !
 ! R2    R(1,6)                  1.5279         estimate D2E/DX2                !
 ! R3    R(1,7)                  1.2215         estimate D2E/DX2                !
 ! R4    R(2,3)                  1.3453         estimate D2E/DX2                !
 ! R5    R(2,25)                 1.5353         estimate D2E/DX2                !
 ! R6    R(3,4)                  1.4911         estimate D2E/DX2                !
 ! R7    R(3,29)                 1.0824         estimate D2E/DX2                !
 ! R8    R(4,5)                  1.4435         estimate D2E/DX2                !
 ! R9    R(4,8)                  1.231          estimate D2E/DX2                !
 ! R10   R(5,6)                  1.3653         estimate D2E/DX2                !
 ! R11   R(5,14)                 1.0797         estimate D2E/DX2                !
 ! R12   R(6,9)                  1.3505         estimate D2E/DX2                !
 ! R13   R(9,10)                 1.4779         estimate D2E/DX2                !
 ! R14   R(9,15)                 1.0137         estimate D2E/DX2                !
 ! R15   R(10,11)                1.5373         estimate D2E/DX2                !
 ! R16   R(10,12)                1.541          estimate D2E/DX2                !
 ! R17   R(10,13)                1.5409         estimate D2E/DX2                !
 ! R18   R(11,16)                1.0939         estimate D2E/DX2                !
 ! R19   R(11,17)                1.0939         estimate D2E/DX2                !
 ! R20   R(11,18)                1.0916         estimate D2E/DX2                !
 ! R21   R(12,19)                1.0927         estimate D2E/DX2                !
 ! R22   R(12,20)                1.0903         estimate D2E/DX2                !
 ! R23   R(12,21)                1.0931         estimate D2E/DX2                !
 ! R24   R(13,22)                1.0927         estimate D2E/DX2                !
 ! R25   R(13,23)                1.0931         estimate D2E/DX2                !
 ! R26   R(13,24)                1.0903         estimate D2E/DX2                !
 ! R27   R(25,26)                1.5487         estimate D2E/DX2                !
 ! R28   R(25,27)                1.54           estimate D2E/DX2                !
 ! R29   R(25,28)                1.5487         estimate D2E/DX2                !
 ! R30   R(26,30)                1.089          estimate D2E/DX2                !
 ! R31   R(26,31)                1.094          estimate D2E/DX2                !
 ! R32   R(26,32)                1.0941         estimate D2E/DX2                !
 ! R33   R(27,33)                1.0935         estimate D2E/DX2                !
 ! R34   R(27,34)                1.0928         estimate D2E/DX2                !
 ! R35   R(27,35)                1.0935         estimate D2E/DX2                !
 ! R36   R(28,36)                1.089          estimate D2E/DX2                !
 ! R37   R(28,37)                1.0941         estimate D2E/DX2                !
 ! R38   R(28,38)                1.094          estimate D2E/DX2                !
 ! A1    A(2,1,6)              119.5364         estimate D2E/DX2                !
 ! A2    A(2,1,7)              122.6351         estimate D2E/DX2                !
 ! A3    A(6,1,7)              117.8285         estimate D2E/DX2                !
 ! A4    A(1,2,3)              116.8873         estimate D2E/DX2                !
 ! A5    A(1,2,25)             119.3287         estimate D2E/DX2                !
 ! A6    A(3,2,25)             123.784          estimate D2E/DX2                !
 ! A7    A(2,3,4)              124.4056         estimate D2E/DX2                !
 ! A8    A(2,3,29)             122.1695         estimate D2E/DX2                !
 ! A9    A(4,3,29)             113.4249         estimate D2E/DX2                !
 ! A10   A(3,4,5)              118.5807         estimate D2E/DX2                !
 ! A11   A(3,4,8)              118.5274         estimate D2E/DX2                !
 ! A12   A(5,4,8)              122.8918         estimate D2E/DX2                !
 ! A13   A(4,5,6)              120.7294         estimate D2E/DX2                !
 ! A14   A(4,5,14)             116.1061         estimate D2E/DX2                !
 ! A15   A(6,5,14)             123.1645         estimate D2E/DX2                !
 ! A16   A(1,6,5)              119.8605         estimate D2E/DX2                !
 ! A17   A(1,6,9)              111.438          estimate D2E/DX2                !
 ! A18   A(5,6,9)              128.7015         estimate D2E/DX2                !
 ! A19   A(6,9,10)             130.268          estimate D2E/DX2                !
 ! A20   A(6,9,15)             112.6333         estimate D2E/DX2                !
 ! A21   A(10,9,15)            117.0986         estimate D2E/DX2                !
 ! A22   A(9,10,11)            105.7335         estimate D2E/DX2                !
 ! A23   A(9,10,12)            110.7535         estimate D2E/DX2                !
 ! A24   A(9,10,13)            110.7364         estimate D2E/DX2                !
 ! A25   A(11,10,12)           109.0944         estimate D2E/DX2                !
 ! A26   A(11,10,13)           109.1121         estimate D2E/DX2                !
 ! A27   A(12,10,13)           111.2371         estimate D2E/DX2                !
 ! A28   A(10,11,16)           110.9959         estimate D2E/DX2                !
 ! A29   A(10,11,17)           110.9916         estimate D2E/DX2                !
 ! A30   A(10,11,18)           110.1787         estimate D2E/DX2                !
 ! A31   A(16,11,17)           108.5752         estimate D2E/DX2                !
 ! A32   A(16,11,18)           107.9934         estimate D2E/DX2                !
 ! A33   A(17,11,18)           108.0007         estimate D2E/DX2                !
 ! A34   A(10,12,19)           110.3967         estimate D2E/DX2                !
 ! A35   A(10,12,20)           112.3867         estimate D2E/DX2                !
 ! A36   A(10,12,21)           109.8138         estimate D2E/DX2                !
 ! A37   A(19,12,20)           108.0104         estimate D2E/DX2                !
 ! A38   A(19,12,21)           108.3166         estimate D2E/DX2                !
 ! A39   A(20,12,21)           107.7917         estimate D2E/DX2                !
 ! A40   A(10,13,22)           110.3967         estimate D2E/DX2                !
 ! A41   A(10,13,23)           109.8302         estimate D2E/DX2                !
 ! A42   A(10,13,24)           112.3629         estimate D2E/DX2                !
 ! A43   A(22,13,23)           108.3201         estimate D2E/DX2                !
 ! A44   A(22,13,24)           108.0069         estimate D2E/DX2                !
 ! A45   A(23,13,24)           107.7999         estimate D2E/DX2                !
 ! A46   A(2,25,26)            109.9597         estimate D2E/DX2                !
 ! A47   A(2,25,27)            111.0678         estimate D2E/DX2                !
 ! A48   A(2,25,28)            109.9557         estimate D2E/DX2                !
 ! A49   A(26,25,27)           107.9513         estimate D2E/DX2                !
 ! A50   A(26,25,28)           109.9084         estimate D2E/DX2                !
 ! A51   A(27,25,28)           107.9517         estimate D2E/DX2                !
 ! A52   A(25,26,30)           111.7661         estimate D2E/DX2                !
 ! A53   A(25,26,31)           109.4653         estimate D2E/DX2                !
 ! A54   A(25,26,32)           110.8097         estimate D2E/DX2                !
 ! A55   A(30,26,31)           108.2522         estimate D2E/DX2                !
 ! A56   A(30,26,32)           108.6683         estimate D2E/DX2                !
 ! A57   A(31,26,32)           107.7615         estimate D2E/DX2                !
 ! A58   A(25,27,33)           112.0435         estimate D2E/DX2                !
 ! A59   A(25,27,34)           109.1058         estimate D2E/DX2                !
 ! A60   A(25,27,35)           112.049          estimate D2E/DX2                !
 ! A61   A(33,27,34)           107.5372         estimate D2E/DX2                !
 ! A62   A(33,27,35)           108.3738         estimate D2E/DX2                !
 ! A63   A(34,27,35)           107.5346         estimate D2E/DX2                !
 ! A64   A(25,28,36)           111.7694         estimate D2E/DX2                !
 ! A65   A(25,28,37)           110.8026         estimate D2E/DX2                !
 ! A66   A(25,28,38)           109.4663         estimate D2E/DX2                !
 ! A67   A(36,28,37)           108.667          estimate D2E/DX2                !
 ! A68   A(36,28,38)           108.2528         estimate D2E/DX2                !
 ! A69   A(37,28,38)           107.7653         estimate D2E/DX2                !
 ! D1    D(6,1,2,3)              0.0371         estimate D2E/DX2                !
 ! D2    D(6,1,2,25)          -179.9574         estimate D2E/DX2                !
 ! D3    D(7,1,2,3)           -179.9707         estimate D2E/DX2                !
 ! D4    D(7,1,2,25)             0.0348         estimate D2E/DX2                !
 ! D5    D(2,1,6,5)             -0.0734         estimate D2E/DX2                !
 ! D6    D(2,1,6,9)            179.9346         estimate D2E/DX2                !
 ! D7    D(7,1,6,5)            179.934          estimate D2E/DX2                !
 ! D8    D(7,1,6,9)             -0.058          estimate D2E/DX2                !
 ! D9    D(1,2,3,4)              0.0183         estimate D2E/DX2                !
 ! D10   D(1,2,3,29)          -179.9983         estimate D2E/DX2                !
 ! D11   D(25,2,3,4)          -179.9875         estimate D2E/DX2                !
 ! D12   D(25,2,3,29)           -0.0041         estimate D2E/DX2                !
 ! D13   D(1,2,25,26)           60.5533         estimate D2E/DX2                !
 ! D14   D(1,2,25,27)          179.9791         estimate D2E/DX2                !
 ! D15   D(1,2,25,28)          -60.5971         estimate D2E/DX2                !
 ! D16   D(3,2,25,26)         -119.4407         estimate D2E/DX2                !
 ! D17   D(3,2,25,27)           -0.0149         estimate D2E/DX2                !
 ! D18   D(3,2,25,28)          119.4088         estimate D2E/DX2                !
 ! D19   D(2,3,4,5)             -0.0409         estimate D2E/DX2                !
 ! D20   D(2,3,4,8)            179.9625         estimate D2E/DX2                !
 ! D21   D(29,3,4,5)           179.9744         estimate D2E/DX2                !
 ! D22   D(29,3,4,8)            -0.0223         estimate D2E/DX2                !
 ! D23   D(3,4,5,6)              0.0026         estimate D2E/DX2                !
 ! D24   D(3,4,5,14)          -179.9841         estimate D2E/DX2                !
 ! D25   D(8,4,5,6)            179.9991         estimate D2E/DX2                !
 ! D26   D(8,4,5,14)             0.0124         estimate D2E/DX2                !
 ! D27   D(4,5,6,1)              0.0515         estimate D2E/DX2                !
 ! D28   D(4,5,6,9)           -179.9581         estimate D2E/DX2                !
 ! D29   D(14,5,6,1)          -179.9628         estimate D2E/DX2                !
 ! D30   D(14,5,6,9)             0.0276         estimate D2E/DX2                !
 ! D31   D(1,6,9,10)          -179.9781         estimate D2E/DX2                !
 ! D32   D(1,6,9,15)             0.0556         estimate D2E/DX2                !
 ! D33   D(5,6,9,10)             0.0308         estimate D2E/DX2                !
 ! D34   D(5,6,9,15)          -179.9355         estimate D2E/DX2                !
 ! D35   D(6,9,10,11)          179.8974         estimate D2E/DX2                !
 ! D36   D(6,9,10,12)           61.8504         estimate D2E/DX2                !
 ! D37   D(6,9,10,13)          -62.0435         estimate D2E/DX2                !
 ! D38   D(15,9,10,11)          -0.1376         estimate D2E/DX2                !
 ! D39   D(15,9,10,12)        -118.1846         estimate D2E/DX2                !
 ! D40   D(15,9,10,13)         117.9215         estimate D2E/DX2                !
 ! D41   D(9,10,11,16)          60.3872         estimate D2E/DX2                !
 ! D42   D(9,10,11,17)         -60.4574         estimate D2E/DX2                !
 ! D43   D(9,10,11,18)         179.9617         estimate D2E/DX2                !
 ! D44   D(12,10,11,16)        179.5373         estimate D2E/DX2                !
 ! D45   D(12,10,11,17)         58.6926         estimate D2E/DX2                !
 ! D46   D(12,10,11,18)        -60.8882         estimate D2E/DX2                !
 ! D47   D(13,10,11,16)        -58.7518         estimate D2E/DX2                !
 ! D48   D(13,10,11,17)       -179.5965         estimate D2E/DX2                !
 ! D49   D(13,10,11,18)         60.8227         estimate D2E/DX2                !
 ! D50   D(9,10,12,19)          57.6625         estimate D2E/DX2                !
 ! D51   D(9,10,12,20)         -62.9958         estimate D2E/DX2                !
 ! D52   D(9,10,12,21)         177.0265         estimate D2E/DX2                !
 ! D53   D(11,10,12,19)        -58.3164         estimate D2E/DX2                !
 ! D54   D(11,10,12,20)       -178.9747         estimate D2E/DX2                !
 ! D55   D(11,10,12,21)         61.0477         estimate D2E/DX2                !
 ! D56   D(13,10,12,19)       -178.7311         estimate D2E/DX2                !
 ! D57   D(13,10,12,20)         60.6107         estimate D2E/DX2                !
 ! D58   D(13,10,12,21)        -59.367          estimate D2E/DX2                !
 ! D59   D(9,10,13,22)         -57.8135         estimate D2E/DX2                !
 ! D60   D(9,10,13,23)        -177.1921         estimate D2E/DX2                !
 ! D61   D(9,10,13,24)          62.8242         estimate D2E/DX2                !
 ! D62   D(11,10,13,22)         58.1661         estimate D2E/DX2                !
 ! D63   D(11,10,13,23)        -61.2125         estimate D2E/DX2                !
 ! D64   D(11,10,13,24)        178.8037         estimate D2E/DX2                !
 ! D65   D(12,10,13,22)        178.5703         estimate D2E/DX2                !
 ! D66   D(12,10,13,23)         59.1917         estimate D2E/DX2                !
 ! D67   D(12,10,13,24)        -60.792          estimate D2E/DX2                !
 ! D68   D(2,25,26,30)         -62.3027         estimate D2E/DX2                !
 ! D69   D(2,25,26,31)         177.776          estimate D2E/DX2                !
 ! D70   D(2,25,26,32)          59.0608         estimate D2E/DX2                !
 ! D71   D(27,25,26,30)        176.3868         estimate D2E/DX2                !
 ! D72   D(27,25,26,31)         56.4654         estimate D2E/DX2                !
 ! D73   D(27,25,26,32)        -62.2497         estimate D2E/DX2                !
 ! D74   D(28,25,26,30)         58.8761         estimate D2E/DX2                !
 ! D75   D(28,25,26,31)        -61.0452         estimate D2E/DX2                !
 ! D76   D(28,25,26,32)       -179.7603         estimate D2E/DX2                !
 ! D77   D(2,25,27,33)         -61.0182         estimate D2E/DX2                !
 ! D78   D(2,25,27,34)        -179.9847         estimate D2E/DX2                !
 ! D79   D(2,25,27,35)          61.0486         estimate D2E/DX2                !
 ! D80   D(26,25,27,33)         59.6013         estimate D2E/DX2                !
 ! D81   D(26,25,27,34)        -59.3652         estimate D2E/DX2                !
 ! D82   D(26,25,27,35)       -178.3319         estimate D2E/DX2                !
 ! D83   D(28,25,27,33)        178.3669         estimate D2E/DX2                !
 ! D84   D(28,25,27,34)         59.4003         estimate D2E/DX2                !
 ! D85   D(28,25,27,35)        -59.5664         estimate D2E/DX2                !
 ! D86   D(2,25,28,36)          62.3312         estimate D2E/DX2                !
 ! D87   D(2,25,28,37)         -59.0279         estimate D2E/DX2                !
 ! D88   D(2,25,28,38)        -177.7439         estimate D2E/DX2                !
 ! D89   D(26,25,28,36)        -58.85           estimate D2E/DX2                !
 ! D90   D(26,25,28,37)        179.7909         estimate D2E/DX2                !
 ! D91   D(26,25,28,38)         61.0749         estimate D2E/DX2                !
 ! D92   D(27,25,28,36)       -176.3603         estimate D2E/DX2                !
 ! D93   D(27,25,28,37)         62.2805         estimate D2E/DX2                !
 ! D94   D(27,25,28,38)        -56.4355         estimate D2E/DX2                !
 --------------------------------------------------------------------------------
 Trust Radius=3.00D-01 FncErr=1.00D-07 GrdErr=1.00D-06 EigMax=2.50D+02 EigMin=1.00D-04
 Number of steps in this run=    211 maximum allowed number of steps=    228.
 GradGradGradGradGradGradGradGradGradGradGradGradGradGradGradGradGradGrad

 Leave Link  103 at Sat Feb 10 10:39:07 2024, MaxMem=  4026531840 cpu:               0.3 elap:               0.1
 (Enter /sysapps/ubuntu-applications/gaussian/Gaussian/AVX2/g16/l202.exe)
                          Input orientation:                          
 ---------------------------------------------------------------------
 Center     Atomic      Atomic             Coordinates (Angstroms)
 Number     Number       Type             X           Y           Z
 ---------------------------------------------------------------------
      1          6           0       -0.759611   -1.691084    3.591920
      2          6           0        0.317742   -2.455780    2.896119
      3          6           0        0.405386   -2.306376    1.562030
      4          6           0       -0.494048   -1.436839    0.750722
      5          6           0       -1.534966   -0.699166    1.426117
      6          6           0       -1.692854   -0.795267    2.778827
      7          8           0       -0.933379   -1.748523    4.799616
      8          8           0       -0.316028   -1.379821   -0.466013
      9          7           0       -2.602630   -0.184660    3.568254
     10          6           0       -3.688084    0.756994    3.223071
     11          6           0       -4.381728    1.098731    4.551774
     12          6           0       -4.707939    0.092085    2.278436
     13          6           0       -3.115100    2.047735    2.606468
     14          1           0       -2.162836   -0.082657    0.800518
     15          1           0       -2.498418   -0.430787    4.546049
     16          1           0       -3.681778    1.566162    5.250431
     17          1           0       -4.794561    0.200786    5.020583
     18          1           0       -5.202804    1.797063    4.379201
     19          1           0       -5.121807   -0.808729    2.738084
     20          1           0       -4.266050   -0.189830    1.322437
     21          1           0       -5.530276    0.783046    2.075484
     22          1           0       -2.413244    2.520934    3.297492
     23          1           0       -3.925196    2.752885    2.403074
     24          1           0       -2.591255    1.862311    1.668421
     25          6           0        1.252140   -3.355224    3.717639
     26          6           0        0.430974   -4.453846    4.436753
     27          6           0        2.286675   -4.051113    2.813634
     28          6           0        2.022527   -2.506123    4.758827
     29          1           0        1.153862   -2.820097    0.972522
     30          1           0       -0.280559   -4.028849    5.143233
     31          1           0        1.108139   -5.113483    4.987388
     32          1           0       -0.116452   -5.065834    3.713736
     33          1           0        1.812653   -4.694695    2.067449
     34          1           0        2.933048   -4.681493    3.429255
     35          1           0        2.926023   -3.332825    2.293064
     36          1           0        1.349262   -2.034736    5.473339
     37          1           0        2.611218   -1.726872    4.265713
     38          1           0        2.714786   -3.147644    5.312085
 ---------------------------------------------------------------------
                    Distance matrix (angstroms):
                    1          2          3          4          5
     1  C    0.000000
     2  C    1.493181   0.000000
     3  C    2.419970   1.345287   0.000000
     4  C    2.864886   2.509975   1.491072   0.000000
     5  C    2.505151   2.946036   2.523205   1.443548   0.000000
     6  C    1.527924   2.610279   2.857736   2.441713   1.365280
     7  O    1.221484   2.385124   3.547598   4.084569   3.583790
     8  O    4.093955   3.586542   2.343480   1.231010   2.351437
     9  N    2.380461   3.760096   4.192228   3.735312   2.448137
    10  C    3.834722   5.145431   5.375852   4.596442   3.159962
    11  C    4.671629   6.120520   6.591645   5.999264   4.594151
    12  C    4.527055   5.668388   5.693149   4.735863   3.379391
    13  C    4.527495   5.670093   5.695872   4.738772   3.381644
    14  H    3.513973   4.022005   3.481464   2.149684   1.079666
    15  H    2.349928   3.841044   4.566649   4.408418   3.276315
    16  H    4.679676   6.141251   6.730956   6.279094   4.936182
    17  H    4.679858   6.140548   6.729554   6.277574   4.935084
    18  H    5.703415   7.124790   7.498430   6.767301   5.329625
    19  H    4.531704   5.685635   5.846017   5.075459   3.820823
    20  H    4.438404   5.349968   5.134149   4.013713   2.780107
    21  H    5.583918   6.735187   6.711203   5.660961   4.310584
    22  H    4.534566   5.690964   5.853155   5.082649   3.826547
    23  H    5.584187   6.736157   6.712482   5.661875   4.310951
    24  H    4.436371   5.349338   5.135088   4.015575   2.781299
    25  C    2.613869   1.535251   2.542386   3.941062   4.480366
    26  C    3.124754   2.525597   3.588358   4.852301   5.198699
    27  C    3.931326   2.535466   2.854797   4.338485   5.269316
    28  C    3.125100   2.525571   3.588113   4.851951   5.198827
    29  H    3.434719   2.128861   1.082426   2.162916   3.454547
    30  H    2.846262   2.807496   4.032673   5.104728   5.145608
    31  H    4.141091   3.472970   4.484059   5.833871   6.257384
    32  H    3.437649   2.769369   3.537904   4.700174   5.129637
    33  H    4.238187   2.816770   2.817786   4.203364   5.251867
    34  H    4.754444   3.475321   3.939135   5.426537   6.311469
    35  H    4.238660   2.817093   2.818088   4.203626   5.252445
    36  H    2.846960   2.807735   4.032745   5.104741   5.146117
    37  H    3.437698   2.768958   3.537149   4.699144   5.129359
    38  H    4.141494   3.472951   4.483745   5.833481   6.257490
                    6          7          8          9         10
     6  C    0.000000
     7  O    2.359891   0.000000
     8  O    3.573002   5.314500   0.000000
     9  N    1.350455   2.597753   4.788765   0.000000
    10  C    2.566673   4.043700   5.435631   1.477861   0.000000
    11  C    3.736390   4.478771   6.917465   2.404079   1.537328
    12  C    3.182534   4.898111   5.383994   2.484461   1.540955
    13  C    3.183575   4.897079   5.387308   2.484199   1.540948
    14  H    2.154624   4.503272   2.587940   2.804316   2.983313
    15  H    1.976070   2.061570   5.548356   1.013667   2.139252
    16  H    3.954869   4.329442   7.258431   2.657002   2.182884
    17  H    3.954514   4.330977   7.256605   2.657516   2.182821
    18  H    4.647701   5.565601   7.579530   3.368348   2.170888
    19  H    3.429221   4.761938   5.804127   2.724866   2.177674
    20  H    3.018106   5.062311   4.496366   2.794761   2.200666
    21  H    4.208512   5.912800   6.190766   3.425774   2.170554
    22  H    3.432953   4.761790   5.811899   2.725696   2.177668
    23  H    4.208791   5.912449   6.191689   3.425784   2.170760
    24  H    3.017092   5.058760   4.499321   2.792774   2.200385
    25  C    4.013445   2.920386   4.885111   4.993400   6.446763
    26  C    4.543629   3.051541   5.834788   5.308766   6.752223
    27  C    5.141828   4.428859   4.966482   6.278870   7.680057
    28  C    4.544390   3.051721   5.834068   5.310248   6.754077
    29  H    3.932743   4.489042   2.510847   5.272057   6.426896
    30  H    4.247475   2.396692   6.203406   4.759240   6.180820
    31  H    5.600919   3.940306   6.760774   6.330643   7.783256
    32  H    4.647240   3.584837   5.576453   5.479791   6.848550
    33  H    5.291519   4.866760   4.683813   6.487492   7.830356
    34  H    6.076576   5.042763   6.052326   7.133341   8.570825
    35  H    5.292371   4.867011   4.683762   6.488687   7.831854
    36  H    4.248664   2.397138   6.203064   4.761258   6.183229
    37  H    4.647984   3.584646   5.574804   5.481704   6.851124
    38  H    5.601639   3.940720   6.759989   6.332072   7.785045
                   11         12         13         14         15
    11  C    0.000000
    12  C    2.507552   0.000000
    13  C    2.507822   2.543483   0.000000
    14  H    4.515648   2.948275   2.950734   0.000000
    15  H    2.426173   3.208964   3.207077   3.776614   0.000000
    16  H    1.093866   3.472559   2.746557   4.982722   2.425758
    17  H    1.093855   2.745667   3.472717   4.981492   2.428238
    18  H    1.091611   2.750464   2.750259   5.057838   3.507828
    19  H    2.734153   1.092716   3.493363   3.610658   3.208387
    20  H    3.478849   1.090264   2.824910   2.169653   3.684326
    21  H    2.747878   1.093094   2.777491   3.703327   4.095027
    22  H    2.733279   3.493338   1.092718   3.616112   3.206058
    23  H    2.749829   2.776343   1.093097   3.703295   4.094363
    24  H    3.478875   2.825981   1.090288   2.172487   3.680715
    25  C    7.230074   7.034045   7.035585   5.557099   4.827554
    26  C    7.348908   7.192513   7.628574   6.249588   4.977779
    27  C    8.602885   8.147217   8.149726   6.292808   6.245409
    28  C    7.352029   7.629036   7.194823   6.249693   4.979080
    29  H    7.668834   6.674348   6.677545   4.303911   5.640749
    30  H    6.592533   6.692597   7.169008   6.162351   4.268674
    31  H    8.301807   8.262150   8.647981   7.316992   5.927029
    32  H    7.542993   7.053082   7.798769   6.124262   5.277326
    33  H    8.837761   8.091718   8.368611   6.219367   6.550550
    34  H    9.390260   9.082737   9.085130   7.350346   6.986884
    35  H    8.839892   8.367054   8.095913   6.219949   6.551513
    36  H    6.596374   7.170806   6.694479   6.162848   4.270499
    37  H    7.547659   7.799226   7.056307   6.123938   5.278902
    38  H    8.304835   8.648452   8.264375   7.317074   5.928374
                   16         17         18         19         20
    16  H    0.000000
    17  H    1.776335   0.000000
    18  H    1.768015   1.768088   0.000000
    19  H    3.745087   2.517144   3.080581   0.000000
    20  H    4.342121   3.756087   3.764181   1.766186   0.000000
    21  H    3.756395   3.090940   2.538224   1.771901   1.764039
    22  H    2.516891   3.744703   3.078267   4.328499   3.831706
    23  H    3.094351   3.757707   2.539873   3.772162   3.153336
    24  H    3.756027   4.341913   3.764674   3.831752   2.671315
    25  C    7.135337   7.134806   8.285531   6.933352   6.797583
    26  C    7.336027   7.022298   8.415262   6.856073   7.067024
    27  C    8.550684   8.549455   9.630392   8.087297   7.750573
    28  C    7.025971   7.339521   8.418250   7.616171   7.531281
    29  H    7.805331   7.803606   8.563342   6.822524   6.034583
    30  H    6.548582   6.187170   7.665083   6.292185   6.724633
    31  H    8.223755   7.942570   9.378355   7.899525   8.158194
    32  H    7.684813   7.164485   8.568149   6.642922   6.834683
    33  H    8.917313   8.737392   9.833807   7.977294   7.602597
    34  H    9.279321   9.278196  10.443475   8.964190   8.743039
    35  H    8.741231   8.918138   9.835931   8.446104   7.908631
    36  H    6.190922   6.553557   7.668728   7.131581   7.222561
    37  H    7.170463   7.689685   8.572627   7.935762   7.636896
    38  H    7.946056   8.227226   9.381292   8.573692   8.567265
                   21         22         23         24         25
    21  H    0.000000
    22  H    3.772194   0.000000
    23  H    2.562004   1.771943   0.000000
    24  H    3.157271   1.766167   1.764153   0.000000
    25  C    8.113145   6.938357   8.114301   6.796591   0.000000
    26  C    8.278716   7.618074   8.663085   7.529367   1.548680
    27  C    9.220558   8.094143   9.222271   7.750761   1.540048
    28  C    8.663936   6.861696   8.281434   7.065466   1.548722
    29  H    7.673126   6.830545   7.674727   6.036151   2.798515
    30  H    7.754028   7.131253   8.172134   7.219377   2.198921
    31  H    9.344346   8.575559   9.689834   8.565206   2.173585
    32  H    8.136508   7.937730   8.795268   7.635912   2.190718
    33  H    9.161022   8.452012   9.407550   7.908727   2.198064
    34  H   10.164730   8.970795  10.166540   8.742988   2.160464
    35  H    9.407270   7.986435   9.164451   7.603945   2.198136
    36  H    8.173944   6.296419   7.756787   6.722503   2.199001
    37  H    8.796631   6.650303   8.140169   6.833292   2.190664
    38  H    9.690560   7.904939   9.347082   8.156593   2.173633
                   26         27         28         29         30
    26  C    0.000000
    27  C    2.498066   0.000000
    28  C    2.535823   2.498108   0.000000
    29  H    3.897768   2.487641   3.897341   0.000000
    30  H    1.089043   3.466730   2.787592   4.573125   0.000000
    31  H    1.094017   2.691242   2.772485   4.623944   1.768955
    32  H    1.094056   2.759504   3.495650   3.764477   1.773621
    33  H    2.753297   1.093475   3.475257   2.268698   3.779595
    34  H    2.706889   1.092779   2.707221   3.558909   3.700126
    35  H    3.475250   1.093479   2.753131   2.268761   4.346272
    36  H    2.787446   3.466778   1.089045   4.573000   2.596492
    37  H    3.495584   2.759702   1.094052   3.763527   3.798883
    38  H    2.772754   2.691058   1.094014   4.623373   3.126839
                   31         32         33         34         35
    31  H    0.000000
    32  H    1.767508   0.000000
    33  H    3.032782   2.563094   0.000000
    34  H    2.438173   3.086762   1.763512   0.000000
    35  H    3.706053   3.778662   1.773467   1.763487   0.000000
    36  H    3.126175   3.798957   4.346286   3.700268   3.779598
    37  H    3.774811   4.346669   3.778630   3.087559   2.563110
    38  H    2.559544   3.774928   3.706059   2.438315   3.032062
                   36         37         38
    36  H    0.000000
    37  H    1.773605   0.000000
    38  H    1.768961   1.767545   0.000000
 Symmetry turned off by external request.
 Stoichiometry    C14H21NO2
 Framework group  C1[X(C14H21NO2)]
 Deg. of freedom   108
 Full point group                 C1      NOp   1
 Rotational constants (GHZ):           0.7858310           0.2800802           0.2275203
 Leave Link  202 at Sat Feb 10 10:39:07 2024, MaxMem=  4026531840 cpu:               0.5 elap:               0.1
 (Enter /sysapps/ubuntu-applications/gaussian/Gaussian/AVX2/g16/l301.exe)
 Standard basis: 6-311++G(d,p) (5D, 7F)
 Ernie: Thresh=  0.10000D-02 Tol=  0.10000D-05 Strict=F.
   521 basis functions,   801 primitive gaussians,   538 cartesian basis functions
    64 alpha electrons       64 beta electrons
       nuclear repulsion energy      1249.6239270489 Hartrees.
 IExCor=  402 DFT=T Ex+Corr=B3LYP ExCW=0 ScaHFX=  0.200000
 ScaDFX=  0.800000  0.720000  1.000000  0.810000 ScalE2=  1.000000  1.000000
 IRadAn=      5 IRanWt=     -1 IRanGd=            0 ICorTp=0 IEmpDi=  4
 NAtoms=   38 NActive=   38 NUniq=   38 SFac= 1.00D+00 NAtFMM=   60 NAOKFM=F Big=F
 Integral buffers will be    131072 words long.
 Raffenetti 2 integral format.
 Two-electron integral symmetry is turned off.
 ------------------------------------------------------------------------------
 Polarizable Continuum Model (PCM)
 =================================
 Model                : PCM.
 Atomic radii         : UFF (Universal Force Field).
 Polarization charges : Total charges.
 Charge compensation  : None.
 Solution method      : On-the-fly selection.
 Cavity type          : Scaled VdW (van der Waals Surface) (Alpha=1.100).
 Cavity algorithm     : GePol (No added spheres)
                        Default sphere list used, NSphG=   38.
                        Lebedev-Laikov grids with approx.  5.0 points / Ang**2.
                        Smoothing algorithm: York/Karplus (Gamma=1.0000).
                        Polarization charges: spherical gaussians, with
                                              point-specific exponents (IZeta= 3).
                        Self-potential: point-specific (ISelfS= 7).
                        Self-field    : sphere-specific E.n sum rule (ISelfD= 2).
 1st derivatives      : Analytical E(r).r(x)/FMM algorithm (CHGder, D1EAlg=3).
                        Cavity 1st derivative terms included.
 Solvent              : n,n-DiMethylFormamide, Eps=  37.219000 Eps(inf)=   2.046330
 ------------------------------------------------------------------------------
 GePol: Number of generator spheres                  =      38
 GePol: Total number of spheres                      =      38
 GePol: Number of exposed spheres                    =      38 (100.00%)
 GePol: Number of points                             =    2497
 GePol: Average weight of points                     =       0.13
 GePol: Minimum weight of points                     =   0.22D-08
 GePol: Maximum weight of points                     =    0.20577
 GePol: Number of points with low weight             =     153
 GePol: Fraction of low-weight points (<1% of avg)   =       6.13%
 GePol: Cavity surface area                          =    330.704 Ang**2
 GePol: Cavity volume                                =    362.751 Ang**3
 Leave Link  301 at Sat Feb 10 10:39:07 2024, MaxMem=  4026531840 cpu:               0.9 elap:               0.2
 (Enter /sysapps/ubuntu-applications/gaussian/Gaussian/AVX2/g16/l302.exe)
 NPDir=0 NMtPBC=     1 NCelOv=     1 NCel=       1 NClECP=     1 NCelD=      1
         NCelK=      1 NCelE2=     1 NClLst=     1 CellRange=     0.0.
 One-electron integrals computed using PRISM.
 NBasis=   521 RedAO= T EigKep=  2.14D-06  NBF=   521
 NBsUse=   517 1.00D-06 EigRej=  9.15D-07 NBFU=   517
 Precomputing XC quadrature grid using
 IXCGrd= 4 IRadAn=           5 IRanWt=          -1 IRanGd=           0 AccXCQ= 0.00D+00.
 Generated NRdTot=       0 NPtTot=           0 NUsed=           0 NTot=          32
 NSgBfM=   537   537   537   537   537 MxSgAt=    38 MxSgA2=    38.
 Leave Link  302 at Sat Feb 10 10:39:08 2024, MaxMem=  4026531840 cpu:               7.2 elap:               1.0
 (Enter /sysapps/ubuntu-applications/gaussian/Gaussian/AVX2/g16/l303.exe)
 DipDrv:  MaxL=1.
 Leave Link  303 at Sat Feb 10 10:39:08 2024, MaxMem=  4026531840 cpu:               1.2 elap:               0.3
 (Enter /sysapps/ubuntu-applications/gaussian/Gaussian/AVX2/g16/l401.exe)
 ExpMin= 3.60D-02 ExpMax= 8.59D+03 ExpMxC= 1.30D+03 IAcc=3 IRadAn=         5 AccDes= 0.00D+00
 Harris functional with IExCor=  402 and IRadAn=       5 diagonalized for initial guess.
 HarFok:  IExCor=  402 AccDes= 0.00D+00 IRadAn=         5 IDoV= 1 UseB2=F ITyADJ=14
 ICtDFT=  3500011 ScaDFX=  1.000000  1.000000  1.000000  1.000000
 FoFCou: FMM=F IPFlag=           0 FMFlag=      100000 FMFlg1=           0
         NFxFlg=           0 DoJE=T BraDBF=F KetDBF=T FulRan=T
         wScrn=  0.000000 ICntrl=       500 IOpCl=  0 I1Cent=   200000004 NGrid=           0
         NMat0=    1 NMatS0=      1 NMatT0=    0 NMatD0=    1 NMtDS0=    0 NMtDT0=    0
 Symmetry not used in FoFCou.
 Harris En= -751.656005090375    
 JPrj=0 DoOrth=F DoCkMO=F.
 Initial guess <Sx>= 0.0000 <Sy>= 0.0000 <Sz>= 0.0000 <S**2>=-0.0000 S=-0.0000
 Leave Link  401 at Sat Feb 10 10:39:13 2024, MaxMem=  4026531840 cpu:              40.1 elap:               5.1
 (Enter /sysapps/ubuntu-applications/gaussian/Gaussian/AVX2/g16/l502.exe)
 Two-electron integral symmetry not used.
 UHF open shell SCF:
 Using DIIS extrapolation, IDIIS=  1040.
 NGot=  4026531840 LenX=  4025944608 LenY=  4025654626
 Requested convergence on RMS density matrix=1.00D-08 within 128 cycles.
 Requested convergence on MAX density matrix=1.00D-06.
 Requested convergence on             energy=1.00D-06.
 No special actions if energy rises.
 Fock matrices will be formed incrementally for  20 cycles.

 Cycle   1  Pass 1  IDiag  1:
 FoFJK:  IHMeth= 1 ICntrl=       0 DoSepK=F KAlg= 0 I1Cent=           0 FoldK=F
 IRaf= 850000000 NMat=       1 IRICut=       1 DoRegI=T DoRafI=F ISym2E= 0 IDoP0=0 IntGTp=1.
 FoFCou: FMM=F IPFlag=           0 FMFlag=      100000 FMFlg1=           0
         NFxFlg=           0 DoJE=F BraDBF=F KetDBF=F FulRan=T
         wScrn=  0.000000 ICntrl=         0 IOpCl=  1 I1Cent=           0 NGrid=           0
         NMat0=    1 NMatS0=      1 NMatT0=    0 NMatD0=    1 NMtDS0=    0 NMtDT0=    0
 Symmetry not used in FoFCou.
 Inv3:  Mode=1 IEnd=    18705027.
 Iteration    1 A*A^-1 deviation from unit magnitude is 3.44D-15 for   1118.
 Iteration    1 A*A^-1 deviation from orthogonality  is 2.44D-15 for   2008   1258.
 Iteration    1 A^-1*A deviation from unit magnitude is 3.44D-15 for   1118.
 Iteration    1 A^-1*A deviation from orthogonality  is 1.34D-14 for   2027   2008.
 E= -750.960266059343    
 DIIS: error= 3.83D-02 at cycle   1 NSaved=   1.
 NSaved= 1 IEnMin= 1 EnMin= -750.960266059343     IErMin= 1 ErrMin= 3.83D-02
 ErrMax= 3.83D-02  0.00D+00 EMaxC= 1.00D-01 BMatC= 2.73D+00 BMatP= 2.73D+00
 IDIUse=3 WtCom= 6.17D-01 WtEn= 3.83D-01
 Coeff-Com:  0.100D+01
 Coeff-En:   0.100D+01
 Coeff:      0.100D+01
 Gap=     0.081 Goal=   None    Shift=    0.000
 Gap=     0.081 Goal=   None    Shift=    0.000
 GapD=    0.081 DampG=0.500 DampE=0.500 DampFc=0.2500 IDamp=-1.
 Damping current iteration by 2.50D-01
 RMSDP=1.43D-02 MaxDP=1.36D+00              OVMax= 3.54D-01

 Cycle   2  Pass 1  IDiag  1:
 RMSU=  3.04D-03    CP:  1.06D+00
 E= -751.175486464769     Delta-E=       -0.215220405427 Rises=F Damp=T
 DIIS: error= 1.61D-02 at cycle   2 NSaved=   2.
 NSaved= 2 IEnMin= 2 EnMin= -751.175486464769     IErMin= 2 ErrMin= 1.61D-02
 ErrMax= 1.61D-02  0.00D+00 EMaxC= 1.00D-01 BMatC= 6.11D-01 BMatP= 2.73D+00
 IDIUse=3 WtCom= 8.39D-01 WtEn= 1.61D-01
 Coeff-Com: -0.681D+00 0.168D+01
 Coeff-En:   0.000D+00 0.100D+01
 Coeff:     -0.572D+00 0.157D+01
 Gap=     0.166 Goal=   None    Shift=    0.000
 Gap=     0.166 Goal=   None    Shift=    0.000
 RMSDP=7.07D-03 MaxDP=8.22D-01 DE=-2.15D-01 OVMax= 2.71D-01

 Cycle   3  Pass 1  IDiag  1:
 RMSU=  3.05D-03    CP:  8.77D-01  3.10D-01
 E= -751.485038317161     Delta-E=       -0.309551852392 Rises=F Damp=F
 DIIS: error= 1.48D-02 at cycle   3 NSaved=   3.
 NSaved= 3 IEnMin= 3 EnMin= -751.485038317161     IErMin= 3 ErrMin= 1.48D-02
 ErrMax= 1.48D-02  0.00D+00 EMaxC= 1.00D-01 BMatC= 3.15D-01 BMatP= 6.11D-01
 IDIUse=3 WtCom= 8.52D-01 WtEn= 1.48D-01
 Coeff-Com: -0.435D+00 0.999D+00 0.436D+00
 Coeff-En:   0.000D+00 0.000D+00 0.100D+01
 Coeff:     -0.370D+00 0.851D+00 0.520D+00
 Gap=     0.115 Goal=   None    Shift=    0.000
 Gap=     0.115 Goal=   None    Shift=    0.000
 RMSDP=3.63D-03 MaxDP=4.91D-01 DE=-3.10D-01 OVMax= 1.62D-01

 Cycle   4  Pass 1  IDiag  1:
 RMSU=  1.58D-03    CP:  9.67D-01  6.63D-01  8.17D-01
 E= -751.534290544452     Delta-E=       -0.049252227291 Rises=F Damp=F
 DIIS: error= 8.79D-03 at cycle   4 NSaved=   4.
 NSaved= 4 IEnMin= 4 EnMin= -751.534290544452     IErMin= 4 ErrMin= 8.79D-03
 ErrMax= 8.79D-03  0.00D+00 EMaxC= 1.00D-01 BMatC= 9.26D-02 BMatP= 3.15D-01
 IDIUse=3 WtCom= 9.12D-01 WtEn= 8.79D-02
 Coeff-Com: -0.638D-01 0.158D+00 0.347D+00 0.558D+00
 Coeff-En:   0.000D+00 0.000D+00 0.267D+00 0.733D+00
 Coeff:     -0.582D-01 0.144D+00 0.340D+00 0.574D+00
 Gap=     0.107 Goal=   None    Shift=    0.000
 Gap=     0.107 Goal=   None    Shift=    0.000
 RMSDP=1.78D-03 MaxDP=1.89D-01 DE=-4.93D-02 OVMax= 6.44D-02

 Cycle   5  Pass 1  IDiag  1:
 RMSU=  5.03D-04    CP:  9.24D-01  4.37D-01  9.58D-01  7.38D-01
 E= -751.552720142268     Delta-E=       -0.018429597815 Rises=F Damp=F
 DIIS: error= 1.69D-03 at cycle   5 NSaved=   5.
 NSaved= 5 IEnMin= 5 EnMin= -751.552720142268     IErMin= 5 ErrMin= 1.69D-03
 ErrMax= 1.69D-03  0.00D+00 EMaxC= 1.00D-01 BMatC= 4.46D-03 BMatP= 9.26D-02
 IDIUse=3 WtCom= 9.83D-01 WtEn= 1.69D-02
 Coeff-Com: -0.847D-02 0.245D-01 0.166D+00 0.335D+00 0.483D+00
 Coeff-En:   0.000D+00 0.000D+00 0.000D+00 0.000D+00 0.100D+01
 Coeff:     -0.833D-02 0.241D-01 0.163D+00 0.329D+00 0.492D+00
 Gap=     0.110 Goal=   None    Shift=    0.000
 Gap=     0.110 Goal=   None    Shift=    0.000
 RMSDP=4.02D-04 MaxDP=6.77D-02 DE=-1.84D-02 OVMax= 1.76D-02

 Cycle   6  Pass 1  IDiag  1:
 RMSU=  1.68D-04    CP:  9.14D-01  4.27D-01  9.52D-01  7.08D-01  7.05D-01
 E= -751.553609499955     Delta-E=       -0.000889357687 Rises=F Damp=F
 DIIS: error= 9.21D-04 at cycle   6 NSaved=   6.
 NSaved= 6 IEnMin= 6 EnMin= -751.553609499955     IErMin= 6 ErrMin= 9.21D-04
 ErrMax= 9.21D-04  0.00D+00 EMaxC= 1.00D-01 BMatC= 6.41D-04 BMatP= 4.46D-03
 IDIUse=3 WtCom= 9.91D-01 WtEn= 9.21D-03
 Coeff-Com:  0.156D-02-0.272D-02 0.562D-01 0.128D+00 0.312D+00 0.505D+00
 Coeff-En:   0.000D+00 0.000D+00 0.000D+00 0.000D+00 0.963D-01 0.904D+00
 Coeff:      0.154D-02-0.269D-02 0.557D-01 0.127D+00 0.310D+00 0.508D+00
 Gap=     0.110 Goal=   None    Shift=    0.000
 Gap=     0.110 Goal=   None    Shift=    0.000
 RMSDP=1.16D-04 MaxDP=2.33D-02 DE=-8.89D-04 OVMax= 4.70D-03

 Cycle   7  Pass 1  IDiag  1:
 RMSU=  6.57D-05    CP:  9.11D-01  4.24D-01  9.54D-01  7.08D-01  6.92D-01
                    CP:  8.93D-01
 E= -751.553722458170     Delta-E=       -0.000112958215 Rises=F Damp=F
 DIIS: error= 2.93D-04 at cycle   7 NSaved=   7.
 NSaved= 7 IEnMin= 7 EnMin= -751.553722458170     IErMin= 7 ErrMin= 2.93D-04
 ErrMax= 2.93D-04  0.00D+00 EMaxC= 1.00D-01 BMatC= 7.93D-05 BMatP= 6.41D-04
 IDIUse=3 WtCom= 9.97D-01 WtEn= 2.93D-03
 Coeff-Com:  0.186D-02-0.432D-02 0.872D-02 0.259D-01 0.124D+00 0.315D+00
 Coeff-Com:  0.529D+00
 Coeff-En:   0.000D+00 0.000D+00 0.000D+00 0.000D+00 0.000D+00 0.867D-01
 Coeff-En:   0.913D+00
 Coeff:      0.185D-02-0.431D-02 0.869D-02 0.258D-01 0.124D+00 0.314D+00
 Coeff:      0.530D+00
 Gap=     0.110 Goal=   None    Shift=    0.000
 Gap=     0.110 Goal=   None    Shift=    0.000
 RMSDP=4.27D-05 MaxDP=8.80D-03 DE=-1.13D-04 OVMax= 1.64D-03

 Cycle   8  Pass 1  IDiag  1:
 RMSU=  1.74D-05    CP:  9.12D-01  4.21D-01  9.57D-01  7.13D-01  7.24D-01
                    CP:  8.96D-01  6.80D-01
 E= -751.553738768550     Delta-E=       -0.000016310380 Rises=F Damp=F
 DIIS: error= 8.94D-05 at cycle   8 NSaved=   8.
 NSaved= 8 IEnMin= 8 EnMin= -751.553738768550     IErMin= 8 ErrMin= 8.94D-05
 ErrMax= 8.94D-05  0.00D+00 EMaxC= 1.00D-01 BMatC= 4.08D-06 BMatP= 7.93D-05
 IDIUse=1 WtCom= 1.00D+00 WtEn= 0.00D+00
 Coeff-Com:  0.513D-03-0.120D-02 0.661D-03 0.304D-02 0.397D-01 0.110D+00
 Coeff-Com:  0.260D+00 0.588D+00
 Coeff:      0.513D-03-0.120D-02 0.661D-03 0.304D-02 0.397D-01 0.110D+00
 Coeff:      0.260D+00 0.588D+00
 Gap=     0.110 Goal=   None    Shift=    0.000
 Gap=     0.110 Goal=   None    Shift=    0.000
 RMSDP=9.64D-06 MaxDP=1.49D-03 DE=-1.63D-05 OVMax= 3.56D-04

 Cycle   9  Pass 1  IDiag  1:
 RMSU=  4.63D-06    CP:  9.12D-01  4.20D-01  9.58D-01  7.15D-01  7.29D-01
                    CP:  8.83D-01  7.04D-01  9.82D-01
 E= -751.553739574979     Delta-E=       -0.000000806429 Rises=F Damp=F
 DIIS: error= 1.38D-05 at cycle   9 NSaved=   9.
 NSaved= 9 IEnMin= 9 EnMin= -751.553739574979     IErMin= 9 ErrMin= 1.38D-05
 ErrMax= 1.38D-05  0.00D+00 EMaxC= 1.00D-01 BMatC= 7.17D-07 BMatP= 4.08D-06
 IDIUse=1 WtCom= 1.00D+00 WtEn= 0.00D+00
 Coeff-Com:  0.123D-03-0.250D-03-0.967D-03-0.253D-02 0.506D-02 0.144D-01
 Coeff-Com:  0.718D-01 0.334D+00 0.578D+00
 Coeff:      0.123D-03-0.250D-03-0.967D-03-0.253D-02 0.506D-02 0.144D-01
 Coeff:      0.718D-01 0.334D+00 0.578D+00
 Gap=     0.110 Goal=   None    Shift=    0.000
 Gap=     0.110 Goal=   None    Shift=    0.000
 RMSDP=3.98D-06 MaxDP=5.68D-04 DE=-8.06D-07 OVMax= 1.35D-04

 Cycle  10  Pass 1  IDiag  1:
 RMSU=  1.91D-06    CP:  9.12D-01  4.20D-01  9.58D-01  7.14D-01  7.29D-01
                    CP:  8.86D-01  7.06D-01  1.03D+00  8.26D-01
 E= -751.553739709719     Delta-E=       -0.000000134740 Rises=F Damp=F
 DIIS: error= 1.01D-05 at cycle  10 NSaved=  10.
 NSaved=10 IEnMin=10 EnMin= -751.553739709719     IErMin=10 ErrMin= 1.01D-05
 ErrMax= 1.01D-05  0.00D+00 EMaxC= 1.00D-01 BMatC= 9.19D-08 BMatP= 7.17D-07
 IDIUse=1 WtCom= 1.00D+00 WtEn= 0.00D+00
 Coeff-Com:  0.405D-04-0.589D-04-0.503D-03-0.161D-02 0.208D-03-0.826D-03
 Coeff-Com:  0.208D-01 0.146D+00 0.326D+00 0.509D+00
 Coeff:      0.405D-04-0.589D-04-0.503D-03-0.161D-02 0.208D-03-0.826D-03
 Coeff:      0.208D-01 0.146D+00 0.326D+00 0.509D+00
 Gap=     0.110 Goal=   None    Shift=    0.000
 Gap=     0.110 Goal=   None    Shift=    0.000
 RMSDP=1.88D-06 MaxDP=1.82D-04 DE=-1.35D-07 OVMax= 1.08D-04

 Cycle  11  Pass 1  IDiag  1:
 RMSU=  6.13D-07    CP:  9.12D-01  4.20D-01  9.58D-01  7.14D-01  7.30D-01
                    CP:  8.87D-01  7.09D-01  1.02D+00  8.73D-01  7.18D-01
 E= -751.553739729188     Delta-E=       -0.000000019469 Rises=F Damp=F
 DIIS: error= 3.74D-06 at cycle  11 NSaved=  11.
 NSaved=11 IEnMin=11 EnMin= -751.553739729188     IErMin=11 ErrMin= 3.74D-06
 ErrMax= 3.74D-06  0.00D+00 EMaxC= 1.00D-01 BMatC= 1.52D-08 BMatP= 9.19D-08
 IDIUse=1 WtCom= 1.00D+00 WtEn= 0.00D+00
 Coeff-Com:  0.154D-05 0.851D-05-0.956D-04-0.463D-03-0.957D-03-0.395D-02
 Coeff-Com: -0.297D-02 0.110D-01 0.328D-01 0.288D+00 0.677D+00
 Coeff:      0.154D-05 0.851D-05-0.956D-04-0.463D-03-0.957D-03-0.395D-02
 Coeff:     -0.297D-02 0.110D-01 0.328D-01 0.288D+00 0.677D+00
 Gap=     0.110 Goal=   None    Shift=    0.000
 Gap=     0.110 Goal=   None    Shift=    0.000
 RMSDP=1.06D-06 MaxDP=1.83D-04 DE=-1.95D-08 OVMax= 3.05D-05

 Cycle  12  Pass 1  IDiag  1:
 RMSU=  2.48D-07    CP:  9.12D-01  4.20D-01  9.58D-01  7.14D-01  7.30D-01
                    CP:  8.87D-01  7.12D-01  1.03D+00  8.58D-01  8.46D-01
                    CP:  7.97D-01
 E= -751.553739732874     Delta-E=       -0.000000003686 Rises=F Damp=F
 DIIS: error= 7.95D-07 at cycle  12 NSaved=  12.
 NSaved=12 IEnMin=12 EnMin= -751.553739732874     IErMin=12 ErrMin= 7.95D-07
 ErrMax= 7.95D-07  0.00D+00 EMaxC= 1.00D-01 BMatC= 1.45D-09 BMatP= 1.52D-08
 IDIUse=1 WtCom= 1.00D+00 WtEn= 0.00D+00
 Coeff-Com: -0.392D-05 0.125D-04 0.191D-04-0.483D-04-0.500D-03-0.204D-02
 Coeff-Com: -0.396D-02-0.129D-01-0.291D-01 0.103D+00 0.342D+00 0.603D+00
 Coeff:     -0.392D-05 0.125D-04 0.191D-04-0.483D-04-0.500D-03-0.204D-02
 Coeff:     -0.396D-02-0.129D-01-0.291D-01 0.103D+00 0.342D+00 0.603D+00
 Gap=     0.110 Goal=   None    Shift=    0.000
 Gap=     0.110 Goal=   None    Shift=    0.000
 RMSDP=2.01D-07 MaxDP=2.43D-05 DE=-3.69D-09 OVMax= 1.62D-05

 Cycle  13  Pass 1  IDiag  1:
 RMSU=  9.37D-08    CP:  9.12D-01  4.20D-01  9.58D-01  7.14D-01  7.30D-01
                    CP:  8.87D-01  7.12D-01  1.04D+00  8.68D-01  8.43D-01
                    CP:  8.56D-01  9.07D-01
 E= -751.553739733259     Delta-E=       -0.000000000386 Rises=F Damp=F
 DIIS: error= 3.91D-07 at cycle  13 NSaved=  13.
 NSaved=13 IEnMin=13 EnMin= -751.553739733259     IErMin=13 ErrMin= 3.91D-07
 ErrMax= 3.91D-07  0.00D+00 EMaxC= 1.00D-01 BMatC= 1.82D-10 BMatP= 1.45D-09
 IDIUse=1 WtCom= 1.00D+00 WtEn= 0.00D+00
 Coeff-Com:  0.146D-05-0.102D-05 0.200D-04 0.251D-04-0.882D-04-0.457D-03
 Coeff-Com: -0.120D-02-0.658D-02-0.161D-01 0.175D-01 0.533D-01 0.275D+00
 Coeff-Com:  0.679D+00
 Coeff:      0.146D-05-0.102D-05 0.200D-04 0.251D-04-0.882D-04-0.457D-03
 Coeff:     -0.120D-02-0.658D-02-0.161D-01 0.175D-01 0.533D-01 0.275D+00
 Coeff:      0.679D+00
 Gap=     0.110 Goal=   None    Shift=    0.000
 Gap=     0.110 Goal=   None    Shift=    0.000
 RMSDP=6.10D-08 MaxDP=3.97D-06 DE=-3.86D-10 OVMax= 4.47D-06

 Cycle  14  Pass 1  IDiag  1:
 RMSU=  2.40D-08    CP:  9.12D-01  4.20D-01  9.58D-01  7.14D-01  7.30D-01
                    CP:  8.87D-01  7.12D-01  1.04D+00  8.69D-01  8.57D-01
                    CP:  8.69D-01  9.30D-01  8.48D-01
 E= -751.553739733286     Delta-E=       -0.000000000026 Rises=F Damp=F
 DIIS: error= 1.48D-07 at cycle  14 NSaved=  14.
 NSaved=14 IEnMin=14 EnMin= -751.553739733286     IErMin=14 ErrMin= 1.48D-07
 ErrMax= 1.48D-07  0.00D+00 EMaxC= 1.00D-01 BMatC= 3.50D-11 BMatP= 1.82D-10
 IDIUse=1 WtCom= 1.00D+00 WtEn= 0.00D+00
 Coeff-Com:  0.159D-05-0.205D-05 0.128D-04 0.242D-04-0.893D-05-0.104D-03
 Coeff-Com: -0.422D-03-0.346D-02-0.834D-02-0.314D-03-0.571D-02 0.118D+00
 Coeff-Com:  0.433D+00 0.467D+00
 Coeff:      0.159D-05-0.205D-05 0.128D-04 0.242D-04-0.893D-05-0.104D-03
 Coeff:     -0.422D-03-0.346D-02-0.834D-02-0.314D-03-0.571D-02 0.118D+00
 Coeff:      0.433D+00 0.467D+00
 Gap=     0.110 Goal=   None    Shift=    0.000
 Gap=     0.110 Goal=   None    Shift=    0.000
 RMSDP=2.15D-08 MaxDP=1.37D-06 DE=-2.64D-11 OVMax= 9.89D-07

 Cycle  15  Pass 1  IDiag  1:
 RMSU=  8.88D-09    CP:  9.12D-01  4.20D-01  9.58D-01  7.14D-01  7.30D-01
                    CP:  8.87D-01  7.12D-01  1.04D+00  8.70D-01  8.58D-01
                    CP:  8.68D-01  9.36D-01  9.58D-01  8.55D-01
 E= -751.553739733299     Delta-E=       -0.000000000013 Rises=F Damp=F
 DIIS: error= 5.93D-08 at cycle  15 NSaved=  15.
 NSaved=15 IEnMin=15 EnMin= -751.553739733299     IErMin=15 ErrMin= 5.93D-08
 ErrMax= 5.93D-08  0.00D+00 EMaxC= 1.00D-01 BMatC= 2.35D-12 BMatP= 3.50D-11
 IDIUse=1 WtCom= 1.00D+00 WtEn= 0.00D+00
 Coeff-Com:  0.918D-06-0.134D-05 0.200D-05 0.415D-05 0.171D-04 0.378D-04
 Coeff-Com:  0.102D-03-0.163D-03-0.216D-03-0.250D-02-0.143D-01 0.247D-02
 Coeff-Com:  0.755D-01 0.195D+00 0.744D+00
 Coeff:      0.918D-06-0.134D-05 0.200D-05 0.415D-05 0.171D-04 0.378D-04
 Coeff:      0.102D-03-0.163D-03-0.216D-03-0.250D-02-0.143D-01 0.247D-02
 Coeff:      0.755D-01 0.195D+00 0.744D+00
 Gap=     0.110 Goal=   None    Shift=    0.000
 Gap=     0.110 Goal=   None    Shift=    0.000
 RMSDP=1.01D-08 MaxDP=1.83D-06 DE=-1.30D-11 OVMax= 4.46D-07

 Cycle  16  Pass 1  IDiag  1:
 RMSU=  2.45D-09    CP:  9.12D-01  4.20D-01  9.58D-01  7.14D-01  7.30D-01
                    CP:  8.87D-01  7.12D-01  1.04D+00  8.69D-01  8.59D-01
                    CP:  8.68D-01  9.49D-01  9.67D-01  8.81D-01  8.00D-01
 E= -751.553739733314     Delta-E=       -0.000000000016 Rises=F Damp=F
 DIIS: error= 5.72D-09 at cycle  16 NSaved=  16.
 NSaved=16 IEnMin=16 EnMin= -751.553739733314     IErMin=16 ErrMin= 5.72D-09
 ErrMax= 5.72D-09  0.00D+00 EMaxC= 1.00D-01 BMatC= 7.95D-14 BMatP= 2.35D-12
 IDIUse=1 WtCom= 1.00D+00 WtEn= 0.00D+00
 Coeff-Com:  0.200D-06-0.286D-06 0.839D-07 0.113D-07 0.397D-05 0.125D-04
 Coeff-Com:  0.419D-04 0.773D-04 0.270D-03-0.559D-03-0.317D-02-0.377D-02
 Coeff-Com: -0.130D-02 0.983D-02 0.176D+00 0.823D+00
 Coeff:      0.200D-06-0.286D-06 0.839D-07 0.113D-07 0.397D-05 0.125D-04
 Coeff:      0.419D-04 0.773D-04 0.270D-03-0.559D-03-0.317D-02-0.377D-02
 Coeff:     -0.130D-02 0.983D-02 0.176D+00 0.823D+00
 Gap=     0.110 Goal=   None    Shift=    0.000
 Gap=     0.110 Goal=   None    Shift=    0.000
 RMSDP=1.47D-09 MaxDP=2.10D-07 DE=-1.57D-11 OVMax= 5.71D-08

 Error on total polarization charges =  0.01927
 SCF Done:  E(UB3LYP) =  -751.553739733     A.U. after   16 cycles
            NFock= 16  Conv=0.15D-08     -V/T= 2.0045
 <Sx>= 0.0000 <Sy>= 0.0000 <Sz>= 0.0000 <S**2>=-0.0000 S=-0.0000
 <L.S>=  0.00000000000    
 KE= 7.481950324391D+02 PE=-4.247556536607D+03 EE= 1.498183837386D+03
 Annihilation of the first spin contaminant:
 S**2 before annihilation    -0.0000,   after    -0.0000
 Leave Link  502 at Sat Feb 10 10:47:54 2024, MaxMem=  4026531840 cpu:            4126.7 elap:             520.4
 (Enter /sysapps/ubuntu-applications/gaussian/Gaussian/AVX2/g16/l601.exe)
 Copying SCF densities to generalized density rwf, IOpCl= 1 IROHF=0.

 **********************************************************************

            Population analysis using the SCF density.

 **********************************************************************

 Alpha  occ. eigenvalues --  -19.14718 -19.11549 -14.35148 -10.29427 -10.26512
 Alpha  occ. eigenvalues --  -10.24993 -10.23556 -10.21250 -10.20313 -10.20074
 Alpha  occ. eigenvalues --  -10.17412 -10.16827 -10.16532 -10.16532 -10.16192
 Alpha  occ. eigenvalues --  -10.15977 -10.15976  -1.08308  -1.04587  -0.96328
 Alpha  occ. eigenvalues --   -0.86200  -0.82869  -0.80057  -0.75750  -0.70252
 Alpha  occ. eigenvalues --   -0.69961  -0.69882  -0.68983  -0.68655  -0.64264
 Alpha  occ. eigenvalues --   -0.61049  -0.58602  -0.54818  -0.53640  -0.51011
 Alpha  occ. eigenvalues --   -0.50277  -0.48287  -0.46779  -0.46662  -0.45297
 Alpha  occ. eigenvalues --   -0.44985  -0.44287  -0.44050  -0.43717  -0.41839
 Alpha  occ. eigenvalues --   -0.41304  -0.40986  -0.40710  -0.39339  -0.38958
 Alpha  occ. eigenvalues --   -0.38363  -0.37964  -0.37657  -0.37055  -0.36282
 Alpha  occ. eigenvalues --   -0.35713  -0.34479  -0.34321  -0.33823  -0.33254
 Alpha  occ. eigenvalues --   -0.29339  -0.28783  -0.26769  -0.23248
 Alpha virt. eigenvalues --   -0.12238  -0.01050  -0.01026  -0.00137   0.00582
 Alpha virt. eigenvalues --    0.00899   0.01566   0.01713   0.02050   0.02422
 Alpha virt. eigenvalues --    0.03056   0.03418   0.03431   0.03820   0.04544
 Alpha virt. eigenvalues --    0.04699   0.04748   0.05304   0.06279   0.06489
 Alpha virt. eigenvalues --    0.06859   0.06896   0.07414   0.07613   0.08363
 Alpha virt. eigenvalues --    0.08551   0.08946   0.09539   0.09830   0.10359
 Alpha virt. eigenvalues --    0.10455   0.11137   0.11355   0.11471   0.11885
 Alpha virt. eigenvalues --    0.12027   0.12241   0.12357   0.12780   0.13054
 Alpha virt. eigenvalues --    0.13432   0.13507   0.13917   0.14016   0.14189
 Alpha virt. eigenvalues --    0.14470   0.14591   0.15076   0.15256   0.15394
 Alpha virt. eigenvalues --    0.15496   0.15712   0.15840   0.16268   0.16380
 Alpha virt. eigenvalues --    0.16493   0.16554   0.17417   0.17836   0.17964
 Alpha virt. eigenvalues --    0.18177   0.18433   0.18556   0.18799   0.18922
 Alpha virt. eigenvalues --    0.19733   0.19885   0.20103   0.20237   0.20503
 Alpha virt. eigenvalues --    0.20532   0.20808   0.21351   0.21470   0.21547
 Alpha virt. eigenvalues --    0.22726   0.22883   0.23025   0.24268   0.24458
 Alpha virt. eigenvalues --    0.24818   0.25224   0.25461   0.25914   0.26145
 Alpha virt. eigenvalues --    0.26789   0.27025   0.27407   0.28137   0.28315
 Alpha virt. eigenvalues --    0.28365   0.28878   0.29265   0.29599   0.29778
 Alpha virt. eigenvalues --    0.30305   0.30925   0.31085   0.31601   0.31655
 Alpha virt. eigenvalues --    0.32563   0.32729   0.32835   0.33767   0.33863
 Alpha virt. eigenvalues --    0.34181   0.34935   0.35430   0.35842   0.35848
 Alpha virt. eigenvalues --    0.36527   0.36973   0.37474   0.38367   0.38593
 Alpha virt. eigenvalues --    0.39414   0.39988   0.40480   0.41489   0.42545
 Alpha virt. eigenvalues --    0.44133   0.44935   0.45066   0.45264   0.46489
 Alpha virt. eigenvalues --    0.48217   0.49337   0.49577   0.49897   0.50008
 Alpha virt. eigenvalues --    0.51108   0.52101   0.53288   0.53979   0.54460
 Alpha virt. eigenvalues --    0.55126   0.57463   0.57484   0.57695   0.58712
 Alpha virt. eigenvalues --    0.58941   0.59756   0.60056   0.60257   0.60706
 Alpha virt. eigenvalues --    0.62789   0.63107   0.63173   0.63507   0.64265
 Alpha virt. eigenvalues --    0.64276   0.64957   0.65548   0.65675   0.66416
 Alpha virt. eigenvalues --    0.67015   0.67439   0.67826   0.67864   0.68010
 Alpha virt. eigenvalues --    0.68907   0.69476   0.70003   0.70675   0.71471
 Alpha virt. eigenvalues --    0.71647   0.72114   0.72441   0.72980   0.74007
 Alpha virt. eigenvalues --    0.74611   0.75424   0.77444   0.78449   0.78692
 Alpha virt. eigenvalues --    0.79551   0.79822   0.80395   0.81152   0.81447
 Alpha virt. eigenvalues --    0.82413   0.82728   0.84573   0.85875   0.88919
 Alpha virt. eigenvalues --    0.89080   0.89300   0.89584   0.91918   0.92163
 Alpha virt. eigenvalues --    0.93056   0.93801   0.94240   0.96393   0.96611
 Alpha virt. eigenvalues --    0.97803   1.00275   1.00647   1.01086   1.02027
 Alpha virt. eigenvalues --    1.02409   1.04803   1.07059   1.07644   1.08614
 Alpha virt. eigenvalues --    1.09955   1.10553   1.10910   1.12123   1.13744
 Alpha virt. eigenvalues --    1.13849   1.16366   1.17365   1.20501   1.21198
 Alpha virt. eigenvalues --    1.21677   1.23170   1.25123   1.25348   1.26839
 Alpha virt. eigenvalues --    1.26973   1.28206   1.30111   1.30376   1.31676
 Alpha virt. eigenvalues --    1.34159   1.38632   1.42535   1.44339   1.44343
 Alpha virt. eigenvalues --    1.44475   1.45092   1.45189   1.45820   1.46132
 Alpha virt. eigenvalues --    1.46628   1.47217   1.47910   1.48824   1.50076
 Alpha virt. eigenvalues --    1.51729   1.52470   1.53394   1.53785   1.54256
 Alpha virt. eigenvalues --    1.54603   1.54899   1.56260   1.57025   1.57981
 Alpha virt. eigenvalues --    1.59331   1.60627   1.60981   1.62383   1.62542
 Alpha virt. eigenvalues --    1.64202   1.64442   1.65570   1.65776   1.66819
 Alpha virt. eigenvalues --    1.68118   1.68294   1.68865   1.70512   1.70922
 Alpha virt. eigenvalues --    1.71158   1.71849   1.72605   1.72677   1.74450
 Alpha virt. eigenvalues --    1.76015   1.76766   1.77110   1.77798   1.78643
 Alpha virt. eigenvalues --    1.78925   1.78977   1.79473   1.80232   1.83290
 Alpha virt. eigenvalues --    1.83667   1.84419   1.84920   1.86936   1.87832
 Alpha virt. eigenvalues --    1.88815   1.92267   1.93242   1.93373   1.94696
 Alpha virt. eigenvalues --    1.97021   1.98378   1.99338   2.01963   2.02855
 Alpha virt. eigenvalues --    2.03244   2.03750   2.06097   2.08738   2.09034
 Alpha virt. eigenvalues --    2.10068   2.10380   2.12006   2.12560   2.12890
 Alpha virt. eigenvalues --    2.14183   2.17622   2.18290   2.20019   2.21428
 Alpha virt. eigenvalues --    2.21714   2.23027   2.24174   2.25572   2.26091
 Alpha virt. eigenvalues --    2.27077   2.29273   2.35242   2.35895   2.37064
 Alpha virt. eigenvalues --    2.41506   2.43411   2.45203   2.45453   2.46368
 Alpha virt. eigenvalues --    2.47152   2.48303   2.50649   2.50925   2.51563
 Alpha virt. eigenvalues --    2.52262   2.52560   2.52933   2.53513   2.53669
 Alpha virt. eigenvalues --    2.53724   2.54761   2.55009   2.56756   2.57282
 Alpha virt. eigenvalues --    2.57672   2.58432   2.59690   2.60369   2.61890
 Alpha virt. eigenvalues --    2.62929   2.63418   2.64144   2.65732   2.66537
 Alpha virt. eigenvalues --    2.68027   2.69689   2.74677   2.74887   2.75600
 Alpha virt. eigenvalues --    2.75777   2.76693   2.77216   2.77946   2.78329
 Alpha virt. eigenvalues --    2.79035   2.80083   2.80230   2.82522   2.84100
 Alpha virt. eigenvalues --    2.86359   2.86672   2.88015   2.89268   2.89645
 Alpha virt. eigenvalues --    2.91626   2.93160   2.95077   2.98196   2.98511
 Alpha virt. eigenvalues --    3.00518   3.02191   3.02795   3.05135   3.06876
 Alpha virt. eigenvalues --    3.06901   3.09099   3.09899   3.14171   3.17724
 Alpha virt. eigenvalues --    3.18237   3.18905   3.21274   3.23198   3.28067
 Alpha virt. eigenvalues --    3.29197   3.30408   3.32450   3.34980   3.35098
 Alpha virt. eigenvalues --    3.40142   3.43062   3.45027   3.54033   3.60383
 Alpha virt. eigenvalues --    3.62688   3.66733   3.70868   3.76631   3.77497
 Alpha virt. eigenvalues --    3.77993   3.78861   3.79021   3.79325   3.81080
 Alpha virt. eigenvalues --    3.81523   3.82076   3.84185   3.85313   3.86435
 Alpha virt. eigenvalues --    3.87574   3.89866   3.95933   3.98681   4.11633
 Alpha virt. eigenvalues --    4.15000   4.19021   4.26979   4.27191   4.28875
 Alpha virt. eigenvalues --    4.28961   4.40592   4.70767   4.84596   5.06043
 Alpha virt. eigenvalues --    5.07283   5.08411   5.23123   5.33122   5.73140
 Alpha virt. eigenvalues --    5.80348  23.66885  23.75662  23.78962  23.79817
 Alpha virt. eigenvalues --   23.85411  23.92983  23.97161  23.97803  23.97906
 Alpha virt. eigenvalues --   23.99019  24.00447  24.01114  24.14995  24.20996
 Alpha virt. eigenvalues --   35.65072  50.00648  50.03612
  Beta  occ. eigenvalues --  -19.14718 -19.11549 -14.35148 -10.29427 -10.26512
  Beta  occ. eigenvalues --  -10.24993 -10.23556 -10.21250 -10.20313 -10.20074
  Beta  occ. eigenvalues --  -10.17412 -10.16827 -10.16532 -10.16532 -10.16192
  Beta  occ. eigenvalues --  -10.15977 -10.15976  -1.08308  -1.04587  -0.96328
  Beta  occ. eigenvalues --   -0.86200  -0.82869  -0.80057  -0.75750  -0.70252
  Beta  occ. eigenvalues --   -0.69961  -0.69882  -0.68983  -0.68655  -0.64264
  Beta  occ. eigenvalues --   -0.61049  -0.58602  -0.54818  -0.53640  -0.51011
  Beta  occ. eigenvalues --   -0.50277  -0.48287  -0.46779  -0.46662  -0.45297
  Beta  occ. eigenvalues --   -0.44985  -0.44287  -0.44050  -0.43717  -0.41839
  Beta  occ. eigenvalues --   -0.41304  -0.40986  -0.40710  -0.39339  -0.38958
  Beta  occ. eigenvalues --   -0.38363  -0.37964  -0.37657  -0.37055  -0.36282
  Beta  occ. eigenvalues --   -0.35713  -0.34479  -0.34321  -0.33823  -0.33254
  Beta  occ. eigenvalues --   -0.29339  -0.28783  -0.26769  -0.23248
  Beta virt. eigenvalues --   -0.12238  -0.01050  -0.01026  -0.00137   0.00582
  Beta virt. eigenvalues --    0.00899   0.01566   0.01713   0.02050   0.02422
  Beta virt. eigenvalues --    0.03056   0.03418   0.03431   0.03820   0.04544
  Beta virt. eigenvalues --    0.04699   0.04748   0.05304   0.06279   0.06489
  Beta virt. eigenvalues --    0.06859   0.06896   0.07414   0.07613   0.08363
  Beta virt. eigenvalues --    0.08551   0.08946   0.09539   0.09830   0.10359
  Beta virt. eigenvalues --    0.10455   0.11137   0.11355   0.11471   0.11885
  Beta virt. eigenvalues --    0.12027   0.12241   0.12357   0.12780   0.13054
  Beta virt. eigenvalues --    0.13432   0.13507   0.13917   0.14016   0.14189
  Beta virt. eigenvalues --    0.14470   0.14591   0.15076   0.15256   0.15394
  Beta virt. eigenvalues --    0.15496   0.15712   0.15840   0.16268   0.16380
  Beta virt. eigenvalues --    0.16493   0.16554   0.17417   0.17836   0.17964
  Beta virt. eigenvalues --    0.18177   0.18433   0.18556   0.18799   0.18922
  Beta virt. eigenvalues --    0.19733   0.19885   0.20103   0.20237   0.20503
  Beta virt. eigenvalues --    0.20532   0.20808   0.21351   0.21470   0.21547
  Beta virt. eigenvalues --    0.22726   0.22883   0.23025   0.24268   0.24458
  Beta virt. eigenvalues --    0.24818   0.25224   0.25461   0.25914   0.26145
  Beta virt. eigenvalues --    0.26789   0.27025   0.27407   0.28137   0.28315
  Beta virt. eigenvalues --    0.28365   0.28878   0.29265   0.29599   0.29778
  Beta virt. eigenvalues --    0.30305   0.30925   0.31085   0.31601   0.31655
  Beta virt. eigenvalues --    0.32563   0.32729   0.32835   0.33767   0.33863
  Beta virt. eigenvalues --    0.34181   0.34935   0.35430   0.35842   0.35848
  Beta virt. eigenvalues --    0.36527   0.36973   0.37474   0.38367   0.38593
  Beta virt. eigenvalues --    0.39414   0.39988   0.40480   0.41489   0.42545
  Beta virt. eigenvalues --    0.44133   0.44935   0.45066   0.45264   0.46489
  Beta virt. eigenvalues --    0.48217   0.49337   0.49577   0.49897   0.50008
  Beta virt. eigenvalues --    0.51108   0.52101   0.53288   0.53979   0.54460
  Beta virt. eigenvalues --    0.55126   0.57463   0.57484   0.57695   0.58712
  Beta virt. eigenvalues --    0.58941   0.59756   0.60056   0.60257   0.60706
  Beta virt. eigenvalues --    0.62789   0.63107   0.63173   0.63507   0.64265
  Beta virt. eigenvalues --    0.64276   0.64957   0.65548   0.65675   0.66416
  Beta virt. eigenvalues --    0.67015   0.67439   0.67826   0.67864   0.68010
  Beta virt. eigenvalues --    0.68907   0.69476   0.70003   0.70675   0.71471
  Beta virt. eigenvalues --    0.71647   0.72114   0.72441   0.72980   0.74007
  Beta virt. eigenvalues --    0.74611   0.75424   0.77444   0.78449   0.78692
  Beta virt. eigenvalues --    0.79551   0.79822   0.80395   0.81152   0.81447
  Beta virt. eigenvalues --    0.82413   0.82728   0.84573   0.85875   0.88919
  Beta virt. eigenvalues --    0.89080   0.89300   0.89584   0.91918   0.92163
  Beta virt. eigenvalues --    0.93056   0.93801   0.94240   0.96393   0.96611
  Beta virt. eigenvalues --    0.97803   1.00275   1.00647   1.01086   1.02027
  Beta virt. eigenvalues --    1.02409   1.04803   1.07059   1.07644   1.08614
  Beta virt. eigenvalues --    1.09955   1.10553   1.10910   1.12123   1.13744
  Beta virt. eigenvalues --    1.13849   1.16366   1.17365   1.20501   1.21198
  Beta virt. eigenvalues --    1.21677   1.23170   1.25123   1.25348   1.26839
  Beta virt. eigenvalues --    1.26973   1.28206   1.30111   1.30376   1.31676
  Beta virt. eigenvalues --    1.34159   1.38632   1.42535   1.44339   1.44343
  Beta virt. eigenvalues --    1.44475   1.45092   1.45189   1.45820   1.46132
  Beta virt. eigenvalues --    1.46628   1.47217   1.47910   1.48824   1.50076
  Beta virt. eigenvalues --    1.51729   1.52470   1.53394   1.53785   1.54256
  Beta virt. eigenvalues --    1.54603   1.54899   1.56260   1.57025   1.57981
  Beta virt. eigenvalues --    1.59331   1.60627   1.60981   1.62383   1.62542
  Beta virt. eigenvalues --    1.64202   1.64442   1.65570   1.65776   1.66819
  Beta virt. eigenvalues --    1.68118   1.68294   1.68865   1.70512   1.70922
  Beta virt. eigenvalues --    1.71158   1.71849   1.72605   1.72677   1.74450
  Beta virt. eigenvalues --    1.76015   1.76766   1.77110   1.77798   1.78643
  Beta virt. eigenvalues --    1.78925   1.78977   1.79473   1.80232   1.83290
  Beta virt. eigenvalues --    1.83667   1.84419   1.84920   1.86936   1.87832
  Beta virt. eigenvalues --    1.88815   1.92267   1.93242   1.93373   1.94696
  Beta virt. eigenvalues --    1.97021   1.98378   1.99338   2.01963   2.02855
  Beta virt. eigenvalues --    2.03244   2.03750   2.06097   2.08738   2.09034
  Beta virt. eigenvalues --    2.10068   2.10380   2.12006   2.12560   2.12890
  Beta virt. eigenvalues --    2.14183   2.17622   2.18290   2.20019   2.21428
  Beta virt. eigenvalues --    2.21714   2.23027   2.24174   2.25572   2.26091
  Beta virt. eigenvalues --    2.27077   2.29273   2.35242   2.35895   2.37064
  Beta virt. eigenvalues --    2.41506   2.43411   2.45203   2.45453   2.46368
  Beta virt. eigenvalues --    2.47152   2.48303   2.50649   2.50925   2.51563
  Beta virt. eigenvalues --    2.52262   2.52560   2.52933   2.53513   2.53669
  Beta virt. eigenvalues --    2.53724   2.54761   2.55009   2.56756   2.57282
  Beta virt. eigenvalues --    2.57672   2.58432   2.59690   2.60369   2.61890
  Beta virt. eigenvalues --    2.62929   2.63418   2.64144   2.65732   2.66537
  Beta virt. eigenvalues --    2.68027   2.69689   2.74677   2.74887   2.75600
  Beta virt. eigenvalues --    2.75777   2.76693   2.77216   2.77946   2.78329
  Beta virt. eigenvalues --    2.79035   2.80083   2.80230   2.82522   2.84100
  Beta virt. eigenvalues --    2.86359   2.86672   2.88015   2.89268   2.89645
  Beta virt. eigenvalues --    2.91626   2.93160   2.95077   2.98196   2.98511
  Beta virt. eigenvalues --    3.00518   3.02191   3.02795   3.05135   3.06876
  Beta virt. eigenvalues --    3.06901   3.09099   3.09899   3.14171   3.17724
  Beta virt. eigenvalues --    3.18237   3.18905   3.21274   3.23198   3.28067
  Beta virt. eigenvalues --    3.29197   3.30408   3.32450   3.34980   3.35098
  Beta virt. eigenvalues --    3.40142   3.43062   3.45027   3.54033   3.60383
  Beta virt. eigenvalues --    3.62688   3.66733   3.70868   3.76631   3.77497
  Beta virt. eigenvalues --    3.77993   3.78861   3.79021   3.79325   3.81080
  Beta virt. eigenvalues --    3.81523   3.82076   3.84185   3.85313   3.86435
[...]
 07,0.00000545,-0.00001343,-0.00000042,-0.00000534,0.00000183,0.0000003
 4,0.00000294,-0.00000168,0.00001439,-0.00000314,0.00000180,-0.00000817
 ,0.00000388,-0.01498570,0.01280961,-0.01201741,0.00042492,0.00067243,-
 0.00141810,-0.13568237,0.08766191,-0.08755667,0.00048839,-0.00092605,-
 0.00123579,-0.00002208,-0.00029019,-0.00001020,0.00042357,-0.00015614,
 0.00012378,-0.00014424,-0.00053868,0.00074623,-0.00003130,-0.00002326,
 0.00006391,-0.00859152,0.00807239,-0.00766329,0.14772754,0.00025860,0.
 00001149,0.00118002,0.00162803,-0.00062384,-0.00244364,0.00018157,0.00
 014991,-0.00017069,-0.00017644,0.00032556,-0.00024513,0.00009787,-0.00
 008644,-0.00004859,0.00012189,-0.00014452,-0.00013312,0.00002503,0.000
 00705,-0.00037046,0.00005994,-0.00009141,0.00023754,0.00016636,-0.0001
 5622,0.00005213,-0.00006770,0.00005938,-0.00004451,0.00001568,-0.00001
 533,0.00001861,0.00000862,-0.00002180,0.00000091,0.00002201,-0.0000040
 2,0.00000422,0.00000756,-0.00001974,0.00000759,-0.00002223,0.00001689,
 0.00000351,-0.00000272,0.00000128,-0.00000126,-0.00000140,0.00000237,-
 0.00000115,0.00000777,-0.00000489,-0.00000748,0.00000021,0.00000186,-0
 .00000210,-0.00000707,0.00000051,-0.00000467,0.00001129,0.00000038,0.0
 0000448,-0.00000135,-0.00000034,-0.00000303,0.00000172,-0.00001178,0.0
 0000229,-0.00000152,0.00000680,-0.00000391,0.00877506,-0.01030453,0.00
 809829,-0.00120361,0.00032315,0.00069599,0.08805223,-0.13252250,0.0857
 6912,0.00035446,0.00012315,0.00122246,-0.00023504,-0.00016067,-0.00015
 791,-0.00023747,-0.00000617,-0.00021022,-0.00013723,0.00063447,-0.0001
 4690,-0.00004412,0.00003853,-0.00006675,-0.01118892,0.01205507,-0.0107
 4319,-0.09873958,0.14240114,0.00080707,-0.00068027,0.00053023,0.002266
 70,-0.00141582,-0.00232396,0.00000042,0.00019777,-0.00094972,-0.000078
 57,0.00001549,0.00042934,-0.00012593,0.00011161,-0.00006613,0.00018503
 ,-0.00010504,-0.00034428,-0.00012692,0.00006524,0.00020098,-0.00001924
 ,0.00002410,-0.00005103,0.00003488,-0.00004841,0.00011039,0.00001227,-
 0.00000712,-0.00002113,0.00000440,-0.00000390,0.00000248,-0.00000232,0
 .00000055,-0.00000272,-0.00000067,0.00000270,-0.00000225,-0.00003958,0
 .00002506,0.00002979,0.00000133,-0.00000210,0.00000554,-0.00000003,-0.
 00000023,-0.00000007,0.00000012,0.00000004,-0.00000002,0.00000065,-0.0
 0000018,-0.00000198,0.,0.00000006,0.00000096,0.00000192,0.00000062,0.0
 0000275,-0.00000109,0.00000074,0.00000070,-0.00000016,-0.00000020,0.00
 000086,-0.00000106,0.00000085,0.00000067,-0.00000063,-0.00000237,0.000
 00219,0.01203770,-0.01162808,0.00873093,0.00027761,-0.00064918,0.00077
 366,-0.08984082,0.08766423,-0.13157657,0.00073111,-0.00043825,0.000897
 73,-0.00033929,0.00011128,0.00063580,-0.00019331,-0.00017439,0.0001831
 6,0.00018298,-0.00000432,-0.00017876,-0.00000138,0.00010358,-0.0000575
 9,-0.01147587,0.01279205,-0.01220556,0.09428826,-0.09330941,0.14395536
 ,-0.00017146,0.00038427,0.00046263,0.00103939,-0.00107226,0.00036921,-
 0.00037286,0.00016024,0.00026125,0.00019816,-0.00002408,-0.00042561,0.
 00010636,-0.00010520,0.00006194,-0.00009370,-0.00007688,0.00009928,0.0
 0008572,0.00004409,-0.00036593,-0.00000745,0.00000301,0.00005763,0.000
 03525,-0.00001786,-0.00004247,-0.00001650,0.00001752,-0.00000308,0.000
 00171,-0.00000259,0.00000356,0.00000270,-0.00000510,0.00000324,0.00000
 365,-0.00000223,0.00000257,0.00003165,-0.00002518,-0.00002279,-0.00000
 259,-0.00000485,0.00000041,-0.00000050,0.00000043,-0.00000026,0.000000
 08,0.00000080,-0.00000039,0.00000143,-0.00000070,-0.00000125,0.0000010
 0,0.00000059,-0.00000168,-0.00000294,-0.00000105,-0.00000298,0.0000028
 7,0.00000019,0.00000034,-0.00000034,0.00000033,-0.00000069,0.00000133,
 -0.00000245,-0.00000045,0.00000005,0.00000304,-0.00000315,-0.01272107,
 -0.01511476,0.00887350,-0.00282613,0.00339179,0.00259954,-0.13221814,-
 0.09908378,0.07012219,0.00045955,-0.00070313,-0.00113685,-0.00096809,0
 .00012293,-0.00111226,-0.00053575,-0.00112845,0.00097224,0.00033538,-0
 .00012506,0.00001078,0.00023857,0.00022565,-0.00020268,-0.00834984,-0.
 00880842,0.00675914,0.01211267,0.01275683,-0.00865745,0.14312894,-0.00
 043345,-0.00003281,-0.00019097,-0.00002441,0.00053123,0.00004925,0.000
 47714,0.00012213,0.00088348,0.00017507,-0.00016476,-0.00013818,-0.0000
 0553,-0.00000998,0.00007984,0.00000778,0.00010681,0.00005248,0.0000407
 8,0.00008648,-0.00007252,-0.00000600,0.00003254,-0.00004824,-0.0000278
 2,0.00002216,-0.00001301,0.00000187,-0.00001161,0.00000821,-0.00000192
 ,0.00000305,-0.00000247,-0.00000144,0.00000325,0.00000059,-0.00000102,
 -0.00000134,0.00000119,0.00000410,-0.00002833,-0.00001472,0.00000129,0
 .00000269,-0.00000107,0.00000025,-0.00000065,0.00000017,0.00000040,-0.
 00000036,-0.00000030,-0.00000119,0.00000017,0.00000104,0.00000100,-0.0
 0000015,-0.00000005,0.,-0.00000015,0.00000006,-0.00000119,-0.00000017,
 -0.00000091,0.00000082,-0.00000093,0.00000002,-0.00000004,0.00000064,-
 0.00000106,0.00000091,0.00000040,-0.00000066,0.00828225,0.00971621,-0.
 00718210,0.00153092,-0.00039126,-0.00122983,-0.10096115,-0.16347162,0.
 08110768,0.00045709,0.00093216,0.00009893,0.00086556,-0.00016654,0.000
 00745,0.00043804,0.00056089,-0.00037158,-0.00002057,0.00008280,-0.0002
 6989,0.00019620,-0.00000500,-0.00001529,-0.00909482,-0.01210059,0.0091
 2163,-0.01038145,-0.01213798,0.00737614,0.10847351,0.17623851,0.000105
 33,-0.00020589,-0.00018381,-0.00096240,0.00048320,0.00012166,-0.000509
 49,-0.00020036,0.00015908,-0.00013982,0.00016815,-0.00003162,0.0000302
 5,-0.00004452,-0.00002376,0.00002695,0.00004060,-0.00000545,0.00000668
 ,-0.00013596,0.00014220,0.00003555,-0.00007076,0.00009192,0.00006445,-
 0.00004379,-0.00001123,-0.00002240,0.00002332,-0.00000819,0.00000398,-
 0.00000309,0.00000573,0.00000440,-0.00000869,-0.00000023,0.00000836,-0
 .00000104,0.00000097,0.00001459,0.00000002,0.00000470,-0.00000653,0.00
 000584,0.00000426,-0.00000110,0.00000046,-0.00000060,-0.00000079,0.000
 00036,-0.00000024,0.00000238,-0.00000194,-0.00000177,-0.00000033,0.000
 00041,-0.00000064,-0.00000189,0.00000046,-0.00000154,0.00000409,0.0000
 0008,0.00000194,-0.00000043,-0.00000039,-0.00000114,0.00000010,-0.0000
 0444,0.00000131,-0.00000008,0.00000169,-0.00000034,0.00911435,0.013163
 73,-0.00983118,0.00266479,-0.00285559,-0.00238781,0.07003103,0.0804882
 3,-0.10384473,0.00032014,0.00119662,0.00065629,-0.00098758,0.00026951,
 -0.00016924,0.00103785,0.00099228,-0.00028937,-0.00021087,-0.00035877,
 0.00029155,0.00013287,0.00018269,0.00020203,-0.01271832,-0.01461541,0.
 01139883,0.01095528,0.01172731,-0.00871310,-0.07860722,-0.08950338,0.1
 1239840,-0.00066267,0.00004902,-0.00222640,0.00063307,0.00043113,0.000
 79989,0.00001306,-0.00001923,-0.00008533,-0.00015158,0.00007429,-0.000
 14263,0.00007638,-0.00007677,-0.00000400,0.00005875,0.00002735,0.00017
 167,-0.00310568,0.00056600,0.00024885,0.00003229,-0.00003682,0.0001452
 4,0.00006927,-0.00007536,0.00005515,-0.00006296,0.00004802,-0.00000099
 ,0.00000829,-0.00000827,0.00001318,0.00000940,-0.00002291,-0.00000034,
 0.00002309,-0.00000419,0.00000187,0.00000653,-0.00001008,0.00002311,-0
 .00006209,0.00005109,0.00000645,-0.00000258,0.00000081,-0.00000152,-0.
 00000211,0.00000228,-0.00000050,0.00000576,-0.00000351,-0.00000416,-0.
 00000028,0.00000182,-0.00000240,-0.00000709,0.00000029,-0.00000460,0.0
 0001068,0.00000151,0.00000467,-0.00000159,-0.00000056,-0.00000335,-0.0
 0000007,-0.00001113,0.00000235,-0.00000032,0.00000653,-0.00000276,0.01
 074193,-0.00793384,-0.01132098,0.00100274,0.00051707,-0.00012550,-0.00
 119871,-0.00162344,-0.00198147,-0.15109946,0.07355563,0.11286453,0.000
 01058,-0.00002590,0.00005295,-0.00001772,-0.00005308,0.00014305,-0.000
 06096,-0.00000838,0.00005403,0.00007148,0.00021005,-0.00000971,0.00065
 938,-0.00058642,-0.00072727,0.00004069,-0.00022781,0.00006585,-0.00002
 959,0.00007568,-0.00015101,0.16450995,0.00046026,0.00024208,-0.0007647
 0,-0.00000254,0.00015088,0.00070225,-0.00001779,0.00012375,-0.00015447
 ,0.00011778,-0.00011314,0.00002692,-0.00002317,0.00003071,0.00005814,-
 0.00010723,-0.00005646,0.00004073,0.00167292,-0.00027123,0.00104794,-0
 .00004014,0.00003255,-0.00002391,-0.00002426,0.00000560,0.00006634,-0.
 00000276,0.00000013,0.00001322,0.00000003,0.00000268,-0.00000040,0.000
 00133,-0.00000087,0.00000043,0.00000308,-0.00000080,0.00000106,0.00000
 068,0.00001165,0.00001776,-0.00002995,0.00003932,-0.00001071,0.0000008
 5,-0.00000011,-0.00000130,-0.00000108,-0.00000098,-0.00000010,-0.00000
 064,-0.00000041,0.00000030,0.00000013,-0.00000053,0.00000009,-0.000000
 61,0.,-0.00000006,0.00000045,0.00000036,-0.00000007,-0.00000013,-0.000
 00101,-0.00000042,-0.00000090,-0.00000106,0.00000013,-0.00000033,0.000
 00120,-0.00000011,0.01100802,-0.00848715,-0.00975222,0.00115542,0.0006
 2929,-0.00012667,-0.00268217,-0.00177126,-0.00249272,0.07104366,-0.097
 28086,-0.07491906,0.00000631,-0.00003301,0.00005709,-0.00041955,-0.000
 15100,0.00025505,-0.00000469,-0.00005815,-0.00001117,-0.00005360,0.000
 20789,0.00012777,0.00072379,-0.00020779,-0.00108310,-0.00037567,0.0003
 0579,0.00018427,0.00021396,0.00018022,-0.00014409,-0.07905498,0.103036
 03,-0.00032644,0.00030121,-0.00285771,0.00082209,-0.00005983,0.0007466
 0,-0.00007927,0.00017173,-0.00028184,0.00010701,-0.00008515,-0.0001283
 4,-0.00000008,-0.00000139,0.00010238,-0.00018198,-0.00028205,0.0000541
 5,0.00173872,0.00010983,0.00219656,-0.00004770,0.00000856,0.00014652,0
 .00005978,-0.00006488,0.00019990,-0.00007832,0.00005614,0.00000564,0.0
 0000879,-0.00001058,0.00001301,0.00001162,-0.00002514,-0.00000039,0.00
 002997,-0.00000898,0.00000117,0.00002023,0.00002126,0.00005150,-0.0001
 1339,0.00010327,-0.00002310,-0.00000158,0.00000200,-0.00000073,-0.0000
 0263,0.00000296,-0.00000090,0.00000669,-0.00000494,-0.00000414,0.00000
 036,0.00000235,-0.00000272,-0.00000844,-0.00000023,-0.00000453,0.00001
 268,0.00000165,0.00000490,-0.00000163,0.00000153,-0.00000206,0.0000007
 8,-0.00001419,0.00000310,-0.00000107,0.00000826,-0.00000317,0.01370832
 ,-0.00832877,-0.01412926,0.00067120,0.00109525,0.00067753,-0.00355248,
 -0.00213514,-0.00251613,0.10861344,-0.07471492,-0.16217845,0.00000236,
 -0.00007439,0.00011005,-0.00039472,-0.00035640,0.00045990,-0.00010721,
 -0.00004429,0.00003173,-0.00015129,0.00019407,-0.00000404,0.00088437,-
 0.00097883,-0.00071494,0.00013610,-0.00009575,0.00025605,-0.00022071,0
 .00022165,0.00023457,-0.11931516,0.08433330,0.17462688,-0.00023854,-0.
 00001831,0.00049897,0.00041550,-0.00076008,0.00106678,0.00006812,0.000
 22185,-0.00024915,-0.00006960,-0.00003780,-0.00000819,0.00000222,-0.00
 000434,-0.00002832,-0.00005193,0.00002045,0.00001355,-0.00049403,0.000
 27213,-0.00048505,0.00002032,0.00001385,-0.00004903,-0.00001734,0.0000
 4235,-0.00006007,0.00001343,-0.00001512,0.00000208,-0.00000345,0.00000
 162,-0.00000391,-0.00000185,0.00000577,-0.00000017,-0.00000750,0.00000
 010,-0.00000137,0.00000173,0.00000115,-0.00000987,0.00002554,-0.000034
 08,0.00000603,0.00000109,0.00000005,0.00000108,0.00000099,0.00000040,0
 .00000013,-0.00000113,0.00000113,0.00000124,0.00000066,0.00000042,-0.0
 0000034,0.00000025,-0.00000055,0.00000016,-0.00000234,-0.00000023,-0.0
 0000049,0.00000011,0.00000186,0.00000230,0.00000154,0.00000309,-0.0000
 0055,-0.00000088,-0.00000132,-0.00000106,-0.01017494,-0.01080376,0.007
 46094,-0.00124467,-0.00127340,-0.00330310,0.00028585,0.00096529,0.0006
 7947,-0.11981227,-0.09688604,0.06440369,0.00002545,-0.00000678,-0.0000
 0618,0.00022162,0.00026674,-0.00013376,0.00019700,-0.00011244,0.000140
 62,-0.00033544,-0.00111251,0.00045285,-0.00004390,0.00016393,-0.000164
 87,0.00004967,0.00002030,-0.00008260,0.00051913,0.00002395,-0.00023161
 ,-0.00989088,-0.01474807,0.00831673,0.12841331,-0.00006778,0.00002108,
 -0.00000106,0.00107877,0.00009588,0.00090179,-0.00013067,0.00035115,-0
 .00042501,0.00002317,-0.00019664,0.00002672,-0.00001960,0.00002961,0.0
 0001737,-0.00003291,-0.00001059,0.00002521,0.00005183,-0.00002193,0.00
 004009,-0.00000479,0.00005986,-0.00009778,-0.00002981,0.00003838,-0.00
 000650,0.00001497,-0.00001917,0.00001011,-0.00000352,0.00000325,-0.000
 00384,-0.00000312,0.00000576,0.00000008,-0.00000480,0.00000135,-0.0000
 0135,-0.00000586,0.00000290,-0.00000285,0.00000357,-0.00000511,-0.0000
 0225,0.00000083,-0.00000021,0.00000029,0.00000055,-0.00000023,-0.00000
 001,-0.00000206,0.00000131,0.00000149,0.00000064,-0.00000038,0.0000000
 3,0.00000200,-0.00000071,0.00000123,-0.00000295,0.00000032,-0.00000125
 ,0.00000054,0.,0.00000090,-0.00000113,0.00000289,-0.00000030,0.0000006
 5,-0.00000211,0.00000081,-0.00808707,-0.01236646,0.00784594,-0.0016964
 1,-0.00120461,-0.00360459,-0.00031759,0.00033963,0.00115466,-0.0966620
 7,-0.17584391,0.08435234,0.00002221,0.00003313,-0.00001846,-0.00002841
 ,0.00008170,0.00012731,0.00024581,0.00040682,-0.00015872,-0.00092402,-
 0.00072524,0.00043360,0.00015996,0.00029263,-0.00011892,-0.00004172,-0
 .00002818,-0.00001723,0.00038839,-0.00002377,-0.00057533,0.00724513,0.
 01163561,-0.00626850,0.10927540,0.19036804,0.00006243,0.00007305,-0.00
 024278,0.00003513,-0.00043130,0.00134623,0.00030673,-0.00011465,0.0001
 3663,-0.00026442,0.00009833,-0.00015000,0.00009676,-0.00006646,-0.0000
 3357,-0.00006779,-0.00003971,0.00013652,0.00037637,-0.00004837,0.00027
 574,0.00006370,-0.00003407,0.00011722,0.00005058,-0.00004165,-0.000020
 71,-0.00003207,0.00002642,-0.00000320,0.00000368,-0.00000319,0.0000065
 9,0.00000278,-0.00000968,-0.00000027,0.00001240,-0.00000096,0.00000227
 ,0.00001119,-0.00000411,0.00000349,-0.00001433,0.00001728,0.00000058,-
 0.00000089,0.00000018,-0.00000121,-0.00000111,0.00000036,-0.00000045,0
 .00000255,-0.00000183,-0.00000178,-0.00000014,0.00000030,-0.00000106,-
 0.00000261,0.00000008,-0.00000188,0.00000491,0.00000034,0.00000240,-0.
 00000089,-0.00000066,-0.00000222,-0.00000002,-0.00000589,0.00000114,-0
 .00000027,0.00000239,-0.00000074,-0.01188236,-0.01601244,0.00893619,-0
 .00206054,-0.00235468,-0.00273727,-0.00064488,0.00002594,0.00122677,0.
 06558173,0.08621577,-0.10335183,0.00001108,0.00001668,-0.00002703,-0.0
 0009686,0.00004712,-0.00002971,0.00012179,-0.00011852,-0.00002338,-0.0
 0069195,-0.00100393,0.00070475,-0.00003599,0.00025328,0.00018846,0.000
 09089,-0.00003415,-0.00007090,0.00011503,0.00008150,-0.00013354,0.0091
 2961,0.01546166,-0.00937028,-0.06893645,-0.09195509,0.11064861,0.00037
 346,-0.00017887,0.00060086,-0.00029946,-0.00307282,-0.00170510,-0.0006
 9400,0.00077221,-0.00027130,0.00076239,-0.00019059,0.00032551,-0.00023
 203,0.00013051,0.00006743,0.00009355,0.00015218,-0.00019540,-0.0011250
 5,0.00003091,-0.00044909,-0.00019489,0.00012892,-0.00041980,-0.0001842
 1,0.00016431,0.00000029,0.00010600,-0.00009200,0.00002635,-0.00001575,
 0.00001696,-0.00002336,-0.00001436,0.00003483,-0.00000301,-0.00003732,
 0.00000834,-0.00000568,-0.00004742,0.00000203,-0.00002540,0.00005732,-
 0.00005509,-0.00000104,0.00000375,-0.00000229,0.00000177,0.00000226,-0
 .00000340,0.00000141,-0.00001019,0.00000706,0.00000790,-0.00000025,-0.
 00000266,0.00000418,0.00001040,-0.00000037,0.00000821,-0.00001762,-0.0
 0000075,-0.00000673,0.00000200,0.00000011,0.00000465,-0.00000194,0.000
 01874,-0.00000380,0.00000164,-0.00001132,0.00000558,-0.01205104,0.0098
 5056,-0.00889923,0.00028550,0.00113337,0.00010017,0.00036697,0.0008550
 0,0.00125524,-0.14833669,0.09800557,-0.07972507,-0.00003730,-0.0001187
 9,-0.00005227,-0.00006075,0.00000218,0.00000572,-0.00002793,-0.0006324
 8,0.00025086,0.00030760,-0.00009409,0.00018163,0.00003806,-0.00022423,
 0.00022200,0.00064223,-0.00027880,0.00008864,0.00001138,-0.00009261,-0
 .00001156,-0.01162697,0.01118159,-0.01056714,0.01212714,-0.01044814,0.
 00865428,0.15982350,-0.00008140,0.00007594,-0.00064755,-0.00119477,-0.
 00181471,-0.00187075,-0.00030904,0.00094321,-0.00071503,0.00068468,0.0
 0011816,0.00011274,-0.00014805,0.00003341,0.00009998,-0.00002359,-0.00
 014024,-0.00011542,0.00045595,0.00008082,0.00054575,-0.00016587,-0.000
 00461,-0.00012171,-0.00002946,0.00003111,0.00013191,0.00000583,0.00000
 056,0.00000371,0.00000039,-0.00000070,-0.00000078,0.00000130,-0.000000
 79,-0.00000103,-0.00000113,-0.00000056,-0.00000092,-0.00001374,0.00000
 513,0.00001725,-0.00003885,0.00002699,-0.00001745,0.00000022,0.0000007
 9,0.00000038,0.00000033,0.,-0.00000033,0.00000033,-0.00000026,0.,0.000
 00040,0.00000049,0.00000020,-0.00000127,-0.00000019,0.,0.00000036,0.00
 000050,-0.00000001,-0.00000025,0.00000098,0.00000138,0.00000077,0.0000
 0018,-0.00000043,-0.00000028,-0.00000003,-0.00000079,-0.01215990,0.008
 41317,-0.00998892,-0.00009388,0.00120977,-0.00029325,-0.00072224,0.000
 71720,-0.00026282,0.09931179,-0.14010304,0.07854737,-0.00020443,-0.000
 15553,-0.00004297,-0.00001818,-0.00007401,0.00009163,0.00014144,-0.000
 15818,0.00003734,0.00024313,0.00025824,-0.00000245,-0.00015332,0.00024
 075,0.00024248,-0.00003958,-0.00012442,-0.00018987,0.00011646,-0.00007
 437,0.00002847,0.00691895,-0.00819993,0.00691933,0.01451299,-0.0133220
 5,0.00996066,-0.10699608,0.15201620,0.00045280,-0.00006019,-0.00123605
 ,-0.00141502,-0.00376649,-0.00218622,-0.00092227,0.00094489,-0.0004821
 2,0.00130792,-0.00019396,0.00039601,-0.00033788,0.00016525,0.00021514,
 0.00004187,-0.00009474,-0.00026897,0.00067475,0.00005921,0.00097127,-0
 .00032548,0.00012713,-0.00039034,-0.00020292,0.00014681,0.00021709,0.0
 0008649,-0.00006296,0.00002901,-0.00001107,0.00001175,-0.00001830,-0.0
 0000971,0.00002351,-0.00000286,-0.00002682,0.00000544,-0.00000455,-0.0
 0004037,0.00001911,0.00001335,-0.00002541,0.00002757,-0.00003107,0.000
 00306,-0.00000127,0.00000107,0.00000159,-0.00000279,0.00000070,-0.0000
 0754,0.00000467,0.00000560,0.00000007,-0.00000159,0.00000346,0.0000066
 8,-0.00000062,0.00000621,-0.00001234,0.00000040,-0.00000526,0.00000114
 ,0.00000034,0.00000377,-0.00000188,0.00001334,-0.00000355,0.00000151,-
 0.00000776,0.00000422,-0.01461446,0.01217477,-0.01313072,0.00100699,0.
 00095257,0.00069851,-0.00065034,0.00137110,0.00041255,-0.07926629,0.07
 684552,-0.10856156,-0.00019632,-0.00020980,-0.00009207,0.00000081,-0.0
 0007326,0.00004316,-0.00002427,-0.00046582,0.00047348,0.00029442,-0.00
 007174,0.00001770,0.00019505,-0.00000667,0.00042676,0.00039229,-0.0007
 8044,-0.00018378,0.00003347,-0.00003506,-0.00007594,0.01232764,-0.0129
 0918,0.01230059,-0.00929047,0.00831910,-0.00752975,0.09055230,-0.08246
 811,0.11796346\\-0.00000518,0.00000163,-0.00000533,0.00000189,-0.00000
 073,-0.00000021,-0.00000300,0.00000172,-0.00001481,0.00001789,0.000001
 98,0.00001840,0.00000005,-0.00000162,-0.00000805,0.00001476,-0.0000072
 7,-0.00000548,-0.00001035,0.00001012,-0.00000247,-0.00000142,0.0000005
 6,-0.00000504,-0.00001351,-0.00000499,0.00001521,0.00000312,0.00000067
 ,-0.00000143,0.00000062,-0.00000435,-0.00000500,-0.00000101,0.00000169
 ,-0.00000116,-0.00000238,0.00000219,0.00000169,0.00000495,-0.00000149,
 0.00000264,0.00000215,0.00000203,-0.00000078,-0.00000129,-0.00000075,0
 .00000022,-0.00000169,-0.00000192,-0.00000192,-0.00000160,-0.00000050,
 -0.00000024,0.00000021,-0.00000044,-0.00000355,-0.00000128,0.00000060,
 0.00000139,-0.00000012,-0.00000045,-0.00000186,-0.00000002,0.00000038,
 0.00000058,0.00000072,0.00000139,0.00000049,0.00000050,0.00000148,0.00
 000391,-0.00000771,0.00000573,0.00000331,0.00000112,-0.00000116,-0.000
 00036,0.00000112,-0.00000046,0.00000397,-0.00000025,-0.00000219,0.0000
 0141,-0.00000093,0.00000301,0.00000194,0.00000119,-0.00000170,-0.00000
 114,-0.00000123,-0.00000157,-0.00000098,0.00000027,-0.00000146,-0.0000
 0226,0.00000088,0.00000113,-0.00000010,0.00000185,-0.00000082,-0.00000
 012,0.00000129,0.00000071,0.00000205,-0.00000136,-0.00000279,0.0000011
 2,0.00000054,-0.00000014,0.00000203,-0.00000080,-0.00000023,0.00000193
 \\\@


 THE FIRST MORNING OF CREATION WROTE WHAT THE LAST DAWN OF
 RECKONING SHALL READ. -- OMAR KHAYYAM
 Job cpu time:       0 days 15 hours 18 minutes 14.9 seconds.
 Elapsed time:       0 days  2 hours  3 minutes 37.5 seconds.
 File lengths (MBytes):  RWF=   1910 Int=      0 D2E=      0 Chk=     42 Scr=      1
 Normal termination of Gaussian 16 at Sat Feb 10 14:12:03 2024.
