
Running Job 1 of 1 276-an-COSMO.in
qchem 276-an-COSMO.in_3159012.0 /expanse/lustre/scratch/selhajj/temp_project/qcscratch/28872256/qchem3159012/ 0
/cm/shared/apps/spack/cpu/opt/spack/linux-centos8-zen2/gcc-10.2.0/qchem-5.4-akfmr7b3t57bfs6qan3padb2wnb2i7cl/exe/qcprog.exe_s 276-an-COSMO.in_3159012.0 /expanse/lustre/scratch/selhajj/temp_project/qcscratch/28872256/qchem3159012/
                  Welcome to Q-Chem
     A Quantum Leap Into The Future Of Chemistry


 Q-Chem 5.4, Q-Chem, Inc., Pleasanton, CA (2021)

 License issued to: University of California, San Diego (site)

 E. Epifanovsky,  A. T. B. Gilbert,  Xintian Feng,  Joonho Lee,  Yuezhi Mao,  
 N. Mardirossian,  P. Pokhilko,  A. White,  M. Wormit,  M. P. Coons,  
 A. L. Dempwolff,  Zhengting Gan,  D. Hait,  P. R. Horn,  L. D. Jacobson,  
 I. Kaliman,  J. Kussmann,  A. W. Lange,  Ka Un Lao,  D. S. Levine,  Jie Liu,  
 S. C. McKenzie,  A. F. Morrison,  K. Nanda,  F. Plasser,  D. R. Rehn,  
 M. L. Vidal,  Zhi-Qiang You,  Ying Zhu,  B. Alam,  B. Albrecht,  
 A. Aldossary,  E. Alguire,  J. H. Andersen,  D. Barton,  K. Begam,  A. Behn,  
 Y. A. Bernard,  E. J. Berquist,  H. Burton,  A. Carreras,  K. Carter-Fenk,  
 R. Chakraborty,  A. D. Chien,  K. D. Closser,  V. Cofer-Shabica,  
 S. Dasgupta,  Jia Deng,  M. de Wergifosse,  M. Diedenhofen,  Hainam Do,  
 S. Ehlert,  Po-Tung Fang,  S. Fatehi,  Qingguo Feng,  J. Gayvert,  
 Qinghui Ge,  G. Gidofalvi,  M. Goldey,  J. Gomes,  C. Gonzalez-Espinoza,  
 S. Gulania,  A. Gunina,  M. W. D. Hanson-Heine,  P. H. P. Harbach,  
 A. W. Hauser,  M. F. Herbst,  M. Hernandez Vera,  M. Hodecker,  
 Z. C. Holden,  S. Houck,  Xunkun Huang,  Kerwin Hui,  B. C. Huynh,  
 M. Ivanov,  Hyunjun Ji,  Hanjie Jiang,  B. Kaduk,  S. Kaehler,  
 K. Khistyaev,  Jaehoon Kim,  P. Klunzinger,  Z. Koczor-Benda,  
 Joong Hoon Koh,  D. Kosenkov,  L. Koulias,  T. Kowalczyk,  C. M. Krauter,  
 K. Kue,  A. Kunitsa,  T. Kus,  A. Landau,  K. V. Lawler,  D. Lefrancois,  
 S. Lehtola,  Rain Li,  Yi-Pei Li,  Jiashu Liang,  M. Liebenthal,  
 Hung-Hsuan Lin,  You-Sheng Lin,  Fenglai Liu,  Kuan-Yu Liu,  
 M. Loipersberger,  A. Luenser,  A. Manjanath,  P. Manohar,  E. Mansoor,  
 S. F. Manzer,  Shan-Ping Mao,  A. V. Marenich,  T. Markovich,  S. Mason,  
 S. A. Maurer,  P. F. McLaughlin,  M. F. S. J. Menger,  J.-M. Mewes,  
 S. A. Mewes,  P. Morgante,  J. W. Mullinax,  T. S. Nguyen-Beck,  
 K. J. Oosterbaan,  G. Paran,  Alexander C. Paul,  Suranjan K. Paul,  
 F. Pavosevic,  Zheng Pei,  S. Prager,  E. I. Proynov,  E. Ramos,  B. Rana,  
 A. E. Rask,  A. Rettig,  R. M. Richard,  F. Rob,  E. Rossomme,  T. Scheele,  
 M. Scheurer,  M. Schneider,  N. Sergueev,  S. M. Sharada,  W. Skomorowski,  
 D. W. Small,  C. J. Stein,  Yu-Chuan Su,  E. J. Sundstrom,  Zhen Tao,  
 J. Thirman,  T. Tsuchimochi,  N. M. Tubman,  S. P. Veccham,  O. Vydrov,  
 J. Wenzel,  J. Witte,  A. Yamada,  Kun Yao,  S. Yeganeh,  S. R. Yost,  
 A. Zech,  Igor Ying Zhang,  Xing Zhang,  Yu Zhang,  D. Zuev,  
 A. Aspuru-Guzik,  A. T. Bell,  N. A. Besley,  K. B. Bravaya,  B. R. Brooks,  
 D. Casanova,  Jeng-Da Chai,  S. Coriani,  C. J. Cramer,  
 A. E. DePrince, III,  R. A. DiStasio Jr.,  A. Dreuw,  B. D. Dunietz,  
 T. R. Furlani,  W. A. Goddard III,  S. Grimme,  S. Hammes-Schiffer,  
 T. Head-Gordon,  W. J. Hehre,  Chao-Ping Hsu,  T.-C. Jagau,  Yousung Jung,  
 A. Klamt,  Jing Kong,  D. S. Lambrecht,  WanZhen Liang,  N. J. Mayhall,  
 C. W. McCurdy,  J. B. Neaton,  C. Ochsenfeld,  J. A. Parkhill,  R. Peverati,  
 V. A. Rassolov,  Yihan Shao,  L. V. Slipchenko,  T. Stauch,  R. P. Steele,  
 J. E. Subotnik,  A. J. W. Thom,  A. Tkatchenko,  D. G. Truhlar,  
 T. Van Voorhis,  T. A. Wesolowski,  K. B. Whaley,  H. L. Woodcock III,  
 P. M. Zimmerman,  S. Faraji,  P. M. W. Gill,  M. Head-Gordon,  
 J. M. Herbert,  A. I. Krylov

 Contributors to earlier versions of Q-Chem not listed above: 
 R. D. Adamson,  B. Austin,  R. Baer,  J. Baker,  G. J. O. Beran,  
 K. Brandhorst,  S. T. Brown,  E. F. C. Byrd,  A. K. Chakraborty,  
 G. K. L. Chan,  Chun-Min Chang,  Yunqing Chen,  C.-L. Cheng,  
 Siu Hung Chien,  D. M. Chipman,  D. L. Crittenden,  H. Dachsel,  
 R. J. Doerksen,  A. D. Dutoi,  R. G. Edgar,  J. Fosso-Tande,  
 L. Fusti-Molnar,  D. Ghosh,  A. Ghysels,  A. Golubeva-Zadorozhnaya,  
 J. Gonthier,  M. S. Gordon,  S. R. Gwaltney,  G. Hawkins,  J. E. Herr,  
 A. Heyden,  S. Hirata,  E. G. Hohenstein,  G. Kedziora,  F. J. Keil,  
 C. Kelley,  Jihan Kim,  R. A. King,  R. Z. Khaliullin,  P. P. Korambath,  
 W. Kurlancheek,  A. Laurent,  A. M. Lee,  M. S. Lee,  S. V. Levchenko,  
 Ching Yeh Lin,  D. Liotard,  E. Livshits,  R. C. Lochan,  I. Lotan,  
 L. A. Martinez-Martinez,  P. E. Maslen,  N. Nair,  D. P. O'Neill,  
 D. Neuhauser,  E. Neuscamman,  C. M. Oana,  R. Olivares-Amaya,  R. Olson,  
 T. M. Perrine,  B. Peters,  P. A. Pieniazek,  A. Prociuk,  Y. M. Rhee,  
 J. Ritchie,  M. A. Rohrdanz,  E. Rosta,  N. J. Russ,  H. F. Schaefer III,  
 M. W. Schmidt,  N. E. Schultz,  S. Sharma,  N. Shenvi,  C. D. Sherrill,  
 A. C. Simmonett,  A. Sodt,  T. Stein,  D. Stuck,  K. S. Thanthiriwatte,  
 V. Vanovschi,  L. Vogt,  Tao Wang,  A. Warshel,  M. A. Watson,  
 C. F. Williams,  Q. Wu,  X. Xu,  Jun Yang,  W. Zhang,  Yan Zhao

 Please cite Q-Chem as follows:
 Y. Shao et al., Mol. Phys. 113, 184-215 (2015)
 DOI: 10.1080/00268976.2014.952696

 Q-Chem 5.4.0 for Intel X86 EM64T Linux

 Parts of Q-Chem use Armadillo 9.800.1 (Horizon Scraper).
 http://arma.sourceforge.net/

 Q-Chem begins on Thu Feb 22 07:57:10 2024  

 Host: 
0

     Scratch files written to /expanse/lustre/scratch/selhajj/temp_project/qcscratch/28872256/qchem3159012//
 May1621 |scratch|qcdevops|jenkins|workspace|build_RNUM    
 Processing $rem in /cm/shared/apps/spack/cpu/opt/spack/linux-centos8-zen2/gcc-10.2.0/qchem-5.4-akfmr7b3t57bfs6qan3padb2wnb2i7cl/config/preferences:
 Processing $rem in /home/selhajj/.qchemrc:

 Checking the input file for inconsistencies... 
 Q-Chem warning in module libgen/CheckREMs.C, line 172:

 Found a $solvent section, which is only used for PCM and Kirkwood-Onsager solvation models

	...done.

--------------------------------------------------------------
User input:
--------------------------------------------------------------
$molecule
-2 1
C                  4.2342530000     -0.0282110000     -0.0472460000
S                  3.0226430000     -1.3299990000     -0.4799080000
C                  1.4449140000     -0.4840880000     -0.2430110000
C                  1.3294620000      0.9070300000     -0.0699660000
C                  0.0895350000      1.5818000000      0.1032330000
O                 -0.0094590000      2.8553000000      0.2759600000
C                 -1.0773950000      0.7020020000      0.0851100000
C                 -2.3696250000      1.2443010000      0.2583030000
C                 -3.5080630000      0.4564080000      0.2492510000
C                 -3.3851990000     -0.9444270000      0.0571700000
C                 -2.1332500000     -1.5048110000     -0.1180800000
C                 -0.9514990000     -0.7245670000     -0.1084690000
C                  0.3348590000     -1.3773620000     -0.2990890000
O                  0.4607420000     -2.6414890000     -0.5109120000
H                  4.2047760000      0.8129230000     -0.7430130000
H                  5.2251970000     -0.4882060000     -0.1036000000
H                  4.0726010000      0.3470070000      0.9687200000
H                  2.2120930000      1.5371050000     -0.0337780000
H                 -2.4253730000      2.3197450000      0.4009450000
H                 -4.4903230000      0.9062630000      0.3862720000
H                 -4.2738170000     -1.5742120000      0.0454930000
H                 -2.0070720000     -2.5725100000     -0.2715190000
$end
$rem
MAX_SCF_CYCLES=200
BASIS  =  6-311++G(d,p)
GUI  =  2
JOB_TYPE  =  SP
METHOD  =  B3LYP
SOLVENT_METHOD = COSMO
$end
$solvent
dielectric 37.219
opticaldielectric 1.43
$end





--------------------------------------------------------------
 ----------------------------------------------------------------
             Standard Nuclear Orientation (Angstroms)
    I     Atom           X                Y                Z
 ----------------------------------------------------------------
    1      C       3.9845698075    -0.7580787445    -0.2293573084
    2      S       3.0005245568     0.7540442727     0.0788408755
    3      C       1.3072529514     0.1275810508     0.0429311601
    4      C       0.9864703712    -1.2416376524     0.0715965634
    5      C      -0.3447389237    -1.7420547634     0.0575987048
    6      O      -0.6327966704    -2.9983674015     0.0693446940
    7      C      -1.3729486267    -0.7043458791     0.0123917718
    8      C      -2.7372899962    -1.0671510417    -0.0173980784
    9      C      -3.7508522060    -0.1249427264    -0.0602178804
   10      C      -3.4200456812     1.2551886033    -0.0717905294
   11      C      -2.0928136065     1.6419583424    -0.0404332743
   12      C      -1.0354431068     0.7007592483    -0.0014411154
   13      C       0.3397814415     1.1750299211     0.0304802156
   14      O       0.6558470778     2.4232743087     0.0573325441
   15      H       3.8869805492    -1.4874643405     0.5774512233
   16      H       5.0315830924    -0.4465777419    -0.2882766689
   17      H       3.7006785336    -1.2345847965    -1.1735260204
   18      H       1.7675367503    -1.9947826861     0.0786271338
   19      H      -2.9528146542    -2.1317856940    -0.0057123704
   20      H      -4.7935688697    -0.4383197844    -0.0829282681
   21      H      -4.2087970779     2.0057366473    -0.1027148970
   22      H      -1.8080490397     2.6899766242    -0.0439534216
 ----------------------------------------------------------------
 Molecular Point Group                 C1    NOp =  1
 Largest Abelian Subgroup              C1    NOp =  1
 Nuclear Repulsion Energy =         909.47778142 hartrees
 There are       54 alpha and       54 beta electrons
 Requested basis set is 6-311++G(d,p)
 There are 131 shells and 372 basis functions

 Total QAlloc Memory Limit   8000 MB
 Mega-Array Size       188 MB
 MEM_STATIC part       192 MB
 A cutoff of  1.0D-08 yielded   6280 shell pairs
 There are     53449 function pairs (     57225 Cartesian)
 Smallest overlap matrix eigenvalue = 3.18E-07

 Q-Chem warning in module stvman/mkSTV.C, line 323:

 Overlap eigenvalue is smaller than square root of threshold
 Use THRESH >= 12 to get rid of this warning

 Linear dependence detected in AO basis
 Tighter screening thresholds may be required for diffuse basis sets
 Use S2THRESH > 14 and THRESH = 14 in case of SCF convergence issues
 Number of orthogonalized atomic orbitals = 369
 Maximum deviation from orthogonality = 2.045E-10

 Scale SEOQF with 1.000000e-01/1.000000e-01/1.000000e-01

 Standard Electronic Orientation quadrupole field applied
 Nucleus-field energy     =     0.0000000382 hartrees
 Guess from superposition of atomic densities
 Warning:  Energy on first SCF cycle will be non-variational
 SAD guess density has 106.000000 electrons

 -----------------------------------------------------------------------
  General SCF calculation program by
  Eric Jon Sundstrom, Paul Horn, Yuezhi Mao, Dmitri Zuev, Alec White,
  David Stuck, Shaama M.S., Shane Yost, Joonho Lee, David Small,
  Daniel Levine, Susi Lehtola, Hugh Burton, Evgeny Epifanovsky,
  Bang C. Huynh
 -----------------------------------------------------------------------
 Exchange:     0.2000 Hartree-Fock + 0.0800 Slater + 0.7200 B88
 Correlation:  0.1900 VWN1RPA + 0.8100 LYP
 Using SG-1 standard quadrature grid
 using 8 threads for integral computing
 -------------------------------------------------------
 OpenMP Integral computing Module                
 Release: version 1.0, May 2013, Q-Chem Inc. Pittsburgh 
 -------------------------------------------------------
 A restricted SCF calculation will be
 performed using DIIS
 SCF converges when DIIS error is below 1.0e-05
 ---------------------------------------
  Cycle       Energy         DIIS error
 ---------------------------------------
    1    -975.7384188746      3.29e-02  
    2    -972.3404877548      4.91e-03  
    3    -962.9708275405      1.57e-02  
    4    -972.4153731280      4.29e-03  
    5    -972.7272816928      1.47e-03  
    6    -972.7637669604      8.61e-04  
    7    -972.7730449995      5.45e-04  
    8    -972.7783094813      1.73e-04  
    9    -972.7788400473      1.55e-04  
   10    -972.7791317559      1.25e-04  
   11    -972.7793241402      9.68e-05  
   12    -972.7795287311      4.52e-05  
   13    -972.7795868244      9.56e-06  Convergence criterion met
 ---------------------------------------
 SCF time:   CPU 217.05s  wall 27.00s 
 SCF   energy in the final basis set =     -972.7795868244
 Total energy in the final basis set =     -972.7795868244
 Exchange:     0.2000 Hartree-Fock + 0.0800 Slater + 0.7200 B88
 Correlation:  0.1900 VWN1RPA + 0.8100 LYP
 Using SG-1 standard quadrature grid
 in get_qchem_info
 IBasis=      401111
 IBasis=      401111
 USING 1082 GRID
 MICHARGE=          -2
 Set epsilon to    37.2190017700195     
==== cosmo data ====
outfile: 276-an-COSMO.out.cosmo.0
phsran:    0.00000D+00
ampran:    0.10000D-04
volume:   1561.7347747
area:    782.7811437
routf:      0.8500000
rsolv [a.u]:      2.4566438
disex:     10.0000000
disex2:   4739.9734853
fepsi:      0.9731320
eps :    37.2190018
lcavity:     1
nppa:  1082
nspa:    92
nsph:    32
maxnps:  1544
natoms:    22
Atom   Radius [a.u.] nuc. charge
    1      3.7794520    6
    2      4.0818081   16
    3      3.7794520    6
    4      3.7794520    6
    5      3.7794520    6
    6      3.2503287    8
    7      3.7794520    6
    8      3.7794520    6
    9      3.7794520    6
   10      3.7794520    6
   11      3.7794520    6
   12      3.7794520    6
   13      3.7794520    6
   14      3.2503287    8
   15      2.4566438    1
   16      2.4566438    1
   17      2.4566438    1
   18      2.4566438    1
   19      2.4566438    1
   20      2.4566438    1
   21      2.4566438    1
   22      2.4566438    1
=== end cosmo data ===
 number of segments:          878
 f_epsilon=  0.973132003749614     
Ediel:   -0.2530682
 A restricted SCF calculation will be
 performed using Roothaan-Hall, DIIS
 SCF converges when DIIS error is below 1.0e-05
 ---------------------------------------
  Cycle       Energy         DIIS error
 ---------------------------------------
 number of segments:          878
 f_epsilon=  0.973132003749614     
Ediel:   -0.3181501
    1    -973.0326578506      5.18e-04  Roothaan Step
 ---------------------------------------
  Cycle       Energy         DIIS error
 ---------------------------------------
 number of segments:          878
 f_epsilon=  0.973132003749614     
Ediel:   -0.2942898
    1    -973.0597278004      6.31e-04  
 number of segments:          878
 f_epsilon=  0.973132003749614     
Ediel:   -0.3080921
    2    -973.0474814346      1.12e-03  
 number of segments:          878
 f_epsilon=  0.973132003749614     
Ediel:   -0.3091061
    3    -973.0674716717      1.16e-04  
 number of segments:          878
 f_epsilon=  0.973132003749614     
Ediel:   -0.3091946
    4    -973.0676913434      3.83e-05  
 number of segments:          878
 f_epsilon=  0.973132003749614     
Ediel:   -0.3093897
    5    -973.0677071043      2.06e-05  
    6    -973.0677148999      4.24e-06  Convergence criterion met
 ---------------------------------------
 SCF time:   CPU 126.63s  wall 17.00s 
before final oc correction, ETot:      -973.0677148999
 number of outlayer segments:          406
SCF energy after oc correction:      -973.0832249209
 SCF   energy in the final basis set =     -973.0832249209
 Total energy in the final basis set =     -973.0677148999
 
 --------------------------------------------------------------
 
                    Orbital Energies (a.u.)
 --------------------------------------------------------------
 
 Alpha MOs
 -- Occupied --
-88.8290 -19.0264 -19.0258 -10.1788 -10.1767 -10.1766 -10.1589 -10.1524
-10.1510 -10.1486 -10.1481 -10.1436 -10.1415 -10.1264  -7.9143  -5.8781
 -5.8742  -5.8687  -0.9452  -0.9411  -0.8288  -0.7915  -0.7502  -0.7259
 -0.7028  -0.6571  -0.6205  -0.5879  -0.5615  -0.5276  -0.4782  -0.4679
 -0.4403  -0.4269  -0.4120  -0.4092  -0.4025  -0.3813  -0.3791  -0.3710
 -0.3612  -0.3543  -0.3309  -0.3242  -0.3194  -0.3131  -0.3011  -0.2575
 -0.2337  -0.2292  -0.2092  -0.2036  -0.1960  -0.1178
 -- Virtual --
 -0.0098   0.0016   0.0061   0.0090   0.0184   0.0254   0.0303   0.0390
  0.0463   0.0529   0.0567   0.0600   0.0678   0.0697   0.0702   0.0836
  0.0846   0.0894   0.0920   0.0964   0.1043   0.1049   0.1062   0.1133
  0.1209   0.1226   0.1278   0.1332   0.1363   0.1373   0.1409   0.1447
  0.1472   0.1500   0.1533   0.1641   0.1662   0.1686   0.1717   0.1788
  0.1797   0.1803   0.1868   0.1907   0.1986   0.2079   0.2155   0.2161
  0.2272   0.2291   0.2353   0.2429   0.2433   0.2478   0.2561   0.2626
  0.2669   0.2727   0.2751   0.2826   0.2859   0.2887   0.2960   0.3014
  0.3083   0.3110   0.3174   0.3186   0.3212   0.3266   0.3305   0.3402
  0.3465   0.3510   0.3571   0.3611   0.3642   0.3716   0.3765   0.3860
  0.4031   0.4112   0.4178   0.4329   0.4349   0.4396   0.4569   0.4742
  0.5002   0.5305   0.5353   0.5467   0.5582   0.5634   0.5804   0.5847
  0.5867   0.6047   0.6092   0.6103   0.6251   0.6358   0.6405   0.6443
  0.6522   0.6639   0.6675   0.6705   0.6737   0.6841   0.6893   0.7131
  0.7186   0.7326   0.7444   0.7540   0.7617   0.7677   0.7791   0.7981
  0.8046   0.8195   0.8280   0.8312   0.8502   0.8506   0.8678   0.8747
  0.8876   0.9052   0.9064   0.9294   0.9356   0.9497   0.9550   0.9572
  0.9824   0.9858   0.9970   1.0056   1.0235   1.0286   1.0398   1.0594
  1.0711   1.0866   1.1016   1.1078   1.1209   1.1272   1.1292   1.1523
  1.1596   1.1770   1.1849   1.1874   1.1969   1.2512   1.2585   1.2766
  1.2884   1.3039   1.3224   1.3352   1.3452   1.3597   1.4079   1.4310
  1.4686   1.5137   1.5290   1.5304   1.5410   1.5521   1.5690   1.5786
  1.5850   1.5995   1.6144   1.6523   1.6586   1.6708   1.6813   1.6971
  1.7013   1.7298   1.7333   1.7547   1.7730   1.7833   1.7909   1.8019
  1.8260   1.8330   1.8435   1.8640   1.8809   1.8926   1.9227   1.9308
  1.9430   1.9778   1.9854   1.9868   1.9976   2.0064   2.0363   2.0446
  2.0527   2.0606   2.0692   2.1008   2.1193   2.1385   2.1866   2.1970
  2.2051   2.2203   2.2575   2.2841   2.3171   2.3255   2.3597   2.4007
  2.4187   2.4700   2.4841   2.4947   2.5207   2.5338   2.5462   2.5631
  2.5898   2.6442   2.6676   2.6705   2.7067   2.7234   2.7291   2.7500
  2.7648   2.7841   2.7920   2.7941   2.8031   2.8206   2.8327   2.8404
  2.8766   2.8950   2.9130   2.9157   2.9221   2.9650   2.9883   2.9965
  3.0033   3.0465   3.0847   3.1234   3.1427   3.1837   3.2242   3.2329
  3.2564   3.2861   3.3162   3.3473   3.3585   3.3696   3.4245   3.4596
  3.5143   3.5459   3.5564   3.5853   3.6167   3.6479   3.7467   3.7566
  3.7778   3.8377   3.9335   4.0617   4.0864   4.2035   4.2214   4.3224
  4.4019   4.8291   4.8552   5.1277   5.1416   5.2906   5.3189   5.7678
  5.8480   8.0156  17.3537  17.5325  17.5637  23.5647  23.7996  23.9358
 23.9455  23.9676  23.9877  24.0026  24.0287  24.1307  24.1353  24.2010
 50.0786  50.1255 189.1950
 --------------------------------------------------------------
 
          Ground-State Mulliken Net Atomic Charges

     Atom                 Charge (a.u.)
  ----------------------------------------
      1 C                    -0.555271
      2 S                    -0.628324
      3 C                     0.926625
      4 C                     0.286663
      5 C                    -0.513741
      6 O                    -0.739701
      7 C                     0.345031
      8 C                     0.112717
      9 C                    -0.442475
     10 C                    -0.482494
     11 C                     0.194408
     12 C                     0.099650
     13 C                    -1.316886
     14 O                    -0.681030
     15 H                     0.187477
     16 H                     0.188847
     17 H                     0.191461
     18 H                     0.150785
     19 H                     0.153731
     20 H                     0.181981
     21 H                     0.178572
     22 H                     0.161971
  ----------------------------------------
  Sum of atomic charges =    -2.000000

 -----------------------------------------------------------------
                    Cartesian Multipole Moments
 -----------------------------------------------------------------
    Charge (ESU x 10^10)
                -9.6064
    Dipole Moment (Debye)
         X       0.7773      Y       0.4562      Z      -0.8277
       Tot       1.2238
    Quadrupole Moments (Debye-Ang)
        XX    -107.4742     XY     -19.5856     YY    -155.0504
        XZ      -1.4434     YZ       0.4335     ZZ    -101.6312
    Octopole Moments (Debye-Ang^2)
       XXX      31.2290    XXY     -25.6087    XYY       1.9037
       YYY      56.2438    XXZ      -6.4463    XYZ      -0.5378
       YYZ      -3.7821    XZZ       9.4345    YZZ      -2.6594
       ZZZ      -1.5534
    Hexadecapole Moments (Debye-Ang^3)
      XXXX   -3184.3123   XXXY     -87.4773   XXYY    -804.5486
      XYYY    -133.5776   YYYY   -1861.5036   XXXZ     -19.3202
      XXYZ      -1.7129   XYYZ       2.7296   YYYZ       5.3733
      XXZZ    -632.8415   XYZZ      -6.1921   YYZZ    -263.4074
      XZZZ      -7.6988   YZZZ       1.5637   ZZZZ    -145.8600
 -----------------------------------------------------------------
 Total job time:  45.89s(wall), 349.64s(cpu) 
 Thu Feb 22 07:57:56 2024

        *************************************************************
        *                                                           *
        *  Thank you very much for using Q-Chem.  Have a nice day.  *
        *                                                           *
        *************************************************************


