
Running Job 1 of 1 311-an-CPCM.in
qchem 311-an-CPCM.in_2982322.0 /expanse/lustre/scratch/selhajj/temp_project/qcscratch/31262914/qchem2982322/ 0
/cm/shared/apps/spack/cpu/opt/spack/linux-centos8-zen2/gcc-10.2.0/qchem-5.4-akfmr7b3t57bfs6qan3padb2wnb2i7cl/exe/qcprog.exe_s 311-an-CPCM.in_2982322.0 /expanse/lustre/scratch/selhajj/temp_project/qcscratch/31262914/qchem2982322/
                  Welcome to Q-Chem
     A Quantum Leap Into The Future Of Chemistry


 Q-Chem 5.4, Q-Chem, Inc., Pleasanton, CA (2021)

 License issued to: University of California, San Diego (site)

 E. Epifanovsky,  A. T. B. Gilbert,  Xintian Feng,  Joonho Lee,  Yuezhi Mao,  
 N. Mardirossian,  P. Pokhilko,  A. White,  M. Wormit,  M. P. Coons,  
 A. L. Dempwolff,  Zhengting Gan,  D. Hait,  P. R. Horn,  L. D. Jacobson,  
 I. Kaliman,  J. Kussmann,  A. W. Lange,  Ka Un Lao,  D. S. Levine,  Jie Liu,  
 S. C. McKenzie,  A. F. Morrison,  K. Nanda,  F. Plasser,  D. R. Rehn,  
 M. L. Vidal,  Zhi-Qiang You,  Ying Zhu,  B. Alam,  B. Albrecht,  
 A. Aldossary,  E. Alguire,  J. H. Andersen,  D. Barton,  K. Begam,  A. Behn,  
 Y. A. Bernard,  E. J. Berquist,  H. Burton,  A. Carreras,  K. Carter-Fenk,  
 R. Chakraborty,  A. D. Chien,  K. D. Closser,  V. Cofer-Shabica,  
 S. Dasgupta,  Jia Deng,  M. de Wergifosse,  M. Diedenhofen,  Hainam Do,  
 S. Ehlert,  Po-Tung Fang,  S. Fatehi,  Qingguo Feng,  J. Gayvert,  
 Qinghui Ge,  G. Gidofalvi,  M. Goldey,  J. Gomes,  C. Gonzalez-Espinoza,  
 S. Gulania,  A. Gunina,  M. W. D. Hanson-Heine,  P. H. P. Harbach,  
 A. W. Hauser,  M. F. Herbst,  M. Hernandez Vera,  M. Hodecker,  
 Z. C. Holden,  S. Houck,  Xunkun Huang,  Kerwin Hui,  B. C. Huynh,  
 M. Ivanov,  Hyunjun Ji,  Hanjie Jiang,  B. Kaduk,  S. Kaehler,  
 K. Khistyaev,  Jaehoon Kim,  P. Klunzinger,  Z. Koczor-Benda,  
 Joong Hoon Koh,  D. Kosenkov,  L. Koulias,  T. Kowalczyk,  C. M. Krauter,  
 K. Kue,  A. Kunitsa,  T. Kus,  A. Landau,  K. V. Lawler,  D. Lefrancois,  
 S. Lehtola,  Rain Li,  Yi-Pei Li,  Jiashu Liang,  M. Liebenthal,  
 Hung-Hsuan Lin,  You-Sheng Lin,  Fenglai Liu,  Kuan-Yu Liu,  
 M. Loipersberger,  A. Luenser,  A. Manjanath,  P. Manohar,  E. Mansoor,  
 S. F. Manzer,  Shan-Ping Mao,  A. V. Marenich,  T. Markovich,  S. Mason,  
 S. A. Maurer,  P. F. McLaughlin,  M. F. S. J. Menger,  J.-M. Mewes,  
 S. A. Mewes,  P. Morgante,  J. W. Mullinax,  T. S. Nguyen-Beck,  
 K. J. Oosterbaan,  G. Paran,  Alexander C. Paul,  Suranjan K. Paul,  
 F. Pavosevic,  Zheng Pei,  S. Prager,  E. I. Proynov,  E. Ramos,  B. Rana,  
 A. E. Rask,  A. Rettig,  R. M. Richard,  F. Rob,  E. Rossomme,  T. Scheele,  
 M. Scheurer,  M. Schneider,  N. Sergueev,  S. M. Sharada,  W. Skomorowski,  
 D. W. Small,  C. J. Stein,  Yu-Chuan Su,  E. J. Sundstrom,  Zhen Tao,  
 J. Thirman,  T. Tsuchimochi,  N. M. Tubman,  S. P. Veccham,  O. Vydrov,  
 J. Wenzel,  J. Witte,  A. Yamada,  Kun Yao,  S. Yeganeh,  S. R. Yost,  
 A. Zech,  Igor Ying Zhang,  Xing Zhang,  Yu Zhang,  D. Zuev,  
 A. Aspuru-Guzik,  A. T. Bell,  N. A. Besley,  K. B. Bravaya,  B. R. Brooks,  
 D. Casanova,  Jeng-Da Chai,  S. Coriani,  C. J. Cramer,  
 A. E. DePrince, III,  R. A. DiStasio Jr.,  A. Dreuw,  B. D. Dunietz,  
 T. R. Furlani,  W. A. Goddard III,  S. Grimme,  S. Hammes-Schiffer,  
 T. Head-Gordon,  W. J. Hehre,  Chao-Ping Hsu,  T.-C. Jagau,  Yousung Jung,  
 A. Klamt,  Jing Kong,  D. S. Lambrecht,  WanZhen Liang,  N. J. Mayhall,  
 C. W. McCurdy,  J. B. Neaton,  C. Ochsenfeld,  J. A. Parkhill,  R. Peverati,  
 V. A. Rassolov,  Yihan Shao,  L. V. Slipchenko,  T. Stauch,  R. P. Steele,  
 J. E. Subotnik,  A. J. W. Thom,  A. Tkatchenko,  D. G. Truhlar,  
 T. Van Voorhis,  T. A. Wesolowski,  K. B. Whaley,  H. L. Woodcock III,  
 P. M. Zimmerman,  S. Faraji,  P. M. W. Gill,  M. Head-Gordon,  
 J. M. Herbert,  A. I. Krylov

 Contributors to earlier versions of Q-Chem not listed above: 
 R. D. Adamson,  B. Austin,  R. Baer,  J. Baker,  G. J. O. Beran,  
 K. Brandhorst,  S. T. Brown,  E. F. C. Byrd,  A. K. Chakraborty,  
 G. K. L. Chan,  Chun-Min Chang,  Yunqing Chen,  C.-L. Cheng,  
 Siu Hung Chien,  D. M. Chipman,  D. L. Crittenden,  H. Dachsel,  
 R. J. Doerksen,  A. D. Dutoi,  R. G. Edgar,  J. Fosso-Tande,  
 L. Fusti-Molnar,  D. Ghosh,  A. Ghysels,  A. Golubeva-Zadorozhnaya,  
 J. Gonthier,  M. S. Gordon,  S. R. Gwaltney,  G. Hawkins,  J. E. Herr,  
 A. Heyden,  S. Hirata,  E. G. Hohenstein,  G. Kedziora,  F. J. Keil,  
 C. Kelley,  Jihan Kim,  R. A. King,  R. Z. Khaliullin,  P. P. Korambath,  
 W. Kurlancheek,  A. Laurent,  A. M. Lee,  M. S. Lee,  S. V. Levchenko,  
 Ching Yeh Lin,  D. Liotard,  E. Livshits,  R. C. Lochan,  I. Lotan,  
 L. A. Martinez-Martinez,  P. E. Maslen,  N. Nair,  D. P. O'Neill,  
 D. Neuhauser,  E. Neuscamman,  C. M. Oana,  R. Olivares-Amaya,  R. Olson,  
 T. M. Perrine,  B. Peters,  P. A. Pieniazek,  A. Prociuk,  Y. M. Rhee,  
 J. Ritchie,  M. A. Rohrdanz,  E. Rosta,  N. J. Russ,  H. F. Schaefer III,  
 M. W. Schmidt,  N. E. Schultz,  S. Sharma,  N. Shenvi,  C. D. Sherrill,  
 A. C. Simmonett,  A. Sodt,  T. Stein,  D. Stuck,  K. S. Thanthiriwatte,  
 V. Vanovschi,  L. Vogt,  Tao Wang,  A. Warshel,  M. A. Watson,  
 C. F. Williams,  Q. Wu,  X. Xu,  Jun Yang,  W. Zhang,  Yan Zhao

 Please cite Q-Chem as follows:
 Y. Shao et al., Mol. Phys. 113, 184-215 (2015)
 DOI: 10.1080/00268976.2014.952696

 Q-Chem 5.4.0 for Intel X86 EM64T Linux

 Parts of Q-Chem use Armadillo 9.800.1 (Horizon Scraper).
 http://arma.sourceforge.net/

 Q-Chem begins on Wed Jun 12 07:32:42 2024  

 Host: 
0

     Scratch files written to /expanse/lustre/scratch/selhajj/temp_project/qcscratch/31262914/qchem2982322//
 May1621 |scratch|qcdevops|jenkins|workspace|build_RNUM    
 Processing $rem in /cm/shared/apps/spack/cpu/opt/spack/linux-centos8-zen2/gcc-10.2.0/qchem-5.4-akfmr7b3t57bfs6qan3padb2wnb2i7cl/config/preferences:
 Processing $rem in /home/selhajj/.qchemrc:
 Symmetry turned off for PCM/SM12/SMD calculation

 Checking the input file for inconsistencies... 	...done.

--------------------------------------------------------------
User input:
--------------------------------------------------------------
$molecule
-2 1
C                 -4.8221630000      0.2338890000     -3.9804780000
C                 -4.2201210000      1.2450870000     -4.6932230000
C                 -3.0891770000      1.9179660000     -4.1875860000
C                 -4.3202360000     -0.1619320000     -2.7121060000
C                 -3.1681240000      0.5166480000     -2.1826480000
C                 -2.5899300000      1.5415290000     -2.9483710000
C                 -4.9471420000     -1.2149950000     -1.9742370000
C                 -4.3568920000     -1.5300560000     -0.7081550000
C                 -3.2419310000     -0.9061070000     -0.1598400000
C                 -2.5918020000      0.1623390000     -0.8754850000
O                 -5.9851970000     -1.8951650000     -2.3527040000
O                 -1.5726580000      0.7660710000     -0.4126450000
O                 -5.0072500000     -2.5491680000     -0.0553580000
O                 -4.6968880000      1.6510640000     -5.9436240000
C                 -2.6873500000     -1.3261090000      1.1776310000
C                 -3.2142170000     -0.4919120000      2.3630570000
C                 -2.6167880000     -0.9143790000      3.7113510000
C                 -3.1304930000     -0.1043000000      4.9086530000
C                 -2.5399250000     -0.5419560000      6.2557920000
C                 -3.0505020000      0.2645170000      7.4566690000
C                 -2.4608850000     -0.1797110000      8.8017020000
C                 -2.9745130000      0.6244210000     10.0029260000
C                 -2.3865430000      0.1767510000     11.3472370000
C                 -2.9031710000      0.9808570000     12.5474520000
C                 -2.3153930000      0.5318850000     13.8885430000
H                 -5.6949750000     -0.2912180000     -4.3626680000
H                 -2.6345280000      2.7121730000     -4.7703960000
H                 -1.7220590000      2.0381720000     -2.5268010000
H                 -5.7166220000     -2.7524200000     -0.7121890000
H                 -5.4638530000      1.1036760000     -6.1394320000
H                 -1.5975310000     -1.2143360000      1.1423400000
H                 -2.9207400000     -2.3818770000      1.3581900000
H                 -4.3068970000     -0.5799170000      2.4035250000
H                 -2.9837550000      0.5615380000      2.1705970000
H                 -1.5227710000     -0.8269820000      3.6614190000
H                 -2.8290300000     -1.9793940000      3.8825590000
H                 -4.2251770000     -0.1820530000      4.9532190000
H                 -2.9094420000      0.9587350000      4.7450870000
H                 -1.4451670000     -0.4656400000      6.2104870000
H                 -2.7613970000     -1.6057290000      6.4169490000
H                 -4.1453330000      0.1904210000      7.5014090000
H                 -2.8265250000      1.3278700000      7.2983650000
H                 -1.3661750000     -0.1039620000      8.7587200000
H                 -2.6831020000     -1.2436180000      8.9591990000
H                 -4.0693240000      0.5494350000     10.0454690000
H                 -2.7505190000      1.6882060000      9.8474820000
H                 -1.2919710000      0.2527580000     11.3083970000
H                 -2.6093240000     -0.8866810000     11.5050370000
H                 -3.9974260000      0.9053060000     12.5872100000
H                 -2.6807430000      2.0442250000     12.3911810000
H                 -2.5533340000     -0.5170680000     14.0994970000
H                 -2.7055910000      1.1266260000     14.7215920000
H                 -1.2239610000      0.6319430000     13.9017170000
$end
$rem
MAX_SCF_CYCLES=200
BASIS  =  6-311++G(d,p)
GUI  =  2
JOB_TYPE  =  SP
METHOD  =  B3LYP
SCF_ALGORITHM = DIIS_GDM
THRESH = 14
SOLVENT_METHOD = PCM
$end
$pcm
theory = CPCM
$end
$solvent
dielectric 37.219
opticaldielectric 1.43
$end






--------------------------------------------------------------
 ----------------------------------------------------------------
             Standard Nuclear Orientation (Angstroms)
    I     Atom           X                Y                Z
 ----------------------------------------------------------------
    1      C      -4.8221630000     0.2338890000    -3.9804780000
    2      C      -4.2201210000     1.2450870000    -4.6932230000
    3      C      -3.0891770000     1.9179660000    -4.1875860000
    4      C      -4.3202360000    -0.1619320000    -2.7121060000
    5      C      -3.1681240000     0.5166480000    -2.1826480000
    6      C      -2.5899300000     1.5415290000    -2.9483710000
    7      C      -4.9471420000    -1.2149950000    -1.9742370000
    8      C      -4.3568920000    -1.5300560000    -0.7081550000
    9      C      -3.2419310000    -0.9061070000    -0.1598400000
   10      C      -2.5918020000     0.1623390000    -0.8754850000
   11      O      -5.9851970000    -1.8951650000    -2.3527040000
   12      O      -1.5726580000     0.7660710000    -0.4126450000
   13      O      -5.0072500000    -2.5491680000    -0.0553580000
   14      O      -4.6968880000     1.6510640000    -5.9436240000
   15      C      -2.6873500000    -1.3261090000     1.1776310000
   16      C      -3.2142170000    -0.4919120000     2.3630570000
   17      C      -2.6167880000    -0.9143790000     3.7113510000
   18      C      -3.1304930000    -0.1043000000     4.9086530000
   19      C      -2.5399250000    -0.5419560000     6.2557920000
   20      C      -3.0505020000     0.2645170000     7.4566690000
   21      C      -2.4608850000    -0.1797110000     8.8017020000
   22      C      -2.9745130000     0.6244210000    10.0029260000
   23      C      -2.3865430000     0.1767510000    11.3472370000
   24      C      -2.9031710000     0.9808570000    12.5474520000
   25      C      -2.3153930000     0.5318850000    13.8885430000
   26      H      -5.6949750000    -0.2912180000    -4.3626680000
   27      H      -2.6345280000     2.7121730000    -4.7703960000
   28      H      -1.7220590000     2.0381720000    -2.5268010000
   29      H      -5.7166220000    -2.7524200000    -0.7121890000
   30      H      -5.4638530000     1.1036760000    -6.1394320000
   31      H      -1.5975310000    -1.2143360000     1.1423400000
   32      H      -2.9207400000    -2.3818770000     1.3581900000
   33      H      -4.3068970000    -0.5799170000     2.4035250000
   34      H      -2.9837550000     0.5615380000     2.1705970000
   35      H      -1.5227710000    -0.8269820000     3.6614190000
   36      H      -2.8290300000    -1.9793940000     3.8825590000
   37      H      -4.2251770000    -0.1820530000     4.9532190000
   38      H      -2.9094420000     0.9587350000     4.7450870000
   39      H      -1.4451670000    -0.4656400000     6.2104870000
   40      H      -2.7613970000    -1.6057290000     6.4169490000
   41      H      -4.1453330000     0.1904210000     7.5014090000
   42      H      -2.8265250000     1.3278700000     7.2983650000
   43      H      -1.3661750000    -0.1039620000     8.7587200000
   44      H      -2.6831020000    -1.2436180000     8.9591990000
   45      H      -4.0693240000     0.5494350000    10.0454690000
   46      H      -2.7505190000     1.6882060000     9.8474820000
   47      H      -1.2919710000     0.2527580000    11.3083970000
   48      H      -2.6093240000    -0.8866810000    11.5050370000
   49      H      -3.9974260000     0.9053060000    12.5872100000
   50      H      -2.6807430000     2.0442250000    12.3911810000
   51      H      -2.5533340000    -0.5170680000    14.0994970000
   52      H      -2.7055910000     1.1266260000    14.7215920000
   53      H      -1.2239610000     0.6319430000    13.9017170000
 ----------------------------------------------------------------
 Nuclear Repulsion Energy =        1953.29905743 hartrees
 There are       94 alpha and       94 beta electrons
 Requested basis set is 6-311++G(d,p)
 There are 290 shells and 746 basis functions

 Total QAlloc Memory Limit   8000 MB
 Mega-Array Size       188 MB
 MEM_STATIC part       192 MB
 Discretize the solute cavity surface with Lebedev spheres
	Using 110 Lebedev grid points for each H atom
	Using 194 Lebedev grid points for other atoms
	Atomic van der Waals radii will be scaled by 1.20
 Remove points where switching function is < 1.0e-08
 Keep 3341 surface tesserae and discard 4589 interior tesserae
 Molecular Surface Area = 437.342 Angst**2
 A cutoff of  1.0D-14 yielded  26103 shell pairs
 There are    169041 function pairs (    179160 Cartesian)
 Smallest overlap matrix eigenvalue = 2.30E-07
 Linear dependence detected in AO basis
 Tighter screening thresholds may be required for diffuse basis sets
 Use S2THRESH > 14 and THRESH = 14 in case of SCF convergence issues
 Number of orthogonalized atomic orbitals = 742
 Maximum deviation from orthogonality = 1.530E-10

 Scale SEOQF with 1.000000e-02/1.000000e-01/1.000000e-02

 Standard Electronic Orientation quadrupole field applied
 Nucleus-field energy     =    -0.0000000530 hartrees
 Guess from superposition of atomic densities
 Warning:  Energy on first SCF cycle will be non-variational
 SAD guess density has 186.000000 electrons

 -----------------------------------------------------------------------
  General SCF calculation program by
  Eric Jon Sundstrom, Paul Horn, Yuezhi Mao, Dmitri Zuev, Alec White,
  David Stuck, Shaama M.S., Shane Yost, Joonho Lee, David Small,
  Daniel Levine, Susi Lehtola, Hugh Burton, Evgeny Epifanovsky,
  Bang C. Huynh
 -----------------------------------------------------------------------
 Exchange:     0.2000 Hartree-Fock + 0.0800 Slater + 0.7200 B88
 Correlation:  0.1900 VWN1RPA + 0.8100 LYP
 Using SG-1 standard quadrature grid
 using 8 threads for integral computing
 -------------------------------------------------------
 OpenMP Integral computing Module                
 Release: version 1.0, May 2013, Q-Chem Inc. Pittsburgh 
 -------------------------------------------------------
 A restricted SCF calculation will be
 performed using DIIS, GDM
 SCF converges when RMS gradient is below 1.0e-05
 ---------------------------------------
  Cycle       Energy         DIIS error
 ---------------------------------------
    1   -1123.4221520560      2.29e-02  
    2   -1117.9168276105      3.14e-03  Done DIIS. Switching to GDM
 ---------------------------------------
  Cycle       Energy        RMS Gradient
 ---------------------------------------
    1   -1117.9168276105      9.28e-02   Descent step
    2   -1118.4791089993      3.35e-02   Descent step
    3   -1118.5708403374      1.37e-02   Normal BFGS step
    4   -1118.5952080701      5.27e-03   Normal BFGS step
    5   -1118.5947087165      6.55e-03  Line search: overstep
    6   -1118.5962492394      9.98e-04   Normal BFGS step
    7   -1118.5963383654      2.06e-03   Normal BFGS step
    8   -1118.5963585776      1.93e-03   Normal BFGS step
    9   -1118.5963718380      5.76e-04   Normal BFGS step
   10   -1118.5963756787      2.41e-04   Normal BFGS step
   11   -1118.5963768147      1.07e-04   Normal BFGS step
   12   -1118.5963771240      5.51e-05   Normal BFGS step
   13   -1118.5963772040      1.96e-05   Normal BFGS step
   14   -1118.5963772248      1.40e-05   Normal BFGS step
   15   -1118.5963772259      1.63e-05   Normal BFGS step
   16   -1118.5963772279      4.70e-06  Convergence criterion met
 ---------------------------------------
 SCF time:   CPU 3065.21s  wall 436.00s 

************** Final PCM Free Energy Summary **************
 G_electrostatic  =      -0.29127785 hartree =    -182.77960703 kcal/mol
 G_cavitation     =       0.00000000 hartree =       0.00000000 kcal/mol
 G_dispersion     =       0.00000000 hartree =       0.00000000 kcal/mol
 G_repulsion      =       0.00000000 hartree =       0.00000000 kcal/mol
 --------------------------------------------------
 Non-electrostatic Free Energy =       0.00000000 hartree =       0.00000000 kcal/mol
 Total                         =      -0.29127785 hartree =    -182.77960703 kcal/mol
 --------------------------------------------------
 SCF Energy (H0 + V/2)                       =   -1118.59637723 
 Solute Internal Energy (H0)                 =   -1118.30509938 
 Total Free Energy (H0 + V/2 + non-elec)     =   -1118.59637723 hartree
                                             = -701929.82093679 kcal/mol
***********************************************************

 SCF   energy in the final basis set =    -1118.5963772279
 Total energy in the final basis set =    -1118.5963772279
 
 --------------------------------------------------------------
 
                    Orbital Energies (a.u.)
 --------------------------------------------------------------
 
 Alpha MOs
 -- Occupied --
-19.1372 -19.1124 -19.0254 -19.0211 -10.2093 -10.1758 -10.1742 -10.1586
-10.1568 -10.1540 -10.1537 -10.1533 -10.1527 -10.1520 -10.1508 -10.1507
-10.1494 -10.1484 -10.1442 -10.1439 -10.1404 -10.1397 -10.1371 -10.1302
-10.1203  -1.0399  -1.0270  -0.9455  -0.9324  -0.8248  -0.8050  -0.7922
 -0.7766  -0.7602  -0.7391  -0.7230  -0.7141  -0.6896  -0.6601  -0.6337
 -0.6156  -0.6010  -0.5835  -0.5704  -0.5668  -0.5632  -0.5580  -0.5383
 -0.5223  -0.4884  -0.4780  -0.4664  -0.4573  -0.4487  -0.4428  -0.4354
 -0.4269  -0.4179  -0.4169  -0.4095  -0.4037  -0.4006  -0.3937  -0.3922
 -0.3850  -0.3800  -0.3727  -0.3701  -0.3655  -0.3617  -0.3570  -0.3531
 -0.3447  -0.3412  -0.3351  -0.3310  -0.3279  -0.3215  -0.3185  -0.3154
 -0.3141  -0.3131  -0.3111  -0.3103  -0.3066  -0.3039  -0.2892  -0.2861
 -0.2299  -0.2156  -0.2137  -0.1988  -0.1882  -0.1060
 -- Virtual --
 -0.0036  -0.0001   0.0016   0.0077   0.0116   0.0129   0.0147   0.0182
  0.0225   0.0245   0.0274   0.0281   0.0362   0.0382   0.0411   0.0472
  0.0485   0.0529   0.0541   0.0565   0.0568   0.0616   0.0644   0.0675
  0.0692   0.0729   0.0744   0.0776   0.0844   0.0885   0.0909   0.0929
  0.0944   0.0957   0.0998   0.1019   0.1061   0.1127   0.1135   0.1166
  0.1173   0.1203   0.1226   0.1255   0.1270   0.1292   0.1306   0.1317
  0.1319   0.1348   0.1363   0.1369   0.1389   0.1404   0.1423   0.1433
  0.1447   0.1458   0.1476   0.1496   0.1534   0.1568   0.1578   0.1589
  0.1594   0.1621   0.1634   0.1642   0.1651   0.1677   0.1705   0.1721
  0.1752   0.1776   0.1783   0.1815   0.1836   0.1852   0.1867   0.1883
  0.1915   0.1934   0.1961   0.1987   0.2026   0.2046   0.2065   0.2097
  0.2131   0.2151   0.2173   0.2179   0.2188   0.2204   0.2227   0.2243
  0.2273   0.2298   0.2314   0.2350   0.2366   0.2379   0.2440   0.2471
  0.2530   0.2560   0.2574   0.2592   0.2604   0.2619   0.2625   0.2645
  0.2671   0.2687   0.2729   0.2748   0.2765   0.2802   0.2813   0.2850
  0.2871   0.2875   0.2937   0.2979   0.3001   0.3038   0.3056   0.3078
  0.3111   0.3139   0.3167   0.3176   0.3207   0.3232   0.3256   0.3261
  0.3307   0.3335   0.3346   0.3374   0.3387   0.3408   0.3441   0.3457
  0.3459   0.3493   0.3527   0.3560   0.3602   0.3616   0.3623   0.3691
  0.3747   0.3764   0.3784   0.3798   0.3873   0.3876   0.3899   0.3939
  0.3948   0.3973   0.4036   0.4103   0.4143   0.4190   0.4215   0.4276
  0.4307   0.4402   0.4454   0.4472   0.4523   0.4529   0.4571   0.4599
  0.4684   0.4701   0.4715   0.4808   0.4849   0.4932   0.4968   0.5023
  0.5106   0.5227   0.5349   0.5415   0.5429   0.5538   0.5657   0.5702
  0.5737   0.5779   0.5940   0.5985   0.6010   0.6044   0.6103   0.6157
  0.6201   0.6254   0.6312   0.6339   0.6356   0.6418   0.6470   0.6511
  0.6619   0.6633   0.6649   0.6688   0.6696   0.6711   0.6779   0.6794
  0.6831   0.6859   0.6877   0.6898   0.6924   0.6987   0.7022   0.7035
  0.7107   0.7153   0.7187   0.7227   0.7241   0.7305   0.7314   0.7345
  0.7416   0.7454   0.7478   0.7546   0.7581   0.7610   0.7630   0.7680
  0.7710   0.7733   0.7756   0.7792   0.7826   0.7881   0.7899   0.7916
  0.7934   0.7967   0.8032   0.8055   0.8095   0.8136   0.8184   0.8273
  0.8331   0.8349   0.8443   0.8491   0.8579   0.8687   0.8952   0.9112
  0.9146   0.9211   0.9252   0.9352   0.9452   0.9507   0.9569   0.9615
  0.9673   0.9818   0.9859   0.9936   1.0056   1.0105   1.0166   1.0272
  1.0278   1.0363   1.0433   1.0455   1.0492   1.0575   1.0623   1.0662
  1.0733   1.0788   1.0945   1.0964   1.1026   1.1095   1.1133   1.1229
  1.1267   1.1369   1.1486   1.1540   1.1693   1.1745   1.1966   1.2073
  1.2151   1.2252   1.2340   1.2439   1.2449   1.2491   1.2588   1.2642
  1.2666   1.2670   1.2724   1.2800   1.2846   1.2859   1.2926   1.2939
  1.2954   1.2996   1.3139   1.3204   1.3241   1.3293   1.3396   1.3442
  1.3573   1.3973   1.4110   1.4265   1.4296   1.4636   1.4714   1.4815
  1.4894   1.4949   1.5002   1.5080   1.5223   1.5287   1.5374   1.5503
  1.5539   1.5605   1.5673   1.5723   1.5784   1.5828   1.5906   1.5949
  1.5996   1.6060   1.6115   1.6185   1.6274   1.6281   1.6297   1.6344
  1.6418   1.6436   1.6505   1.6621   1.6696   1.6725   1.6754   1.6793
  1.6856   1.6865   1.6917   1.6950   1.6982   1.7053   1.7128   1.7191
  1.7273   1.7351   1.7466   1.7471   1.7479   1.7563   1.7570   1.7586
  1.7631   1.7670   1.7747   1.7824   1.7864   1.7898   1.7931   1.8073
  1.8245   1.8329   1.8349   1.8429   1.8542   1.8600   1.8623   1.8699
  1.8793   1.8831   1.8935   1.8951   1.8990   1.9129   1.9203   1.9317
  1.9447   1.9465   1.9559   1.9595   1.9636   1.9764   1.9814   1.9837
  2.0107   2.0245   2.0249   2.0322   2.0352   2.0623   2.0739   2.0776
  2.0843   2.0876   2.1078   2.1146   2.1212   2.1326   2.1451   2.1540
  2.1643   2.1674   2.1766   2.1829   2.2046   2.2113   2.2218   2.2378
  2.2449   2.2540   2.2609   2.2634   2.2782   2.2917   2.2959   2.3005
  2.3115   2.3161   2.3250   2.3425   2.3460   2.3510   2.3578   2.3795
  2.3882   2.3919   2.3937   2.3981   2.4142   2.4159   2.4358   2.4412
  2.4489   2.4569   2.4642   2.4815   2.4942   2.5021   2.5245   2.5349
  2.5381   2.5507   2.5549   2.5632   2.5710   2.5802   2.5876   2.5949
  2.5986   2.6031   2.6214   2.6273   2.6316   2.6364   2.6472   2.6529
  2.6565   2.6741   2.6806   2.6848   2.6877   2.7019   2.7084   2.7154
  2.7253   2.7333   2.7396   2.7417   2.7481   2.7556   2.7637   2.7648
  2.7755   2.7796   2.8051   2.8093   2.8142   2.8183   2.8203   2.8263
  2.8293   2.8327   2.8467   2.8487   2.8557   2.8583   2.8881   2.9036
  2.9091   2.9159   2.9280   2.9306   2.9412   2.9598   2.9608   2.9620
  2.9756   2.9816   2.9852   2.9895   2.9933   2.9963   3.0048   3.0341
  3.0379   3.0442   3.0539   3.0902   3.1062   3.1090   3.1100   3.1161
  3.1249   3.1415   3.1622   3.1679   3.1901   3.1991   3.2026   3.2145
  3.2274   3.2522   3.2662   3.3181   3.3212   3.3404   3.3615   3.3771
  3.3897   3.3986   3.4404   3.4529   3.4804   3.4975   3.5001   3.5267
  3.5323   3.5543   3.5665   3.5728   3.6350   3.6675   3.6990   3.7769
  3.7813   3.8012   3.8097   3.8132   3.8302   3.8316   3.8452   3.8580
  3.8667   3.8695   3.8865   3.8980   3.9067   3.9224   3.9463   3.9791
  4.0606   4.0723   4.0929   4.1086   4.1283   4.1383   4.1718   4.2227
  4.2374   4.2521   4.2823   4.3381   4.3537   4.3712   4.4012   4.4313
  4.4867   4.8702   4.8857   5.0146   5.0538   5.1502   5.1769   5.3387
  5.3614   5.4685   5.5646   5.7126   5.7478   5.8290   5.8790  23.5862
 23.8104  23.8816  23.8960  23.9006  23.9042  23.9090  23.9207  23.9266
 23.9345  23.9383  23.9429  23.9750  23.9823  23.9869  23.9942  24.0364
 24.0637  24.1373  24.1508  24.2042  49.9477  49.9874  50.0991  50.1542
 --------------------------------------------------------------
 
          Ground-State Mulliken Net Atomic Charges

     Atom                 Charge (a.u.)
  ----------------------------------------
      1 C                     0.166861
      2 C                    -0.747508
      3 C                    -0.219958
      4 C                     0.618137
      5 C                    -0.334009
      6 C                    -0.037052
      7 C                    -0.874357
      8 C                    -0.715911
      9 C                     1.888639
     10 C                    -0.600377
     11 O                    -0.758348
     12 O                    -0.667007
     13 O                    -0.347671
     14 O                    -0.338387
     15 C                    -0.277164
     16 C                    -0.866738
     17 C                    -0.336357
     18 C                    -0.059793
     19 C                     0.025911
     20 C                     0.041064
     21 C                    -0.056360
     22 C                    -0.298403
     23 C                    -0.502197
     24 C                    -0.297986
     25 C                    -0.716929
     26 H                     0.140168
     27 H                     0.193138
     28 H                     0.151962
     29 H                     0.288022
     30 H                     0.308459
     31 H                     0.171724
     32 H                     0.199910
     33 H                     0.158108
     34 H                     0.176466
     35 H                     0.116038
     36 H                     0.113424
     37 H                     0.128648
     38 H                     0.128309
     39 H                     0.136317
     40 H                     0.134942
     41 H                     0.133699
     42 H                     0.133422
     43 H                     0.133110
     44 H                     0.132650
     45 H                     0.131116
     46 H                     0.131802
     47 H                     0.128845
     48 H                     0.128876
     49 H                     0.135258
     50 H                     0.135330
     51 H                     0.145002
     52 H                     0.152255
     53 H                     0.144899
  ----------------------------------------
  Sum of atomic charges =    -2.000000

 -----------------------------------------------------------------
                    Cartesian Multipole Moments
 -----------------------------------------------------------------
    Charge (ESU x 10^10)
                -9.6064
    Dipole Moment (Debye)
         X      35.2910      Y       3.4515      Z      14.7776
       Tot      38.4154
    Quadrupole Moments (Debye-Ang)
        XX    -323.6348     XY     -30.6897     YY    -189.1235
        XZ     -63.9903     YZ       1.6485     ZZ    -215.9643
    Octopole Moments (Debye-Ang^2)
       XXX    2461.9951    XXY     213.1481    XYY     677.0357
       YYY      49.7898    XXZ     -68.0486    XYZ      31.7169
       YYZ    -309.9168    XZZ     725.3575    YZZ     -23.9775
       ZZZ    -997.3935
    Hexadecapole Moments (Debye-Ang^3)
      XXXX  -16938.9865   XXXY   -1609.2674   XXYY   -3004.4310
      XYYY    -442.0552   YYYY   -1627.7234   XXXZ     572.9586
      XXYZ    -317.4276   XYYZ     367.5350   YYYZ      35.6428
      XXZZ   -9043.6956   XYZZ      62.5468   YYZZ   -6881.6437
      XZZZ    1538.4511   YZZZ     430.7892   ZZZZ  -40508.7829
 -----------------------------------------------------------------
 Total job time:  441.04s(wall), 3077.56s(cpu) 
 Wed Jun 12 07:40:03 2024

        *************************************************************
        *                                                           *
        *  Thank you very much for using Q-Chem.  Have a nice day.  *
        *                                                           *
        *************************************************************


