 Entering Gaussian System, Link 0=g16
 Input=168-PCM.com
 Output=168-PCM.log
 Initial command:
 /sysapps/ubuntu-applications/gaussian/Gaussian/AVX2/g16/l1.exe "/scratch/selhajj1/4286536/Gau-2237519.inp" -scrdir="/scratch/selhajj1/4286536/"
 Entering Link 1 = /sysapps/ubuntu-applications/gaussian/Gaussian/AVX2/g16/l1.exe PID=   2237526.
  
 Copyright (c) 1988,1990,1992,1993,1995,1998,2003,2009,2016,
            Gaussian, Inc.  All Rights Reserved.
  
 This is part of the Gaussian(R) 16 program.  It is based on
 the Gaussian(R) 09 system (copyright 2009, Gaussian, Inc.),
 the Gaussian(R) 03 system (copyright 2003, Gaussian, Inc.),
 the Gaussian(R) 98 system (copyright 1998, Gaussian, Inc.),
 the Gaussian(R) 94 system (copyright 1995, Gaussian, Inc.),
 the Gaussian 92(TM) system (copyright 1992, Gaussian, Inc.),
 the Gaussian 90(TM) system (copyright 1990, Gaussian, Inc.),
 the Gaussian 88(TM) system (copyright 1988, Gaussian, Inc.),
 the Gaussian 86(TM) system (copyright 1986, Carnegie Mellon
 University), and the Gaussian 82(TM) system (copyright 1983,
 Carnegie Mellon University). Gaussian is a federally registered
 trademark of Gaussian, Inc.
  
 This software contains proprietary and confidential information,
 including trade secrets, belonging to Gaussian, Inc.
  
 This software is provided under written license and may be
 used, copied, transmitted, or stored only in accord with that
 written license.
  
 The following legend is applicable only to US Government
 contracts under FAR:
  
                    RESTRICTED RIGHTS LEGEND
  
 Use, reproduction and disclosure by the US Government is
 subject to restrictions as set forth in subparagraphs (a)
 and (c) of the Commercial Computer Software - Restricted
 Rights clause in FAR 52.227-19.
  
 Gaussian, Inc.
 340 Quinnipiac St., Bldg. 40, Wallingford CT 06492
  
  
 ---------------------------------------------------------------
 Warning -- This program may not be used in any manner that
 competes with the business of Gaussian, Inc. or will provide
 assistance to any competitor of Gaussian, Inc.  The licensee
 of this program is prohibited from giving any competitor of
 Gaussian, Inc. access to this program.  By using this program,
 the user acknowledges that Gaussian, Inc. is engaged in the
 business of creating and licensing software in the field of
 computational chemistry and represents and warrants to the
 licensee that it is not a competitor of Gaussian, Inc. and that
 it will not use this program in any manner prohibited above.
 ---------------------------------------------------------------
  

 Cite this work as:
 Gaussian 16, Revision A.03,
 M. J. Frisch, G. W. Trucks, H. B. Schlegel, G. E. Scuseria, 
 M. A. Robb, J. R. Cheeseman, G. Scalmani, V. Barone, 
 G. A. Petersson, H. Nakatsuji, X. Li, M. Caricato, A. V. Marenich, 
 J. Bloino, B. G. Janesko, R. Gomperts, B. Mennucci, H. P. Hratchian, 
 J. V. Ortiz, A. F. Izmaylov, J. L. Sonnenberg, D. Williams-Young, 
 F. Ding, F. Lipparini, F. Egidi, J. Goings, B. Peng, A. Petrone, 
 T. Henderson, D. Ranasinghe, V. G. Zakrzewski, J. Gao, N. Rega, 
 G. Zheng, W. Liang, M. Hada, M. Ehara, K. Toyota, R. Fukuda, 
 J. Hasegawa, M. Ishida, T. Nakajima, Y. Honda, O. Kitao, H. Nakai, 
 T. Vreven, K. Throssell, J. A. Montgomery, Jr., J. E. Peralta, 
 F. Ogliaro, M. J. Bearpark, J. J. Heyd, E. N. Brothers, K. N. Kudin, 
 V. N. Staroverov, T. A. Keith, R. Kobayashi, J. Normand, 
 K. Raghavachari, A. P. Rendell, J. C. Burant, S. S. Iyengar, 
 J. Tomasi, M. Cossi, J. M. Millam, M. Klene, C. Adamo, R. Cammi, 
 J. W. Ochterski, R. L. Martin, K. Morokuma, O. Farkas, 
 J. B. Foresman, and D. J. Fox, Gaussian, Inc., Wallingford CT, 2016.
 
 ******************************************
 Gaussian 16:  ES64L-G16RevA.03 25-Dec-2016
                14-Jan-2024 
 ******************************************
 %chk=168-PCM.chk
 %nproc=8
 Will use up to    8 processors via shared memory.
 %mem=30GB
 ----------------------------------------------------------------
 #P UB3LYP/6-311++G(d,p) SCRF=(PCM,Solvent=n,n-DiMethylFormamide)
 ----------------------------------------------------------------
 1/38=1,172=1/1;
 2/12=2,17=6,18=5,40=1/2;
 3/5=4,6=6,7=1111,11=2,25=1,30=1,70=2201,72=148,74=-5,116=2/1,2,3;
 4//1;
 5/5=2,38=5,53=148/2;
 6/7=2,8=2,9=2,10=2,28=1/1;
 99/5=1,9=1/99;
 Leave Link    1 at Sun Jan 14 00:59:43 2024, MaxMem=  4026531840 cpu:               0.7 elap:               0.1
 (Enter /sysapps/ubuntu-applications/gaussian/Gaussian/AVX2/g16/l101.exe)
 ------------------
 Quinone PCM in DMF
 ------------------
 Symbolic Z-matrix:
 Charge =  0 Multiplicity = 1
 N                    -5.02506  -0.75207  -0.44126 
 C                    -3.75864  -0.24761  -0.21507 
 C                    -3.58375   0.98149   0.4527 
 C                    -2.31448   1.46097   0.71706 
 C                    -1.17472   0.7411    0.33272 
 C                     0.16679   1.2825    0.63035 
 O                     0.32276   2.35289   1.20338 
 C                     1.34589   0.46279   0.19957 
 C                     2.62077   0.94336   0.47237 
 C                     3.7583    0.21925   0.08694 
 N                     5.02433   0.67678   0.3996 
 C                     3.58346  -1.00921  -0.58197 
 C                     2.31423  -1.48522  -0.85277 
 C                     1.17448  -0.76467  -0.46966 
 C                    -0.167    -1.30207  -0.77462 
 O                    -0.32285  -2.36511  -1.36122 
 C                    -1.34616  -0.48775  -0.33397 
 C                    -2.62106  -0.97134  -0.60117 
 H                    -5.80052  -0.1093   -0.40873 
 H                    -5.12062  -1.48617  -1.12522 
 H                    -4.45481   1.55007   0.76232 
 H                    -2.17678   2.4059    1.22855 
 H                     2.71308   1.89087   0.99133 
 H                     5.80238   0.29601  -0.11548 
 H                     5.12237   1.65007   0.64251 
 H                     4.45447  -1.58325  -0.88146 
 H                     2.17654  -2.42811  -1.368 
 H                    -2.7134   -1.92218  -1.114 
 
 ITRead=  0  0  0  0  0  0  0  0  0  0  0  0  0  0  0  0  0  0  0  0
 ITRead=  0  0  0  0  0  0  0  0
 MicOpt= -1 -1 -1 -1 -1 -1 -1 -1 -1 -1 -1 -1 -1 -1 -1 -1 -1 -1 -1 -1
 MicOpt= -1 -1 -1 -1 -1 -1 -1 -1
 NAtoms=     28 NQM=       28 NQMF=       0 NMMI=      0 NMMIF=      0
                NMic=       0 NMicF=      0.
                    Isotopes and Nuclear Properties:
 (Nuclear quadrupole moments (NQMom) in fm**2, nuclear magnetic moments (NMagM)
  in nuclear magnetons)

  Atom         1           2           3           4           5           6           7           8           9          10
 IAtWgt=          14          12          12          12          12          12          16          12          12          12
 AtmWgt=  14.0030740  12.0000000  12.0000000  12.0000000  12.0000000  12.0000000  15.9949146  12.0000000  12.0000000  12.0000000
 NucSpn=           2           0           0           0           0           0           0           0           0           0
 AtZEff=  -0.0000000  -0.0000000  -0.0000000  -0.0000000  -0.0000000  -0.0000000  -0.0000000  -0.0000000  -0.0000000  -0.0000000
 NQMom=    2.0440000   0.0000000   0.0000000   0.0000000   0.0000000   0.0000000   0.0000000   0.0000000   0.0000000   0.0000000
 NMagM=    0.4037610   0.0000000   0.0000000   0.0000000   0.0000000   0.0000000   0.0000000   0.0000000   0.0000000   0.0000000
 AtZNuc=   7.0000000   6.0000000   6.0000000   6.0000000   6.0000000   6.0000000   8.0000000   6.0000000   6.0000000   6.0000000

  Atom        11          12          13          14          15          16          17          18          19          20
 IAtWgt=          14          12          12          12          12          16          12          12           1           1
 AtmWgt=  14.0030740  12.0000000  12.0000000  12.0000000  12.0000000  15.9949146  12.0000000  12.0000000   1.0078250   1.0078250
 NucSpn=           2           0           0           0           0           0           0           0           1           1
 AtZEff=  -0.0000000  -0.0000000  -0.0000000  -0.0000000  -0.0000000  -0.0000000  -0.0000000  -0.0000000  -0.0000000  -0.0000000
 NQMom=    2.0440000   0.0000000   0.0000000   0.0000000   0.0000000   0.0000000   0.0000000   0.0000000   0.0000000   0.0000000
 NMagM=    0.4037610   0.0000000   0.0000000   0.0000000   0.0000000   0.0000000   0.0000000   0.0000000   2.7928460   2.7928460
 AtZNuc=   7.0000000   6.0000000   6.0000000   6.0000000   6.0000000   8.0000000   6.0000000   6.0000000   1.0000000   1.0000000

  Atom        21          22          23          24          25          26          27          28
 IAtWgt=           1           1           1           1           1           1           1           1
 AtmWgt=   1.0078250   1.0078250   1.0078250   1.0078250   1.0078250   1.0078250   1.0078250   1.0078250
 NucSpn=           1           1           1           1           1           1           1           1
 AtZEff=  -0.0000000  -0.0000000  -0.0000000  -0.0000000  -0.0000000  -0.0000000  -0.0000000  -0.0000000
 NQMom=    0.0000000   0.0000000   0.0000000   0.0000000   0.0000000   0.0000000   0.0000000   0.0000000
 NMagM=    2.7928460   2.7928460   2.7928460   2.7928460   2.7928460   2.7928460   2.7928460   2.7928460
 AtZNuc=   1.0000000   1.0000000   1.0000000   1.0000000   1.0000000   1.0000000   1.0000000   1.0000000
 Leave Link  101 at Sun Jan 14 00:59:43 2024, MaxMem=  4026531840 cpu:               1.3 elap:               0.3
 (Enter /sysapps/ubuntu-applications/gaussian/Gaussian/AVX2/g16/l202.exe)
                          Input orientation:                          
 ---------------------------------------------------------------------
 Center     Atomic      Atomic             Coordinates (Angstroms)
 Number     Number       Type             X           Y           Z
 ---------------------------------------------------------------------
      1          7           0       -5.025059   -0.752073   -0.441264
      2          6           0       -3.758636   -0.247611   -0.215065
      3          6           0       -3.583748    0.981492    0.452698
      4          6           0       -2.314478    1.460969    0.717064
      5          6           0       -1.174715    0.741104    0.332723
      6          6           0        0.166793    1.282498    0.630347
      7          8           0        0.322756    2.352893    1.203382
      8          6           0        1.345892    0.462789    0.199568
      9          6           0        2.620772    0.943362    0.472368
     10          6           0        3.758297    0.219249    0.086939
     11          7           0        5.024330    0.676781    0.399602
     12          6           0        3.583455   -1.009210   -0.581967
     13          6           0        2.314228   -1.485215   -0.852765
     14          6           0        1.174484   -0.764671   -0.469659
     15          6           0       -0.166998   -1.302073   -0.774623
     16          8           0       -0.322851   -2.365107   -1.361216
     17          6           0       -1.346162   -0.487745   -0.333965
     18          6           0       -2.621063   -0.971343   -0.601171
     19          1           0       -5.800524   -0.109297   -0.408727
     20          1           0       -5.120616   -1.486170   -1.125216
     21          1           0       -4.454807    1.550074    0.762317
     22          1           0       -2.176781    2.405898    1.228552
     23          1           0        2.713077    1.890866    0.991333
     24          1           0        5.802378    0.296011   -0.115481
     25          1           0        5.122366    1.650071    0.642508
     26          1           0        4.454470   -1.583252   -0.881463
     27          1           0        2.176536   -2.428107   -1.368004
     28          1           0       -2.713397   -1.922184   -1.114004
 ---------------------------------------------------------------------
                    Distance matrix (angstroms):
                    1          2          3          4          5
     1  N    0.000000
     2  C    1.381838   0.000000
     3  C    2.425241   1.409676   0.000000
     4  C    3.685991   2.423572   1.382329   0.000000
     5  C    4.201640   2.820333   2.423968   1.401779   0.000000
     6  C    5.678306   4.297086   3.766792   2.489192   1.476933
     7  O    6.398812   5.043052   4.207736   2.826135   2.366079
     8  C    6.517329   5.170377   4.963313   3.829161   2.539419
     9  C    7.884666   6.525935   6.204668   4.968348   3.803437
    10  C    8.852672   7.537469   7.390563   6.230371   4.966624
    11  N   10.185229   8.852842   8.613633   7.387411   6.199739
    12  C    8.613503   7.390599   7.510141   6.524943   5.151741
    13  C    7.387284   6.230409   6.524952   5.706950   4.305183
    14  C    6.199621   4.966673   5.151757   4.305188   2.903431
    15  C    4.900447   3.784820   4.288959   3.804103   2.533038
    16  O    5.055586   4.195482   5.012331   4.787973   3.639182
    17  C    3.689941   2.427310   2.790034   2.416565   1.408523
    18  C    2.419266   1.402476   2.418877   2.783501   2.428282
    19  H    1.007753   2.055710   2.616480   3.985682   4.761411
    20  H    1.007879   2.053629   3.307738   4.466994   4.759881
    21  H    2.659638   2.161389   1.085308   2.142661   3.405582
    22  H    4.568780   3.409898   2.147193   1.083269   2.139669
    23  H    8.301579   6.921817   6.384911   5.053350   4.107389
    24  H   10.882923   9.576974   9.428259   8.242185   7.005628
    25  H   10.484040   9.121887   8.733811   7.439621   6.369884
    26  H    9.526075   8.347642   8.542297   7.592182   6.210040
    27  H    7.451906   6.427293   6.936944   6.296160   4.916020
    28  H    2.676849   2.169058   3.412243   3.867515   3.399068
                    6          7          8          9         10
     6  C    0.000000
     7  O    1.224107   0.000000
     8  C    1.499256   2.372118   0.000000
     9  C    2.482334   2.793213   1.389492   0.000000
    10  C    3.784797   4.195453   2.427281   1.402447   0.000000
    11  N    4.900592   5.055711   3.690083   2.419391   1.382003
    12  C    4.288964   5.012321   2.790030   2.418867   1.409651
    13  C    3.804121   4.787982   2.416568   2.783511   2.423546
    14  C    2.533053   3.639191   1.408511   2.428279   2.820282
    15  C    2.960636   4.184631   2.520441   3.790597   4.297051
    16  O    4.184626   5.408650   3.635622   4.793007   5.042997
    17  C    2.520454   3.635650   2.904363   4.293577   5.170348
    18  C    3.790591   4.793019   4.293559   5.682906   6.525890
    19  H    6.214953   6.793808   7.195038   8.532447   9.577301
    20  H    6.221271   7.056279   6.882530   8.269461   9.122109
    21  H    4.631220   4.864583   5.928489   7.107460   8.347593
    22  H    2.666874   2.500226   4.152554   5.072213   6.427275
    23  H    2.642723   2.443782   2.129669   1.084255   2.169036
    24  H    5.769682   5.999702   4.470720   3.299583   2.055513
    25  H    4.969201   4.883113   3.983414   2.605064   2.053434
    26  H    5.374222   6.075432   3.875328   3.402805   2.161358
    27  H    4.669161   5.736418   3.391833   3.866668   3.409886
    28  H    4.648467   5.732782   4.887882   6.259496   6.921764
                   11         12         13         14         15
    11  N    0.000000
    12  C    2.425317   0.000000
    13  C    3.686096   1.382335   0.000000
    14  C    4.201751   2.423954   1.401774   0.000000
    15  C    5.678429   3.766800   2.489203   1.476949   0.000000
    16  O    6.398899   4.207721   2.826114   2.366069   1.224101
    17  C    6.517470   4.963321   3.829172   2.539440   1.499246
    18  C    7.884789   6.204663   4.968346   3.803444   2.482318
    19  H   10.883418   9.428622   8.242543   7.005995   5.770027
    20  H   10.484434   8.734040   7.439834   6.370133   4.969420
    21  H    9.526187   8.542288   7.592187   6.210050   5.374219
    22  H    7.452047   6.936949   6.296174   4.916036   4.669153
    23  H    2.676946   3.412224   3.867519   3.399065   4.648472
    24  H    1.007797   2.616263   3.985416   4.761081   6.214643
    25  H    1.007923   3.307471   4.466710   4.759587   6.220996
    26  H    2.659627   1.085306   2.142678   3.405579   4.631246
    27  H    4.568883   2.147218   1.083271   2.139661   2.666872
    28  H    8.301689   6.384899   5.053336   4.107388   2.642700
                   16         17         18         19         20
    16  O    0.000000
    17  C    2.372108   0.000000
    18  C    2.793210   1.389474   0.000000
    19  H    6.000068   4.471035   3.299868   0.000000
    20  H    4.883316   3.983646   2.605271   1.694524   0.000000
    21  H    6.075450   3.875334   3.402831   2.436352   3.636600
    22  H    5.736414   3.391837   3.866656   4.705146   5.417987
    23  H    5.732770   4.887906   6.259501   8.856761   8.789249
    24  H    6.793514   7.194695   8.532083  11.613682  11.113394
    25  H    7.055987   6.882268   8.269174  11.113505  10.857234
    26  H    4.864592   5.928509   7.107472  10.371158   9.578680
    27  H    2.500190   4.152547   5.072194   8.362451   7.361699
    28  H    2.443769   2.129650   1.084261   3.648880   2.446413
                   21         22         23         24         25
    21  H    0.000000
    22  H    2.477743   0.000000
    23  H    7.179634   4.922626   0.000000
    24  H   10.370779   8.362119   3.648613   0.000000
    25  H    9.578444   7.361540   2.446290   1.694238   0.000000
    26  H    9.586186   8.021158   4.313851   2.436229   3.636337
    27  H    8.021153   7.004361   4.950543   4.704930   5.417712
    28  H    4.313892   4.950537   6.958334   8.856402   8.788943
                   26         27         28
    26  H    0.000000
    27  H    2.477799   0.000000
    28  H    7.179643   4.922593   0.000000
 Stoichiometry    C14H10N2O2
 Framework group  C1[X(C14H10N2O2)]
 Deg. of freedom    78
 Full point group                 C1      NOp   1
 Largest Abelian subgroup         C1      NOp   1
 Largest concise Abelian subgroup C1      NOp   1
                         Standard orientation:                         
 ---------------------------------------------------------------------
 Center     Atomic      Atomic             Coordinates (Angstroms)
 Number     Number       Type             X           Y           Z
 ---------------------------------------------------------------------
      1          7           0        5.052485   -0.637563   -0.054706
      2          6           0        3.766350   -0.134646   -0.005668
      3          6           0        3.538610    1.256512   -0.005182
      4          6           0        2.249514    1.755564   -0.001590
      5          6           0        1.141461    0.896959   -0.000776
      6          6           0       -0.222481    1.463508    0.003534
      7          8           0       -0.424273    2.670842    0.011451
      8          6           0       -1.365717    0.493588   -0.002249
      9          6           0       -2.660646    0.997409   -0.005514
     10          6           0       -3.766308    0.134639   -0.005784
     11          7           0       -5.052611    0.637554   -0.055125
     12          6           0       -3.538607   -1.256500   -0.004958
     13          6           0       -2.249512   -1.755569   -0.001240
     14          6           0       -1.141471   -0.896957   -0.000645
     15          6           0        0.222492   -1.463498    0.003400
     16          8           0        0.424261   -2.670832    0.010911
     17          6           0        1.365730   -0.493594   -0.002066
     18          6           0        2.660644   -0.997405   -0.005160
     19          1           0        5.806972   -0.028114    0.218950
     20          1           0        5.186186   -1.604659    0.195634
     21          1           0        4.384504    1.936454   -0.010976
     22          1           0        2.071230    2.824059    0.000459
     23          1           0       -2.793822    2.073448   -0.009065
     24          1           0       -5.806573    0.028185    0.220312
     25          1           0       -5.185941    1.604472    0.196273
     26          1           0       -4.384524   -1.936412   -0.010665
     27          1           0       -2.071209   -2.824062    0.000979
     28          1           0        2.793810   -2.073452   -0.008590
 ---------------------------------------------------------------------
 Rotational constants (GHZ):           1.0312514           0.2637939           0.2101065
 Leave Link  202 at Sun Jan 14 00:59:43 2024, MaxMem=  4026531840 cpu:               0.4 elap:               0.1
 (Enter /sysapps/ubuntu-applications/gaussian/Gaussian/AVX2/g16/l301.exe)
 Standard basis: 6-311++G(d,p) (5D, 7F)
 Ernie: Thresh=  0.10000D-02 Tol=  0.10000D-05 Strict=F.
 There are   484 symmetry adapted cartesian basis functions of A   symmetry.
 There are   466 symmetry adapted basis functions of A   symmetry.
   466 basis functions,   738 primitive gaussians,   484 cartesian basis functions
    62 alpha electrons       62 beta electrons
       nuclear repulsion energy      1199.6868956647 Hartrees.
 IExCor=  402 DFT=T Ex+Corr=B3LYP ExCW=0 ScaHFX=  0.200000
 ScaDFX=  0.800000  0.720000  1.000000  0.810000 ScalE2=  1.000000  1.000000
 IRadAn=      5 IRanWt=     -1 IRanGd=            0 ICorTp=0 IEmpDi=  4
 NAtoms=   28 NActive=   28 NUniq=   28 SFac= 1.00D+00 NAtFMM=   60 NAOKFM=F Big=F
 Integral buffers will be    131072 words long.
 Raffenetti 2 integral format.
 Two-electron integral symmetry is turned on.
 ------------------------------------------------------------------------------
 Polarizable Continuum Model (PCM)
 =================================
 Model                : PCM.
 Atomic radii         : UFF (Universal Force Field).
 Polarization charges : Total charges.
 Charge compensation  : None.
 Solution method      : On-the-fly selection.
 Cavity type          : Scaled VdW (van der Waals Surface) (Alpha=1.100).
 Cavity algorithm     : GePol (No added spheres)
                        Default sphere list used, NSphG=   28.
                        Lebedev-Laikov grids with approx.  5.0 points / Ang**2.
                        Smoothing algorithm: York/Karplus (Gamma=1.0000).
                        Polarization charges: spherical gaussians, with
                                              point-specific exponents (IZeta= 3).
                        Self-potential: point-specific (ISelfS= 7).
                        Self-field    : sphere-specific E.n sum rule (ISelfD= 2).
 Solvent              : n,n-DiMethylFormamide, Eps=  37.219000 Eps(inf)=   2.046330
 ------------------------------------------------------------------------------
 GePol: Number of generator spheres                  =      28
 GePol: Total number of spheres                      =      28
 GePol: Number of exposed spheres                    =      28 (100.00%)
 GePol: Number of points                             =    2258
 GePol: Average weight of points                     =       0.13
 GePol: Minimum weight of points                     =   0.17D-11
 GePol: Maximum weight of points                     =    0.20577
 GePol: Number of points with low weight             =     177
 GePol: Fraction of low-weight points (<1% of avg)   =       7.84%
 GePol: Cavity surface area                          =    288.620 Ang**2
 GePol: Cavity volume                                =    313.260 Ang**3
 Leave Link  301 at Sun Jan 14 00:59:43 2024, MaxMem=  4026531840 cpu:               0.7 elap:               0.2
 (Enter /sysapps/ubuntu-applications/gaussian/Gaussian/AVX2/g16/l302.exe)
 NPDir=0 NMtPBC=     1 NCelOv=     1 NCel=       1 NClECP=     1 NCelD=      1
         NCelK=      1 NCelE2=     1 NClLst=     1 CellRange=     0.0.
 One-electron integrals computed using PRISM.
 One-electron integral symmetry used in STVInt
 NBasis=   466 RedAO= T EigKep=  1.62D-06  NBF=   466
 NBsUse=   459 1.00D-06 EigRej=  7.92D-07 NBFU=   459
 Precomputing XC quadrature grid using
 IXCGrd= 4 IRadAn=           5 IRanWt=          -1 IRanGd=           0 AccXCQ= 0.00D+00.
 Generated NRdTot=       0 NPtTot=           0 NUsed=           0 NTot=          32
 NSgBfM=   478   478   478   478   478 MxSgAt=    28 MxSgA2=    28.
 Leave Link  302 at Sun Jan 14 00:59:45 2024, MaxMem=  4026531840 cpu:               7.7 elap:               1.3
 (Enter /sysapps/ubuntu-applications/gaussian/Gaussian/AVX2/g16/l303.exe)
 DipDrv:  MaxL=1.
 Leave Link  303 at Sun Jan 14 00:59:45 2024, MaxMem=  4026531840 cpu:               1.4 elap:               0.4
 (Enter /sysapps/ubuntu-applications/gaussian/Gaussian/AVX2/g16/l401.exe)
 ExpMin= 3.60D-02 ExpMax= 8.59D+03 ExpMxC= 1.30D+03 IAcc=3 IRadAn=         5 AccDes= 0.00D+00
 Harris functional with IExCor=  402 and IRadAn=       5 diagonalized for initial guess.
 HarFok:  IExCor=  402 AccDes= 0.00D+00 IRadAn=         5 IDoV= 1 UseB2=F ITyADJ=14
 ICtDFT=  3500011 ScaDFX=  1.000000  1.000000  1.000000  1.000000
 FoFCou: FMM=F IPFlag=           0 FMFlag=      100000 FMFlg1=           0
         NFxFlg=           0 DoJE=T BraDBF=F KetDBF=T FulRan=T
         wScrn=  0.000000 ICntrl=       500 IOpCl=  0 I1Cent=   200000004 NGrid=           0
         NMat0=    1 NMatS0=      1 NMatT0=    0 NMatD0=    1 NMtDS0=    0 NMtDT0=    0
 Petite list used in FoFCou.
 Harris En= -799.736897283166    
 JPrj=0 DoOrth=F DoCkMO=F.
 Initial guess <Sx>= 0.0000 <Sy>= 0.0000 <Sz>= 0.0000 <S**2>=-0.0000 S=-0.0000
 Leave Link  401 at Sun Jan 14 00:59:49 2024, MaxMem=  4026531840 cpu:              26.2 elap:               3.7
 (Enter /sysapps/ubuntu-applications/gaussian/Gaussian/AVX2/g16/l502.exe)
 Integral symmetry usage will be decided dynamically.
 UHF open shell SCF:
 Using DIIS extrapolation, IDIIS=  1040.
 NGot=  4026531840 LenX=  4026054944 LenY=  4025820204
 Requested convergence on RMS density matrix=1.00D-08 within 128 cycles.
 Requested convergence on MAX density matrix=1.00D-06.
 Requested convergence on             energy=1.00D-06.
 No special actions if energy rises.
 Fock matrices will be formed incrementally for  20 cycles.

 Cycle   1  Pass 1  IDiag  1:
 FoFJK:  IHMeth= 1 ICntrl=       0 DoSepK=F KAlg= 0 I1Cent=           0 FoldK=F
 IRaf= 840000000 NMat=       1 IRICut=       1 DoRegI=T DoRafI=F ISym2E= 0 IDoP0=0 IntGTp=1.
 FoFCou: FMM=F IPFlag=           0 FMFlag=      100000 FMFlg1=           0
         NFxFlg=           0 DoJE=F BraDBF=F KetDBF=F FulRan=T
         wScrn=  0.000000 ICntrl=         0 IOpCl=  1 I1Cent=           0 NGrid=           0
         NMat0=    1 NMatS0=      1 NMatT0=    0 NMatD0=    1 NMtDS0=    0 NMtDT0=    0
 Symmetry not used in FoFCou.
 Inv3:  Mode=1 IEnd=    15295692.
 Iteration    1 A*A^-1 deviation from unit magnitude is 3.33D-15 for    193.
 Iteration    1 A*A^-1 deviation from orthogonality  is 2.01D-15 for   1647     96.
 Iteration    1 A^-1*A deviation from unit magnitude is 3.11D-15 for    193.
 Iteration    1 A^-1*A deviation from orthogonality  is 2.37D-15 for   1616    777.
 E= -799.328319598079    
 DIIS: error= 4.07D-02 at cycle   1 NSaved=   1.
 NSaved= 1 IEnMin= 1 EnMin= -799.328319598079     IErMin= 1 ErrMin= 4.07D-02
 ErrMax= 4.07D-02  0.00D+00 EMaxC= 1.00D-01 BMatC= 2.07D+00 BMatP= 2.07D+00
 IDIUse=3 WtCom= 5.93D-01 WtEn= 4.07D-01
 Coeff-Com:  0.100D+01
 Coeff-En:   0.100D+01
 Coeff:      0.100D+01
 Gap=     0.094 Goal=   None    Shift=    0.000
 Gap=     0.094 Goal=   None    Shift=    0.000
 GapD=    0.094 DampG=0.500 DampE=0.500 DampFc=0.2500 IDamp=-1.
 Damping current iteration by 2.50D-01
 RMSDP=1.18D-02 MaxDP=4.77D-01              OVMax= 2.33D-01

 Cycle   2  Pass 1  IDiag  1:
 RMSU=  2.83D-03    CP:  9.84D-01
 E= -799.472249466122     Delta-E=       -0.143929868043 Rises=F Damp=T
 DIIS: error= 2.27D-02 at cycle   2 NSaved=   2.
 NSaved= 2 IEnMin= 2 EnMin= -799.472249466122     IErMin= 2 ErrMin= 2.27D-02
 ErrMax= 2.27D-02  0.00D+00 EMaxC= 1.00D-01 BMatC= 5.01D-01 BMatP= 2.07D+00
 IDIUse=3 WtCom= 7.73D-01 WtEn= 2.27D-01
 Coeff-Com: -0.705D+00 0.171D+01
 Coeff-En:   0.000D+00 0.100D+01
 Coeff:     -0.545D+00 0.155D+01
 Gap=     0.110 Goal=   None    Shift=    0.000
 Gap=     0.110 Goal=   None    Shift=    0.000
 RMSDP=7.08D-03 MaxDP=4.02D-01 DE=-1.44D-01 OVMax= 2.31D-01

 Cycle   3  Pass 1  IDiag  1:
 RMSU=  6.03D-03    CP:  9.18D-01  8.80D-01
 E= -799.692436397924     Delta-E=       -0.220186931801 Rises=F Damp=F
 DIIS: error= 1.54D-02 at cycle   3 NSaved=   3.
 NSaved= 3 IEnMin= 3 EnMin= -799.692436397924     IErMin= 3 ErrMin= 1.54D-02
 ErrMax= 1.54D-02  0.00D+00 EMaxC= 1.00D-01 BMatC= 1.83D-01 BMatP= 5.01D-01
 IDIUse=3 WtCom= 8.46D-01 WtEn= 1.54D-01
 Coeff-Com: -0.410D+00 0.907D+00 0.503D+00
 Coeff-En:   0.000D+00 0.000D+00 0.100D+01
 Coeff:     -0.347D+00 0.768D+00 0.580D+00
 Gap=     0.122 Goal=   None    Shift=    0.000
 Gap=     0.122 Goal=   None    Shift=    0.000
 RMSDP=3.35D-03 MaxDP=1.68D-01 DE=-2.20D-01 OVMax= 7.84D-02

 Cycle   4  Pass 1  IDiag  1:
 RMSU=  2.36D-03    CP:  9.36D-01  1.21D+00  6.77D-01
 E= -799.721071650819     Delta-E=       -0.028635252895 Rises=F Damp=F
 DIIS: error= 9.92D-03 at cycle   4 NSaved=   4.
 NSaved= 4 IEnMin= 4 EnMin= -799.721071650819     IErMin= 4 ErrMin= 9.92D-03
 ErrMax= 9.92D-03  0.00D+00 EMaxC= 1.00D-01 BMatC= 6.25D-02 BMatP= 1.83D-01
 IDIUse=3 WtCom= 9.01D-01 WtEn= 9.92D-02
 Coeff-Com: -0.629D-01 0.157D+00 0.369D+00 0.536D+00
 Coeff-En:   0.000D+00 0.000D+00 0.279D+00 0.721D+00
 Coeff:     -0.566D-01 0.142D+00 0.360D+00 0.555D+00
 Gap=     0.116 Goal=   None    Shift=    0.000
 Gap=     0.116 Goal=   None    Shift=    0.000
 RMSDP=1.96D-03 MaxDP=1.11D-01 DE=-2.86D-02 OVMax= 2.86D-02

 Cycle   5  Pass 1  IDiag  1:
 RMSU=  5.78D-04    CP:  9.11D-01  1.06D+00  7.55D-01  5.56D-01
 E= -799.734065627800     Delta-E=       -0.012993976980 Rises=F Damp=F
 DIIS: error= 9.60D-04 at cycle   5 NSaved=   5.
 NSaved= 5 IEnMin= 5 EnMin= -799.734065627800     IErMin= 5 ErrMin= 9.60D-04
 ErrMax= 9.60D-04  0.00D+00 EMaxC= 1.00D-01 BMatC= 1.85D-03 BMatP= 6.25D-02
 IDIUse=3 WtCom= 9.90D-01 WtEn= 9.60D-03
 Coeff-Com: -0.147D-02 0.940D-02 0.143D+00 0.283D+00 0.567D+00
 Coeff-En:   0.000D+00 0.000D+00 0.000D+00 0.000D+00 0.100D+01
 Coeff:     -0.145D-02 0.931D-02 0.141D+00 0.280D+00 0.571D+00
 Gap=     0.118 Goal=   None    Shift=    0.000
 Gap=     0.118 Goal=   None    Shift=    0.000
 RMSDP=4.31D-04 MaxDP=3.57D-02 DE=-1.30D-02 OVMax= 4.76D-03

 Cycle   6  Pass 1  IDiag  1:
 RMSU=  2.22D-04    CP:  9.05D-01  1.05D+00  7.62D-01  5.68D-01  7.91D-01
 E= -799.734462787985     Delta-E=       -0.000397160185 Rises=F Damp=F
 DIIS: error= 2.51D-04 at cycle   6 NSaved=   6.
 NSaved= 6 IEnMin= 6 EnMin= -799.734462787985     IErMin= 6 ErrMin= 2.51D-04
 ErrMax= 2.51D-04  0.00D+00 EMaxC= 1.00D-01 BMatC= 7.73D-05 BMatP= 1.85D-03
 IDIUse=3 WtCom= 9.97D-01 WtEn= 2.51D-03
 Coeff-Com:  0.197D-02-0.319D-02 0.377D-01 0.851D-01 0.255D+00 0.624D+00
 Coeff-En:   0.000D+00 0.000D+00 0.000D+00 0.000D+00 0.000D+00 0.100D+01
 Coeff:      0.197D-02-0.318D-02 0.376D-01 0.849D-01 0.254D+00 0.625D+00
 Gap=     0.118 Goal=   None    Shift=    0.000
 Gap=     0.118 Goal=   None    Shift=    0.000
 RMSDP=9.23D-05 MaxDP=6.14D-03 DE=-3.97D-04 OVMax= 1.34D-03

 Cycle   7  Pass 1  IDiag  1:
 RMSU=  5.49D-05    CP:  9.06D-01  1.05D+00  7.66D-01  5.83D-01  7.57D-01
                    CP:  8.87D-01
 E= -799.734478458668     Delta-E=       -0.000015670683 Rises=F Damp=F
 DIIS: error= 1.13D-04 at cycle   7 NSaved=   7.
 NSaved= 7 IEnMin= 7 EnMin= -799.734478458668     IErMin= 7 ErrMin= 1.13D-04
 ErrMax= 1.13D-04  0.00D+00 EMaxC= 1.00D-01 BMatC= 1.14D-05 BMatP= 7.73D-05
 IDIUse=3 WtCom= 9.99D-01 WtEn= 1.13D-03
 Coeff-Com:  0.123D-02-0.238D-02 0.115D-01 0.288D-01 0.109D+00 0.353D+00
 Coeff-Com:  0.498D+00
 Coeff-En:   0.000D+00 0.000D+00 0.000D+00 0.000D+00 0.000D+00 0.360D-01
 Coeff-En:   0.964D+00
 Coeff:      0.123D-02-0.238D-02 0.115D-01 0.287D-01 0.109D+00 0.353D+00
 Coeff:      0.499D+00
 Gap=     0.118 Goal=   None    Shift=    0.000
 Gap=     0.118 Goal=   None    Shift=    0.000
 RMSDP=2.90D-05 MaxDP=3.23D-03 DE=-1.57D-05 OVMax= 4.94D-04

 Cycle   8  Pass 1  IDiag  1:
 RMSU=  1.66D-05    CP:  9.06D-01  1.05D+00  7.66D-01  5.80D-01  7.64D-01
                    CP:  8.61D-01  7.72D-01
 E= -799.734481080781     Delta-E=       -0.000002622113 Rises=F Damp=F
 DIIS: error= 1.56D-05 at cycle   8 NSaved=   8.
 NSaved= 8 IEnMin= 8 EnMin= -799.734481080781     IErMin= 8 ErrMin= 1.56D-05
 ErrMax= 1.56D-05  0.00D+00 EMaxC= 1.00D-01 BMatC= 3.36D-07 BMatP= 1.14D-05
 IDIUse=1 WtCom= 1.00D+00 WtEn= 0.00D+00
 Coeff-Com:  0.305D-03-0.606D-03 0.462D-03 0.204D-02 0.159D-01 0.601D-01
 Coeff-Com:  0.177D+00 0.745D+00
 Coeff:      0.305D-03-0.606D-03 0.462D-03 0.204D-02 0.159D-01 0.601D-01
 Coeff:      0.177D+00 0.745D+00
 Gap=     0.118 Goal=   None    Shift=    0.000
 Gap=     0.118 Goal=   None    Shift=    0.000
 RMSDP=9.97D-06 MaxDP=5.14D-04 DE=-2.62D-06 OVMax= 1.43D-04

 Cycle   9  Pass 1  IDiag  1:
 RMSU=  5.37D-06    CP:  9.06D-01  1.05D+00  7.67D-01  5.81D-01  7.70D-01
                    CP:  8.50D-01  7.56D-01  7.46D-01
 E= -799.734481151239     Delta-E=       -0.000000070458 Rises=F Damp=F
 DIIS: error= 7.20D-06 at cycle   9 NSaved=   9.
 NSaved= 9 IEnMin= 9 EnMin= -799.734481151239     IErMin= 9 ErrMin= 7.20D-06
 ErrMax= 7.20D-06  0.00D+00 EMaxC= 1.00D-01 BMatC= 5.37D-08 BMatP= 3.36D-07
 IDIUse=1 WtCom= 1.00D+00 WtEn= 0.00D+00
 Coeff-Com:  0.957D-04-0.193D-03-0.289D-03-0.324D-03 0.337D-02 0.141D-01
 Coeff-Com:  0.676D-01 0.388D+00 0.528D+00
 Coeff:      0.957D-04-0.193D-03-0.289D-03-0.324D-03 0.337D-02 0.141D-01
 Coeff:      0.676D-01 0.388D+00 0.528D+00
 Gap=     0.118 Goal=   None    Shift=    0.000
 Gap=     0.118 Goal=   None    Shift=    0.000
 RMSDP=1.86D-06 MaxDP=1.41D-04 DE=-7.05D-08 OVMax= 4.36D-05

 Cycle  10  Pass 1  IDiag  1:
 RMSU=  7.90D-07    CP:  9.06D-01  1.05D+00  7.67D-01  5.81D-01  7.70D-01
                    CP:  8.48D-01  7.50D-01  8.08D-01  1.07D+00
 E= -799.734481163326     Delta-E=       -0.000000012087 Rises=F Damp=F
 DIIS: error= 2.50D-06 at cycle  10 NSaved=  10.
 NSaved=10 IEnMin=10 EnMin= -799.734481163326     IErMin=10 ErrMin= 2.50D-06
 ErrMax= 2.50D-06  0.00D+00 EMaxC= 1.00D-01 BMatC= 4.86D-09 BMatP= 5.37D-08
 IDIUse=1 WtCom= 1.00D+00 WtEn= 0.00D+00
 Coeff-Com: -0.146D-05-0.712D-06-0.179D-03-0.417D-03-0.486D-03-0.202D-02
 Coeff-Com:  0.603D-02 0.727D-01 0.255D+00 0.670D+00
 Coeff:     -0.146D-05-0.712D-06-0.179D-03-0.417D-03-0.486D-03-0.202D-02
 Coeff:      0.603D-02 0.727D-01 0.255D+00 0.670D+00
 Gap=     0.118 Goal=   None    Shift=    0.000
 Gap=     0.118 Goal=   None    Shift=    0.000
 RMSDP=6.10D-07 MaxDP=2.49D-05 DE=-1.21D-08 OVMax= 2.86D-05

 Cycle  11  Pass 1  IDiag  1:
 RMSU=  3.00D-07    CP:  9.06D-01  1.05D+00  7.67D-01  5.81D-01  7.70D-01
                    CP:  8.49D-01  7.57D-01  8.11D-01  1.06D+00  8.43D-01
 E= -799.734481164613     Delta-E=       -0.000000001288 Rises=F Damp=F
 DIIS: error= 6.59D-07 at cycle  11 NSaved=  11.
 NSaved=11 IEnMin=11 EnMin= -799.734481164613     IErMin=11 ErrMin= 6.59D-07
 ErrMax= 6.59D-07  0.00D+00 EMaxC= 1.00D-01 BMatC= 3.80D-10 BMatP= 4.86D-09
 IDIUse=1 WtCom= 1.00D+00 WtEn= 0.00D+00
 Coeff-Com: -0.779D-05 0.117D-04-0.791D-04-0.203D-03-0.431D-03-0.180D-02
 Coeff-Com: -0.331D-03 0.157D-01 0.894D-01 0.333D+00 0.565D+00
 Coeff:     -0.779D-05 0.117D-04-0.791D-04-0.203D-03-0.431D-03-0.180D-02
 Coeff:     -0.331D-03 0.157D-01 0.894D-01 0.333D+00 0.565D+00
 Gap=     0.118 Goal=   None    Shift=    0.000
 Gap=     0.118 Goal=   None    Shift=    0.000
 RMSDP=2.84D-07 MaxDP=1.86D-05 DE=-1.29D-09 OVMax= 3.81D-06

 Cycle  12  Pass 1  IDiag  1:
 RMSU=  7.19D-08    CP:  9.06D-01  1.05D+00  7.67D-01  5.81D-01  7.70D-01
                    CP:  8.48D-01  7.56D-01  8.13D-01  1.08D+00  9.04D-01
                    CP:  1.06D+00
 E= -799.734481164711     Delta-E=       -0.000000000098 Rises=F Damp=F
 DIIS: error= 3.55D-07 at cycle  12 NSaved=  12.
 NSaved=12 IEnMin=12 EnMin= -799.734481164711     IErMin=12 ErrMin= 3.55D-07
 ErrMax= 3.55D-07  0.00D+00 EMaxC= 1.00D-01 BMatC= 9.45D-11 BMatP= 3.80D-10
 IDIUse=1 WtCom= 1.00D+00 WtEn= 0.00D+00
 Coeff-Com: -0.427D-05 0.666D-05-0.720D-06-0.128D-04-0.107D-03-0.566D-03
 Coeff-Com: -0.162D-02-0.897D-02-0.124D-01 0.525D-01 0.357D+00 0.614D+00
 Coeff:     -0.427D-05 0.666D-05-0.720D-06-0.128D-04-0.107D-03-0.566D-03
 Coeff:     -0.162D-02-0.897D-02-0.124D-01 0.525D-01 0.357D+00 0.614D+00
 Gap=     0.118 Goal=   None    Shift=    0.000
 Gap=     0.118 Goal=   None    Shift=    0.000
 RMSDP=7.75D-08 MaxDP=5.19D-06 DE=-9.78D-11 OVMax= 4.40D-06

 Cycle  13  Pass 1  IDiag  1:
 RMSU=  3.36D-08    CP:  9.06D-01  1.05D+00  7.67D-01  5.81D-01  7.70D-01
                    CP:  8.48D-01  7.56D-01  8.12D-01  1.09D+00  9.16D-01
                    CP:  1.06D+00  7.97D-01
 E= -799.734481164728     Delta-E=       -0.000000000017 Rises=F Damp=F
 DIIS: error= 7.83D-08 at cycle  13 NSaved=  13.
 NSaved=13 IEnMin=13 EnMin= -799.734481164728     IErMin=13 ErrMin= 7.83D-08
 ErrMax= 7.83D-08  0.00D+00 EMaxC= 1.00D-01 BMatC= 5.72D-12 BMatP= 9.45D-11
 IDIUse=1 WtCom= 1.00D+00 WtEn= 0.00D+00
 Coeff-Com: -0.130D-05 0.219D-05 0.418D-05 0.598D-05-0.258D-04-0.164D-03
 Coeff-Com: -0.727D-03-0.529D-02-0.130D-01 0.365D-02 0.108D+00 0.277D+00
 Coeff-Com:  0.630D+00
 Coeff:     -0.130D-05 0.219D-05 0.418D-05 0.598D-05-0.258D-04-0.164D-03
 Coeff:     -0.727D-03-0.529D-02-0.130D-01 0.365D-02 0.108D+00 0.277D+00
 Coeff:      0.630D+00
 Gap=     0.118 Goal=   None    Shift=    0.000
 Gap=     0.118 Goal=   None    Shift=    0.000
 RMSDP=4.32D-08 MaxDP=3.75D-06 DE=-1.66D-11 OVMax= 5.14D-07

 Cycle  14  Pass 1  IDiag  1:
 RMSU=  7.78D-09    CP:  9.06D-01  1.05D+00  7.67D-01  5.81D-01  7.70D-01
                    CP:  8.48D-01  7.56D-01  8.12D-01  1.09D+00  9.25D-01
                    CP:  1.07D+00  8.79D-01  9.04D-01
 E= -799.734481164722     Delta-E=        0.000000000006 Rises=F Damp=F
 DIIS: error= 4.45D-08 at cycle  14 NSaved=  14.
 NSaved=14 IEnMin=13 EnMin= -799.734481164728     IErMin=14 ErrMin= 4.45D-08
 ErrMax= 4.45D-08  0.00D+00 EMaxC= 1.00D-01 BMatC= 1.40D-12 BMatP= 5.72D-12
 IDIUse=1 WtCom= 1.00D+00 WtEn= 0.00D+00
 Coeff-Com:  0.241D-06-0.255D-06 0.271D-05 0.609D-05 0.611D-05 0.330D-05
 Coeff-Com: -0.108D-03-0.134D-02-0.552D-02-0.566D-02-0.587D-02 0.526D-01
 Coeff-Com:  0.379D+00 0.586D+00
 Coeff:      0.241D-06-0.255D-06 0.271D-05 0.609D-05 0.611D-05 0.330D-05
 Coeff:     -0.108D-03-0.134D-02-0.552D-02-0.566D-02-0.587D-02 0.526D-01
 Coeff:      0.379D+00 0.586D+00
 Gap=     0.118 Goal=   None    Shift=    0.000
 Gap=     0.118 Goal=   None    Shift=    0.000
 RMSDP=8.80D-09 MaxDP=4.28D-07 DE= 6.37D-12 OVMax= 3.25D-07

 Error on total polarization charges =  0.01741
 SCF Done:  E(UB3LYP) =  -799.734481165     A.U. after   14 cycles
            NFock= 14  Conv=0.88D-08     -V/T= 2.0041
 <Sx>= 0.0000 <Sy>= 0.0000 <Sz>= 0.0000 <S**2>=-0.0000 S=-0.0000
 <L.S>=  0.00000000000    
 KE= 7.964544815281D+02 PE=-4.264491269529D+03 EE= 1.468615411172D+03
 Annihilation of the first spin contaminant:
 S**2 before annihilation    -0.0000,   after    -0.0000
 Leave Link  502 at Sun Jan 14 01:04:13 2024, MaxMem=  4026531840 cpu:            2098.1 elap:             264.5
 (Enter /sysapps/ubuntu-applications/gaussian/Gaussian/AVX2/g16/l601.exe)
 Copying SCF densities to generalized density rwf, IOpCl= 1 IROHF=0.

 **********************************************************************

            Population analysis using the SCF density.

 **********************************************************************

 Orbital symmetries:
 Alpha Orbitals:
       Occupied  (A) (A) (A) (A) (A) (A) (A) (A) (A) (A) (A) (A)
                 (A) (A) (A) (A) (A) (A) (A) (A) (A) (A) (A) (A)
                 (A) (A) (A) (A) (A) (A) (A) (A) (A) (A) (A) (A)
                 (A) (A) (A) (A) (A) (A) (A) (A) (A) (A) (A) (A)
                 (A) (A) (A) (A) (A) (A) (A) (A) (A) (A) (A) (A)
                 (A) (A)
       Virtual   (A) (A) (A) (A) (A) (A) (A) (A) (A) (A) (A) (A)
                 (A) (A) (A) (A) (A) (A) (A) (A) (A) (A) (A) (A)
                 (A) (A) (A) (A) (A) (A) (A) (A) (A) (A) (A) (A)
                 (A) (A) (A) (A) (A) (A) (A) (A) (A) (A) (A) (A)
                 (A) (A) (A) (A) (A) (A) (A) (A) (A) (A) (A) (A)
                 (A) (A) (A) (A) (A) (A) (A) (A) (A) (A) (A) (A)
                 (A) (A) (A) (A) (A) (A) (A) (A) (A) (A) (A) (A)
                 (A) (A) (A) (A) (A) (A) (A) (A) (A) (A) (A) (A)
                 (A) (A) (A) (A) (A) (A) (A) (A) (A) (A) (A) (A)
                 (A) (A) (A) (A) (A) (A) (A) (A) (A) (A) (A) (A)
                 (A) (A) (A) (A) (A) (A) (A) (A) (A) (A) (A) (A)
                 (A) (A) (A) (A) (A) (A) (A) (A) (A) (A) (A) (A)
                 (A) (A) (A) (A) (A) (A) (A) (A) (A) (A) (A) (A)
                 (A) (A) (A) (A) (A) (A) (A) (A) (A) (A) (A) (A)
                 (A) (A) (A) (A) (A) (A) (A) (A) (A) (A) (A) (A)
                 (A) (A) (A) (A) (A) (A) (A) (A) (A) (A) (A) (A)
                 (A) (A) (A) (A) (A) (A) (A) (A) (A) (A) (A) (A)
                 (A) (A) (A) (A) (A) (A) (A) (A) (A) (A) (A) (A)
                 (A) (A) (A) (A) (A) (A) (A) (A) (A) (A) (A) (A)
                 (A) (A) (A) (A) (A) (A) (A) (A) (A) (A) (A) (A)
                 (A) (A) (A) (A) (A) (A) (A) (A) (A) (A) (A) (A)
                 (A) (A) (A) (A) (A) (A) (A) (A) (A) (A) (A) (A)
                 (A) (A) (A) (A) (A) (A) (A) (A) (A) (A) (A) (A)
                 (A) (A) (A) (A) (A) (A) (A) (A) (A) (A) (A) (A)
                 (A) (A) (A) (A) (A) (A) (A) (A) (A) (A) (A) (A)
                 (A) (A) (A) (A) (A) (A) (A) (A) (A) (A) (A) (A)
                 (A) (A) (A) (A) (A) (A) (A) (A) (A) (A) (A) (A)
                 (A) (A) (A) (A) (A) (A) (A) (A) (A) (A) (A) (A)
                 (A) (A) (A) (A) (A) (A) (A) (A) (A) (A) (A) (A)
                 (A) (A) (A) (A) (A) (A) (A) (A) (A) (A) (A) (A)
                 (A) (A) (A) (A) (A) (A) (A) (A) (A) (A) (A) (A)
                 (A) (A) (A) (A) (A) (A) (A) (A) (A) (A) (A) (A)
                 (A) (A) (A) (A) (A) (A) (A) (A) (A) (A) (A) (A)
                 (A)
 Beta  Orbitals:
       Occupied  (A) (A) (A) (A) (A) (A) (A) (A) (A) (A) (A) (A)
                 (A) (A) (A) (A) (A) (A) (A) (A) (A) (A) (A) (A)
                 (A) (A) (A) (A) (A) (A) (A) (A) (A) (A) (A) (A)
                 (A) (A) (A) (A) (A) (A) (A) (A) (A) (A) (A) (A)
                 (A) (A) (A) (A) (A) (A) (A) (A) (A) (A) (A) (A)
                 (A) (A)
       Virtual   (A) (A) (A) (A) (A) (A) (A) (A) (A) (A) (A) (A)
                 (A) (A) (A) (A) (A) (A) (A) (A) (A) (A) (A) (A)
                 (A) (A) (A) (A) (A) (A) (A) (A) (A) (A) (A) (A)
                 (A) (A) (A) (A) (A) (A) (A) (A) (A) (A) (A) (A)
                 (A) (A) (A) (A) (A) (A) (A) (A) (A) (A) (A) (A)
                 (A) (A) (A) (A) (A) (A) (A) (A) (A) (A) (A) (A)
                 (A) (A) (A) (A) (A) (A) (A) (A) (A) (A) (A) (A)
                 (A) (A) (A) (A) (A) (A) (A) (A) (A) (A) (A) (A)
                 (A) (A) (A) (A) (A) (A) (A) (A) (A) (A) (A) (A)
                 (A) (A) (A) (A) (A) (A) (A) (A) (A) (A) (A) (A)
                 (A) (A) (A) (A) (A) (A) (A) (A) (A) (A) (A) (A)
                 (A) (A) (A) (A) (A) (A) (A) (A) (A) (A) (A) (A)
                 (A) (A) (A) (A) (A) (A) (A) (A) (A) (A) (A) (A)
                 (A) (A) (A) (A) (A) (A) (A) (A) (A) (A) (A) (A)
                 (A) (A) (A) (A) (A) (A) (A) (A) (A) (A) (A) (A)
                 (A) (A) (A) (A) (A) (A) (A) (A) (A) (A) (A) (A)
                 (A) (A) (A) (A) (A) (A) (A) (A) (A) (A) (A) (A)
                 (A) (A) (A) (A) (A) (A) (A) (A) (A) (A) (A) (A)
                 (A) (A) (A) (A) (A) (A) (A) (A) (A) (A) (A) (A)
                 (A) (A) (A) (A) (A) (A) (A) (A) (A) (A) (A) (A)
                 (A) (A) (A) (A) (A) (A) (A) (A) (A) (A) (A) (A)
                 (A) (A) (A) (A) (A) (A) (A) (A) (A) (A) (A) (A)
                 (A) (A) (A) (A) (A) (A) (A) (A) (A) (A) (A) (A)
                 (A) (A) (A) (A) (A) (A) (A) (A) (A) (A) (A) (A)
                 (A) (A) (A) (A) (A) (A) (A) (A) (A) (A) (A) (A)
                 (A) (A) (A) (A) (A) (A) (A) (A) (A) (A) (A) (A)
                 (A) (A) (A) (A) (A) (A) (A) (A) (A) (A) (A) (A)
                 (A) (A) (A) (A) (A) (A) (A) (A) (A) (A) (A) (A)
                 (A) (A) (A) (A) (A) (A) (A) (A) (A) (A) (A) (A)
                 (A) (A) (A) (A) (A) (A) (A) (A) (A) (A) (A) (A)
                 (A) (A) (A) (A) (A) (A) (A) (A) (A) (A) (A) (A)
                 (A) (A) (A) (A) (A) (A) (A) (A) (A) (A) (A) (A)
                 (A) (A) (A) (A) (A) (A) (A) (A) (A) (A) (A) (A)
                 (A)
 The electronic state is 1-A.
 Alpha  occ. eigenvalues --  -19.12070 -19.12069 -14.33733 -14.33731 -10.27371
 Alpha  occ. eigenvalues --  -10.27370 -10.24214 -10.24212 -10.20430 -10.20429
 Alpha  occ. eigenvalues --  -10.19458 -10.19458 -10.19237 -10.19235 -10.18967
 Alpha  occ. eigenvalues --  -10.18966 -10.18840 -10.18839  -1.05611  -1.05430
 Alpha  occ. eigenvalues --   -0.94239  -0.94224  -0.87829  -0.86264  -0.79463
 Alpha  occ. eigenvalues --   -0.77503  -0.76813  -0.74982  -0.68295  -0.66532
 Alpha  occ. eigenvalues --   -0.63835  -0.62319  -0.58592  -0.56882  -0.56022
 Alpha  occ. eigenvalues --   -0.53666  -0.52171  -0.52151  -0.49381  -0.48337
 Alpha  occ. eigenvalues --   -0.46826  -0.45374  -0.44977  -0.44852  -0.44496
 Alpha  occ. eigenvalues --   -0.43627  -0.43580  -0.41868  -0.41183  -0.40720
 Alpha  occ. eigenvalues --   -0.39557  -0.38749  -0.37409  -0.36131  -0.33423
 Alpha  occ. eigenvalues --   -0.32622  -0.28082  -0.28067  -0.27450  -0.26872
 Alpha  occ. eigenvalues --   -0.23689  -0.22609
 Alpha virt. eigenvalues --   -0.10793  -0.06557  -0.02075  -0.02046  -0.00842
 Alpha virt. eigenvalues --   -0.00369   0.00854   0.01037   0.01840   0.03124
 Alpha virt. eigenvalues --    0.03601   0.03742   0.03748   0.03973   0.05140
 Alpha virt. eigenvalues --    0.05652   0.05772   0.06214   0.06379   0.07465
 Alpha virt. eigenvalues --    0.08247   0.08484   0.08806   0.09113   0.09149
 Alpha virt. eigenvalues --    0.09330   0.09964   0.11301   0.11640   0.11795
 Alpha virt. eigenvalues --    0.12068   0.12305   0.12752   0.12802   0.13068
 Alpha virt. eigenvalues --    0.13298   0.13525   0.13886   0.13910   0.14575
 Alpha virt. eigenvalues --    0.14863   0.15602   0.15954   0.16171   0.16820
 Alpha virt. eigenvalues --    0.17353   0.17686   0.17699   0.17945   0.18488
 Alpha virt. eigenvalues --    0.19076   0.19146   0.19242   0.19613   0.20160
 Alpha virt. eigenvalues --    0.20740   0.21229   0.21454   0.21764   0.21969
 Alpha virt. eigenvalues --    0.22058   0.23012   0.23527   0.23592   0.24110
 Alpha virt. eigenvalues --    0.24456   0.24495   0.24730   0.25422   0.25518
 Alpha virt. eigenvalues --    0.26227   0.26508   0.26852   0.27006   0.27601
 Alpha virt. eigenvalues --    0.28032   0.28396   0.28448   0.29331   0.29501
 Alpha virt. eigenvalues --    0.29737   0.30059   0.30421   0.30768   0.30817
 Alpha virt. eigenvalues --    0.32027   0.32148   0.32452   0.32533   0.33221
 Alpha virt. eigenvalues --    0.33790   0.34613   0.34636   0.34791   0.35835
 Alpha virt. eigenvalues --    0.36672   0.37654   0.37738   0.38934   0.39097
 Alpha virt. eigenvalues --    0.39722   0.41607   0.42069   0.42223   0.42936
 Alpha virt. eigenvalues --    0.46663   0.47734   0.47858   0.50266   0.52379
 Alpha virt. eigenvalues --    0.52603   0.53473   0.53986   0.54378   0.55449
 Alpha virt. eigenvalues --    0.55764   0.56520   0.57011   0.58251   0.59244
 Alpha virt. eigenvalues --    0.59414   0.59959   0.60478   0.61899   0.61921
 Alpha virt. eigenvalues --    0.62900   0.63316   0.63694   0.64297   0.64892
 Alpha virt. eigenvalues --    0.65265   0.65516   0.66329   0.66474   0.67069
 Alpha virt. eigenvalues --    0.67757   0.68197   0.68790   0.71260   0.72126
 Alpha virt. eigenvalues --    0.72246   0.72661   0.73940   0.74665   0.75591
 Alpha virt. eigenvalues --    0.77007   0.77146   0.77424   0.79363   0.79867
 Alpha virt. eigenvalues --    0.80973   0.82882   0.83007   0.83435   0.85514
 Alpha virt. eigenvalues --    0.85534   0.86482   0.87548   0.88113   0.88836
 Alpha virt. eigenvalues --    0.89170   0.90688   0.90903   0.91405   0.91657
 Alpha virt. eigenvalues --    0.92079   0.92246   0.92739   0.93373   0.95620
 Alpha virt. eigenvalues --    0.95626   0.97219   0.97831   0.98384   0.99801
 Alpha virt. eigenvalues --    0.99983   1.00960   1.01572   1.01925   1.04648
 Alpha virt. eigenvalues --    1.04796   1.05073   1.06449   1.08744   1.09308
 Alpha virt. eigenvalues --    1.11288   1.13492   1.14085   1.14206   1.14234
 Alpha virt. eigenvalues --    1.15583   1.16489   1.17985   1.21273   1.21754
 Alpha virt. eigenvalues --    1.23201   1.23512   1.27788   1.30078   1.30537
 Alpha virt. eigenvalues --    1.31834   1.33166   1.34633   1.38826   1.39613
 Alpha virt. eigenvalues --    1.43628   1.44499   1.46326   1.46822   1.47059
 Alpha virt. eigenvalues --    1.48387   1.49453   1.50125   1.51013   1.51628
 Alpha virt. eigenvalues --    1.52055   1.53504   1.54670   1.54868   1.56047
 Alpha virt. eigenvalues --    1.57050   1.59668   1.60240   1.60842   1.61342
 Alpha virt. eigenvalues --    1.61758   1.63146   1.66291   1.67199   1.69718
 Alpha virt. eigenvalues --    1.69977   1.70279   1.70851   1.71391   1.72488
 Alpha virt. eigenvalues --    1.74071   1.76541   1.76845   1.79426   1.81942
 Alpha virt. eigenvalues --    1.84570   1.86756   1.87455   1.87665   1.88209
 Alpha virt. eigenvalues --    1.88843   1.90614   1.91388   1.91713   1.92654
 Alpha virt. eigenvalues --    1.93201   1.93557   1.94142   1.95046   1.96686
 Alpha virt. eigenvalues --    1.97860   1.99809   2.01595   2.03128   2.03551
 Alpha virt. eigenvalues --    2.06638   2.06973   2.08284   2.08524   2.09467
 Alpha virt. eigenvalues --    2.11569   2.14216   2.14313   2.17331   2.18074
 Alpha virt. eigenvalues --    2.21528   2.23782   2.26258   2.28582   2.28755
 Alpha virt. eigenvalues --    2.32801   2.35156   2.35340   2.38589   2.38776
 Alpha virt. eigenvalues --    2.44343   2.46733   2.48830   2.53789   2.54005
 Alpha virt. eigenvalues --    2.54355   2.58193   2.58766   2.60132   2.60651
 Alpha virt. eigenvalues --    2.61327   2.61986   2.63883   2.66043   2.66516
 Alpha virt. eigenvalues --    2.70527   2.71532   2.72300   2.72970   2.73906
 Alpha virt. eigenvalues --    2.74327   2.75621   2.76537   2.76651   2.77953
 Alpha virt. eigenvalues --    2.79166   2.80059   2.81832   2.82723   2.84000
 Alpha virt. eigenvalues --    2.85203   2.85433   2.86277   2.87148   2.87659
 Alpha virt. eigenvalues --    2.87964   2.88216   2.90741   2.90751   2.93751
 Alpha virt. eigenvalues --    2.94100   2.94598   2.97091   3.00522   3.02106
 Alpha virt. eigenvalues --    3.02197   3.07834   3.08359   3.09192   3.14979
 Alpha virt. eigenvalues --    3.18240   3.19432   3.21572   3.23498   3.28753
 Alpha virt. eigenvalues --    3.30697   3.31314   3.33342   3.34989   3.35558
 Alpha virt. eigenvalues --    3.35818   3.38861   3.39624   3.47123   3.47999
 Alpha virt. eigenvalues --    3.52339   3.54042   3.55462   3.56606   3.58722
 Alpha virt. eigenvalues --    3.59686   3.67615   3.78269   3.81179   3.81979
 Alpha virt. eigenvalues --    3.85111   3.86997   3.96118   3.96636   4.05026
 Alpha virt. eigenvalues --    4.07643   4.16939   4.20256   4.24366   4.26952
 Alpha virt. eigenvalues --    4.45095   4.74831   4.76585   4.76666   4.83574
 Alpha virt. eigenvalues --    4.85420   5.01370   5.02927   5.04835   5.06161
 Alpha virt. eigenvalues --    5.24797   5.27247   5.73574   5.81428  23.52588
 Alpha virt. eigenvalues --   23.65417  23.87533  23.91918  23.92635  23.92712
 Alpha virt. eigenvalues --   23.93546  23.95184  24.01512  24.04782  24.09459
 Alpha virt. eigenvalues --   24.10084  24.16616  24.16717  35.64444  35.64754
 Alpha virt. eigenvalues --   50.04088  50.08905
  Beta  occ. eigenvalues --  -19.12070 -19.12069 -14.33733 -14.33731 -10.27371
  Beta  occ. eigenvalues --  -10.27370 -10.24214 -10.24212 -10.20430 -10.20429
  Beta  occ. eigenvalues --  -10.19458 -10.19458 -10.19237 -10.19235 -10.18967
  Beta  occ. eigenvalues --  -10.18966 -10.18840 -10.18839  -1.05611  -1.05430
  Beta  occ. eigenvalues --   -0.94239  -0.94224  -0.87829  -0.86264  -0.79463
  Beta  occ. eigenvalues --   -0.77503  -0.76813  -0.74982  -0.68295  -0.66532
  Beta  occ. eigenvalues --   -0.63835  -0.62319  -0.58592  -0.56882  -0.56022
  Beta  occ. eigenvalues --   -0.53666  -0.52171  -0.52151  -0.49381  -0.48337
  Beta  occ. eigenvalues --   -0.46826  -0.45374  -0.44977  -0.44852  -0.44496
  Beta  occ. eigenvalues --   -0.43627  -0.43580  -0.41868  -0.41183  -0.40720
  Beta  occ. eigenvalues --   -0.39557  -0.38749  -0.37409  -0.36131  -0.33423
  Beta  occ. eigenvalues --   -0.32622  -0.28082  -0.28067  -0.27450  -0.26872
  Beta  occ. eigenvalues --   -0.23689  -0.22609
  Beta virt. eigenvalues --   -0.10793  -0.06557  -0.02075  -0.02046  -0.00842
  Beta virt. eigenvalues --   -0.00369   0.00854   0.01037   0.01840   0.03124
  Beta virt. eigenvalues --    0.03601   0.03742   0.03748   0.03973   0.05140
  Beta virt. eigenvalues --    0.05652   0.05772   0.06214   0.06379   0.07465
  Beta virt. eigenvalues --    0.08247   0.08484   0.08806   0.09113   0.09149
  Beta virt. eigenvalues --    0.09330   0.09964   0.11301   0.11640   0.11795
  Beta virt. eigenvalues --    0.12068   0.12305   0.12752   0.12802   0.13068
  Beta virt. eigenvalues --    0.13298   0.13525   0.13886   0.13910   0.14575
  Beta virt. eigenvalues --    0.14863   0.15602   0.15954   0.16171   0.16820
  Beta virt. eigenvalues --    0.17353   0.17686   0.17699   0.17945   0.18488
  Beta virt. eigenvalues --    0.19076   0.19146   0.19242   0.19613   0.20160
  Beta virt. eigenvalues --    0.20740   0.21229   0.21454   0.21764   0.21969
  Beta virt. eigenvalues --    0.22058   0.23012   0.23527   0.23592   0.24110
  Beta virt. eigenvalues --    0.24456   0.24495   0.24730   0.25422   0.25518
  Beta virt. eigenvalues --    0.26227   0.26508   0.26852   0.27006   0.27601
  Beta virt. eigenvalues --    0.28032   0.28396   0.28448   0.29331   0.29501
  Beta virt. eigenvalues --    0.29737   0.30059   0.30421   0.30768   0.30817
  Beta virt. eigenvalues --    0.32027   0.32148   0.32452   0.32533   0.33221
  Beta virt. eigenvalues --    0.33790   0.34613   0.34636   0.34791   0.35835
  Beta virt. eigenvalues --    0.36672   0.37654   0.37738   0.38934   0.39097
  Beta virt. eigenvalues --    0.39722   0.41607   0.42069   0.42223   0.42936
  Beta virt. eigenvalues --    0.46663   0.47734   0.47858   0.50266   0.52379
  Beta virt. eigenvalues --    0.52603   0.53473   0.53986   0.54378   0.55449
  Beta virt. eigenvalues --    0.55764   0.56520   0.57011   0.58251   0.59244
  Beta virt. eigenvalues --    0.59414   0.59959   0.60478   0.61899   0.61921
  Beta virt. eigenvalues --    0.62900   0.63316   0.63694   0.64297   0.64892
  Beta virt. eigenvalues --    0.65265   0.65516   0.66329   0.66474   0.67069
  Beta virt. eigenvalues --    0.67757   0.68197   0.68790   0.71260   0.72126
  Beta virt. eigenvalues --    0.72246   0.72661   0.73940   0.74665   0.75591
  Beta virt. eigenvalues --    0.77007   0.77146   0.77424   0.79363   0.79867
  Beta virt. eigenvalues --    0.80973   0.82882   0.83007   0.83435   0.85514
  Beta virt. eigenvalues --    0.85534   0.86482   0.87548   0.88113   0.88836
  Beta virt. eigenvalues --    0.89170   0.90688   0.90903   0.91405   0.91657
  Beta virt. eigenvalues --    0.92079   0.92246   0.92739   0.93373   0.95620
  Beta virt. eigenvalues --    0.95626   0.97219   0.97831   0.98384   0.99801
  Beta virt. eigenvalues --    0.99983   1.00960   1.01572   1.01925   1.04648
  Beta virt. eigenvalues --    1.04796   1.05073   1.06449   1.08744   1.09308
  Beta virt. eigenvalues --    1.11288   1.13492   1.14085   1.14206   1.14234
  Beta virt. eigenvalues --    1.15583   1.16489   1.17985   1.21273   1.21754
  Beta virt. eigenvalues --    1.23201   1.23512   1.27788   1.30078   1.30537
  Beta virt. eigenvalues --    1.31834   1.33166   1.34633   1.38826   1.39613
  Beta virt. eigenvalues --    1.43628   1.44499   1.46326   1.46822   1.47059
  Beta virt. eigenvalues --    1.48387   1.49453   1.50125   1.51013   1.51628
  Beta virt. eigenvalues --    1.52055   1.53504   1.54670   1.54868   1.56047
  Beta virt. eigenvalues --    1.57050   1.59668   1.60240   1.60842   1.61342
  Beta virt. eigenvalues --    1.61758   1.63146   1.66291   1.67199   1.69718
  Beta virt. eigenvalues --    1.69977   1.70279   1.70851   1.71391   1.72488
  Beta virt. eigenvalues --    1.74071   1.76541   1.76845   1.79426   1.81942
  Beta virt. eigenvalues --    1.84570   1.86756   1.87455   1.87665   1.88209
  Beta virt. eigenvalues --    1.88843   1.90614   1.91388   1.91713   1.92654
  Beta virt. eigenvalues --    1.93201   1.93557   1.94142   1.95046   1.96686
  Beta virt. eigenvalues --    1.97860   1.99809   2.01595   2.03128   2.03551
  Beta virt. eigenvalues --    2.06638   2.06973   2.08284   2.08524   2.09467
  Beta virt. eigenvalues --    2.11569   2.14216   2.14313   2.17331   2.18074
  Beta virt. eigenvalues --    2.21528   2.23782   2.26258   2.28582   2.28755
  Beta virt. eigenvalues --    2.32801   2.35156   2.35340   2.38589   2.38776
  Beta virt. eigenvalues --    2.44343   2.46733   2.48830   2.53789   2.54005
  Beta virt. eigenvalues --    2.54355   2.58193   2.58766   2.60132   2.60651
  Beta virt. eigenvalues --    2.61327   2.61986   2.63883   2.66043   2.66516
  Beta virt. eigenvalues --    2.70527   2.71532   2.72300   2.72970   2.73906
  Beta virt. eigenvalues --    2.74327   2.75621   2.76537   2.76651   2.77953
  Beta virt. eigenvalues --    2.79166   2.80059   2.81832   2.82723   2.84000
  Beta virt. eigenvalues --    2.85203   2.85433   2.86277   2.87148   2.87659
  Beta virt. eigenvalues --    2.87964   2.88216   2.90741   2.90751   2.93751
  Beta virt. eigenvalues --    2.94100   2.94598   2.97091   3.00522   3.02106
  Beta virt. eigenvalues --    3.02197   3.07834   3.08359   3.09192   3.14979
  Beta virt. eigenvalues --    3.18240   3.19432   3.21572   3.23498   3.28753
  Beta virt. eigenvalues --    3.30697   3.31314   3.33342   3.34989   3.35558
  Beta virt. eigenvalues --    3.35818   3.38861   3.39624   3.47123   3.47999
  Beta virt. eigenvalues --    3.52339   3.54042   3.55462   3.56606   3.58722
  Beta virt. eigenvalues --    3.59686   3.67615   3.78269   3.81179   3.81979
  Beta virt. eigenvalues --    3.85111   3.86997   3.96118   3.96636   4.05026
  Beta virt. eigenvalues --    4.07643   4.16939   4.20256   4.24366   4.26952
  Beta virt. eigenvalues --    4.45095   4.74831   4.76585   4.76666   4.83574
  Beta virt. eigenvalues --    4.85420   5.01370   5.02927   5.04835   5.06161
  Beta virt. eigenvalues --    5.24797   5.27247   5.73574   5.81428  23.52588
  Beta virt. eigenvalues --   23.65417  23.87533  23.91918  23.92635  23.92712
  Beta virt. eigenvalues --   23.93546  23.95184  24.01512  24.04782  24.09459
  Beta virt. eigenvalues --   24.10084  24.16616  24.16717  35.64444  35.64754
  Beta virt. eigenvalues --   50.04088  50.08905
          Condensed to atoms (all electrons):
               1          2          3          4          5          6
     1  N    6.651101  -0.052437  -0.238874   0.027043   0.015791   0.005841
     2  C   -0.052437   9.580779  -0.091214   0.397795   0.234247  -0.720626
     3  C   -0.238874  -0.091214   9.892863  -1.511524  -0.837898   1.568498
     4  C    0.027043   0.397795  -1.511524   9.890644   1.769512  -3.395205
     5  C    0.015791   0.234247  -0.837898   1.769512  16.784592  -1.316309
     6  C    0.005841  -0.720626   1.568498  -3.395205  -1.316309  11.067830
     7  O   -0.000060  -0.007113   0.057187   0.182057  -0.097041   0.608814
     8  C    0.001030  -0.522593   0.318461   0.041922   0.926148  -0.847110
     9  C    0.000382  -0.127383  -0.039219   0.046443  -0.013187  -2.009530
    10  C    0.000038  -0.024370   0.008719  -0.130892  -0.146205   0.052782
    11  N   -0.000000   0.000038  -0.000038  -0.002476  -0.007493  -0.016485
    12  C   -0.000038   0.008768   0.022997  -0.106408  -0.015056   0.144097
    13  C   -0.002460  -0.131171  -0.106373  -0.070813  -1.890361  -0.998515
    14  C   -0.007449  -0.146035  -0.013484  -1.891379  -7.163877   1.342242
    15  C   -0.016428   0.052745   0.144290  -0.998067   1.340290   1.733722
    16  O   -0.001466   0.103293   0.000142  -0.024994  -0.352964  -0.003497
    17  C    0.078672  -2.107120  -0.582593  -1.205452  -2.000836   1.212364
    18  C    0.165837   0.451433  -2.908797   2.464808  -1.527760  -1.684236
    19  H    0.360601   0.020387  -0.066665   0.006348  -0.000742  -0.002338
    20  H    0.373335  -0.052566   0.055172   0.006530  -0.003559  -0.002565
    21  H   -0.015110  -0.178276   0.580712  -0.086195  -0.014453   0.055065
    22  H   -0.001347   0.028368  -0.149664   0.365156   0.059432  -0.007743
    23  H    0.000006  -0.003409   0.004030  -0.025547  -0.093220   0.011311
    24  H    0.000000  -0.000054   0.000042  -0.000576  -0.001933  -0.004754
    25  H   -0.000000   0.000027  -0.000149   0.000549   0.001448   0.006734
    26  H    0.000006   0.000096   0.000131   0.000759   0.003744   0.003746
    27  H   -0.000072  -0.004845  -0.000425   0.001330  -0.002166  -0.007742
    28  H   -0.013357  -0.164087  -0.043167   0.020785   0.139802   0.000755
               7          8          9         10         11         12
     1  N   -0.000060   0.001030   0.000382   0.000038  -0.000000  -0.000038
     2  C   -0.007113  -0.522593  -0.127383  -0.024370   0.000038   0.008768
     3  C    0.057187   0.318461  -0.039219   0.008719  -0.000038   0.022997
     4  C    0.182057   0.041922   0.046443  -0.130892  -0.002476  -0.106408
     5  C   -0.097041   0.926148  -0.013187  -0.146205  -0.007493  -0.015056
     6  C    0.608814  -0.847110  -2.009530   0.052782  -0.016485   0.144097
     7  O    8.255075  -0.233272   0.186450   0.103256  -0.001466   0.000111
     8  C   -0.233272  14.464825   1.811562  -2.105801   0.078564  -0.583568
     9  C    0.186450   1.811562  10.809654   0.452515   0.165220  -2.908514
    10  C    0.103256  -2.105801   0.452515   9.579971  -0.052036  -0.091974
    11  N   -0.001466   0.078564   0.165220  -0.052036   6.650905  -0.238423
    12  C    0.000111  -0.583568  -2.908514  -0.091974  -0.238423   9.889050
    13  C   -0.024995  -1.203810   2.465882   0.397813   0.026931  -1.510204
    14  C   -0.352851  -2.000879  -1.531128   0.233477   0.015877  -0.833912
    15  C   -0.003488   1.211868  -1.684807  -0.720729   0.005853   1.567913
    16  O   -0.000011  -0.329867  -0.026349  -0.007096  -0.000061   0.057172
    17  C   -0.329957  -4.110544  -1.553339  -0.522422   0.001053   0.319606
    18  C   -0.026352  -1.553064  -0.341970  -0.127508   0.000383  -0.038912
    19  H    0.000008  -0.001662  -0.000412  -0.000054   0.000000   0.000042
    20  H    0.000001  -0.000010   0.000301   0.000027  -0.000000  -0.000149
    21  H    0.002424   0.016150   0.002984   0.000095   0.000006   0.000131
    22  H   -0.009144  -0.052975  -0.014683  -0.004837  -0.000072  -0.000424
    23  H   -0.005924   0.117940   0.349153  -0.164101  -0.013360  -0.042886
    24  H    0.000070  -0.006323   0.037711   0.020551   0.360615  -0.066804
    25  H    0.000114  -0.007586  -0.027899  -0.052378   0.373337   0.055339
    26  H   -0.000141  -0.000662  -0.071041  -0.178100  -0.015130   0.580323
    27  H    0.000349   0.072210   0.052129   0.028299  -0.001343  -0.149524
    28  H    0.000282   0.013702  -0.006900  -0.003407   0.000006   0.004020
              13         14         15         16         17         18
     1  N   -0.002460  -0.007449  -0.016428  -0.001466   0.078672   0.165837
     2  C   -0.131171  -0.146035   0.052745   0.103293  -2.107120   0.451433
     3  C   -0.106373  -0.013484   0.144290   0.000142  -0.582593  -2.908797
     4  C   -0.070813  -1.891379  -0.998067  -0.024994  -1.205452   2.464808
     5  C   -1.890361  -7.163877   1.340290  -0.352964  -2.000836  -1.527760
     6  C   -0.998515   1.342242   1.733722  -0.003497   1.212364  -1.684236
     7  O   -0.024995  -0.352851  -0.003488  -0.000011  -0.329957  -0.026352
     8  C   -1.203810  -2.000879   1.211868  -0.329867  -4.110544  -1.553064
     9  C    2.465882  -1.531128  -1.684807  -0.026349  -1.553339  -0.341970
    10  C    0.397813   0.233477  -0.720729  -0.007096  -0.522422  -0.127508
    11  N    0.026931   0.015877   0.005853  -0.000061   0.001053   0.000383
    12  C   -1.510204  -0.833912   1.567913   0.057172   0.319606  -0.038912
    13  C    9.891312   1.766436  -3.395342   0.182126   0.040921   0.045755
    14  C    1.766436  16.784547  -1.315135  -0.096766   0.925149  -0.013560
    15  C   -3.395342  -1.315135  11.067815   0.608727  -0.845730  -2.009006
    16  O    0.182126  -0.096766   0.608727   8.255024  -0.233562   0.186451
    17  C    0.040921   0.925149  -0.845730  -0.233562  14.466634   1.811305
    18  C    0.045755  -0.013560  -2.009006   0.186451   1.811305  10.807904
    19  H   -0.000575  -0.001929  -0.004749   0.000070  -0.006298   0.037695
    20  H    0.000548   0.001449   0.006765   0.000114  -0.007564  -0.027561
    21  H    0.000758   0.003760   0.003739  -0.000141  -0.000690  -0.071173
    22  H    0.001330  -0.002198  -0.007719   0.000350   0.072213   0.052141
    23  H    0.020748   0.139750   0.000787   0.000281   0.013702  -0.006897
    24  H    0.006312  -0.000759  -0.002342   0.000008  -0.001660  -0.000412
    25  H    0.006509  -0.003534  -0.002566   0.000001  -0.000013   0.000300
    26  H   -0.086155  -0.014388   0.055022   0.002422   0.016151   0.002990
    27  H    0.365133   0.059328  -0.007666  -0.009135  -0.052969  -0.014701
    28  H   -0.025520  -0.093275   0.011249  -0.005932   0.118044   0.349383
              19         20         21         22         23         24
     1  N    0.360601   0.373335  -0.015110  -0.001347   0.000006   0.000000
     2  C    0.020387  -0.052566  -0.178276   0.028368  -0.003409  -0.000054
     3  C   -0.066665   0.055172   0.580712  -0.149664   0.004030   0.000042
     4  C    0.006348   0.006530  -0.086195   0.365156  -0.025547  -0.000576
     5  C   -0.000742  -0.003559  -0.014453   0.059432  -0.093220  -0.001933
     6  C   -0.002338  -0.002565   0.055065  -0.007743   0.011311  -0.004754
     7  O    0.000008   0.000001   0.002424  -0.009144  -0.005924   0.000070
     8  C   -0.001662  -0.000010   0.016150  -0.052975   0.117940  -0.006323
     9  C   -0.000412   0.000301   0.002984  -0.014683   0.349153   0.037711
    10  C   -0.000054   0.000027   0.000095  -0.004837  -0.164101   0.020551
    11  N    0.000000  -0.000000   0.000006  -0.000072  -0.013360   0.360615
    12  C    0.000042  -0.000149   0.000131  -0.000424  -0.042886  -0.066804
    13  C   -0.000575   0.000548   0.000758   0.001330   0.020748   0.006312
    14  C   -0.001929   0.001449   0.003760  -0.002198   0.139750  -0.000759
    15  C   -0.004749   0.006765   0.003739  -0.007719   0.000787  -0.002342
    16  O    0.000070   0.000114  -0.000141   0.000350   0.000281   0.000008
    17  C   -0.006298  -0.007564  -0.000690   0.072213   0.013702  -0.001660
    18  C    0.037695  -0.027561  -0.071173   0.052141  -0.006897  -0.000412
    19  H    0.403259  -0.032380  -0.004202   0.001571  -0.000008  -0.000000
    20  H   -0.032380   0.398197   0.003037  -0.000526  -0.000004  -0.000000
    21  H   -0.004202   0.003037   0.517529  -0.021586   0.000054   0.000001
    22  H    0.001571  -0.000526  -0.021586   0.504953   0.000094  -0.000017
    23  H   -0.000008  -0.000004   0.000054   0.000094   0.526573   0.003585
    24  H   -0.000000  -0.000000   0.000001  -0.000017   0.003585   0.403457
    25  H   -0.000000   0.000000  -0.000001  -0.000003  -0.004949  -0.032431
    26  H    0.000001  -0.000001  -0.000003   0.000003  -0.003692  -0.004203
    27  H   -0.000017  -0.000003   0.000003  -0.000046   0.003167   0.001573
    28  H    0.003584  -0.004962  -0.003699   0.003170  -0.000216  -0.000008
              25         26         27         28
     1  N   -0.000000   0.000006  -0.000072  -0.013357
     2  C    0.000027   0.000096  -0.004845  -0.164087
     3  C   -0.000149   0.000131  -0.000425  -0.043167
     4  C    0.000549   0.000759   0.001330   0.020785
     5  C    0.001448   0.003744  -0.002166   0.139802
     6  C    0.006734   0.003746  -0.007742   0.000755
     7  O    0.000114  -0.000141   0.000349   0.000282
     8  C   -0.007586  -0.000662   0.072210   0.013702
     9  C   -0.027899  -0.071041   0.052129  -0.006900
    10  C   -0.052378  -0.178100   0.028299  -0.003407
    11  N    0.373337  -0.015130  -0.001343   0.000006
    12  C    0.055339   0.580323  -0.149524   0.004020
    13  C    0.006509  -0.086155   0.365133  -0.025520
    14  C   -0.003534  -0.014388   0.059328  -0.093275
    15  C   -0.002566   0.055022  -0.007666   0.011249
    16  O    0.000001   0.002422  -0.009135  -0.005932
    17  C   -0.000013   0.016151  -0.052969   0.118044
    18  C    0.000300   0.002990  -0.014701   0.349383
    19  H   -0.000000   0.000001  -0.000017   0.003584
    20  H    0.000000  -0.000001  -0.000003  -0.004962
    21  H   -0.000001  -0.000003   0.000003  -0.003699
    22  H   -0.000003   0.000003  -0.000046   0.003170
    23  H   -0.004949  -0.003692   0.003167  -0.000216
    24  H   -0.032431  -0.004203   0.001573  -0.000008
    25  H    0.398357   0.003040  -0.000526  -0.000004
    26  H    0.003040   0.517477  -0.021574   0.000054
    27  H   -0.000526  -0.021574   0.504930   0.000095
    28  H   -0.000004   0.000054   0.000095   0.526594
          Atomic-Atomic Spin Densities.
               1          2          3          4          5          6
     1  N   -0.000000   0.000000  -0.000000  -0.000000  -0.000000   0.000000
     2  C    0.000000  -0.000000   0.000000   0.000000   0.000000   0.000000
     3  C   -0.000000   0.000000   0.000000  -0.000000   0.000000   0.000000
     4  C   -0.000000   0.000000  -0.000000   0.000000  -0.000000   0.000000
     5  C   -0.000000   0.000000   0.000000  -0.000000   0.000000   0.000000
     6  C    0.000000   0.000000   0.000000   0.000000   0.000000   0.000000
     7  O    0.000000   0.000000  -0.000000  -0.000000   0.000000   0.000000
     8  C   -0.000000   0.000000   0.000000  -0.000000   0.000000   0.000000
     9  C    0.000000   0.000000   0.000000  -0.000000   0.000000   0.000000
    10  C   -0.000000  -0.000000   0.000000  -0.000000  -0.000000   0.000000
    11  N   -0.000000   0.000000  -0.000000   0.000000   0.000000  -0.000000
    12  C    0.000000   0.000000   0.000000   0.000000   0.000000  -0.000000
    13  C    0.000000  -0.000000  -0.000000   0.000000  -0.000000  -0.000000
    14  C   -0.000000  -0.000000  -0.000000   0.000000  -0.000000  -0.000000
    15  C   -0.000000   0.000000   0.000000  -0.000000   0.000000   0.000000
    16  O    0.000000  -0.000000  -0.000000   0.000000  -0.000000  -0.000000
    17  C    0.000000  -0.000000  -0.000000   0.000000  -0.000000  -0.000000
    18  C    0.000000  -0.000000  -0.000000   0.000000  -0.000000  -0.000000
    19  H   -0.000000   0.000000  -0.000000  -0.000000   0.000000   0.000000
    20  H    0.000000  -0.000000   0.000000   0.000000  -0.000000  -0.000000
    21  H    0.000000  -0.000000   0.000000  -0.000000   0.000000  -0.000000
    22  H   -0.000000   0.000000  -0.000000   0.000000  -0.000000  -0.000000
    23  H    0.000000  -0.000000   0.000000   0.000000  -0.000000   0.000000
    24  H    0.000000   0.000000   0.000000  -0.000000  -0.000000  -0.000000
    25  H   -0.000000   0.000000  -0.000000  -0.000000  -0.000000   0.000000
    26  H    0.000000  -0.000000  -0.000000   0.000000   0.000000  -0.000000
    27  H   -0.000000   0.000000   0.000000  -0.000000   0.000000   0.000000
    28  H   -0.000000   0.000000   0.000000  -0.000000   0.000000   0.000000
               7          8          9         10         11         12
     1  N    0.000000  -0.000000   0.000000  -0.000000  -0.000000   0.000000
     2  C    0.000000   0.000000   0.000000  -0.000000   0.000000   0.000000
     3  C   -0.000000   0.000000   0.000000   0.000000  -0.000000   0.000000
     4  C   -0.000000  -0.000000  -0.000000  -0.000000   0.000000   0.000000
     5  C    0.000000   0.000000   0.000000  -0.000000   0.000000   0.000000
     6  C    0.000000   0.000000   0.000000   0.000000  -0.000000  -0.000000
     7  O    0.000000   0.000000   0.000000   0.000000  -0.000000   0.000000
     8  C    0.000000   0.000000  -0.000000  -0.000000   0.000000   0.000000
     9  C    0.000000  -0.000000   0.000000   0.000000  -0.000000   0.000000
    10  C    0.000000  -0.000000   0.000000   0.000000   0.000000  -0.000000
    11  N   -0.000000   0.000000  -0.000000   0.000000  -0.000000   0.000000
    12  C    0.000000   0.000000   0.000000  -0.000000   0.000000   0.000000
    13  C   -0.000000  -0.000000  -0.000000   0.000000  -0.000000  -0.000000
    14  C   -0.000000  -0.000000  -0.000000   0.000000  -0.000000  -0.000000
    15  C    0.000000   0.000000   0.000000  -0.000000   0.000000   0.000000
    16  O   -0.000000  -0.000000  -0.000000   0.000000  -0.000000  -0.000000
    17  C   -0.000000  -0.000000  -0.000000  -0.000000  -0.000000  -0.000000
    18  C   -0.000000  -0.000000  -0.000000  -0.000000   0.000000  -0.000000
    19  H    0.000000   0.000000   0.000000   0.000000   0.000000   0.000000
    20  H   -0.000000  -0.000000  -0.000000  -0.000000   0.000000   0.000000
    21  H   -0.000000   0.000000   0.000000   0.000000  -0.000000   0.000000
    22  H   -0.000000  -0.000000  -0.000000  -0.000000   0.000000  -0.000000
    23  H   -0.000000  -0.000000  -0.000000   0.000000  -0.000000  -0.000000
    24  H    0.000000  -0.000000  -0.000000   0.000000   0.000000  -0.000000
    25  H   -0.000000  -0.000000   0.000000  -0.000000   0.000000   0.000000
    26  H    0.000000   0.000000   0.000000  -0.000000   0.000000  -0.000000
    27  H   -0.000000   0.000000  -0.000000  -0.000000  -0.000000   0.000000
    28  H    0.000000   0.000000   0.000000  -0.000000   0.000000   0.000000
              13         14         15         16         17         18
     1  N    0.000000  -0.000000  -0.000000   0.000000   0.000000   0.000000
     2  C   -0.000000  -0.000000   0.000000  -0.000000  -0.000000  -0.000000
     3  C   -0.000000  -0.000000   0.000000  -0.000000  -0.000000  -0.000000
     4  C    0.000000   0.000000  -0.000000   0.000000   0.000000   0.000000
     5  C   -0.000000  -0.000000   0.000000  -0.000000  -0.000000  -0.000000
     6  C   -0.000000  -0.000000   0.000000  -0.000000  -0.000000  -0.000000
     7  O   -0.000000  -0.000000   0.000000  -0.000000  -0.000000  -0.000000
     8  C   -0.000000  -0.000000   0.000000  -0.000000  -0.000000  -0.000000
     9  C   -0.000000  -0.000000   0.000000  -0.000000  -0.000000  -0.000000
    10  C    0.000000   0.000000  -0.000000   0.000000  -0.000000  -0.000000
    11  N   -0.000000  -0.000000   0.000000  -0.000000  -0.000000   0.000000
    12  C   -0.000000  -0.000000   0.000000  -0.000000  -0.000000  -0.000000
    13  C    0.000000   0.000000  -0.000000   0.000000   0.000000   0.000000
    14  C    0.000000   0.000000  -0.000000   0.000000   0.000000   0.000000
    15  C   -0.000000  -0.000000   0.000000  -0.000000  -0.000000  -0.000000
    16  O    0.000000   0.000000  -0.000000   0.000000   0.000000   0.000000
    17  C    0.000000   0.000000  -0.000000   0.000000   0.000000   0.000000
    18  C    0.000000   0.000000  -0.000000   0.000000   0.000000   0.000000
    19  H   -0.000000  -0.000000   0.000000  -0.000000  -0.000000  -0.000000
    20  H    0.000000   0.000000  -0.000000   0.000000   0.000000   0.000000
    21  H   -0.000000  -0.000000   0.000000   0.000000  -0.000000  -0.000000
    22  H    0.000000   0.000000  -0.000000   0.000000   0.000000   0.000000
    23  H    0.000000   0.000000  -0.000000   0.000000   0.000000   0.000000
    24  H    0.000000   0.000000  -0.000000  -0.000000  -0.000000  -0.000000
    25  H    0.000000   0.000000  -0.000000   0.000000   0.000000   0.000000
    26  H    0.000000  -0.000000   0.000000  -0.000000   0.000000   0.000000
    27  H   -0.000000  -0.000000   0.000000  -0.000000  -0.000000  -0.000000
    28  H   -0.000000  -0.000000   0.000000  -0.000000  -0.000000  -0.000000
              19         20         21         22         23         24
     1  N   -0.000000   0.000000   0.000000  -0.000000   0.000000   0.000000
     2  C    0.000000  -0.000000  -0.000000   0.000000  -0.000000   0.000000
     3  C   -0.000000   0.000000   0.000000  -0.000000   0.000000   0.000000
     4  C   -0.000000   0.000000  -0.000000   0.000000   0.000000  -0.000000
     5  C    0.000000  -0.000000   0.000000  -0.000000  -0.000000  -0.000000
     6  C    0.000000  -0.000000  -0.000000  -0.000000   0.000000  -0.000000
     7  O    0.000000  -0.000000  -0.000000  -0.000000  -0.000000   0.000000
     8  C    0.000000  -0.000000   0.000000  -0.000000  -0.000000  -0.000000
     9  C    0.000000  -0.000000   0.000000  -0.000000  -0.000000  -0.000000
    10  C    0.000000  -0.000000   0.000000  -0.000000   0.000000   0.000000
    11  N    0.000000   0.000000  -0.000000   0.000000  -0.000000   0.000000
    12  C    0.000000   0.000000   0.000000  -0.000000  -0.000000  -0.000000
    13  C   -0.000000   0.000000  -0.000000   0.000000   0.000000   0.000000
    14  C   -0.000000   0.000000  -0.000000   0.000000   0.000000   0.000000
    15  C    0.000000  -0.000000   0.000000  -0.000000  -0.000000  -0.000000
    16  O   -0.000000   0.000000   0.000000   0.000000   0.000000  -0.000000
    17  C   -0.000000   0.000000  -0.000000   0.000000   0.000000  -0.000000
    18  C   -0.000000   0.000000  -0.000000   0.000000   0.000000  -0.000000
    19  H   -0.000000   0.000000   0.000000  -0.000000  -0.000000   0.000000
    20  H    0.000000  -0.000000  -0.000000   0.000000   0.000000  -0.000000
    21  H    0.000000  -0.000000  -0.000000  -0.000000  -0.000000   0.000000
    22  H   -0.000000   0.000000  -0.000000   0.000000   0.000000  -0.000000
    23  H   -0.000000   0.000000  -0.000000   0.000000   0.000000   0.000000
    24  H    0.000000  -0.000000   0.000000  -0.000000   0.000000   0.000000
    25  H   -0.000000   0.000000  -0.000000   0.000000   0.000000   0.000000
    26  H   -0.000000   0.000000  -0.000000   0.000000   0.000000  -0.000000
    27  H    0.000000  -0.000000   0.000000  -0.000000  -0.000000   0.000000
    28  H    0.000000  -0.000000  -0.000000  -0.000000  -0.000000  -0.000000
              25         26         27         28
     1  N   -0.000000   0.000000  -0.000000  -0.000000
     2  C    0.000000  -0.000000   0.000000   0.000000
     3  C   -0.000000  -0.000000   0.000000   0.000000
     4  C   -0.000000   0.000000  -0.000000  -0.000000
     5  C   -0.000000   0.000000   0.000000   0.000000
     6  C    0.000000  -0.000000   0.000000   0.000000
     7  O   -0.000000   0.000000  -0.000000   0.000000
     8  C   -0.000000   0.000000   0.000000   0.000000
     9  C    0.000000   0.000000  -0.000000   0.000000
    10  C   -0.000000  -0.000000  -0.000000  -0.000000
    11  N    0.000000   0.000000  -0.000000   0.000000
    12  C    0.000000  -0.000000   0.000000   0.000000
    13  C    0.000000   0.000000  -0.000000  -0.000000
    14  C    0.000000  -0.000000  -0.000000  -0.000000
    15  C   -0.000000   0.000000   0.000000   0.000000
    16  O    0.000000  -0.000000  -0.000000  -0.000000
    17  C    0.000000   0.000000  -0.000000  -0.000000
    18  C    0.000000   0.000000  -0.000000  -0.000000
    19  H   -0.000000  -0.000000   0.000000   0.000000
    20  H    0.000000   0.000000  -0.000000  -0.000000
    21  H   -0.000000  -0.000000   0.000000  -0.000000
    22  H    0.000000   0.000000  -0.000000  -0.000000
    23  H    0.000000   0.000000  -0.000000  -0.000000
    24  H    0.000000  -0.000000   0.000000  -0.000000
    25  H   -0.000000   0.000000  -0.000000  -0.000000
    26  H    0.000000   0.000000  -0.000000   0.000000
    27  H   -0.000000  -0.000000  -0.000000   0.000000
    28  H   -0.000000   0.000000   0.000000   0.000000
 Mulliken charges and spin densities:
               1          2
     1  N   -0.330585  -0.000000
     2  C   -0.544677   0.000000
     3  C   -0.063158   0.000000
     4  C    0.227843   0.000000
     5  C    0.210055   0.000000
     6  C   -0.797143  -0.000000
     7  O   -0.304383  -0.000000
     8  C    0.485345   0.000000
     9  C   -0.024024  -0.000000
    10  C   -0.545632   0.000000
    11  N   -0.330405  -0.000000
    12  C   -0.062770   0.000000
    13  C    0.227779  -0.000000
    14  C    0.210522  -0.000000
    15  C   -0.797012   0.000000
    16  O   -0.304341  -0.000000
    17  C    0.484936  -0.000000
    18  C   -0.024479  -0.000000
    19  H    0.288464  -0.000000
    20  H    0.286374  -0.000000
    21  H    0.209079   0.000000
    22  H    0.184202  -0.000000
    23  H    0.173034  -0.000000
    24  H    0.288354   0.000000
    25  H    0.286285   0.000000
    26  H    0.209125  -0.000000
    27  H    0.184205   0.000000
    28  H    0.173010   0.000000
 Sum of Mulliken charges =  -0.00000   0.00000
 Mulliken charges and spin densities with hydrogens summed into heavy atoms:
               1          2
     1  N    0.244253  -0.000000
     2  C   -0.544677   0.000000
     3  C    0.145921   0.000000
     4  C    0.412046   0.000000
     5  C    0.210055   0.000000
     6  C   -0.797143  -0.000000
     7  O   -0.304383  -0.000000
     8  C    0.485345   0.000000
     9  C    0.149010  -0.000000
    10  C   -0.545632   0.000000
    11  N    0.244233  -0.000000
    12  C    0.146355   0.000000
    13  C    0.411984  -0.000000
    14  C    0.210522  -0.000000
    15  C   -0.797012   0.000000
    16  O   -0.304341  -0.000000
    17  C    0.484936  -0.000000
    18  C    0.148531  -0.000000
 Electronic spatial extent (au):  <R**2>=           4881.1653
 Charge=             -0.0000 electrons
 Dipole moment (field-independent basis, Debye):
    X=              0.0074    Y=             -0.0021    Z=              1.8488  Tot=              1.8488
 Quadrupole moment (field-independent basis, Debye-Ang):
   XX=            -36.5115   YY=           -115.4791   ZZ=           -109.0516
   XY=              0.3521   XZ=             -0.0273   YZ=             -0.0018
 Traceless Quadrupole moment (field-independent basis, Debye-Ang):
   XX=             50.5025   YY=            -28.4650   ZZ=            -22.0376
   XY=              0.3521   XZ=             -0.0273   YZ=             -0.0018
 Octapole moment (field-independent basis, Debye-Ang**2):
  XXX=              0.3491  YYY=             -0.0127  ZZZ=              1.8563  XYY=              0.0146
  XXY=             -0.0454  XXZ=             61.3064  XZZ=             -0.0045  YZZ=             -0.0010
  YYZ=              2.0986  XYZ=             -8.4646
 Hexadecapole moment (field-independent basis, Debye-Ang**3):
 XXXX=          -2865.0152 YYYY=          -1500.1781 ZZZZ=           -123.5515 XXXY=           -124.9690
 XXXZ=             -0.9102 YYYX=             -5.9388 YYYZ=             -0.0324 ZZZX=             -0.0283
 ZZZY=              0.0105 XXYY=           -845.1046 XXZZ=           -973.9023 YYZZ=           -253.8242
 XXYZ=              0.0739 YYXZ=             -0.0230 ZZXY=            -10.2918
 N-N= 1.199686895665D+03 E-N=-4.264491267670D+03  KE= 7.964544815281D+02
                          Isotropic Fermi Contact Couplings
        Atom                 a.u.       MegaHertz       Gauss      10(-4) cm-1
     1  N(14)              0.00000       0.00000       0.00000       0.00000
     2  C(13)             -0.00000      -0.00000      -0.00000      -0.00000
     3  C(13)             -0.00000      -0.00000      -0.00000      -0.00000
     4  C(13)             -0.00000      -0.00000      -0.00000      -0.00000
     5  C(13)             -0.00000      -0.00000      -0.00000      -0.00000
     6  C(13)             -0.00000      -0.00000      -0.00000      -0.00000
     7  O(17)             -0.00000       0.00000       0.00000       0.00000
     8  C(13)              0.00000       0.00000       0.00000       0.00000
     9  C(13)             -0.00000      -0.00000      -0.00000      -0.00000
    10  C(13)             -0.00000      -0.00000      -0.00000      -0.00000
    11  N(14)             -0.00000      -0.00000      -0.00000      -0.00000
    12  C(13)             -0.00000      -0.00000      -0.00000      -0.00000
    13  C(13)             -0.00000      -0.00000      -0.00000      -0.00000
    14  C(13)             -0.00000      -0.00000      -0.00000      -0.00000
    15  C(13)             -0.00000      -0.00000      -0.00000      -0.00000
    16  O(17)             -0.00000       0.00000       0.00000       0.00000
    17  C(13)             -0.00000      -0.00000      -0.00000      -0.00000
    18  C(13)             -0.00000      -0.00000      -0.00000      -0.00000
    19  H(1)              -0.00000      -0.00000      -0.00000      -0.00000
    20  H(1)               0.00000       0.00000       0.00000       0.00000
    21  H(1)              -0.00000      -0.00000      -0.00000      -0.00000
    22  H(1)              -0.00000      -0.00000      -0.00000      -0.00000
    23  H(1)               0.00000       0.00000       0.00000       0.00000
    24  H(1)               0.00000       0.00000       0.00000       0.00000
    25  H(1)              -0.00000      -0.00000      -0.00000      -0.00000
    26  H(1)               0.00000       0.00000       0.00000       0.00000
    27  H(1)               0.00000       0.00000       0.00000       0.00000
    28  H(1)               0.00000       0.00000       0.00000       0.00000
 --------------------------------------------------------
       Center         ----  Spin Dipole Couplings  ----
                      3XX-RR        3YY-RR        3ZZ-RR
 --------------------------------------------------------
     1   Atom       -0.000000      0.000000     -0.000000
     2   Atom        0.000000     -0.000000      0.000000
     3   Atom        0.000000     -0.000000     -0.000000
     4   Atom       -0.000000      0.000000     -0.000000
     5   Atom       -0.000000      0.000000     -0.000000
     6   Atom        0.000000     -0.000000      0.000000
     7   Atom        0.000000     -0.000000     -0.000000
     8   Atom        0.000000     -0.000000      0.000000
     9   Atom        0.000000      0.000000     -0.000000
    10   Atom        0.000000     -0.000000     -0.000000
    11   Atom       -0.000000      0.000000      0.000000
    12   Atom       -0.000000     -0.000000      0.000000
    13   Atom        0.000000     -0.000000      0.000000
    14   Atom       -0.000000      0.000000     -0.000000
    15   Atom       -0.000000      0.000000     -0.000000
    16   Atom       -0.000000     -0.000000      0.000000
    17   Atom        0.000000      0.000000     -0.000000
    18   Atom       -0.000000      0.000000      0.000000
    19   Atom        0.000000      0.000000     -0.000000
    20   Atom       -0.000000      0.000000     -0.000000
    21   Atom       -0.000000      0.000000     -0.000000
    22   Atom        0.000000      0.000000     -0.000000
    23   Atom        0.000000     -0.000000      0.000000
    24   Atom        0.000000     -0.000000     -0.000000
    25   Atom       -0.000000     -0.000000      0.000000
    26   Atom        0.000000     -0.000000     -0.000000
    27   Atom       -0.000000      0.000000     -0.000000
    28   Atom       -0.000000      0.000000     -0.000000
 --------------------------------------------------------
                        XY            XZ            YZ
 --------------------------------------------------------
     1   Atom        0.000000      0.000000      0.000000
     2   Atom       -0.000000     -0.000000     -0.000000
     3   Atom        0.000000     -0.000000      0.000000
     4   Atom        0.000000     -0.000000     -0.000000
     5   Atom       -0.000000      0.000000     -0.000000
     6   Atom       -0.000000      0.000000     -0.000000
     7   Atom       -0.000000     -0.000000     -0.000000
     8   Atom       -0.000000      0.000000      0.000000
     9   Atom       -0.000000     -0.000000      0.000000
    10   Atom        0.000000     -0.000000     -0.000000
    11   Atom       -0.000000     -0.000000     -0.000000
    12   Atom       -0.000000     -0.000000     -0.000000
    13   Atom       -0.000000      0.000000     -0.000000
    14   Atom        0.000000     -0.000000      0.000000
    15   Atom       -0.000000     -0.000000      0.000000
    16   Atom       -0.000000     -0.000000      0.000000
    17   Atom       -0.000000     -0.000000      0.000000
    18   Atom        0.000000     -0.000000      0.000000
    19   Atom       -0.000000     -0.000000      0.000000
    20   Atom        0.000000     -0.000000      0.000000
    21   Atom       -0.000000      0.000000      0.000000
    22   Atom        0.000000     -0.000000     -0.000000
    23   Atom       -0.000000     -0.000000     -0.000000
    24   Atom       -0.000000     -0.000000      0.000000
    25   Atom        0.000000      0.000000      0.000000
    26   Atom       -0.000000     -0.000000     -0.000000
    27   Atom        0.000000     -0.000000      0.000000
    28   Atom       -0.000000      0.000000     -0.000000
 --------------------------------------------------------


 ---------------------------------------------------------------------------------
              Anisotropic Spin Dipole Couplings in Principal Axis System
 ---------------------------------------------------------------------------------

       Atom             a.u.   MegaHertz   Gauss  10(-4) cm-1        Axes

              Baa    -0.0000    -0.000    -0.000    -0.000  0.8691 -0.3693  0.3290
     1 N(14)  Bbb    -0.0000    -0.000    -0.000    -0.000 -0.4653 -0.3850  0.7970
              Bcc     0.0000     0.000     0.000     0.000  0.1677  0.8458  0.5065
 
              Baa    -0.0000    -0.000    -0.000    -0.000  0.2504  0.9611  0.1162
     2 C(13)  Bbb     0.0000     0.000     0.000     0.000  0.2521 -0.1806  0.9507
              Bcc     0.0000     0.000     0.000     0.000  0.9348 -0.2088 -0.2875
 
              Baa    -0.0000    -0.000    -0.000    -0.000  0.3231 -0.6120  0.7219
     3 C(13)  Bbb    -0.0000    -0.000    -0.000    -0.000 -0.2020  0.7006  0.6844
              Bcc     0.0000     0.000     0.000     0.000  0.9245  0.3670 -0.1027
 
              Baa    -0.0000    -0.000    -0.000    -0.000  0.9994 -0.0343  0.0110
     4 C(13)  Bbb    -0.0000    -0.000    -0.000    -0.000 -0.0108  0.0064  0.9999
              Bcc     0.0000     0.000     0.000     0.000  0.0344  0.9994 -0.0060
 
              Baa    -0.0000    -0.000    -0.000    -0.000  0.9673  0.1512 -0.2038
     5 C(13)  Bbb    -0.0000    -0.000    -0.000    -0.000  0.1944  0.0742  0.9781
              Bcc     0.0000     0.000     0.000     0.000 -0.1630  0.9857 -0.0424
 
              Baa    -0.0000    -0.000    -0.000    -0.000  0.6379  0.7692 -0.0388
     6 C(13)  Bbb     0.0000     0.000     0.000     0.000 -0.2255  0.2347  0.9456
              Bcc     0.0000     0.000     0.000     0.000  0.7364 -0.5944  0.3231
 
              Baa    -0.0000     0.000     0.000     0.000  0.4104  0.8193  0.4004
     7 O(17)  Bbb    -0.0000     0.000     0.000     0.000  0.0364 -0.4535  0.8905
              Bcc     0.0000    -0.000    -0.000    -0.000  0.9112 -0.3509 -0.2159
 
              Baa    -0.0000    -0.000    -0.000    -0.000  0.3342  0.9232 -0.1897
     8 C(13)  Bbb     0.0000     0.000     0.000     0.000 -0.0031  0.2023  0.9793
              Bcc     0.0000     0.000     0.000     0.000  0.9425 -0.3267  0.0704
 
              Baa    -0.0000    -0.000    -0.000    -0.000  0.1198 -0.1003  0.9877
     9 C(13)  Bbb    -0.0000    -0.000    -0.000    -0.000  0.9814  0.1624 -0.1026
              Bcc     0.0000     0.000     0.000     0.000 -0.1501  0.9816  0.1179
 
              Baa    -0.0000    -0.000    -0.000    -0.000 -0.0630  0.8904  0.4508
    10 C(13)  Bbb     0.0000     0.000     0.000     0.000  0.3667 -0.3995  0.8402
              Bcc     0.0000     0.000     0.000     0.000  0.9282  0.2183 -0.3014
 
              Baa    -0.0000    -0.000    -0.000    -0.000  0.9488  0.2335  0.2129
    11 N(14)  Bbb     0.0000     0.000     0.000     0.000 -0.2063 -0.0528  0.9771
              Bcc     0.0000     0.000     0.000     0.000 -0.2394  0.9709  0.0019
 
              Baa    -0.0000    -0.000    -0.000    -0.000  0.5051  0.6653  0.5499
    12 C(13)  Bbb     0.0000     0.000     0.000     0.000  0.8482 -0.2647 -0.4589
              Bcc     0.0000     0.000     0.000     0.000 -0.1597  0.6981 -0.6979
 
              Baa    -0.0000    -0.000    -0.000    -0.000  0.1051  0.9942  0.0225
    13 C(13)  Bbb     0.0000     0.000     0.000     0.000 -0.1288 -0.0088  0.9916
              Bcc     0.0000     0.000     0.000     0.000  0.9861 -0.1071  0.1271
 
              Baa    -0.0000    -0.000    -0.000    -0.000  0.4446 -0.1395  0.8848
    14 C(13)  Bbb    -0.0000    -0.000    -0.000    -0.000  0.8957  0.0689 -0.4392
              Bcc     0.0000     0.000     0.000     0.000  0.0003  0.9878  0.1556
 
              Baa    -0.0000    -0.000    -0.000    -0.000  0.9876  0.1214  0.0993
    15 C(13)  Bbb    -0.0000    -0.000    -0.000    -0.000 -0.0889 -0.0883  0.9921
              Bcc     0.0000     0.000     0.000     0.000 -0.1292  0.9887  0.0765
 
              Baa    -0.0000     0.000     0.000     0.000  0.6738  0.7389  0.0076
    16 O(17)  Bbb     0.0000    -0.000    -0.000    -0.000  0.1258 -0.1249  0.9842
              Bcc     0.0000    -0.000    -0.000    -0.000  0.7281 -0.6622 -0.1771
 
              Baa    -0.0000    -0.000    -0.000    -0.000  0.3404  0.1114  0.9337
    17 C(13)  Bbb    -0.0000    -0.000    -0.000    -0.000  0.7010  0.6318 -0.3309
              Bcc     0.0000     0.000     0.000     0.000 -0.6267  0.7671  0.1370
 
              Baa    -0.0000    -0.000    -0.000    -0.000  0.7421 -0.5474  0.3869
    18 C(13)  Bbb     0.0000     0.000     0.000     0.000 -0.0523  0.5280  0.8476
              Bcc     0.0000     0.000     0.000     0.000  0.6683  0.6492 -0.3632
 
              Baa    -0.0000    -0.000    -0.000    -0.000  0.5623  0.2221  0.7966
    19 H(1)   Bbb     0.0000     0.000     0.000     0.000  0.4814  0.6953 -0.5337
              Bcc     0.0000     0.000     0.000     0.000 -0.6724  0.6836  0.2841
 
              Baa    -0.0000    -0.000    -0.000    -0.000  0.7626 -0.4634  0.4513
    20 H(1)   Bbb    -0.0000    -0.000    -0.000    -0.000 -0.3277  0.3248  0.8872
              Bcc     0.0000     0.000     0.000     0.000  0.5578  0.8244 -0.0959
 
              Baa    -0.0000    -0.000    -0.000    -0.000  0.8588  0.4647 -0.2159
    21 H(1)   Bbb    -0.0000    -0.000    -0.000    -0.000  0.2430  0.0015  0.9700
              Bcc     0.0000     0.000     0.000     0.000 -0.4511  0.8855  0.1116
 
              Baa    -0.0000    -0.000    -0.000    -0.000 -0.6496  0.7391  0.1783
    22 H(1)   Bbb    -0.0000    -0.000    -0.000    -0.000  0.3344  0.0672  0.9400
              Bcc     0.0000     0.000     0.000     0.000  0.6828  0.6703 -0.2908
 
              Baa    -0.0000    -0.000    -0.000    -0.000  0.4482  0.8935  0.0277
    23 H(1)   Bbb     0.0000     0.000     0.000     0.000  0.8758 -0.4327 -0.2140
              Bcc     0.0000     0.000     0.000     0.000  0.1792 -0.1202  0.9764
 
              Baa    -0.0000    -0.000    -0.000    -0.000 -0.0809 -0.5947  0.7999
    24 H(1)   Bbb     0.0000     0.000     0.000     0.000  0.3215  0.7441  0.5857
              Bcc     0.0000     0.000     0.000     0.000  0.9435 -0.3045 -0.1310
 
              Baa    -0.0000    -0.000    -0.000    -0.000  0.0251  0.8539 -0.5199
    25 H(1)   Bbb    -0.0000    -0.000    -0.000    -0.000  0.9996 -0.0296 -0.0004
              Bcc     0.0000     0.000     0.000     0.000  0.0157  0.5196  0.8542
 
              Baa    -0.0000    -0.000    -0.000    -0.000  0.5892  0.8064  0.0512
    26 H(1)   Bbb    -0.0000    -0.000    -0.000    -0.000 -0.0267 -0.0439  0.9987
              Bcc     0.0000     0.000     0.000     0.000  0.8076 -0.5898 -0.0044
 
              Baa    -0.0000    -0.000    -0.000    -0.000  0.8508 -0.1636  0.4993
    27 H(1)   Bbb    -0.0000    -0.000    -0.000    -0.000 -0.4991  0.0458  0.8654
              Bcc     0.0000     0.000     0.000     0.000  0.1644  0.9855  0.0427
 
              Baa    -0.0000    -0.000    -0.000    -0.000 -0.1075  0.0064  0.9942
    28 H(1)   Bbb    -0.0000    -0.000    -0.000    -0.000  0.9735  0.2035  0.1039
              Bcc     0.0000     0.000     0.000     0.000 -0.2016  0.9791 -0.0281
 

 ---------------------------------------------------------------------------------

 No NMR shielding tensors so no spin-rotation constants.
 Leave Link  601 at Sun Jan 14 01:04:16 2024, MaxMem=  4026531840 cpu:              15.1 elap:               2.9
 (Enter /sysapps/ubuntu-applications/gaussian/Gaussian/AVX2/g16/l9999.exe)
 1\1\GINC-ACIDSGN007\SP\UB3LYP\6-311++G(d,p)\C14H10N2O2\SELHAJJ1\14-Jan
 -2024\0\\#P UB3LYP/6-311++G(d,p) SCRF=(PCM,Solvent=n,n-DiMethylFormami
 de)\\Quinone PCM in DMF\\0,1\N,0,-5.025059,-0.752073,-0.441264\C,0,-3.
 758636,-0.247611,-0.215065\C,0,-3.583748,0.981492,0.452698\C,0,-2.3144
 78,1.460969,0.717064\C,0,-1.174715,0.741104,0.332723\C,0,0.166793,1.28
 2498,0.630347\O,0,0.322756,2.352893,1.203382\C,0,1.345892,0.462789,0.1
 99568\C,0,2.620772,0.943362,0.472368\C,0,3.758297,0.219249,0.086939\N,
 0,5.02433,0.676781,0.399602\C,0,3.583455,-1.00921,-0.581967\C,0,2.3142
 28,-1.485215,-0.852765\C,0,1.174484,-0.764671,-0.469659\C,0,-0.166998,
 -1.302073,-0.774623\O,0,-0.322851,-2.365107,-1.361216\C,0,-1.346162,-0
 .487745,-0.333965\C,0,-2.621063,-0.971343,-0.601171\H,0,-5.800524,-0.1
 09297,-0.408727\H,0,-5.120616,-1.48617,-1.125216\H,0,-4.454807,1.55007
 4,0.762317\H,0,-2.176781,2.405898,1.228552\H,0,2.713077,1.890866,0.991
 333\H,0,5.802378,0.296011,-0.115481\H,0,5.122366,1.650071,0.642508\H,0
 ,4.45447,-1.583252,-0.881463\H,0,2.176536,-2.428107,-1.368004\H,0,-2.7
 13397,-1.922184,-1.114004\\Version=ES64L-G16RevA.03\State=1-A\HF=-799.
 7344812\S2=0.\S2-1=0.\S2A=0.\RMSD=8.802e-09\Dipole=0.0012367,0.3461989
 ,-0.6397041\Quadrupole=37.4815082,-20.0351587,-17.4463495,1.5874972,1.
 1858126,-1.9708399\PG=C01 [X(C14H10N2O2)]\\@


 A warm smile is the universal language of kindness.
                             -- William Arthur Ward
 Job cpu time:       0 days  0 hours 35 minutes 53.1 seconds.
 Elapsed time:       0 days  0 hours  4 minutes 33.8 seconds.
 File lengths (MBytes):  RWF=    297 Int=      0 D2E=      0 Chk=     17 Scr=      1
 Normal termination of Gaussian 16 at Sun Jan 14 01:04:17 2024.
