
Running Job 1 of 1 022-CPCM.in
qchem 022-CPCM.in_4134597.0 /expanse/lustre/scratch/selhajj/temp_project/qcscratch/31245997/qchem4134597/ 0
/cm/shared/apps/spack/cpu/opt/spack/linux-centos8-zen2/gcc-10.2.0/qchem-5.4-akfmr7b3t57bfs6qan3padb2wnb2i7cl/exe/qcprog.exe_s 022-CPCM.in_4134597.0 /expanse/lustre/scratch/selhajj/temp_project/qcscratch/31245997/qchem4134597/
                  Welcome to Q-Chem
     A Quantum Leap Into The Future Of Chemistry


 Q-Chem 5.4, Q-Chem, Inc., Pleasanton, CA (2021)

 License issued to: University of California, San Diego (site)

 E. Epifanovsky,  A. T. B. Gilbert,  Xintian Feng,  Joonho Lee,  Yuezhi Mao,  
 N. Mardirossian,  P. Pokhilko,  A. White,  M. Wormit,  M. P. Coons,  
 A. L. Dempwolff,  Zhengting Gan,  D. Hait,  P. R. Horn,  L. D. Jacobson,  
 I. Kaliman,  J. Kussmann,  A. W. Lange,  Ka Un Lao,  D. S. Levine,  Jie Liu,  
 S. C. McKenzie,  A. F. Morrison,  K. Nanda,  F. Plasser,  D. R. Rehn,  
 M. L. Vidal,  Zhi-Qiang You,  Ying Zhu,  B. Alam,  B. Albrecht,  
 A. Aldossary,  E. Alguire,  J. H. Andersen,  D. Barton,  K. Begam,  A. Behn,  
 Y. A. Bernard,  E. J. Berquist,  H. Burton,  A. Carreras,  K. Carter-Fenk,  
 R. Chakraborty,  A. D. Chien,  K. D. Closser,  V. Cofer-Shabica,  
 S. Dasgupta,  Jia Deng,  M. de Wergifosse,  M. Diedenhofen,  Hainam Do,  
 S. Ehlert,  Po-Tung Fang,  S. Fatehi,  Qingguo Feng,  J. Gayvert,  
 Qinghui Ge,  G. Gidofalvi,  M. Goldey,  J. Gomes,  C. Gonzalez-Espinoza,  
 S. Gulania,  A. Gunina,  M. W. D. Hanson-Heine,  P. H. P. Harbach,  
 A. W. Hauser,  M. F. Herbst,  M. Hernandez Vera,  M. Hodecker,  
 Z. C. Holden,  S. Houck,  Xunkun Huang,  Kerwin Hui,  B. C. Huynh,  
 M. Ivanov,  Hyunjun Ji,  Hanjie Jiang,  B. Kaduk,  S. Kaehler,  
 K. Khistyaev,  Jaehoon Kim,  P. Klunzinger,  Z. Koczor-Benda,  
 Joong Hoon Koh,  D. Kosenkov,  L. Koulias,  T. Kowalczyk,  C. M. Krauter,  
 K. Kue,  A. Kunitsa,  T. Kus,  A. Landau,  K. V. Lawler,  D. Lefrancois,  
 S. Lehtola,  Rain Li,  Yi-Pei Li,  Jiashu Liang,  M. Liebenthal,  
 Hung-Hsuan Lin,  You-Sheng Lin,  Fenglai Liu,  Kuan-Yu Liu,  
 M. Loipersberger,  A. Luenser,  A. Manjanath,  P. Manohar,  E. Mansoor,  
 S. F. Manzer,  Shan-Ping Mao,  A. V. Marenich,  T. Markovich,  S. Mason,  
 S. A. Maurer,  P. F. McLaughlin,  M. F. S. J. Menger,  J.-M. Mewes,  
 S. A. Mewes,  P. Morgante,  J. W. Mullinax,  T. S. Nguyen-Beck,  
 K. J. Oosterbaan,  G. Paran,  Alexander C. Paul,  Suranjan K. Paul,  
 F. Pavosevic,  Zheng Pei,  S. Prager,  E. I. Proynov,  E. Ramos,  B. Rana,  
 A. E. Rask,  A. Rettig,  R. M. Richard,  F. Rob,  E. Rossomme,  T. Scheele,  
 M. Scheurer,  M. Schneider,  N. Sergueev,  S. M. Sharada,  W. Skomorowski,  
 D. W. Small,  C. J. Stein,  Yu-Chuan Su,  E. J. Sundstrom,  Zhen Tao,  
 J. Thirman,  T. Tsuchimochi,  N. M. Tubman,  S. P. Veccham,  O. Vydrov,  
 J. Wenzel,  J. Witte,  A. Yamada,  Kun Yao,  S. Yeganeh,  S. R. Yost,  
 A. Zech,  Igor Ying Zhang,  Xing Zhang,  Yu Zhang,  D. Zuev,  
 A. Aspuru-Guzik,  A. T. Bell,  N. A. Besley,  K. B. Bravaya,  B. R. Brooks,  
 D. Casanova,  Jeng-Da Chai,  S. Coriani,  C. J. Cramer,  
 A. E. DePrince, III,  R. A. DiStasio Jr.,  A. Dreuw,  B. D. Dunietz,  
 T. R. Furlani,  W. A. Goddard III,  S. Grimme,  S. Hammes-Schiffer,  
 T. Head-Gordon,  W. J. Hehre,  Chao-Ping Hsu,  T.-C. Jagau,  Yousung Jung,  
 A. Klamt,  Jing Kong,  D. S. Lambrecht,  WanZhen Liang,  N. J. Mayhall,  
 C. W. McCurdy,  J. B. Neaton,  C. Ochsenfeld,  J. A. Parkhill,  R. Peverati,  
 V. A. Rassolov,  Yihan Shao,  L. V. Slipchenko,  T. Stauch,  R. P. Steele,  
 J. E. Subotnik,  A. J. W. Thom,  A. Tkatchenko,  D. G. Truhlar,  
 T. Van Voorhis,  T. A. Wesolowski,  K. B. Whaley,  H. L. Woodcock III,  
 P. M. Zimmerman,  S. Faraji,  P. M. W. Gill,  M. Head-Gordon,  
 J. M. Herbert,  A. I. Krylov

 Contributors to earlier versions of Q-Chem not listed above: 
 R. D. Adamson,  B. Austin,  R. Baer,  J. Baker,  G. J. O. Beran,  
 K. Brandhorst,  S. T. Brown,  E. F. C. Byrd,  A. K. Chakraborty,  
 G. K. L. Chan,  Chun-Min Chang,  Yunqing Chen,  C.-L. Cheng,  
 Siu Hung Chien,  D. M. Chipman,  D. L. Crittenden,  H. Dachsel,  
 R. J. Doerksen,  A. D. Dutoi,  R. G. Edgar,  J. Fosso-Tande,  
 L. Fusti-Molnar,  D. Ghosh,  A. Ghysels,  A. Golubeva-Zadorozhnaya,  
 J. Gonthier,  M. S. Gordon,  S. R. Gwaltney,  G. Hawkins,  J. E. Herr,  
 A. Heyden,  S. Hirata,  E. G. Hohenstein,  G. Kedziora,  F. J. Keil,  
 C. Kelley,  Jihan Kim,  R. A. King,  R. Z. Khaliullin,  P. P. Korambath,  
 W. Kurlancheek,  A. Laurent,  A. M. Lee,  M. S. Lee,  S. V. Levchenko,  
 Ching Yeh Lin,  D. Liotard,  E. Livshits,  R. C. Lochan,  I. Lotan,  
 L. A. Martinez-Martinez,  P. E. Maslen,  N. Nair,  D. P. O'Neill,  
 D. Neuhauser,  E. Neuscamman,  C. M. Oana,  R. Olivares-Amaya,  R. Olson,  
 T. M. Perrine,  B. Peters,  P. A. Pieniazek,  A. Prociuk,  Y. M. Rhee,  
 J. Ritchie,  M. A. Rohrdanz,  E. Rosta,  N. J. Russ,  H. F. Schaefer III,  
 M. W. Schmidt,  N. E. Schultz,  S. Sharma,  N. Shenvi,  C. D. Sherrill,  
 A. C. Simmonett,  A. Sodt,  T. Stein,  D. Stuck,  K. S. Thanthiriwatte,  
 V. Vanovschi,  L. Vogt,  Tao Wang,  A. Warshel,  M. A. Watson,  
 C. F. Williams,  Q. Wu,  X. Xu,  Jun Yang,  W. Zhang,  Yan Zhao

 Please cite Q-Chem as follows:
 Y. Shao et al., Mol. Phys. 113, 184-215 (2015)
 DOI: 10.1080/00268976.2014.952696

 Q-Chem 5.4.0 for Intel X86 EM64T Linux

 Parts of Q-Chem use Armadillo 9.800.1 (Horizon Scraper).
 http://arma.sourceforge.net/

 Q-Chem begins on Tue Jun 11 17:25:52 2024  

 Host: 
0

     Scratch files written to /expanse/lustre/scratch/selhajj/temp_project/qcscratch/31245997/qchem4134597//
 May1621 |scratch|qcdevops|jenkins|workspace|build_RNUM    
 Processing $rem in /cm/shared/apps/spack/cpu/opt/spack/linux-centos8-zen2/gcc-10.2.0/qchem-5.4-akfmr7b3t57bfs6qan3padb2wnb2i7cl/config/preferences:
 Processing $rem in /home/selhajj/.qchemrc:
 Symmetry turned off for PCM/SM12/SMD calculation

 Checking the input file for inconsistencies... 	...done.

--------------------------------------------------------------
User input:
--------------------------------------------------------------
$molecule
0 1
C                 -3.8078290000      0.0276940000     -0.0518960000
O                 -2.6401080000      0.8624090000     -0.2293250000
C                 -1.3792580000      0.4486450000     -0.1823640000
C                 -0.3905000000      1.3807570000     -0.1431700000
Cl                -0.7640530000      3.0738050000     -0.1349540000
C                  1.0328510000      1.0251420000     -0.1135950000
O                  1.9147820000      1.8636310000     -0.1291890000
C                  1.3869450000     -0.4464180000     -0.0621450000
C                  0.4000410000     -1.3779700000     -0.1432920000
Cl                 0.7733730000     -3.0711150000     -0.1453050000
C                 -1.0197970000     -1.0214020000     -0.2420860000
O                 -1.8949580000     -1.8574320000     -0.3695710000
O                  2.6465220000     -0.8612370000      0.0034590000
C                  3.7949370000     -0.0314310000      0.2932290000
H                 -3.7235820000     -0.5795530000      0.8480660000
H                 -4.6211610000      0.7441580000      0.0465620000
H                 -3.9610840000     -0.6152550000     -0.9155080000
H                  4.0176660000      0.6299390000     -0.5409370000
H                  3.6371550000      0.5563770000      1.1961450000
H                  4.5980560000     -0.7507420000      0.4417790000
$end
$rem
MAX_SCF_CYCLES=200
BASIS  =  6-311++G(d,p)
GUI  =  2
JOB_TYPE  =  SP
METHOD  =  B3LYP
SOLVENT_METHOD = PCM
$end
$pcm
theory = CPCM
$end
$solvent
dielectric 37.219
opticaldielectric 1.43
$end





--------------------------------------------------------------
 ----------------------------------------------------------------
             Standard Nuclear Orientation (Angstroms)
    I     Atom           X                Y                Z
 ----------------------------------------------------------------
    1      C      -3.8078290000     0.0276940000    -0.0518960000
    2      O      -2.6401080000     0.8624090000    -0.2293250000
    3      C      -1.3792580000     0.4486450000    -0.1823640000
    4      C      -0.3905000000     1.3807570000    -0.1431700000
    5      Cl     -0.7640530000     3.0738050000    -0.1349540000
    6      C       1.0328510000     1.0251420000    -0.1135950000
    7      O       1.9147820000     1.8636310000    -0.1291890000
    8      C       1.3869450000    -0.4464180000    -0.0621450000
    9      C       0.4000410000    -1.3779700000    -0.1432920000
   10      Cl      0.7733730000    -3.0711150000    -0.1453050000
   11      C      -1.0197970000    -1.0214020000    -0.2420860000
   12      O      -1.8949580000    -1.8574320000    -0.3695710000
   13      O       2.6465220000    -0.8612370000     0.0034590000
   14      C       3.7949370000    -0.0314310000     0.2932290000
   15      H      -3.7235820000    -0.5795530000     0.8480660000
   16      H      -4.6211610000     0.7441580000     0.0465620000
   17      H      -3.9610840000    -0.6152550000    -0.9155080000
   18      H       4.0176660000     0.6299390000    -0.5409370000
   19      H       3.6371550000     0.5563770000     1.1961450000
   20      H       4.5980560000    -0.7507420000     0.4417790000
 ----------------------------------------------------------------
 Nuclear Repulsion Energy =        1116.84046917 hartrees
 There are       60 alpha and       60 beta electrons
 Requested basis set is 6-311++G(d,p)
 There are 128 shells and 366 basis functions

 Total QAlloc Memory Limit   8000 MB
 Mega-Array Size       188 MB
 MEM_STATIC part       192 MB
 Discretize the solute cavity surface with Lebedev spheres
	Using 110 Lebedev grid points for each H atom
	Using 194 Lebedev grid points for other atoms
	Atomic van der Waals radii will be scaled by 1.20
 Remove points where switching function is < 1.0e-08
 Keep 1505 surface tesserae and discard 1871 interior tesserae
 Molecular Surface Area = 237.099 Angst**2
 A cutoff of  1.0D-08 yielded   5709 shell pairs
 There are     50540 function pairs (     54141 Cartesian)
 Smallest overlap matrix eigenvalue = 5.50E-07

 Q-Chem warning in module stvman/mkSTV.C, line 323:

 Overlap eigenvalue is smaller than square root of threshold
 Use THRESH >= 12 to get rid of this warning

 Linear dependence detected in AO basis
 Tighter screening thresholds may be required for diffuse basis sets
 Use S2THRESH > 14 and THRESH = 14 in case of SCF convergence issues
 Number of orthogonalized atomic orbitals = 365
 Maximum deviation from orthogonality = 1.298E-10

 Scale SEOQF with 1.000000e-01/1.000000e-01/1.000000e-01

 Standard Electronic Orientation quadrupole field applied
 Nucleus-field energy     =     0.0000000478 hartrees
 Guess from superposition of atomic densities
 Warning:  Energy on first SCF cycle will be non-variational
 SAD guess density has 120.000000 electrons

 -----------------------------------------------------------------------
  General SCF calculation program by
  Eric Jon Sundstrom, Paul Horn, Yuezhi Mao, Dmitri Zuev, Alec White,
  David Stuck, Shaama M.S., Shane Yost, Joonho Lee, David Small,
  Daniel Levine, Susi Lehtola, Hugh Burton, Evgeny Epifanovsky,
  Bang C. Huynh
 -----------------------------------------------------------------------
 Exchange:     0.2000 Hartree-Fock + 0.0800 Slater + 0.7200 B88
 Correlation:  0.1900 VWN1RPA + 0.8100 LYP
 Using SG-1 standard quadrature grid
 using 8 threads for integral computing
 -------------------------------------------------------
 OpenMP Integral computing Module                
 Release: version 1.0, May 2013, Q-Chem Inc. Pittsburgh 
 -------------------------------------------------------
 A restricted SCF calculation will be
 performed using DIIS
 SCF converges when DIIS error is below 1.0e-05
 ---------------------------------------
  Cycle       Energy         DIIS error
 ---------------------------------------
    1   -1532.8563557466      3.29e-02  
    2   -1529.7532732618      3.63e-03  
    3   -1529.3265598253      6.90e-03  
    4   -1529.9043018340      1.05e-03  
    5   -1529.9195317832      3.24e-04  
    6   -1529.9209360219      1.11e-04  
    7   -1529.9210784437      3.93e-05  
    8   -1529.9210944925      1.01e-05  
    9   -1529.9210943687      4.74e-06  Convergence criterion met
 ---------------------------------------
 SCF time:   CPU 177.88s  wall 23.00s 

************** Final PCM Free Energy Summary **************
 G_electrostatic  =      -0.01613653 hartree =     -10.12582689 kcal/mol
 G_cavitation     =       0.00000000 hartree =       0.00000000 kcal/mol
 G_dispersion     =       0.00000000 hartree =       0.00000000 kcal/mol
 G_repulsion      =       0.00000000 hartree =       0.00000000 kcal/mol
 --------------------------------------------------
 Non-electrostatic Free Energy =       0.00000000 hartree =       0.00000000 kcal/mol
 Total                         =      -0.01613653 hartree =     -10.12582689 kcal/mol
 --------------------------------------------------
 SCF Energy (H0 + V/2)                       =   -1529.92109437 
 Solute Internal Energy (H0)                 =   -1529.90495784 
 Total Free Energy (H0 + V/2 + non-elec)     =   -1529.92109437 hartree
                                             = -960039.97659903 kcal/mol
***********************************************************

 SCF   energy in the final basis set =    -1529.9210943687
 Total energy in the final basis set =    -1529.9210943687
 
 --------------------------------------------------------------
 
                    Orbital Energies (a.u.)
 --------------------------------------------------------------
 
 Alpha MOs
 -- Occupied --
********-101.5738 -19.1955 -19.1954 -19.1507 -19.1506 -10.3083 -10.3082
-10.2939 -10.2938 -10.2571 -10.2570 -10.2305 -10.2304  -9.4882  -9.4882
 -7.2529  -7.2529  -7.2432  -7.2432  -7.2425  -7.2425  -1.1171  -1.1143
 -1.0827  -1.0815  -0.9121  -0.8968  -0.8367  -0.7913  -0.7446  -0.7225
 -0.6904  -0.6277  -0.6182  -0.5783  -0.5526  -0.5386  -0.5069  -0.4916
 -0.4871  -0.4842  -0.4737  -0.4671  -0.4503  -0.4450  -0.4370  -0.4236
 -0.3991  -0.3873  -0.3795  -0.3788  -0.3558  -0.3532  -0.3361  -0.3305
 -0.2987  -0.2978  -0.2778  -0.2501
 -- Virtual --
 -0.1387  -0.0254  -0.0195  -0.0094   0.0025   0.0051   0.0082   0.0261
  0.0265   0.0329   0.0340   0.0401   0.0436   0.0527   0.0540   0.0656
  0.0711   0.0777   0.0802   0.0836   0.0916   0.0947   0.1011   0.1043
  0.1107   0.1167   0.1198   0.1211   0.1243   0.1304   0.1313   0.1404
  0.1420   0.1468   0.1489   0.1561   0.1594   0.1610   0.1642   0.1670
  0.1735   0.1801   0.1846   0.1869   0.1910   0.2072   0.2107   0.2121
  0.2170   0.2171   0.2262   0.2345   0.2384   0.2497   0.2559   0.2628
  0.2685   0.2759   0.2768   0.2855   0.2897   0.2932   0.2959   0.3055
  0.3058   0.3114   0.3124   0.3234   0.3276   0.3316   0.3332   0.3399
  0.3468   0.3572   0.3577   0.3648   0.3744   0.3769   0.3900   0.4016
  0.4075   0.4282   0.4295   0.4437   0.4581   0.4600   0.4667   0.4690
  0.4830   0.4908   0.5022   0.5111   0.5623   0.5730   0.5789   0.5847
  0.5961   0.5978   0.6057   0.6119   0.6168   0.6298   0.6363   0.6369
  0.6544   0.6701   0.6741   0.6781   0.6846   0.7138   0.7182   0.7236
  0.7587   0.7745   0.7956   0.8133   0.8140   0.8418   0.8449   0.8464
  0.8544   0.8600   0.8715   0.8854   0.9098   0.9203   0.9218   0.9258
  0.9357   0.9370   0.9639   0.9700   0.9970   1.0045   1.0143   1.0260
  1.0313   1.0419   1.0601   1.0626   1.0656   1.0837   1.0989   1.1227
  1.1505   1.1692   1.1888   1.1994   1.2034   1.2131   1.2398   1.2416
  1.2622   1.2722   1.2794   1.3038   1.3127   1.3300   1.3332   1.3650
  1.3679   1.3951   1.4371   1.4499   1.4555   1.4792   1.5099   1.5518
  1.5539   1.5706   1.5929   1.6182   1.6237   1.6310   1.6573   1.6765
  1.6827   1.6839   1.6922   1.7091   1.7322   1.7343   1.7493   1.7596
  1.7875   1.7887   1.8039   1.8096   1.8418   1.8501   1.8667   1.8710
  1.8984   2.0226   2.0404   2.0682   2.0873   2.0948   2.1191   2.1486
  2.1743   2.2082   2.2124   2.2294   2.2608   2.2712   2.2758   2.3062
  2.3146   2.3759   2.3865   2.4695   2.4708   2.4872   2.4956   2.4979
  2.5216   2.5361   2.5395   2.5496   2.5542   2.5602   2.5761   2.6420
  2.6780   2.6905   2.7119   2.7625   2.7890   2.7950   2.8346   2.8373
  2.8750   2.8855   2.9111   2.9599   2.9837   2.9899   3.0093   3.0271
  3.0434   3.1107   3.1255   3.1533   3.1583   3.1714   3.1741   3.2266
  3.2312   3.2661   3.3165   3.3381   3.3465   3.3801   3.4958   3.5464
  3.5502   3.5829   3.7266   3.7729   3.7738   3.8020   3.8188   3.8653
  3.9414   4.0501   4.0587   4.1539   4.1937   4.2381   4.6882   4.9940
  5.0001   5.0374   5.0633   5.1912   5.2512   5.3207   5.3351   5.6205
  5.7752   5.8108   5.8283   9.7834   9.7938  23.5019  23.6468  23.8227
 23.8825  23.9258  23.9293  24.0254  24.0671  25.8266  25.8568  26.1665
 26.2776  26.6094  26.6412  49.8943  49.9350  50.0082  50.0383 215.7766
215.7887
 --------------------------------------------------------------
 
          Ground-State Mulliken Net Atomic Charges

     Atom                 Charge (a.u.)
  ----------------------------------------
      1 C                    -0.278893
      2 O                    -0.155752
      3 C                    -1.302885
      4 C                     1.644453
      5 Cl                    0.274754
      6 C                    -0.528127
      7 O                    -0.252919
      8 C                    -1.300551
      9 C                     1.648246
     10 Cl                    0.273691
     11 C                    -0.525838
     12 O                    -0.253292
     13 O                    -0.157169
     14 C                    -0.276878
     15 H                     0.198701
     16 H                     0.190431
     17 H                     0.205917
     18 H                     0.205959
     19 H                     0.199020
     20 H                     0.191133
  ----------------------------------------
  Sum of atomic charges =     0.000000

 -----------------------------------------------------------------
                    Cartesian Multipole Moments
 -----------------------------------------------------------------
    Charge (ESU x 10^10)
                 0.0000
    Dipole Moment (Debye)
         X      -0.0410      Y      -0.0081      Z       1.2064
       Tot       1.2072
    Quadrupole Moments (Debye-Ang)
        XX     -73.7053     XY      -3.3241     YY    -113.3713
        XZ       0.6686     YZ      -0.4685     ZZ     -91.9997
    Octopole Moments (Debye-Ang^2)
       XXX      -2.3619    XXY      -0.3549    XYY      -0.5568
       YYY      -0.4041    XXZ      21.4277    XYZ       1.4165
       YYZ      15.2257    XZZ       0.7911    YZZ       0.2056
       ZZZ      31.1020
    Hexadecapole Moments (Debye-Ang^3)
      XXXX   -1829.7324   XXXY     115.9063   XXYY    -795.3174
      XYYY      78.5862   YYYY   -2069.4033   XXXZ     -28.9282
      XXYZ      -5.0353   XYYZ     -20.7389   YYYZ      -9.8380
      XXZZ    -403.0494   XYZZ      54.8374   YYZZ    -368.2487
      XZZZ     -48.7547   YZZZ      -5.7842   ZZZZ    -127.1080
 -----------------------------------------------------------------
 Total job time:  25.00s(wall), 185.60s(cpu) 
 Tue Jun 11 17:26:17 2024

        *************************************************************
        *                                                           *
        *  Thank you very much for using Q-Chem.  Have a nice day.  *
        *                                                           *
        *************************************************************


