
Running Job 1 of 1 223-an-SM12.in
qchem 223-an-SM12.in_200665.0 /expanse/lustre/scratch/selhajj/temp_project/qcscratch/28451189/qchem200665/ 0
/cm/shared/apps/spack/cpu/opt/spack/linux-centos8-zen2/gcc-10.2.0/qchem-5.4-akfmr7b3t57bfs6qan3padb2wnb2i7cl/exe/qcprog.exe_s 223-an-SM12.in_200665.0 /expanse/lustre/scratch/selhajj/temp_project/qcscratch/28451189/qchem200665/
                  Welcome to Q-Chem
     A Quantum Leap Into The Future Of Chemistry


 Q-Chem 5.4, Q-Chem, Inc., Pleasanton, CA (2021)

 License issued to: University of California, San Diego (site)

 E. Epifanovsky,  A. T. B. Gilbert,  Xintian Feng,  Joonho Lee,  Yuezhi Mao,  
 N. Mardirossian,  P. Pokhilko,  A. White,  M. Wormit,  M. P. Coons,  
 A. L. Dempwolff,  Zhengting Gan,  D. Hait,  P. R. Horn,  L. D. Jacobson,  
 I. Kaliman,  J. Kussmann,  A. W. Lange,  Ka Un Lao,  D. S. Levine,  Jie Liu,  
 S. C. McKenzie,  A. F. Morrison,  K. Nanda,  F. Plasser,  D. R. Rehn,  
 M. L. Vidal,  Zhi-Qiang You,  Ying Zhu,  B. Alam,  B. Albrecht,  
 A. Aldossary,  E. Alguire,  J. H. Andersen,  D. Barton,  K. Begam,  A. Behn,  
 Y. A. Bernard,  E. J. Berquist,  H. Burton,  A. Carreras,  K. Carter-Fenk,  
 R. Chakraborty,  A. D. Chien,  K. D. Closser,  V. Cofer-Shabica,  
 S. Dasgupta,  Jia Deng,  M. de Wergifosse,  M. Diedenhofen,  Hainam Do,  
 S. Ehlert,  Po-Tung Fang,  S. Fatehi,  Qingguo Feng,  J. Gayvert,  
 Qinghui Ge,  G. Gidofalvi,  M. Goldey,  J. Gomes,  C. Gonzalez-Espinoza,  
 S. Gulania,  A. Gunina,  M. W. D. Hanson-Heine,  P. H. P. Harbach,  
 A. W. Hauser,  M. F. Herbst,  M. Hernandez Vera,  M. Hodecker,  
 Z. C. Holden,  S. Houck,  Xunkun Huang,  Kerwin Hui,  B. C. Huynh,  
 M. Ivanov,  Hyunjun Ji,  Hanjie Jiang,  B. Kaduk,  S. Kaehler,  
 K. Khistyaev,  Jaehoon Kim,  P. Klunzinger,  Z. Koczor-Benda,  
 Joong Hoon Koh,  D. Kosenkov,  L. Koulias,  T. Kowalczyk,  C. M. Krauter,  
 K. Kue,  A. Kunitsa,  T. Kus,  A. Landau,  K. V. Lawler,  D. Lefrancois,  
 S. Lehtola,  Rain Li,  Yi-Pei Li,  Jiashu Liang,  M. Liebenthal,  
 Hung-Hsuan Lin,  You-Sheng Lin,  Fenglai Liu,  Kuan-Yu Liu,  
 M. Loipersberger,  A. Luenser,  A. Manjanath,  P. Manohar,  E. Mansoor,  
 S. F. Manzer,  Shan-Ping Mao,  A. V. Marenich,  T. Markovich,  S. Mason,  
 S. A. Maurer,  P. F. McLaughlin,  M. F. S. J. Menger,  J.-M. Mewes,  
 S. A. Mewes,  P. Morgante,  J. W. Mullinax,  T. S. Nguyen-Beck,  
 K. J. Oosterbaan,  G. Paran,  Alexander C. Paul,  Suranjan K. Paul,  
 F. Pavosevic,  Zheng Pei,  S. Prager,  E. I. Proynov,  E. Ramos,  B. Rana,  
 A. E. Rask,  A. Rettig,  R. M. Richard,  F. Rob,  E. Rossomme,  T. Scheele,  
 M. Scheurer,  M. Schneider,  N. Sergueev,  S. M. Sharada,  W. Skomorowski,  
 D. W. Small,  C. J. Stein,  Yu-Chuan Su,  E. J. Sundstrom,  Zhen Tao,  
 J. Thirman,  T. Tsuchimochi,  N. M. Tubman,  S. P. Veccham,  O. Vydrov,  
 J. Wenzel,  J. Witte,  A. Yamada,  Kun Yao,  S. Yeganeh,  S. R. Yost,  
 A. Zech,  Igor Ying Zhang,  Xing Zhang,  Yu Zhang,  D. Zuev,  
 A. Aspuru-Guzik,  A. T. Bell,  N. A. Besley,  K. B. Bravaya,  B. R. Brooks,  
 D. Casanova,  Jeng-Da Chai,  S. Coriani,  C. J. Cramer,  
 A. E. DePrince, III,  R. A. DiStasio Jr.,  A. Dreuw,  B. D. Dunietz,  
 T. R. Furlani,  W. A. Goddard III,  S. Grimme,  S. Hammes-Schiffer,  
 T. Head-Gordon,  W. J. Hehre,  Chao-Ping Hsu,  T.-C. Jagau,  Yousung Jung,  
 A. Klamt,  Jing Kong,  D. S. Lambrecht,  WanZhen Liang,  N. J. Mayhall,  
 C. W. McCurdy,  J. B. Neaton,  C. Ochsenfeld,  J. A. Parkhill,  R. Peverati,  
 V. A. Rassolov,  Yihan Shao,  L. V. Slipchenko,  T. Stauch,  R. P. Steele,  
 J. E. Subotnik,  A. J. W. Thom,  A. Tkatchenko,  D. G. Truhlar,  
 T. Van Voorhis,  T. A. Wesolowski,  K. B. Whaley,  H. L. Woodcock III,  
 P. M. Zimmerman,  S. Faraji,  P. M. W. Gill,  M. Head-Gordon,  
 J. M. Herbert,  A. I. Krylov

 Contributors to earlier versions of Q-Chem not listed above: 
 R. D. Adamson,  B. Austin,  R. Baer,  J. Baker,  G. J. O. Beran,  
 K. Brandhorst,  S. T. Brown,  E. F. C. Byrd,  A. K. Chakraborty,  
 G. K. L. Chan,  Chun-Min Chang,  Yunqing Chen,  C.-L. Cheng,  
 Siu Hung Chien,  D. M. Chipman,  D. L. Crittenden,  H. Dachsel,  
 R. J. Doerksen,  A. D. Dutoi,  R. G. Edgar,  J. Fosso-Tande,  
 L. Fusti-Molnar,  D. Ghosh,  A. Ghysels,  A. Golubeva-Zadorozhnaya,  
 J. Gonthier,  M. S. Gordon,  S. R. Gwaltney,  G. Hawkins,  J. E. Herr,  
 A. Heyden,  S. Hirata,  E. G. Hohenstein,  G. Kedziora,  F. J. Keil,  
 C. Kelley,  Jihan Kim,  R. A. King,  R. Z. Khaliullin,  P. P. Korambath,  
 W. Kurlancheek,  A. Laurent,  A. M. Lee,  M. S. Lee,  S. V. Levchenko,  
 Ching Yeh Lin,  D. Liotard,  E. Livshits,  R. C. Lochan,  I. Lotan,  
 L. A. Martinez-Martinez,  P. E. Maslen,  N. Nair,  D. P. O'Neill,  
 D. Neuhauser,  E. Neuscamman,  C. M. Oana,  R. Olivares-Amaya,  R. Olson,  
 T. M. Perrine,  B. Peters,  P. A. Pieniazek,  A. Prociuk,  Y. M. Rhee,  
 J. Ritchie,  M. A. Rohrdanz,  E. Rosta,  N. J. Russ,  H. F. Schaefer III,  
 M. W. Schmidt,  N. E. Schultz,  S. Sharma,  N. Shenvi,  C. D. Sherrill,  
 A. C. Simmonett,  A. Sodt,  T. Stein,  D. Stuck,  K. S. Thanthiriwatte,  
 V. Vanovschi,  L. Vogt,  Tao Wang,  A. Warshel,  M. A. Watson,  
 C. F. Williams,  Q. Wu,  X. Xu,  Jun Yang,  W. Zhang,  Yan Zhao

 Please cite Q-Chem as follows:
 Y. Shao et al., Mol. Phys. 113, 184-215 (2015)
 DOI: 10.1080/00268976.2014.952696

 Q-Chem 5.4.0 for Intel X86 EM64T Linux

 Parts of Q-Chem use Armadillo 9.800.1 (Horizon Scraper).
 http://arma.sourceforge.net/

 Q-Chem begins on Sat Feb  3 16:01:32 2024  

 Host: 
0

     Scratch files written to /expanse/lustre/scratch/selhajj/temp_project/qcscratch/28451189/qchem200665//
 May1621 |scratch|qcdevops|jenkins|workspace|build_RNUM    
 Processing $rem in /cm/shared/apps/spack/cpu/opt/spack/linux-centos8-zen2/gcc-10.2.0/qchem-5.4-akfmr7b3t57bfs6qan3padb2wnb2i7cl/config/preferences:
 Processing $rem in /home/selhajj/.qchemrc:
 Symmetry turned off for PCM/SM12/SMD calculation
 Method-specific promolecule density matrix will be built for SM12 calculation

 Checking the input file for inconsistencies... 	...done.

--------------------------------------------------------------
User input:
--------------------------------------------------------------
$molecule
-3 1
C                  2.7527440000      0.5738170000      0.2065040000
C                  2.6973260000     -0.6080330000      0.9892110000
C                  1.4977010000     -1.2623480000      1.1575380000
C                 -0.9387080000     -1.5428970000      0.7901380000
O                 -0.9739620000     -2.6047590000      1.5001050000
C                 -2.1185450000     -1.0048190000      0.1355250000
C                 -3.3601380000     -1.6789790000      0.2621810000
C                 -4.5196710000     -1.2020020000     -0.3170090000
C                 -4.4814130000      0.0001680000     -1.0714560000
C                 -3.2811350000      0.6675910000     -1.2294230000
C                 -2.0728670000      0.1970150000     -0.6601830000
C                 -0.8384360000      0.9439830000     -0.8812040000
O                 -0.8078000000      2.0012650000     -1.5841860000
C                  0.3512640000      0.3973240000     -0.2286450000
C                  1.6025680000      1.0561270000     -0.3836200000
H                  3.6068930000     -0.9839890000      1.4450990000
H                  1.4323350000     -2.1682950000      1.7517000000
H                 -3.3600880000     -2.5934860000      0.8466750000
H                 -5.4621120000     -1.7368090000     -0.1977740000
H                 -5.3951170000      0.3841720000     -1.5240550000
H                 -3.2218880000      1.5858870000     -1.8048930000
H                  1.6339520000      1.9562110000     -0.9846440000
C                  0.2937640000     -0.7977040000      0.5678280000
S                  4.3679930000      1.4067550000      0.0324660000
O                  5.2905590000      0.3747370000     -0.5415660000
O                  4.1553670000      2.5726290000     -0.8726130000
O                  4.7694980000      1.8041590000      1.4203110000
$end

$rem
BASIS  =  6-311++G(d,p)
GUI  =  2
JOB_TYPE  =  SP
METHOD  =  B3LYP
SCF_CONVERGENCE  = 8
SOLVENT_METHOD = sm12
$end

$smx
solvent dimethylformamide
charges CM5
$end





--------------------------------------------------------------
 ----------------------------------------------------------------
             Standard Nuclear Orientation (Angstroms)
    I     Atom           X                Y                Z
 ----------------------------------------------------------------
    1      C       2.7527440000     0.5738170000     0.2065040000
    2      C       2.6973260000    -0.6080330000     0.9892110000
    3      C       1.4977010000    -1.2623480000     1.1575380000
    4      C      -0.9387080000    -1.5428970000     0.7901380000
    5      O      -0.9739620000    -2.6047590000     1.5001050000
    6      C      -2.1185450000    -1.0048190000     0.1355250000
    7      C      -3.3601380000    -1.6789790000     0.2621810000
    8      C      -4.5196710000    -1.2020020000    -0.3170090000
    9      C      -4.4814130000     0.0001680000    -1.0714560000
   10      C      -3.2811350000     0.6675910000    -1.2294230000
   11      C      -2.0728670000     0.1970150000    -0.6601830000
   12      C      -0.8384360000     0.9439830000    -0.8812040000
   13      O      -0.8078000000     2.0012650000    -1.5841860000
   14      C       0.3512640000     0.3973240000    -0.2286450000
   15      C       1.6025680000     1.0561270000    -0.3836200000
   16      H       3.6068930000    -0.9839890000     1.4450990000
   17      H       1.4323350000    -2.1682950000     1.7517000000
   18      H      -3.3600880000    -2.5934860000     0.8466750000
   19      H      -5.4621120000    -1.7368090000    -0.1977740000
   20      H      -5.3951170000     0.3841720000    -1.5240550000
   21      H      -3.2218880000     1.5858870000    -1.8048930000
   22      H       1.6339520000     1.9562110000    -0.9846440000
   23      C       0.2937640000    -0.7977040000     0.5678280000
   24      S       4.3679930000     1.4067550000     0.0324660000
   25      O       5.2905590000     0.3747370000    -0.5415660000
   26      O       4.1553670000     2.5726290000    -0.8726130000
   27      O       4.7694980000     1.8041590000     1.4203110000
 ----------------------------------------------------------------
 Nuclear Repulsion Energy =        1569.95671399 hartrees
 There are       75 alpha and       75 beta electrons
 Requested basis set is 6-311++G(d,p)
 There are 162 shells and 497 basis functions

 Total QAlloc Memory Limit   8000 MB
 Mega-Array Size       188 MB
 MEM_STATIC part       192 MB
 A cutoff of  1.0D-11 yielded   9512 shell pairs
 There are     93367 function pairs (    100238 Cartesian)
 Smallest overlap matrix eigenvalue = 6.31E-08

 Q-Chem warning in module stvman/mkSTV.C, line 323:

 Overlap eigenvalue is smaller than square root of threshold
 Use THRESH >= 12 to get rid of this warning

 Linear dependence detected in AO basis
 Tighter screening thresholds may be required for diffuse basis sets
 Use S2THRESH > 14 and THRESH = 14 in case of SCF convergence issues
 Number of orthogonalized atomic orbitals = 490
 Maximum deviation from orthogonality = 1.170E-10

 Scale SEOQF with 1.000000e-02/1.000000e-01/1.000000e-01

 Standard Electronic Orientation quadrupole field applied
 Nucleus-field energy     =     0.0000000139 hartrees
 ================ Generating on-the-fly Promolecule Density  ================
Attempting to make child job directory: /expanse/lustre/scratch/selhajj/temp_project/qcscratch/28451189/qchem200665//Frg1/
Attempting to make child job directory: /expanse/lustre/scratch/selhajj/temp_project/qcscratch/28451189/qchem200665//Frg2/
Attempting to make child job directory: /expanse/lustre/scratch/selhajj/temp_project/qcscratch/28451189/qchem200665//Frg3/
Attempting to make child job directory: /expanse/lustre/scratch/selhajj/temp_project/qcscratch/28451189/qchem200665//Frg4/
Creating input file /expanse/lustre/scratch/selhajj/temp_project/qcscratch/28451189/qchem200665/Frg1.input
using default PutDataFrgm: nothing
calling putenv with: QCSCRATCH=/expanse/lustre/scratch/selhajj/temp_project/qcscratch/28451189/qchem200665/ 
Spawning Job For Fragment 0
Done Job For Fragment 0
calling putenv with: QCSCRATCH=/expanse/lustre/scratch/selhajj/temp_project/qcscratch/28451189 
calling putenv with: QCTHREADS=8 
Creating input file /expanse/lustre/scratch/selhajj/temp_project/qcscratch/28451189/qchem200665/Frg2.input
using default PutDataFrgm: nothing
calling putenv with: QCSCRATCH=/expanse/lustre/scratch/selhajj/temp_project/qcscratch/28451189/qchem200665/ 
Spawning Job For Fragment 1
Done Job For Fragment 1
calling putenv with: QCSCRATCH=/expanse/lustre/scratch/selhajj/temp_project/qcscratch/28451189 
calling putenv with: QCTHREADS=8 
Creating input file /expanse/lustre/scratch/selhajj/temp_project/qcscratch/28451189/qchem200665/Frg3.input
using default PutDataFrgm: nothing
calling putenv with: QCSCRATCH=/expanse/lustre/scratch/selhajj/temp_project/qcscratch/28451189/qchem200665/ 
Spawning Job For Fragment 2
Done Job For Fragment 2
calling putenv with: QCSCRATCH=/expanse/lustre/scratch/selhajj/temp_project/qcscratch/28451189 
calling putenv with: QCTHREADS=8 
Creating input file /expanse/lustre/scratch/selhajj/temp_project/qcscratch/28451189/qchem200665/Frg4.input
using default PutDataFrgm: nothing
calling putenv with: QCSCRATCH=/expanse/lustre/scratch/selhajj/temp_project/qcscratch/28451189/qchem200665/ 
Spawning Job For Fragment 3
Done Job For Fragment 3
calling putenv with: QCSCRATCH=/expanse/lustre/scratch/selhajj/temp_project/qcscratch/28451189 
calling putenv with: QCTHREADS=8 
 Time for running child jobs:  CPU 0.01 s  wall 7.90 s
 ============= Method Specific Promolecule Density Constructed =============
 Guess from superposition of atomic densities
 Warning:  Energy on first SCF cycle will be non-variational
 SAD guess density has 147.000000 electrons

 -----------------------------------------------------------------------
  General SCF calculation program by
  Eric Jon Sundstrom, Paul Horn, Yuezhi Mao, Dmitri Zuev, Alec White,
  David Stuck, Shaama M.S., Shane Yost, Joonho Lee, David Small,
  Daniel Levine, Susi Lehtola, Hugh Burton, Evgeny Epifanovsky,
  Bang C. Huynh
 -----------------------------------------------------------------------
 Exchange:     0.2000 Hartree-Fock + 0.0800 Slater + 0.7200 B88
 Correlation:  0.1900 VWN1RPA + 0.8100 LYP
 Using SG-1 standard quadrature grid
 using 8 threads for integral computing
 -------------------------------------------------------
 OpenMP Integral computing Module                
 Release: version 1.0, May 2013, Q-Chem Inc. Pittsburgh 
 -------------------------------------------------------
 
 SM12 calculation using CM5 charges
 Citation of the SM12 model:
 Marenich, A.V.; Cramer, C.J.; Truhlar, D.G.
 J. Chem. Theory Comput. 2013, 9, 609-612.
 iSolventCode=          91
 Solvent: dimethylformamide                                               
 
Hirshfeld: reading atomic densities from disk.
warning:  vdwdata pointer should have been initialzed before dftman
 Inaccurate integrated density:
   Number of electrons =   150
   Numerical integral  =   146.998806972490
   Relative error      =    -2.0007953517 %

 Charges (in A.U.) from CM5PAC (Nov. 11, 2011)
 -----------------------------------------------
 Center     Atomic      CM5         Hirshfeld
 Number     Number      Charge      Charge
 -----------------------------------------------
    1          6        0.007109    0.000198
    2          6       -0.053409   -0.002982
    3          6       -0.051905   -0.000758
    4          6        0.035972    0.007178
    5          8       -0.061462   -0.017084
    6          6       -0.001835    0.000081
    7          6       -0.051815   -0.000474
    8          6       -0.057351   -0.002774
    9          6       -0.057351   -0.002718
   10          6       -0.051827   -0.000510
   11          6       -0.001824    0.000090
   12          6        0.036694    0.007202
   13          8       -0.061650   -0.017069
   14          6       -0.001697   -0.000106
   15          6       -0.047721   -0.001001
   16          1        0.062368    0.002984
   17          1        0.066362    0.005423
   18          1        0.066130    0.005407
   19          1        0.057834    0.003026
   20          1        0.057905    0.003026
   21          1        0.066316    0.005418
   22          1        0.070376    0.005597
   23          6       -0.001914   -0.000060
   24         16        0.147356    0.050821
   25          8       -0.056133   -0.016258
   26          8       -0.059409   -0.017178
   27          8       -0.055925   -0.016288
 -----------------------------------------------

 Dipole moment (in Debye)
 -----------------------------------------------
                 X        Y        Z     Total
 -----------------------------------------------
 CM5         -0.7819  -0.4247   0.0947   0.8948
 Hirshfeld   -0.0908  -0.0472   0.0085   0.1027
 -----------------------------------------------

 A restricted SCF calculation will be
 performed using DIIS
 SCF converges when DIIS error is below 1.0e-08
 ---------------------------------------
  Cycle       Energy         DIIS error
 ---------------------------------------
Hirshfeld: reading atomic densities from disk.

 Charges (in A.U.) from CM5PAC (Nov. 11, 2011)
 -----------------------------------------------
 Center     Atomic      CM5         Hirshfeld
 Number     Number      Charge      Charge
 -----------------------------------------------
    1          6       -0.053521   -0.060432
    2          6       -0.207071   -0.156644
    3          6       -0.192281   -0.141135
    4          6        0.120670    0.091876
    5          8       -0.745529   -0.701152
    6          6       -0.122805   -0.120888
    7          6       -0.201574   -0.150233
    8          6       -0.210655   -0.156078
    9          6       -0.212609   -0.157976
   10          6       -0.201382   -0.150065
   11          6       -0.122391   -0.120478
   12          6        0.131756    0.102264
   13          8       -0.737781   -0.693200
   14          6       -0.110560   -0.108969
   15          6       -0.193997   -0.147277
   16          1        0.171171    0.111787
   17          1        0.164454    0.103516
   18          1        0.163320    0.102596
   19          1        0.175558    0.120750
   20          1        0.175057    0.120179
   21          1        0.163283    0.102385
   22          1        0.155999    0.091220
   23          6       -0.117541   -0.115687
   24         16        1.200290    1.103755
   25          8       -0.736379   -0.696504
   26          8       -0.717519   -0.675287
   27          8       -0.737488   -0.697851
 -----------------------------------------------

 Dipole moment (in Debye)
 -----------------------------------------------
                 X        Y        Z     Total
 -----------------------------------------------
 CM5        -17.0290  -5.9708   0.5664  18.0543
 Hirshfeld  -16.3379  -5.5933   0.4802  17.2755
 -----------------------------------------------

    1   -1317.0498256852      3.06e-02  
Hirshfeld: reading atomic densities from disk.

 Charges (in A.U.) from CM5PAC (Nov. 11, 2011)
 -----------------------------------------------
 Center     Atomic      CM5         Hirshfeld
 Number     Number      Charge      Charge
 -----------------------------------------------
    1          6       -0.260775   -0.267686
    2          6       -0.327208   -0.276781
    3          6       -0.313652   -0.262506
    4          6       -0.011666   -0.040459
    5          8        1.626388    1.670765
    6          6        0.111368    0.113285
    7          6       -0.325466   -0.274125
    8          6       -0.334135   -0.279558
    9          6       -0.325519   -0.270886
   10          6       -0.306695   -0.255378
   11          6        0.114101    0.116015
   12          6        0.019581   -0.009911
   13          8        1.669161    1.713742
   14          6        0.126068    0.127659
   15          6       -0.047818   -0.001098
   16          1       -0.482114   -0.541498
   17          1       -0.650120   -0.711059
   18          1       -0.695725   -0.756448
   19          1       -0.491398   -0.546206
   20          1       -0.476508   -0.531386
   21          1       -0.649131   -0.710029
   22          1       -0.041934   -0.106712
   23          6        0.113115    0.114969
   24         16       -0.780668   -0.877203
   25          8       -0.088161   -0.048286
   26          8       -0.077779   -0.035548
   27          8       -0.086720   -0.047083
 -----------------------------------------------

 Dipole moment (in Debye)
 -----------------------------------------------
                 X        Y        Z     Total
 -----------------------------------------------
 CM5          9.2291   9.1672  -3.1355  13.3808
 Hirshfeld    9.9202   9.5448  -3.2217  14.1383
 -----------------------------------------------

    2   -1311.4421426136      5.14e-03  
Hirshfeld: reading atomic densities from disk.

 Charges (in A.U.) from CM5PAC (Nov. 11, 2011)
 -----------------------------------------------
 Center     Atomic      CM5         Hirshfeld
 Number     Number      Charge      Charge
 -----------------------------------------------
    1          6        0.082852    0.075941
    2          6        0.025520    0.075947
    3          6       -0.094498   -0.043352
    4          6       -0.087431   -0.116225
    5          8       -0.902597   -0.858220
    6          6       -0.080299   -0.078382
    7          6       -0.077728   -0.026387
    8          6       -0.039112    0.015465
    9          6       -0.038708    0.015924
   10          6       -0.075507   -0.024190
   11          6       -0.079519   -0.077605
   12          6       -0.075132   -0.104624
   13          8       -0.892672   -0.848091
   14          6       -0.057574   -0.055983
   15          6       -0.060608   -0.013887
   16          1        0.064428    0.005045
   17          1        0.059225   -0.001714
   18          1        0.066093    0.005369
   19          1        0.061820    0.007012
   20          1        0.061331    0.006453
   21          1        0.066050    0.005152
   22          1        0.060223   -0.004555
   23          6       -0.069617   -0.067763
   24         16        0.259392    0.162857
   25          8       -0.391120   -0.351245
   26          8       -0.392407   -0.350175
   27          8       -0.392174   -0.352537
 -----------------------------------------------

 Dipole moment (in Debye)
 -----------------------------------------------
                 X        Y        Z     Total
 -----------------------------------------------
 CM5        -10.4142  -3.7589   0.6212  11.0892
 Hirshfeld   -9.7232  -3.3814   0.5350  10.3082
 -----------------------------------------------

    3   -1305.8342158719      1.18e-02  
Hirshfeld: reading atomic densities from disk.

 Charges (in A.U.) from CM5PAC (Nov. 11, 2011)
 -----------------------------------------------
 Center     Atomic      CM5         Hirshfeld
 Number     Number      Charge      Charge
 -----------------------------------------------
    1          6       -0.019432   -0.026343
    2          6       -0.107402   -0.056975
    3          6       -0.117381   -0.066234
    4          6        0.005464   -0.023330
    5          8       -0.682579   -0.638202
    6          6       -0.103683   -0.101766
    7          6       -0.116825   -0.065485
    8          6       -0.139512   -0.084935
    9          6       -0.141248   -0.086615
   10          6       -0.115103   -0.063786
   11          6       -0.103547   -0.101634
   12          6        0.016519   -0.012973
   13          8       -0.672450   -0.627869
   14          6       -0.088448   -0.086857
   15          6       -0.094135   -0.047415
   16          1        0.082846    0.023463
   17          1        0.071145    0.010207
   18          1        0.073659    0.012935
   19          1        0.076452    0.021644
   20          1        0.075884    0.021006
   21          1        0.074243    0.013345
   22          1        0.077818    0.013040
   23          6       -0.094492   -0.092637
   24         16        0.522993    0.426459
   25          8       -0.500014   -0.460139
   26          8       -0.479017   -0.436786
   27          8       -0.501484   -0.461847
 -----------------------------------------------

 Dipole moment (in Debye)
 -----------------------------------------------
                 X        Y        Z     Total
 -----------------------------------------------
 CM5        -12.4916  -4.3035   0.5151  13.2221
 Hirshfeld  -11.8005  -3.9259   0.4289  12.4438
 -----------------------------------------------

    4   -1311.6113774624      4.32e-03  
Hirshfeld: reading atomic densities from disk.

 Charges (in A.U.) from CM5PAC (Nov. 11, 2011)
 -----------------------------------------------
 Center     Atomic      CM5         Hirshfeld
 Number     Number      Charge      Charge
 -----------------------------------------------
    1          6       -0.062986   -0.069897
    2          6       -0.126752   -0.076325
    3          6       -0.151109   -0.099962
    4          6        0.009102   -0.019692
    5          8       -0.550085   -0.505707
    6          6       -0.061681   -0.059764
    7          6       -0.153071   -0.101730
    8          6       -0.148448   -0.093871
    9          6       -0.148993   -0.094360
   10          6       -0.152655   -0.101338
   11          6       -0.062073   -0.060159
   12          6        0.014081   -0.015410
   13          8       -0.543857   -0.499275
   14          6       -0.063176   -0.061585
   15          6       -0.151823   -0.105103
   16          1        0.064037    0.004654
   17          1        0.059236   -0.001703
   18          1        0.057600   -0.003124
   19          1        0.055926    0.001118
   20          1        0.055388    0.000509
   21          1        0.059369   -0.001529
   22          1        0.072114    0.007335
   23          6       -0.065859   -0.064005
   24         16        0.495562    0.399027
   25          8       -0.497047   -0.457172
   26          8       -0.504914   -0.462682
   27          8       -0.497663   -0.458026
 -----------------------------------------------

 Dipole moment (in Debye)
 -----------------------------------------------
                 X        Y        Z     Total
 -----------------------------------------------
 CM5        -14.1730  -5.0036   0.6268  15.0434
 Hirshfeld  -13.4819  -4.6261   0.5405  14.2638
 -----------------------------------------------

    5   -1312.0633924060      1.45e-03  
Hirshfeld: reading atomic densities from disk.

 Charges (in A.U.) from CM5PAC (Nov. 11, 2011)
 -----------------------------------------------
 Center     Atomic      CM5         Hirshfeld
 Number     Number      Charge      Charge
 -----------------------------------------------
    1          6       -0.061929   -0.068840
    2          6       -0.151162   -0.100736
    3          6       -0.125704   -0.074558
    4          6        0.020926   -0.007867
    5          8       -0.524832   -0.480455
    6          6       -0.104057   -0.102140
    7          6       -0.125067   -0.073726
    8          6       -0.169283   -0.114706
    9          6       -0.172573   -0.117940
   10          6       -0.122981   -0.071664
   11          6       -0.104167   -0.102254
   12          6        0.032758    0.003266
   13          8       -0.509239   -0.464658
   14          6       -0.088228   -0.086638
   15          6       -0.097475   -0.050755
   16          1        0.061762    0.002378
   17          1        0.054872   -0.006067
   18          1        0.057270   -0.003454
   19          1        0.058303    0.003495
   20          1        0.057560    0.002682
   21          1        0.058805   -0.002092
   22          1        0.066770    0.001992
   23          6       -0.092873   -0.091018
   24         16        0.497252    0.400717
   25          8       -0.521351   -0.481475
   26          8       -0.471714   -0.429482
   27          8       -0.523374   -0.483737
 -----------------------------------------------

 Dipole moment (in Debye)
 -----------------------------------------------
                 X        Y        Z     Total
 -----------------------------------------------
 CM5        -14.1695  -4.4388   0.2172  14.8501
 Hirshfeld  -13.4784  -4.0612   0.1310  14.0776
 -----------------------------------------------

    6   -1312.1328063877      4.07e-04  
Hirshfeld: reading atomic densities from disk.

 Charges (in A.U.) from CM5PAC (Nov. 11, 2011)
 -----------------------------------------------
 Center     Atomic      CM5         Hirshfeld
 Number     Number      Charge      Charge
 -----------------------------------------------
    1          6       -0.070773   -0.077684
    2          6       -0.150900   -0.100473
    3          6       -0.132745   -0.081598
    4          6        0.025238   -0.003556
    5          8       -0.522493   -0.478116
    6          6       -0.081469   -0.079552
    7          6       -0.135053   -0.083713
    8          6       -0.165093   -0.110516
    9          6       -0.166563   -0.111931
   10          6       -0.133849   -0.082532
   11          6       -0.082075   -0.080161
   12          6        0.031319    0.001828
   13          8       -0.515391   -0.470810
   14          6       -0.083741   -0.082150
   15          6       -0.122083   -0.075363
   16          1        0.061499    0.002116
   17          1        0.054112   -0.006827
   18          1        0.054860   -0.005864
   19          1        0.056550    0.001742
   20          1        0.055945    0.001067
   21          1        0.056869   -0.004028
   22          1        0.068005    0.003227
   23          6       -0.084277   -0.082423
   24         16        0.499561    0.403026
   25          8       -0.507403   -0.467528
   26          8       -0.501351   -0.459119
   27          8       -0.508428   -0.468791
 -----------------------------------------------

 Dipole moment (in Debye)
 -----------------------------------------------
                 X        Y        Z     Total
 -----------------------------------------------
 CM5        -14.5315  -4.9122   0.4761  15.3467
 Hirshfeld  -13.8404  -4.5347   0.3899  14.5696
 -----------------------------------------------

    7   -1312.1355124594      2.54e-04  
Hirshfeld: reading atomic densities from disk.

 Charges (in A.U.) from CM5PAC (Nov. 11, 2011)
 -----------------------------------------------
 Center     Atomic      CM5         Hirshfeld
 Number     Number      Charge      Charge
 -----------------------------------------------
    1          6       -0.067712   -0.074623
    2          6       -0.145895   -0.095468
    3          6       -0.137534   -0.086387
    4          6        0.019003   -0.009791
    5          8       -0.523195   -0.478818
    6          6       -0.083502   -0.081586
    7          6       -0.138464   -0.087123
    8          6       -0.161654   -0.107078
    9          6       -0.163963   -0.109330
   10          6       -0.136907   -0.085590
   11          6       -0.083745   -0.081832
   12          6        0.028435   -0.001056
   13          8       -0.510831   -0.466249
   14          6       -0.078614   -0.077023
   15          6       -0.123547   -0.076826
   16          1        0.061149    0.001766
   17          1        0.053993   -0.006946
   18          1        0.055503   -0.005220
   19          1        0.056990    0.002182
   20          1        0.056271    0.001392
   21          1        0.057410   -0.003488
   22          1        0.067779    0.003001
   23          6       -0.081525   -0.079671
   24         16        0.499172    0.402637
   25          8       -0.512852   -0.472977
   26          8       -0.491241   -0.449010
   27          8       -0.514249   -0.474612
 -----------------------------------------------

 Dipole moment (in Debye)
 -----------------------------------------------
                 X        Y        Z     Total
 -----------------------------------------------
 CM5        -14.5496  -4.7499   0.3536  15.3094
 Hirshfeld  -13.8586  -4.3724   0.2674  14.5344
 -----------------------------------------------

    8   -1312.1371039037      8.10e-05  
Hirshfeld: reading atomic densities from disk.

 Charges (in A.U.) from CM5PAC (Nov. 11, 2011)
 -----------------------------------------------
 Center     Atomic      CM5         Hirshfeld
 Number     Number      Charge      Charge
 -----------------------------------------------
    1          6       -0.068449   -0.075360
    2          6       -0.147768   -0.097341
    3          6       -0.136354   -0.085208
    4          6        0.020470   -0.008324
    5          8       -0.521831   -0.477453
    6          6       -0.083812   -0.081895
    7          6       -0.136748   -0.085407
    8          6       -0.163041   -0.108464
    9          6       -0.164861   -0.110229
   10          6       -0.135349   -0.084031
   11          6       -0.084301   -0.082387
   12          6        0.028181   -0.001310
   13          8       -0.512303   -0.467721
   14          6       -0.080336   -0.078746
   15          6       -0.121881   -0.075161
   16          1        0.061084    0.001700
   17          1        0.054026   -0.006912
   18          1        0.055681   -0.005043
   19          1        0.057335    0.002527
   20          1        0.056674    0.001795
   21          1        0.057720   -0.003178
   22          1        0.067973    0.003195
   23          6       -0.082915   -0.081061
   24         16        0.498045    0.401511
   25          8       -0.511334   -0.471459
   26          8       -0.493001   -0.450770
   27          8       -0.512627   -0.472990
 -----------------------------------------------

 Dipole moment (in Debye)
 -----------------------------------------------
                 X        Y        Z     Total
 -----------------------------------------------
 CM5        -14.5772  -4.7990   0.3825  15.3516
 Hirshfeld  -13.8861  -4.4215   0.2963  14.5761
 -----------------------------------------------

    9   -1312.1371306465      2.62e-05  
Hirshfeld: reading atomic densities from disk.

 Charges (in A.U.) from CM5PAC (Nov. 11, 2011)
 -----------------------------------------------
 Center     Atomic      CM5         Hirshfeld
 Number     Number      Charge      Charge
 -----------------------------------------------
    1          6       -0.068587   -0.075498
    2          6       -0.147766   -0.097339
    3          6       -0.136188   -0.085042
    4          6        0.020390   -0.008404
    5          8       -0.523359   -0.478982
    6          6       -0.083603   -0.081687
    7          6       -0.136964   -0.085624
    8          6       -0.162592   -0.108015
    9          6       -0.164846   -0.110213
   10          6       -0.135337   -0.084020
   11          6       -0.083840   -0.081926
   12          6        0.029398   -0.000093
   13          8       -0.511407   -0.466825
   14          6       -0.080469   -0.078878
   15          6       -0.122110   -0.075390
   16          1        0.060943    0.001560
   17          1        0.053853   -0.007086
   18          1        0.055585   -0.005138
   19          1        0.057295    0.002487
   20          1        0.056585    0.001707
   21          1        0.057578   -0.003319
   22          1        0.067850    0.003071
   23          6       -0.082898   -0.081043
   24         16        0.498486    0.401951
   25          8       -0.511653   -0.471777
   26          8       -0.493076   -0.450844
   27          8       -0.512988   -0.473351
 -----------------------------------------------

 Dipole moment (in Debye)
 -----------------------------------------------
                 X        Y        Z     Total
 -----------------------------------------------
 CM5        -14.6002  -4.7694   0.3566  15.3636
 Hirshfeld  -13.9091  -4.3919   0.2704  14.5886
 -----------------------------------------------

   10   -1312.1370217917      7.87e-06  
Hirshfeld: reading atomic densities from disk.

 Charges (in A.U.) from CM5PAC (Nov. 11, 2011)
 -----------------------------------------------
 Center     Atomic      CM5         Hirshfeld
 Number     Number      Charge      Charge
 -----------------------------------------------
    1          6       -0.068363   -0.075274
    2          6       -0.147701   -0.097274
    3          6       -0.136324   -0.085178
    4          6        0.020522   -0.008272
    5          8       -0.522573   -0.478196
    6          6       -0.083675   -0.081758
    7          6       -0.136962   -0.085621
    8          6       -0.162568   -0.107991
    9          6       -0.164599   -0.109966
   10          6       -0.135450   -0.084132
   11          6       -0.084049   -0.082135
   12          6        0.028944   -0.000548
   13          8       -0.511980   -0.467399
   14          6       -0.080389   -0.078798
   15          6       -0.122142   -0.075422
   16          1        0.060907    0.001524
   17          1        0.053779   -0.007160
   18          1        0.055584   -0.005139
   19          1        0.057346    0.002538
   20          1        0.056659    0.001781
   21          1        0.057633   -0.003265
   22          1        0.067840    0.003062
   23          6       -0.082862   -0.081008
   24         16        0.498595    0.402061
   25          8       -0.511773   -0.471898
   26          8       -0.493021   -0.450789
   27          8       -0.513097   -0.473460
 -----------------------------------------------

 Dipole moment (in Debye)
 -----------------------------------------------
                 X        Y        Z     Total
 -----------------------------------------------
 CM5        -14.6064  -4.7859   0.3663  15.3748
 Hirshfeld  -13.9153  -4.4083   0.2801  14.5996
 -----------------------------------------------

   11   -1312.1370422313      5.70e-06  
Hirshfeld: reading atomic densities from disk.

 Charges (in A.U.) from CM5PAC (Nov. 11, 2011)
 -----------------------------------------------
 Center     Atomic      CM5         Hirshfeld
 Number     Number      Charge      Charge
 -----------------------------------------------
    1          6       -0.068523   -0.075434
    2          6       -0.147725   -0.097299
    3          6       -0.136419   -0.085272
    4          6        0.020341   -0.008453
    5          8       -0.522723   -0.478346
    6          6       -0.083670   -0.081754
    7          6       -0.136931   -0.085590
    8          6       -0.162586   -0.108009
    9          6       -0.164666   -0.110033
   10          6       -0.135382   -0.084065
   11          6       -0.084029   -0.082115
   12          6        0.028886   -0.000605
   13          8       -0.511750   -0.467169
   14          6       -0.080364   -0.078773
   15          6       -0.122062   -0.075342
   16          1        0.060937    0.001553
   17          1        0.053804   -0.007135
   18          1        0.055630   -0.005093
   19          1        0.057422    0.002613
   20          1        0.056726    0.001847
   21          1        0.057673   -0.003224
   22          1        0.067861    0.003083
   23          6       -0.082915   -0.081061
   24         16        0.498461    0.401926
   25          8       -0.511683   -0.471807
   26          8       -0.493024   -0.450792
   27          8       -0.513007   -0.473370
 -----------------------------------------------

 Dipole moment (in Debye)
 -----------------------------------------------
                 X        Y        Z     Total
 -----------------------------------------------
 CM5        -14.6108  -4.7808   0.3618  15.3774
 Hirshfeld  -13.9198  -4.4032   0.2756  14.6022
 -----------------------------------------------

   12   -1312.1370057013      1.76e-06  
Hirshfeld: reading atomic densities from disk.

 Charges (in A.U.) from CM5PAC (Nov. 11, 2011)
 -----------------------------------------------
 Center     Atomic      CM5         Hirshfeld
 Number     Number      Charge      Charge
 -----------------------------------------------
    1          6       -0.068472   -0.075383
    2          6       -0.147759   -0.097332
    3          6       -0.136381   -0.085234
    4          6        0.020394   -0.008400
    5          8       -0.522742   -0.478365
    6          6       -0.083645   -0.081729
    7          6       -0.136932   -0.085591
    8          6       -0.162560   -0.107983
    9          6       -0.164637   -0.110005
   10          6       -0.135375   -0.084058
   11          6       -0.083988   -0.082075
   12          6        0.028920   -0.000572
   13          8       -0.511842   -0.467261
   14          6       -0.080409   -0.078818
   15          6       -0.122104   -0.075384
   16          1        0.060916    0.001532
   17          1        0.053776   -0.007163
   18          1        0.055624   -0.005100
   19          1        0.057431    0.002623
   20          1        0.056735    0.001857
   21          1        0.057676   -0.003221
   22          1        0.067856    0.003077
   23          6       -0.082907   -0.081053
   24         16        0.498457    0.401922
   25          8       -0.511710   -0.471834
   26          8       -0.493000   -0.450768
   27          8       -0.513040   -0.473403
 -----------------------------------------------

 Dipole moment (in Debye)
 -----------------------------------------------
                 X        Y        Z     Total
 -----------------------------------------------
 CM5        -14.6146  -4.7818   0.3616  15.3813
 Hirshfeld  -13.9236  -4.4043   0.2754  14.6061
 -----------------------------------------------

   13   -1312.1369892166      7.64e-07  
Hirshfeld: reading atomic densities from disk.

 Charges (in A.U.) from CM5PAC (Nov. 11, 2011)
 -----------------------------------------------
 Center     Atomic      CM5         Hirshfeld
 Number     Number      Charge      Charge
 -----------------------------------------------
    1          6       -0.068468   -0.075379
    2          6       -0.147732   -0.097305
    3          6       -0.136405   -0.085259
    4          6        0.020376   -0.008418
    5          8       -0.522740   -0.478362
    6          6       -0.083668   -0.081752
    7          6       -0.136932   -0.085591
    8          6       -0.162539   -0.107962
    9          6       -0.164616   -0.109983
   10          6       -0.135382   -0.084065
   11          6       -0.084023   -0.082110
   12          6        0.028920   -0.000571
   13          8       -0.511830   -0.467249
   14          6       -0.080392   -0.078801
   15          6       -0.122082   -0.075361
   16          1        0.060910    0.001526
   17          1        0.053770   -0.007169
   18          1        0.055625   -0.005099
   19          1        0.057434    0.002626
   20          1        0.056737    0.001859
   21          1        0.057679   -0.003218
   22          1        0.067852    0.003074
   23          6       -0.082919   -0.081065
   24         16        0.498477    0.401942
   25          8       -0.511710   -0.471835
   26          8       -0.493025   -0.450793
   27          8       -0.513037   -0.473400
 -----------------------------------------------

 Dipole moment (in Debye)
 -----------------------------------------------
                 X        Y        Z     Total
 -----------------------------------------------
 CM5        -14.6148  -4.7815   0.3614  15.3814
 Hirshfeld  -13.9237  -4.4040   0.2752  14.6062
 -----------------------------------------------

   14   -1312.1369848107      2.63e-07  
Hirshfeld: reading atomic densities from disk.

 Charges (in A.U.) from CM5PAC (Nov. 11, 2011)
 -----------------------------------------------
 Center     Atomic      CM5         Hirshfeld
 Number     Number      Charge      Charge
 -----------------------------------------------
    1          6       -0.068484   -0.075395
    2          6       -0.147743   -0.097316
    3          6       -0.136402   -0.085256
    4          6        0.020383   -0.008411
    5          8       -0.522740   -0.478362
    6          6       -0.083655   -0.081739
    7          6       -0.136930   -0.085589
    8          6       -0.162546   -0.107969
    9          6       -0.164622   -0.109989
   10          6       -0.135377   -0.084060
   11          6       -0.084010   -0.082096
   12          6        0.028917   -0.000575
   13          8       -0.511835   -0.467254
   14          6       -0.080396   -0.078805
   15          6       -0.122086   -0.075365
   16          1        0.060911    0.001527
   17          1        0.053770   -0.007169
   18          1        0.055625   -0.005099
   19          1        0.057435    0.002627
   20          1        0.056739    0.001861
   21          1        0.057680   -0.003217
   22          1        0.067854    0.003076
   23          6       -0.082918   -0.081064
   24         16        0.498474    0.401939
   25          8       -0.511710   -0.471834
   26          8       -0.493013   -0.450782
   27          8       -0.513039   -0.473402
 -----------------------------------------------

 Dipole moment (in Debye)
 -----------------------------------------------
                 X        Y        Z     Total
 -----------------------------------------------
 CM5        -14.6153  -4.7816   0.3613  15.3818
 Hirshfeld  -13.9242  -4.4040   0.2751  14.6066
 -----------------------------------------------

   15   -1312.1369821025      1.34e-07  
Hirshfeld: reading atomic densities from disk.

 Charges (in A.U.) from CM5PAC (Nov. 11, 2011)
 -----------------------------------------------
 Center     Atomic      CM5         Hirshfeld
 Number     Number      Charge      Charge
 -----------------------------------------------
    1          6       -0.068475   -0.075386
    2          6       -0.147743   -0.097316
    3          6       -0.136401   -0.085254
    4          6        0.020380   -0.008414
    5          8       -0.522737   -0.478360
    6          6       -0.083659   -0.081743
    7          6       -0.136931   -0.085590
    8          6       -0.162545   -0.107968
    9          6       -0.164622   -0.109989
   10          6       -0.135377   -0.084059
   11          6       -0.084010   -0.082097
   12          6        0.028916   -0.000575
   13          8       -0.511832   -0.467250
   14          6       -0.080398   -0.078808
   15          6       -0.122088   -0.075368
   16          1        0.060910    0.001526
   17          1        0.053768   -0.007170
   18          1        0.055624   -0.005099
   19          1        0.057436    0.002628
   20          1        0.056740    0.001861
   21          1        0.057681   -0.003216
   22          1        0.067854    0.003075
   23          6       -0.082917   -0.081063
   24         16        0.498472    0.401937
   25          8       -0.511710   -0.471835
   26          8       -0.493016   -0.450785
   27          8       -0.513039   -0.473402
 -----------------------------------------------

 Dipole moment (in Debye)
 -----------------------------------------------
                 X        Y        Z     Total
 -----------------------------------------------
 CM5        -14.6153  -4.7816   0.3613  15.3818
 Hirshfeld  -13.9242  -4.4040   0.2751  14.6067
 -----------------------------------------------

   16   -1312.1369819679      5.70e-08  
Hirshfeld: reading atomic densities from disk.

 Charges (in A.U.) from CM5PAC (Nov. 11, 2011)
 -----------------------------------------------
 Center     Atomic      CM5         Hirshfeld
 Number     Number      Charge      Charge
 -----------------------------------------------
    1          6       -0.068479   -0.075390
    2          6       -0.147744   -0.097317
    3          6       -0.136403   -0.085256
    4          6        0.020381   -0.008413
    5          8       -0.522736   -0.478358
    6          6       -0.083658   -0.081742
    7          6       -0.136931   -0.085590
    8          6       -0.162544   -0.107967
    9          6       -0.164621   -0.109988
   10          6       -0.135378   -0.084060
   11          6       -0.084011   -0.082097
   12          6        0.028918   -0.000573
   13          8       -0.511831   -0.467250
   14          6       -0.080397   -0.078806
   15          6       -0.122086   -0.075366
   16          1        0.060910    0.001526
   17          1        0.053768   -0.007171
   18          1        0.055624   -0.005100
   19          1        0.057436    0.002628
   20          1        0.056739    0.001861
   21          1        0.057681   -0.003217
   22          1        0.067854    0.003075
   23          6       -0.082918   -0.081064
   24         16        0.498471    0.401936
   25          8       -0.511710   -0.471834
   26          8       -0.493016   -0.450784
   27          8       -0.513040   -0.473402
 -----------------------------------------------

 Dipole moment (in Debye)
 -----------------------------------------------
                 X        Y        Z     Total
 -----------------------------------------------
 CM5        -14.6154  -4.7816   0.3613  15.3819
 Hirshfeld  -13.9243  -4.4040   0.2751  14.6067
 -----------------------------------------------

   17   -1312.1369817746      2.37e-08  
Hirshfeld: reading atomic densities from disk.

 Charges (in A.U.) from CM5PAC (Nov. 11, 2011)
 -----------------------------------------------
 Center     Atomic      CM5         Hirshfeld
 Number     Number      Charge      Charge
 -----------------------------------------------
    1          6       -0.068477   -0.075388
    2          6       -0.147743   -0.097316
    3          6       -0.136402   -0.085255
    4          6        0.020381   -0.008413
    5          8       -0.522735   -0.478358
    6          6       -0.083658   -0.081742
    7          6       -0.136931   -0.085590
    8          6       -0.162545   -0.107968
    9          6       -0.164622   -0.109989
   10          6       -0.135376   -0.084059
   11          6       -0.084011   -0.082097
   12          6        0.028917   -0.000574
   13          8       -0.511831   -0.467249
   14          6       -0.080398   -0.078807
   15          6       -0.122087   -0.075367
   16          1        0.060909    0.001526
   17          1        0.053768   -0.007171
   18          1        0.055624   -0.005100
   19          1        0.057436    0.002628
   20          1        0.056740    0.001861
   21          1        0.057681   -0.003216
   22          1        0.067854    0.003075
   23          6       -0.082918   -0.081064
   24         16        0.498472    0.401938
   25          8       -0.511710   -0.471835
   26          8       -0.493016   -0.450784
   27          8       -0.513040   -0.473402
 -----------------------------------------------

 Dipole moment (in Debye)
 -----------------------------------------------
                 X        Y        Z     Total
 -----------------------------------------------
 CM5        -14.6153  -4.7816   0.3613  15.3819
 Hirshfeld  -13.9243  -4.4040   0.2751  14.6067
 -----------------------------------------------

   18   -1312.1369817939      1.30e-08  
   19   -1312.1369817729      7.36e-09  Convergence criterion met
 ---------------------------------------
 SCF time:   CPU 5939.52s  wall 752.00s 
(1)  E-EN(liq) elect-nuc energy of solute              -1312.136981773 a.u.
(2)  G-P(liq) polarization free energy of solvation          -319.0150 kcal/mol
(3)  G-ENP(liq) elect-nuc-pol free energy of system    -1312.645364486 a.u.
(4)  G-CDS(liq) cavity-dispersion-solvent structure 
     free energy                                              -14.7450 kcal/mol
(5)  G-P-CDS(liq) = G-P(liq) + G-CDS(liq) = (2) + (4)        -333.7599 kcal/mol
(6)  G-S(liq) free energy of system = (1) + (5)        -1312.668862084 a.u.
 SCF   energy in the final basis set =    -1312.6688620838
 Total energy in the final basis set =    -1312.6688620838
 
 --------------------------------------------------------------
 
                    Orbital Energies (a.u.)
 --------------------------------------------------------------
 
 Alpha MOs
 -- Occupied --
-89.0241 -19.0693 -19.0676 -19.0676 -19.0324 -19.0314 -10.1922 -10.1891
-10.1804 -10.1760 -10.1751 -10.1721 -10.1719 -10.1718 -10.1687 -10.1683
-10.1555 -10.1552 -10.1548 -10.1535  -8.0825  -6.0453  -6.0452  -6.0442
 -1.0815  -0.9564  -0.9513  -0.9466  -0.9418  -0.8480  -0.8441  -0.7724
 -0.7447  -0.7441  -0.7303  -0.6531  -0.6385  -0.6148  -0.5869  -0.5685
 -0.5456  -0.5229  -0.5071  -0.4702  -0.4582  -0.4549  -0.4469  -0.4284
 -0.4249  -0.4231  -0.4214  -0.4032  -0.3978  -0.3915  -0.3836  -0.3687
 -0.3623  -0.3479  -0.3390  -0.3378  -0.3242  -0.3188  -0.3083  -0.3080
 -0.2750  -0.2720  -0.2689  -0.2552  -0.2436  -0.2390  -0.2303  -0.2292
 -0.2105  -0.2036  -0.1163
 -- Virtual --
 -0.0814  -0.0758  -0.0707  -0.0630  -0.0553  -0.0490  -0.0485  -0.0333
 -0.0246  -0.0106  -0.0100  -0.0065  -0.0005   0.0048   0.0073   0.0143
  0.0202   0.0254   0.0268   0.0275   0.0318   0.0367   0.0387   0.0405
  0.0419   0.0434   0.0491   0.0623   0.0669   0.0723   0.0788   0.0802
  0.0804   0.0812   0.0837   0.0884   0.0892   0.0945   0.1001   0.1077
  0.1095   0.1130   0.1215   0.1229   0.1269   0.1304   0.1398   0.1422
  0.1450   0.1524   0.1538   0.1580   0.1616   0.1684   0.1725   0.1742
  0.1768   0.1894   0.1970   0.1972   0.2025   0.2104   0.2143   0.2231
  0.2235   0.2299   0.2316   0.2344   0.2366   0.2425   0.2498   0.2516
  0.2619   0.2637   0.2680   0.2708   0.2768   0.2780   0.2818   0.2838
  0.2872   0.2897   0.2914   0.2939   0.2946   0.3015   0.3041   0.3073
  0.3124   0.3160   0.3191   0.3205   0.3227   0.3307   0.3432   0.3521
  0.3579   0.3642   0.3709   0.3800   0.3856   0.3873   0.3943   0.4000
  0.4051   0.4156   0.4207   0.4279   0.4502   0.4602   0.4836   0.4931
  0.4978   0.5046   0.5194   0.5311   0.5343   0.5433   0.5531   0.5547
  0.5596   0.5665   0.5690   0.5753   0.5806   0.5939   0.5975   0.6103
  0.6165   0.6282   0.6389   0.6444   0.6490   0.6529   0.6583   0.6663
  0.6670   0.6724   0.6809   0.6888   0.6925   0.7125   0.7243   0.7309
  0.7326   0.7397   0.7507   0.7654   0.7758   0.7782   0.7921   0.7958
  0.7997   0.8096   0.8188   0.8290   0.8438   0.8556   0.8616   0.8953
  0.8968   0.9091   0.9124   0.9315   0.9332   0.9337   0.9440   0.9529
  0.9653   0.9695   0.9813   0.9876   0.9980   1.0004   1.0059   1.0113
  1.0219   1.0304   1.0424   1.0465   1.0570   1.0583   1.0696   1.0794
  1.0905   1.1002   1.1262   1.1280   1.1339   1.1467   1.1532   1.1600
  1.1707   1.1876   1.1888   1.1929   1.1967   1.2055   1.2230   1.2330
  1.2445   1.2614   1.2618   1.2638   1.2690   1.2715   1.2789   1.2845
  1.2971   1.3270   1.3423   1.3593   1.3729   1.3848   1.3919   1.4464
  1.4914   1.4970   1.5014   1.5167   1.5229   1.5272   1.5337   1.5451
  1.5495   1.5683   1.5711   1.5922   1.6030   1.6240   1.6399   1.6417
  1.6532   1.6776   1.6814   1.6937   1.7140   1.7178   1.7375   1.7456
  1.7541   1.7654   1.7819   1.7940   1.8106   1.8164   1.8317   1.8503
  1.8676   1.8734   1.8969   1.9048   1.9199   1.9256   1.9332   1.9406
  1.9482   1.9643   1.9684   1.9746   1.9852   1.9885   1.9963   2.0021
  2.0196   2.0373   2.0713   2.0816   2.0842   2.0936   2.1178   2.1445
  2.1741   2.1970   2.2067   2.2328   2.2516   2.2847   2.2949   2.3472
  2.3510   2.3619   2.3960   2.4069   2.4279   2.4378   2.4799   2.4826
  2.5375   2.5702   2.6197   2.6338   2.6495   2.6667   2.6820   2.7107
  2.7132   2.7226   2.7331   2.7457   2.7514   2.7584   2.7773   2.7799
  2.7844   2.7848   2.7954   2.8047   2.8109   2.8204   2.8435   2.8541
  2.8652   2.8663   2.8816   2.8852   2.8892   2.8990   2.9018   2.9074
  2.9148   2.9162   2.9242   2.9285   2.9780   2.9869   2.9903   3.0061
  3.0182   3.0206   3.0585   3.0755   3.1062   3.1218   3.1551   3.1588
  3.1704   3.1893   3.2112   3.2225   3.2474   3.2820   3.2980   3.3390
  3.3492   3.3633   3.3822   3.3860   3.4258   3.4357   3.4715   3.5275
  3.5379   3.5467   3.5654   3.5676   3.5857   3.6024   3.6039   3.6292
  3.6810   3.7944   3.8165   3.8747   3.8966   4.0345   4.0613   4.1006
  4.1933   4.2186   4.3062   4.3474   4.4993   4.8301   4.8378   4.8603
  5.0350   5.0725   5.0886   5.0928   5.1217   5.1293   5.1409   5.1433
  5.1627   5.2867   5.3138   5.3252   5.3376   5.7903   5.8649   8.2180
 17.4068  17.4370  17.5235  23.5279  23.6982  23.9076  23.9252  23.9298
 23.9636  23.9756  23.9845  24.0041  24.0438  24.1156  24.1205  24.1798
 24.1858  49.9087  49.9348  50.0000  50.0958  50.1536 189.3060
 --------------------------------------------------------------
 
          Ground-State Mulliken Net Atomic Charges

     Atom                 Charge (a.u.)
  ----------------------------------------
      1 C                    -0.935446
      2 C                     0.345085
      3 C                    -0.682371
      4 C                    -2.489287
      5 O                    -0.239376
      6 C                    -0.490731
      7 C                     0.773668
      8 C                     2.646866
      9 C                     2.476741
     10 C                     0.237431
     11 C                    -0.498810
     12 C                    -2.159021
     13 O                    -0.292741
     14 C                    -1.935246
     15 C                    -0.654337
     16 H                     0.224339
     17 H                     0.173840
     18 H                     0.155340
     19 H                     0.472763
     20 H                     0.457391
     21 H                     0.121573
     22 H                     0.044491
     23 C                    -1.377712
     24 S                     1.373339
     25 O                    -0.217426
     26 O                    -0.325763
     27 O                    -0.204601
  ----------------------------------------
  Sum of atomic charges =    -3.000000

 -----------------------------------------------------------------
                    Cartesian Multipole Moments
 -----------------------------------------------------------------
    Charge (ESU x 10^10)
               -14.4096
    Dipole Moment (Debye)
         X     -15.3136      Y      -4.9083      Z       0.3142
       Tot      16.0840
    Quadrupole Moments (Debye-Ang)
        XX    -303.7424     XY     -45.8432     YY    -193.4130
        XZ      -5.1132     YZ      20.4221     ZZ    -162.5557
    Octopole Moments (Debye-Ang^2)
       XXX    -718.8335    XXY    -181.1320    XYY    -108.9937
       YYY     -63.4742    XXZ       8.7439    XYZ     -22.4069
       YYZ      -3.5691    XZZ     -71.5016    YZZ     -26.1660
       ZZZ       7.9529
    Hexadecapole Moments (Debye-Ang^3)
      XXXX  -12002.9487   XXXY   -1776.4051   XXYY   -2136.2579
      XYYY   -1162.9929   YYYY   -2155.7256   XXXZ    -376.5673
      XXYZ      33.3801   XYYZ     -92.9544   YYYZ     430.1461
      XXZZ   -1758.7558   XYZZ    -395.8645   YYZZ    -557.0122
      XZZZ    -373.7665   YZZZ     335.3018   ZZZZ    -926.3399
 -----------------------------------------------------------------
 Total job time:  762.48s(wall), 5947.04s(cpu) 
 Sat Feb  3 16:14:15 2024

        *************************************************************
        *                                                           *
        *  Thank you very much for using Q-Chem.  Have a nice day.  *
        *                                                           *
        *************************************************************


