 Entering Gaussian System, Link 0=g16
 Input=181.com
 Output=181.log
 Initial command:
 /sysapps/ubuntu-applications/gaussian/Gaussian/AVX2/g16/l1.exe "/scratch/selhajj1/4406787/Gau-1999927.inp" -scrdir="/scratch/selhajj1/4406787/"
 Entering Link 1 = /sysapps/ubuntu-applications/gaussian/Gaussian/AVX2/g16/l1.exe PID=   1999932.
  
 Copyright (c) 1988,1990,1992,1993,1995,1998,2003,2009,2016,
            Gaussian, Inc.  All Rights Reserved.
  
 This is part of the Gaussian(R) 16 program.  It is based on
 the Gaussian(R) 09 system (copyright 2009, Gaussian, Inc.),
 the Gaussian(R) 03 system (copyright 2003, Gaussian, Inc.),
 the Gaussian(R) 98 system (copyright 1998, Gaussian, Inc.),
 the Gaussian(R) 94 system (copyright 1995, Gaussian, Inc.),
 the Gaussian 92(TM) system (copyright 1992, Gaussian, Inc.),
 the Gaussian 90(TM) system (copyright 1990, Gaussian, Inc.),
 the Gaussian 88(TM) system (copyright 1988, Gaussian, Inc.),
 the Gaussian 86(TM) system (copyright 1986, Carnegie Mellon
 University), and the Gaussian 82(TM) system (copyright 1983,
 Carnegie Mellon University). Gaussian is a federally registered
 trademark of Gaussian, Inc.
  
 This software contains proprietary and confidential information,
 including trade secrets, belonging to Gaussian, Inc.
  
 This software is provided under written license and may be
 used, copied, transmitted, or stored only in accord with that
 written license.
  
 The following legend is applicable only to US Government
 contracts under FAR:
  
                    RESTRICTED RIGHTS LEGEND
  
 Use, reproduction and disclosure by the US Government is
 subject to restrictions as set forth in subparagraphs (a)
 and (c) of the Commercial Computer Software - Restricted
 Rights clause in FAR 52.227-19.
  
 Gaussian, Inc.
 340 Quinnipiac St., Bldg. 40, Wallingford CT 06492
  
  
 ---------------------------------------------------------------
 Warning -- This program may not be used in any manner that
 competes with the business of Gaussian, Inc. or will provide
 assistance to any competitor of Gaussian, Inc.  The licensee
 of this program is prohibited from giving any competitor of
 Gaussian, Inc. access to this program.  By using this program,
 the user acknowledges that Gaussian, Inc. is engaged in the
 business of creating and licensing software in the field of
 computational chemistry and represents and warrants to the
 licensee that it is not a competitor of Gaussian, Inc. and that
 it will not use this program in any manner prohibited above.
 ---------------------------------------------------------------
  

 Cite this work as:
 Gaussian 16, Revision A.03,
 M. J. Frisch, G. W. Trucks, H. B. Schlegel, G. E. Scuseria, 
 M. A. Robb, J. R. Cheeseman, G. Scalmani, V. Barone, 
 G. A. Petersson, H. Nakatsuji, X. Li, M. Caricato, A. V. Marenich, 
 J. Bloino, B. G. Janesko, R. Gomperts, B. Mennucci, H. P. Hratchian, 
 J. V. Ortiz, A. F. Izmaylov, J. L. Sonnenberg, D. Williams-Young, 
 F. Ding, F. Lipparini, F. Egidi, J. Goings, B. Peng, A. Petrone, 
 T. Henderson, D. Ranasinghe, V. G. Zakrzewski, J. Gao, N. Rega, 
 G. Zheng, W. Liang, M. Hada, M. Ehara, K. Toyota, R. Fukuda, 
 J. Hasegawa, M. Ishida, T. Nakajima, Y. Honda, O. Kitao, H. Nakai, 
 T. Vreven, K. Throssell, J. A. Montgomery, Jr., J. E. Peralta, 
 F. Ogliaro, M. J. Bearpark, J. J. Heyd, E. N. Brothers, K. N. Kudin, 
 V. N. Staroverov, T. A. Keith, R. Kobayashi, J. Normand, 
 K. Raghavachari, A. P. Rendell, J. C. Burant, S. S. Iyengar, 
 J. Tomasi, M. Cossi, J. M. Millam, M. Klene, C. Adamo, R. Cammi, 
 J. W. Ochterski, R. L. Martin, K. Morokuma, O. Farkas, 
 J. B. Foresman, and D. J. Fox, Gaussian, Inc., Wallingford CT, 2016.
 
 ******************************************
 Gaussian 16:  ES64L-G16RevA.03 25-Dec-2016
                10-Feb-2024 
 ******************************************
 %chk=181.chk
 %nproc=8
 Will use up to    8 processors via shared memory.
 %mem=30GB
 ----------------------------------------------------------------------
 #P UB3LYP/6-311++G(d,p) nosym opt freq SCRF=(PCM,Solvent=n,n-DiMethylF
 ormamide)
 ----------------------------------------------------------------------
 1/18=20,19=15,26=3,38=1/1,3;
 2/9=110,12=2,15=1,17=6,18=5,40=1/2;
 3/5=4,6=6,7=1111,11=2,25=1,30=1,70=2201,71=1,72=148,74=-5,116=2/1,2,3;
 4//1;
 5/5=2,38=5,53=148/2;
 6/7=2,8=2,9=2,10=2,28=1/1;
 7/30=1/1,2,3,16;
 1/18=20,19=15,26=3/3(2);
 2/9=110,15=1/2;
 99//99;
 2/9=110,15=1/2;
 3/5=4,6=6,7=1111,11=2,25=1,30=1,70=2205,71=1,72=148,74=-5,116=2/1,2,3;
 4/5=5,16=3,69=1/1;
 5/5=2,38=5,53=148/2;
 7/30=1/1,2,3,16;
 1/18=20,19=15,26=3/3(-5);
 2/9=110,15=1/2;
 6/7=2,8=2,9=2,10=2,19=2,28=1/1;
 99/9=1/99;
 Leave Link    1 at Sat Feb 10 15:46:29 2024, MaxMem=  4026531840 cpu:               0.6 elap:               0.1
 (Enter /sysapps/ubuntu-applications/gaussian/Gaussian/AVX2/g16/l101.exe)
 --------
 Oxidized
 --------
 Symbolic Z-matrix:
 Charge =  0 Multiplicity = 1
 N                    -2.59149  -2.27688   0.43208 
 C                    -2.33396  -0.96688   0.16107 
 C                    -3.42525  -0.08776  -0.03224 
 C                    -3.22765   1.24541  -0.28102 
 C                    -1.93482   1.79815  -0.35246 
 O                    -1.78989   3.12754  -0.59667 
 C                    -0.8212    0.96732  -0.173 
 C                     0.55589   1.53663  -0.24849 
 O                     0.7699    2.72176  -0.44492 
 C                     1.7045    0.59803  -0.07406 
 C                     3.00711   1.10398  -0.15002 
 C                     4.09509   0.25579   0.00641 
 C                     3.89299  -1.10858   0.24146 
 C                     2.604    -1.61765   0.31885 
 C                     1.5023   -0.76702   0.16142 
 C                     0.13186  -1.33257   0.25128 
 O                    -0.0036   -2.54445   0.46261 
 C                    -1.01914  -0.43134   0.08221 
 H                    -3.5332   -2.62152   0.35942 
 H                    -1.80603  -2.91284   0.49381 
 H                    -4.43428  -0.48267   0.02314 
 H                    -4.08606   1.89603  -0.42484 
 H                    -2.66318   3.52307  -0.69438 
 H                     3.13715   2.16328  -0.33259 
 H                     5.10265   0.65184  -0.05364 
 H                     4.74377  -1.76948   0.36368 
 H                     2.42253  -2.6692    0.50089 
 
 ITRead=  0  0  0  0  0  0  0  0  0  0  0  0  0  0  0  0  0  0  0  0
 ITRead=  0  0  0  0  0  0  0
 MicOpt= -1 -1 -1 -1 -1 -1 -1 -1 -1 -1 -1 -1 -1 -1 -1 -1 -1 -1 -1 -1
 MicOpt= -1 -1 -1 -1 -1 -1 -1
 NAtoms=     27 NQM=       27 NQMF=       0 NMMI=      0 NMMIF=      0
                NMic=       0 NMicF=      0.
                    Isotopes and Nuclear Properties:
 (Nuclear quadrupole moments (NQMom) in fm**2, nuclear magnetic moments (NMagM)
  in nuclear magnetons)

  Atom         1           2           3           4           5           6           7           8           9          10
 IAtWgt=          14          12          12          12          12          16          12          12          16          12
 AtmWgt=  14.0030740  12.0000000  12.0000000  12.0000000  12.0000000  15.9949146  12.0000000  12.0000000  15.9949146  12.0000000
 NucSpn=           2           0           0           0           0           0           0           0           0           0
 AtZEff=  -0.0000000  -0.0000000  -0.0000000  -0.0000000  -0.0000000  -0.0000000  -0.0000000  -0.0000000  -0.0000000  -0.0000000
 NQMom=    2.0440000   0.0000000   0.0000000   0.0000000   0.0000000   0.0000000   0.0000000   0.0000000   0.0000000   0.0000000
 NMagM=    0.4037610   0.0000000   0.0000000   0.0000000   0.0000000   0.0000000   0.0000000   0.0000000   0.0000000   0.0000000
 AtZNuc=   7.0000000   6.0000000   6.0000000   6.0000000   6.0000000   8.0000000   6.0000000   6.0000000   8.0000000   6.0000000

  Atom        11          12          13          14          15          16          17          18          19          20
 IAtWgt=          12          12          12          12          12          12          16          12           1           1
 AtmWgt=  12.0000000  12.0000000  12.0000000  12.0000000  12.0000000  12.0000000  15.9949146  12.0000000   1.0078250   1.0078250
 NucSpn=           0           0           0           0           0           0           0           0           1           1
 AtZEff=  -0.0000000  -0.0000000  -0.0000000  -0.0000000  -0.0000000  -0.0000000  -0.0000000  -0.0000000  -0.0000000  -0.0000000
 NQMom=    0.0000000   0.0000000   0.0000000   0.0000000   0.0000000   0.0000000   0.0000000   0.0000000   0.0000000   0.0000000
 NMagM=    0.0000000   0.0000000   0.0000000   0.0000000   0.0000000   0.0000000   0.0000000   0.0000000   2.7928460   2.7928460
 AtZNuc=   6.0000000   6.0000000   6.0000000   6.0000000   6.0000000   6.0000000   8.0000000   6.0000000   1.0000000   1.0000000

  Atom        21          22          23          24          25          26          27
 IAtWgt=           1           1           1           1           1           1           1
 AtmWgt=   1.0078250   1.0078250   1.0078250   1.0078250   1.0078250   1.0078250   1.0078250
 NucSpn=           1           1           1           1           1           1           1
 AtZEff=  -0.0000000  -0.0000000  -0.0000000  -0.0000000  -0.0000000  -0.0000000  -0.0000000
 NQMom=    0.0000000   0.0000000   0.0000000   0.0000000   0.0000000   0.0000000   0.0000000
 NMagM=    2.7928460   2.7928460   2.7928460   2.7928460   2.7928460   2.7928460   2.7928460
 AtZNuc=   1.0000000   1.0000000   1.0000000   1.0000000   1.0000000   1.0000000   1.0000000
 Leave Link  101 at Sat Feb 10 15:46:30 2024, MaxMem=  4026531840 cpu:               3.3 elap:               0.5
 (Enter /sysapps/ubuntu-applications/gaussian/Gaussian/AVX2/g16/l103.exe)

 GradGradGradGradGradGradGradGradGradGradGradGradGradGradGradGradGradGrad
 Berny optimization.
 Initialization pass.
                           ----------------------------
                           !    Initial Parameters    !
                           ! (Angstroms and Degrees)  !
 --------------------------                            --------------------------
 ! Name  Definition              Value          Derivative Info.                !
 --------------------------------------------------------------------------------
 ! R1    R(1,2)                  1.3623         estimate D2E/DX2                !
 ! R2    R(1,19)                 1.0054         estimate D2E/DX2                !
 ! R3    R(1,20)                 1.0125         estimate D2E/DX2                !
 ! R4    R(2,3)                  1.4146         estimate D2E/DX2                !
 ! R5    R(2,18)                 1.4219         estimate D2E/DX2                !
 ! R6    R(3,4)                  1.3705         estimate D2E/DX2                !
 ! R7    R(3,21)                 1.085          estimate D2E/DX2                !
 ! R8    R(4,5)                  1.4079         estimate D2E/DX2                !
 ! R9    R(4,22)                 1.0867         estimate D2E/DX2                !
 ! R10   R(5,6)                  1.3594         estimate D2E/DX2                !
 ! R11   R(5,7)                  1.4009         estimate D2E/DX2                !
 ! R12   R(6,23)                 0.9637         estimate D2E/DX2                !
 ! R13   R(7,8)                  1.492          estimate D2E/DX2                !
 ! R14   R(7,18)                 1.4355         estimate D2E/DX2                !
 ! R15   R(8,9)                  1.2202         estimate D2E/DX2                !
 ! R16   R(8,10)                 1.4936         estimate D2E/DX2                !
 ! R17   R(10,11)                1.3995         estimate D2E/DX2                !
 ! R18   R(10,15)                1.3999         estimate D2E/DX2                !
 ! R19   R(11,12)                1.3884         estimate D2E/DX2                !
 ! R20   R(11,24)                1.0827         estimate D2E/DX2                !
 ! R21   R(12,13)                1.3991         estimate D2E/DX2                !
 ! R22   R(12,25)                1.0843         estimate D2E/DX2                !
 ! R23   R(13,14)                1.388          estimate D2E/DX2                !
 ! R24   R(13,26)                1.0842         estimate D2E/DX2                !
 ! R25   R(14,15)                1.4007         estimate D2E/DX2                !
 ! R26   R(14,27)                1.0825         estimate D2E/DX2                !
 ! R27   R(15,16)                1.4853         estimate D2E/DX2                !
 ! R28   R(16,17)                1.2376         estimate D2E/DX2                !
 ! R29   R(16,18)                1.4716         estimate D2E/DX2                !
 ! A1    A(2,1,19)             119.4926         estimate D2E/DX2                !
 ! A2    A(2,1,20)             117.9993         estimate D2E/DX2                !
 ! A3    A(19,1,20)            121.0436         estimate D2E/DX2                !
 ! A4    A(1,2,3)              118.6169         estimate D2E/DX2                !
 ! A5    A(1,2,18)             123.231          estimate D2E/DX2                !
 ! A6    A(3,2,18)             118.145          estimate D2E/DX2                !
 ! A7    A(2,3,4)              121.2057         estimate D2E/DX2                !
 ! A8    A(2,3,21)             118.9641         estimate D2E/DX2                !
 ! A9    A(4,3,21)             119.8297         estimate D2E/DX2                !
 ! A10   A(3,4,5)              121.5695         estimate D2E/DX2                !
 ! A11   A(3,4,22)             119.5086         estimate D2E/DX2                !
 ! A12   A(5,4,22)             118.9217         estimate D2E/DX2                !
 ! A13   A(4,5,6)              119.4047         estimate D2E/DX2                !
 ! A14   A(4,5,7)              119.3814         estimate D2E/DX2                !
 ! A15   A(6,5,7)              121.2137         estimate D2E/DX2                !
 ! A16   A(5,6,23)             108.8439         estimate D2E/DX2                !
 ! A17   A(5,7,8)              120.059          estimate D2E/DX2                !
 ! A18   A(5,7,18)             119.4068         estimate D2E/DX2                !
 ! A19   A(8,7,18)             120.5341         estimate D2E/DX2                !
 ! A20   A(7,8,9)              122.7259         estimate D2E/DX2                !
 ! A21   A(7,8,10)             117.6516         estimate D2E/DX2                !
 ! A22   A(9,8,10)             119.6224         estimate D2E/DX2                !
 ! A23   A(8,10,11)            118.8342         estimate D2E/DX2                !
 ! A24   A(8,10,15)            121.4236         estimate D2E/DX2                !
 ! A25   A(11,10,15)           119.7422         estimate D2E/DX2                !
 ! A26   A(10,11,12)           120.1595         estimate D2E/DX2                !
 ! A27   A(10,11,24)           118.3361         estimate D2E/DX2                !
 ! A28   A(12,11,24)           121.5045         estimate D2E/DX2                !
 ! A29   A(11,12,13)           120.0975         estimate D2E/DX2                !
 ! A30   A(11,12,25)           119.9204         estimate D2E/DX2                !
 ! A31   A(13,12,25)           119.9821         estimate D2E/DX2                !
 ! A32   A(12,13,14)           120.076          estimate D2E/DX2                !
 ! A33   A(12,13,26)           119.9999         estimate D2E/DX2                !
 ! A34   A(14,13,26)           119.9241         estimate D2E/DX2                !
 ! A35   A(13,14,15)           120.0928         estimate D2E/DX2                !
 ! A36   A(13,14,27)           121.4209         estimate D2E/DX2                !
 ! A37   A(15,14,27)           118.4863         estimate D2E/DX2                !
 ! A38   A(10,15,14)           119.832          estimate D2E/DX2                !
 ! A39   A(10,15,16)           120.9801         estimate D2E/DX2                !
 ! A40   A(14,15,16)           119.1877         estimate D2E/DX2                !
 ! A41   A(15,16,17)           118.9585         estimate D2E/DX2                !
 ! A42   A(15,16,18)           118.7858         estimate D2E/DX2                !
 ! A43   A(17,16,18)           122.2555         estimate D2E/DX2                !
 ! A44   A(2,18,7)             120.2883         estimate D2E/DX2                !
 ! A45   A(2,18,16)            119.0925         estimate D2E/DX2                !
 ! A46   A(7,18,16)            120.616          estimate D2E/DX2                !
 ! D1    D(19,1,2,3)             8.7532         estimate D2E/DX2                !
 ! D2    D(19,1,2,18)         -172.2364         estimate D2E/DX2                !
 ! D3    D(20,1,2,3)           175.0963         estimate D2E/DX2                !
 ! D4    D(20,1,2,18)           -5.8933         estimate D2E/DX2                !
 ! D5    D(1,2,3,4)            178.6793         estimate D2E/DX2                !
 ! D6    D(1,2,3,21)            -1.0572         estimate D2E/DX2                !
 ! D7    D(18,2,3,4)            -0.3819         estimate D2E/DX2                !
 ! D8    D(18,2,3,21)          179.8815         estimate D2E/DX2                !
 ! D9    D(1,2,18,7)          -178.365          estimate D2E/DX2                !
 ! D10   D(1,2,18,16)            2.2855         estimate D2E/DX2                !
 ! D11   D(3,2,18,7)             0.6498         estimate D2E/DX2                !
 ! D12   D(3,2,18,16)         -178.6997         estimate D2E/DX2                !
 ! D13   D(2,3,4,5)             -0.1269         estimate D2E/DX2                !
 ! D14   D(2,3,4,22)          -179.9732         estimate D2E/DX2                !
 ! D15   D(21,3,4,5)           179.6073         estimate D2E/DX2                !
 ! D16   D(21,3,4,22)           -0.2389         estimate D2E/DX2                !
 ! D17   D(3,4,5,6)           -179.7515         estimate D2E/DX2                !
 ! D18   D(3,4,5,7)              0.3672         estimate D2E/DX2                !
 ! D19   D(22,4,5,6)             0.0955         estimate D2E/DX2                !
 ! D20   D(22,4,5,7)          -179.7857         estimate D2E/DX2                !
 ! D21   D(4,5,6,23)            -0.1651         estimate D2E/DX2                !
 ! D22   D(7,5,6,23)           179.7139         estimate D2E/DX2                !
 ! D23   D(4,5,7,8)            179.8704         estimate D2E/DX2                !
 ! D24   D(4,5,7,18)            -0.0891         estimate D2E/DX2                !
 ! D25   D(6,5,7,8)             -0.0087         estimate D2E/DX2                !
 ! D26   D(6,5,7,18)          -179.9681         estimate D2E/DX2                !
 ! D27   D(5,7,8,9)              1.0728         estimate D2E/DX2                !
 ! D28   D(5,7,8,10)          -178.8986         estimate D2E/DX2                !
 ! D29   D(18,7,8,9)          -178.9682         estimate D2E/DX2                !
 ! D30   D(18,7,8,10)            1.0604         estimate D2E/DX2                !
 ! D31   D(5,7,18,2)            -0.4206         estimate D2E/DX2                !
 ! D32   D(5,7,18,16)          178.919          estimate D2E/DX2                !
 ! D33   D(8,7,18,2)           179.6202         estimate D2E/DX2                !
 ! D34   D(8,7,18,16)           -1.0403         estimate D2E/DX2                !
 ! D35   D(7,8,10,11)          179.5378         estimate D2E/DX2                !
 ! D36   D(7,8,10,15)           -0.4337         estimate D2E/DX2                !
 ! D37   D(9,8,10,11)           -0.4345         estimate D2E/DX2                !
 ! D38   D(9,8,10,15)          179.594          estimate D2E/DX2                !
 ! D39   D(8,10,11,12)        -179.9213         estimate D2E/DX2                !
 ! D40   D(8,10,11,24)           0.0522         estimate D2E/DX2                !
 ! D41   D(15,10,11,12)          0.0507         estimate D2E/DX2                !
 ! D42   D(15,10,11,24)       -179.9757         estimate D2E/DX2                !
 ! D43   D(8,10,15,14)         179.9427         estimate D2E/DX2                !
 ! D44   D(8,10,15,16)          -0.2132         estimate D2E/DX2                !
 ! D45   D(11,10,15,14)         -0.0286         estimate D2E/DX2                !
 ! D46   D(11,10,15,16)        179.8155         estimate D2E/DX2                !
 ! D47   D(10,11,12,13)         -0.0366         estimate D2E/DX2                !
 ! D48   D(10,11,12,25)        179.971          estimate D2E/DX2                !
 ! D49   D(24,11,12,13)        179.9907         estimate D2E/DX2                !
 ! D50   D(24,11,12,25)         -0.0018         estimate D2E/DX2                !
 ! D51   D(11,12,13,14)          0.0002         estimate D2E/DX2                !
 ! D52   D(11,12,13,26)       -179.9812         estimate D2E/DX2                !
 ! D53   D(25,12,13,14)        179.9927         estimate D2E/DX2                !
 ! D54   D(25,12,13,26)          0.0112         estimate D2E/DX2                !
 ! D55   D(12,13,14,15)          0.0218         estimate D2E/DX2                !
 ! D56   D(12,13,14,27)       -179.9328         estimate D2E/DX2                !
 ! D57   D(26,13,14,15)       -179.9967         estimate D2E/DX2                !
 ! D58   D(26,13,14,27)          0.0486         estimate D2E/DX2                !
 ! D59   D(13,14,15,10)         -0.0075         estimate D2E/DX2                !
 ! D60   D(13,14,15,16)       -179.8544         estimate D2E/DX2                !
 ! D61   D(27,14,15,10)        179.9485         estimate D2E/DX2                !
 ! D62   D(27,14,15,16)          0.1016         estimate D2E/DX2                !
 ! D63   D(10,15,16,17)       -179.8946         estimate D2E/DX2                !
 ! D64   D(10,15,16,18)          0.2588         estimate D2E/DX2                !
 ! D65   D(14,15,16,17)         -0.0495         estimate D2E/DX2                !
 ! D66   D(14,15,16,18)       -179.8961         estimate D2E/DX2                !
 ! D67   D(15,16,18,2)         179.7232         estimate D2E/DX2                !
 ! D68   D(15,16,18,7)           0.3758         estimate D2E/DX2                !
 ! D69   D(17,16,18,2)          -0.1181         estimate D2E/DX2                !
 ! D70   D(17,16,18,7)        -179.4655         estimate D2E/DX2                !
 --------------------------------------------------------------------------------
 Trust Radius=3.00D-01 FncErr=1.00D-07 GrdErr=1.00D-06 EigMax=2.50D+02 EigMin=1.00D-04
 Number of steps in this run=    155 maximum allowed number of steps=    162.
 GradGradGradGradGradGradGradGradGradGradGradGradGradGradGradGradGradGrad

 Leave Link  103 at Sat Feb 10 15:46:30 2024, MaxMem=  4026531840 cpu:               0.3 elap:               0.1
 (Enter /sysapps/ubuntu-applications/gaussian/Gaussian/AVX2/g16/l202.exe)
                          Input orientation:                          
 ---------------------------------------------------------------------
 Center     Atomic      Atomic             Coordinates (Angstroms)
 Number     Number       Type             X           Y           Z
 ---------------------------------------------------------------------
      1          7           0       -2.591494   -2.276877    0.432078
      2          6           0       -2.333964   -0.966880    0.161072
      3          6           0       -3.425249   -0.087756   -0.032235
      4          6           0       -3.227654    1.245405   -0.281016
      5          6           0       -1.934819    1.798152   -0.352460
      6          8           0       -1.789888    3.127541   -0.596672
      7          6           0       -0.821197    0.967316   -0.173004
      8          6           0        0.555887    1.536632   -0.248489
      9          8           0        0.769901    2.721759   -0.444922
     10          6           0        1.704497    0.598033   -0.074059
     11          6           0        3.007106    1.103985   -0.150019
     12          6           0        4.095094    0.255786    0.006408
     13          6           0        3.892991   -1.108579    0.241458
     14          6           0        2.604004   -1.617646    0.318854
     15          6           0        1.502303   -0.767019    0.161416
     16          6           0        0.131861   -1.332568    0.251275
     17          8           0       -0.003595   -2.544450    0.462613
     18          6           0       -1.019141   -0.431343    0.082212
     19          1           0       -3.533198   -2.621521    0.359418
     20          1           0       -1.806034   -2.912836    0.493811
     21          1           0       -4.434279   -0.482673    0.023143
     22          1           0       -4.086062    1.896031   -0.424844
     23          1           0       -2.663177    3.523071   -0.694382
     24          1           0        3.137152    2.163275   -0.332587
     25          1           0        5.102648    0.651841   -0.053644
     26          1           0        4.743774   -1.769480    0.363681
     27          1           0        2.422531   -2.669199    0.500894
 ---------------------------------------------------------------------
                    Distance matrix (angstroms):
                    1          2          3          4          5
     1  N    0.000000
     2  C    1.362299   0.000000
     3  C    2.388092   1.414613   0.000000
     4  C    3.649613   2.426588   1.370494   0.000000
     5  C    4.201498   2.840499   2.424990   1.407855   0.000000
     6  O    5.559553   4.199343   3.651182   2.389403   1.359382
     7  C    3.744978   2.478141   2.813197   2.424878   1.400945
     8  C    4.991195   3.845329   4.305211   3.794872   2.506555
     9  O    6.087238   4.858731   5.065863   4.264614   2.859565
    10  C    5.193922   4.337442   5.175553   4.978758   3.842189
    11  C    6.566078   5.736923   6.542882   6.237739   4.994544
    12  C    7.162823   6.546115   7.528285   7.394903   6.234383
    13  C    6.591646   6.229086   7.394161   7.517832   6.539510
    14  C    5.238378   4.983164   6.230226   6.524197   5.720075
    15  C    4.371739   3.841470   4.977918   5.159272   4.319488
    16  C    2.888091   2.494425   3.779281   4.267976   3.799614
    17  O    2.601874   2.830243   4.241219   5.030958   4.822050
    18  C    2.449632   1.421893   2.433209   2.796596   2.449092
    19  H    1.005418   2.053129   2.566127   3.931492   4.753430
    20  H    1.012523   2.043568   3.298433   4.462323   4.788128
    21  H    2.604276   2.159816   1.084974   2.129486   3.404488
    22  H    4.514555   3.407258   2.127493   1.086676   2.154685
    23  H    5.908760   4.582559   3.749302   2.382702   1.903355
    24  H    7.288144   6.322553   6.944239   6.430855   5.085135
    25  H    8.247008   7.613774   8.559935   8.354517   7.136474
    26  H    7.353114   7.125980   8.349723   8.546861   7.605555
    27  H    5.029821   5.063360   6.414406   6.918099   6.298566
                    6          7          8          9         10
     6  O    0.000000
     7  C    2.405084   0.000000
     8  C    2.855676   1.492039   0.000000
     9  O    2.596191   2.384031   1.220211   0.000000
    10  C    4.345372   2.554465   1.493552   2.349728   0.000000
    11  C    5.225460   3.830811   2.491055   2.776553   1.399481
    12  C    6.575994   4.970753   3.772469   4.164328   2.416312
    13  C    7.137387   5.167658   4.286427   4.989619   2.793131
    14  C    6.531560   4.319254   3.803437   4.772601   2.423371
    15  C    5.155659   2.918631   2.523992   3.616024   1.399892
    16  C    4.929980   2.525430   2.943106   4.162854   2.511224
    17  O    6.040233   3.661282   4.180181   5.399525   3.616738
    18  C    3.704131   1.435466   2.542243   3.663413   2.915860
    19  H    6.083170   4.529699   5.863480   6.907551   6.163350
    20  H    6.138043   4.058340   5.091900   6.266205   4.997250
    21  H    4.517811   3.898115   5.390096   6.129515   6.233935
    22  H    2.611237   3.403715   4.659180   4.925709   5.944613
    23  H    0.963652   3.193213   3.808823   3.534170   5.293130
    24  H    5.027452   4.138153   2.657571   2.434831   2.137597
    25  H    7.343774   5.933440   4.636147   4.817713   3.398638
    26  H    8.221425   6.224708   5.370617   6.051176   3.877362
    27  H    7.249229   4.919365   4.662076   5.717358   3.394252
                   11         12         13         14         15
    11  C    0.000000
    12  C    1.388391   0.000000
    13  C    2.415261   1.399138   0.000000
    14  C    2.790987   2.414688   1.388030   0.000000
    15  C    2.421173   2.791545   2.416290   1.400749   0.000000
    16  C    3.790100   4.276686   3.767807   2.489443   1.485272
    17  O    4.769771   4.984847   4.158608   2.771138   2.348980
    18  C    4.315302   5.160745   4.961154   3.819751   2.544923
    19  H    7.544170   8.160536   7.579656   6.218895   5.369791
    20  H    6.302038   6.715731   5.983136   4.599626   3.957286
    21  H    7.610629   8.561297   8.353613   7.135337   5.944996
    22  H    7.142541   8.355100   8.552013   7.593155   6.218148
    23  H    6.188733   7.539263   8.081542   7.429456   6.040570
    24  H    1.082746   2.161269   3.406736   3.873498   3.391665
    25  H    2.145931   1.084265   2.156255   3.395961   3.875809
    26  H    3.396572   2.156416   1.084233   2.145618   3.398967
    27  H    3.873285   3.405513   2.159883   1.082513   2.140176
                   16         17         18         19         20
    16  C    0.000000
    17  O    1.237607   0.000000
    18  C    1.471596   2.375134   0.000000
    19  H    3.886612   3.531952   3.345774   0.000000
    20  H    2.512271   1.839964   2.635607   1.756708   0.000000
    21  H    4.650161   4.906630   3.416034   2.345144   3.610387
    22  H    5.354611   6.096883   3.883269   4.618333   5.400709
    23  H    5.681878   6.725089   4.352395   6.294715   6.600560
    24  H    4.646890   5.714832   4.917202   8.238126   7.133367
    25  H    5.360931   6.046198   6.218364   9.244639   7.793364
    26  H    4.633926   4.811224   5.922924   8.320713   6.650126
    27  H    2.663843   2.429633   4.126548   5.957600   4.235584
                   21         22         23         24         25
    21  H    0.000000
    22  H    2.445441   0.000000
    23  H    4.438201   2.178190   0.000000
    24  H    8.028334   7.228745   5.968564   0.000000
    25  H    9.604478   9.279989   8.304369   2.495078   0.000000
    26  H    9.274077   9.592901   9.164798   4.304949   2.483092
    27  H    7.212835   8.003755   8.101686   4.955621   4.303469
                   26         27
    26  H    0.000000
    27  H    2.493289   0.000000
 Symmetry turned off by external request.
 Stoichiometry    C14H9NO3
 Framework group  C1[X(C14H9NO3)]
 Deg. of freedom    75
 Full point group                 C1      NOp   1
 Rotational constants (GHZ):           0.7131785           0.3804665           0.2481251
 Leave Link  202 at Sat Feb 10 15:46:30 2024, MaxMem=  4026531840 cpu:               0.5 elap:               0.1
 (Enter /sysapps/ubuntu-applications/gaussian/Gaussian/AVX2/g16/l301.exe)
 Standard basis: 6-311++G(d,p) (5D, 7F)
 Ernie: Thresh=  0.10000D-02 Tol=  0.10000D-05 Strict=F.
   459 basis functions,   729 primitive gaussians,   477 cartesian basis functions
    62 alpha electrons       62 beta electrons
       nuclear repulsion energy      1234.4093641764 Hartrees.
 IExCor=  402 DFT=T Ex+Corr=B3LYP ExCW=0 ScaHFX=  0.200000
 ScaDFX=  0.800000  0.720000  1.000000  0.810000 ScalE2=  1.000000  1.000000
 IRadAn=      5 IRanWt=     -1 IRanGd=            0 ICorTp=0 IEmpDi=  4
 NAtoms=   27 NActive=   27 NUniq=   27 SFac= 1.00D+00 NAtFMM=   60 NAOKFM=F Big=F
 Integral buffers will be    131072 words long.
 Raffenetti 2 integral format.
 Two-electron integral symmetry is turned off.
 ------------------------------------------------------------------------------
 Polarizable Continuum Model (PCM)
 =================================
 Model                : PCM.
 Atomic radii         : UFF (Universal Force Field).
 Polarization charges : Total charges.
 Charge compensation  : None.
 Solution method      : On-the-fly selection.
 Cavity type          : Scaled VdW (van der Waals Surface) (Alpha=1.100).
 Cavity algorithm     : GePol (No added spheres)
                        Default sphere list used, NSphG=   27.
                        Lebedev-Laikov grids with approx.  5.0 points / Ang**2.
                        Smoothing algorithm: York/Karplus (Gamma=1.0000).
                        Polarization charges: spherical gaussians, with
                                              point-specific exponents (IZeta= 3).
                        Self-potential: point-specific (ISelfS= 7).
                        Self-field    : sphere-specific E.n sum rule (ISelfD= 2).
 1st derivatives      : Analytical E(r).r(x)/FMM algorithm (CHGder, D1EAlg=3).
                        Cavity 1st derivative terms included.
 Solvent              : n,n-DiMethylFormamide, Eps=  37.219000 Eps(inf)=   2.046330
 ------------------------------------------------------------------------------
 GePol: Number of generator spheres                  =      27
 GePol: Total number of spheres                      =      27
 GePol: Number of exposed spheres                    =      27 (100.00%)
 GePol: Number of points                             =    2177
 GePol: Average weight of points                     =       0.13
 GePol: Minimum weight of points                     =   0.33D-10
 GePol: Maximum weight of points                     =    0.20577
 GePol: Number of points with low weight             =     160
 GePol: Fraction of low-weight points (<1% of avg)   =       7.35%
 GePol: Cavity surface area                          =    273.287 Ang**2
 GePol: Cavity volume                                =    301.602 Ang**3
 Leave Link  301 at Sat Feb 10 15:46:31 2024, MaxMem=  4026531840 cpu:               1.3 elap:               0.3
 (Enter /sysapps/ubuntu-applications/gaussian/Gaussian/AVX2/g16/l302.exe)
 NPDir=0 NMtPBC=     1 NCelOv=     1 NCel=       1 NClECP=     1 NCelD=      1
         NCelK=      1 NCelE2=     1 NClLst=     1 CellRange=     0.0.
 One-electron integrals computed using PRISM.
 NBasis=   459 RedAO= T EigKep=  1.27D-06  NBF=   459
 NBsUse=   452 1.00D-06 EigRej=  6.63D-07 NBFU=   452
 Precomputing XC quadrature grid using
 IXCGrd= 4 IRadAn=           5 IRanWt=          -1 IRanGd=           0 AccXCQ= 0.00D+00.
 Generated NRdTot=       0 NPtTot=           0 NUsed=           0 NTot=          32
 NSgBfM=   476   476   476   476   476 MxSgAt=    27 MxSgA2=    27.
 Leave Link  302 at Sat Feb 10 15:46:32 2024, MaxMem=  4026531840 cpu:               5.1 elap:               0.8
 (Enter /sysapps/ubuntu-applications/gaussian/Gaussian/AVX2/g16/l303.exe)
 DipDrv:  MaxL=1.
 Leave Link  303 at Sat Feb 10 15:46:32 2024, MaxMem=  4026531840 cpu:               1.4 elap:               0.4
 (Enter /sysapps/ubuntu-applications/gaussian/Gaussian/AVX2/g16/l401.exe)
 ExpMin= 3.60D-02 ExpMax= 8.59D+03 ExpMxC= 1.30D+03 IAcc=3 IRadAn=         5 AccDes= 0.00D+00
 Harris functional with IExCor=  402 and IRadAn=       5 diagonalized for initial guess.
 HarFok:  IExCor=  402 AccDes= 0.00D+00 IRadAn=         5 IDoV= 1 UseB2=F ITyADJ=14
 ICtDFT=  3500011 ScaDFX=  1.000000  1.000000  1.000000  1.000000
 FoFCou: FMM=F IPFlag=           0 FMFlag=      100000 FMFlg1=           0
         NFxFlg=           0 DoJE=T BraDBF=F KetDBF=T FulRan=T
         wScrn=  0.000000 ICntrl=       500 IOpCl=  0 I1Cent=   200000004 NGrid=           0
         NMat0=    1 NMatS0=      1 NMatT0=    0 NMatD0=    1 NMtDS0=    0 NMtDT0=    0
 Symmetry not used in FoFCou.
 Harris En= -819.592155790576    
 JPrj=0 DoOrth=F DoCkMO=F.
 Initial guess <Sx>= 0.0000 <Sy>= 0.0000 <Sz>= 0.0000 <S**2>=-0.0000 S=-0.0000
 Leave Link  401 at Sat Feb 10 15:46:36 2024, MaxMem=  4026531840 cpu:              28.0 elap:               3.6
 (Enter /sysapps/ubuntu-applications/gaussian/Gaussian/AVX2/g16/l502.exe)
 Two-electron integral symmetry not used.
 UHF open shell SCF:
 Using DIIS extrapolation, IDIIS=  1040.
 NGot=  4026531840 LenX=  4026069626 LenY=  4025841620
 Requested convergence on RMS density matrix=1.00D-08 within 128 cycles.
 Requested convergence on MAX density matrix=1.00D-06.
 Requested convergence on             energy=1.00D-06.
 No special actions if energy rises.
 Fock matrices will be formed incrementally for  20 cycles.

 Cycle   1  Pass 1  IDiag  1:
 FoFJK:  IHMeth= 1 ICntrl=       0 DoSepK=F KAlg= 0 I1Cent=           0 FoldK=F
 IRaf= 860000000 NMat=       1 IRICut=       1 DoRegI=T DoRafI=F ISym2E= 0 IDoP0=0 IntGTp=1.
 FoFCou: FMM=F IPFlag=           0 FMFlag=      100000 FMFlg1=           0
         NFxFlg=           0 DoJE=F BraDBF=F KetDBF=F FulRan=T
         wScrn=  0.000000 ICntrl=         0 IOpCl=  1 I1Cent=           0 NGrid=           0
         NMat0=    1 NMatS0=      1 NMatT0=    0 NMatD0=    1 NMtDS0=    0 NMtDT0=    0
 Symmetry not used in FoFCou.
 Inv3:  Mode=1 IEnd=    14217987.
 Iteration    1 A*A^-1 deviation from unit magnitude is 2.66D-15 for   1448.
 Iteration    1 A*A^-1 deviation from orthogonality  is 1.93D-15 for    773    601.
 Iteration    1 A^-1*A deviation from unit magnitude is 3.11D-15 for    601.
 Iteration    1 A^-1*A deviation from orthogonality  is 2.55D-15 for    743    100.
 E= -819.203695078746    
 DIIS: error= 3.55D-02 at cycle   1 NSaved=   1.
 NSaved= 1 IEnMin= 1 EnMin= -819.203695078746     IErMin= 1 ErrMin= 3.55D-02
 ErrMax= 3.55D-02  0.00D+00 EMaxC= 1.00D-01 BMatC= 2.02D+00 BMatP= 2.02D+00
 IDIUse=3 WtCom= 6.45D-01 WtEn= 3.55D-01
 Coeff-Com:  0.100D+01
 Coeff-En:   0.100D+01
 Coeff:      0.100D+01
 Gap=     0.101 Goal=   None    Shift=    0.000
 Gap=     0.101 Goal=   None    Shift=    0.000
 GapD=    0.101 DampG=1.000 DampE=0.500 DampFc=0.5000 IDamp=-1.
 Damping current iteration by 5.00D-01
 RMSDP=1.40D-02 MaxDP=6.69D-01              OVMax= 2.02D-01

 Cycle   2  Pass 1  IDiag  1:
 RMSU=  6.87D-03    CP:  9.79D-01
 E= -819.332071757806     Delta-E=       -0.128376679060 Rises=F Damp=T
 DIIS: error= 1.20D-02 at cycle   2 NSaved=   2.
 NSaved= 2 IEnMin= 2 EnMin= -819.332071757806     IErMin= 2 ErrMin= 1.20D-02
 ErrMax= 1.20D-02  0.00D+00 EMaxC= 1.00D-01 BMatC= 2.56D-01 BMatP= 2.02D+00
 IDIUse=3 WtCom= 8.80D-01 WtEn= 1.20D-01
 Coeff-Com:  0.161D+00 0.839D+00
 Coeff-En:   0.276D+00 0.724D+00
 Coeff:      0.175D+00 0.825D+00
 Gap=     0.169 Goal=   None    Shift=    0.000
 Gap=     0.169 Goal=   None    Shift=    0.000
 RMSDP=7.10D-03 MaxDP=4.06D-01 DE=-1.28D-01 OVMax= 2.08D-01

 Cycle   3  Pass 1  IDiag  1:
 RMSU=  6.61D-03    CP:  9.80D-01  6.24D-01
 E= -819.527791889859     Delta-E=       -0.195720132053 Rises=F Damp=F
 DIIS: error= 1.61D-02 at cycle   3 NSaved=   3.
 NSaved= 3 IEnMin= 3 EnMin= -819.527791889859     IErMin= 2 ErrMin= 1.20D-02
 ErrMax= 1.61D-02  0.00D+00 EMaxC= 1.00D-01 BMatC= 2.92D-01 BMatP= 2.56D-01
 IDIUse=2 WtCom= 0.00D+00 WtEn= 1.00D+00
 Coeff-En:   0.000D+00 0.000D+00 0.100D+01
 Coeff:      0.000D+00 0.000D+00 0.100D+01
 Gap=     0.108 Goal=   None    Shift=    0.000
 Gap=     0.108 Goal=   None    Shift=    0.000
 RMSDP=8.70D-03 MaxDP=5.45D-01 DE=-1.96D-01 OVMax= 1.87D-01

 Cycle   4  Pass 1  IDiag  1:
 RMSU=  5.15D-03    CP:  9.75D-01  1.27D+00  1.77D-01
 E= -819.246188794060     Delta-E=        0.281603095799 Rises=F Damp=F
 DIIS: error= 4.87D-02 at cycle   4 NSaved=   4.
 NSaved= 4 IEnMin= 3 EnMin= -819.527791889859     IErMin= 2 ErrMin= 1.20D-02
 ErrMax= 4.87D-02  0.00D+00 EMaxC= 1.00D-01 BMatC= 1.71D+00 BMatP= 2.56D-01
 IDIUse=2 WtCom= 0.00D+00 WtEn= 1.00D+00
 Coeff-En:   0.000D+00 0.000D+00 0.793D+00 0.207D+00
 Coeff:      0.000D+00 0.000D+00 0.793D+00 0.207D+00
 Gap=     0.141 Goal=   None    Shift=    0.000
 Gap=     0.141 Goal=   None    Shift=    0.000
 RMSDP=4.88D-03 MaxDP=3.83D-01 DE= 2.82D-01 OVMax= 9.05D-02

 Cycle   5  Pass 1  IDiag  1:
 RMSU=  8.09D-04    CP:  9.66D-01  8.44D-01  6.06D-01  5.11D-01
 E= -819.565036062070     Delta-E=       -0.318847268010 Rises=F Damp=F
 DIIS: error= 1.16D-02 at cycle   5 NSaved=   5.
 NSaved= 5 IEnMin= 5 EnMin= -819.565036062070     IErMin= 5 ErrMin= 1.16D-02
 ErrMax= 1.16D-02  0.00D+00 EMaxC= 1.00D-01 BMatC= 1.20D-01 BMatP= 2.56D-01
 IDIUse=3 WtCom= 8.84D-01 WtEn= 1.16D-01
 Coeff-Com: -0.322D-03 0.188D-01 0.298D+00-0.893D-01 0.773D+00
 Coeff-En:   0.000D+00 0.000D+00 0.333D+00 0.000D+00 0.667D+00
 Coeff:     -0.284D-03 0.166D-01 0.302D+00-0.789D-01 0.761D+00
 Gap=     0.106 Goal=   None    Shift=    0.000
 Gap=     0.106 Goal=   None    Shift=    0.000
 RMSDP=1.92D-03 MaxDP=1.93D-01 DE=-3.19D-01 OVMax= 3.51D-02

 Cycle   6  Pass 1  IDiag  1:
 RMSU=  4.69D-04    CP:  9.54D-01  7.37D-01  7.41D-01  2.73D-01  6.86D-01
 E= -819.589782960865     Delta-E=       -0.024746898794 Rises=F Damp=F
 DIIS: error= 6.93D-04 at cycle   6 NSaved=   6.
 NSaved= 6 IEnMin= 6 EnMin= -819.589782960865     IErMin= 6 ErrMin= 6.93D-04
 ErrMax= 6.93D-04  0.00D+00 EMaxC= 1.00D-01 BMatC= 7.05D-04 BMatP= 1.20D-01
 IDIUse=3 WtCom= 9.93D-01 WtEn= 6.93D-03
 Coeff-Com: -0.261D-02 0.127D-01 0.160D+00-0.669D-01 0.492D+00 0.405D+00
 Coeff-En:   0.000D+00 0.000D+00 0.000D+00 0.000D+00 0.000D+00 0.100D+01
 Coeff:     -0.259D-02 0.126D-01 0.159D+00-0.664D-01 0.488D+00 0.409D+00
 Gap=     0.105 Goal=   None    Shift=    0.000
 Gap=     0.105 Goal=   None    Shift=    0.000
 RMSDP=2.05D-04 MaxDP=2.00D-02 DE=-2.47D-02 OVMax= 7.22D-03

 Cycle   7  Pass 1  IDiag  1:
 RMSU=  5.96D-05    CP:  9.56D-01  7.38D-01  7.46D-01  2.93D-01  7.66D-01
                    CP:  7.81D-01
 E= -819.589944712437     Delta-E=       -0.000161751572 Rises=F Damp=F
 DIIS: error= 1.63D-04 at cycle   7 NSaved=   7.
 NSaved= 7 IEnMin= 7 EnMin= -819.589944712437     IErMin= 7 ErrMin= 1.63D-04
 ErrMax= 1.63D-04  0.00D+00 EMaxC= 1.00D-01 BMatC= 3.20D-05 BMatP= 7.05D-04
 IDIUse=3 WtCom= 9.98D-01 WtEn= 1.63D-03
 Coeff-Com: -0.855D-03 0.333D-02 0.459D-01-0.238D-01 0.154D+00 0.176D+00
 Coeff-Com:  0.646D+00
 Coeff-En:   0.000D+00 0.000D+00 0.000D+00 0.000D+00 0.000D+00 0.000D+00
 Coeff-En:   0.100D+01
 Coeff:     -0.853D-03 0.333D-02 0.458D-01-0.238D-01 0.153D+00 0.176D+00
 Coeff:      0.646D+00
 Gap=     0.105 Goal=   None    Shift=    0.000
 Gap=     0.105 Goal=   None    Shift=    0.000
 RMSDP=3.94D-05 MaxDP=3.31D-03 DE=-1.62D-04 OVMax= 1.93D-03

 Cycle   8  Pass 1  IDiag  1:
 RMSU=  2.72D-05    CP:  9.56D-01  7.37D-01  7.45D-01  2.92D-01  7.63D-01
                    CP:  7.74D-01  7.08D-01
 E= -819.589950665709     Delta-E=       -0.000005953272 Rises=F Damp=F
 DIIS: error= 7.57D-05 at cycle   8 NSaved=   8.
 NSaved= 8 IEnMin= 8 EnMin= -819.589950665709     IErMin= 8 ErrMin= 7.57D-05
 ErrMax= 7.57D-05  0.00D+00 EMaxC= 1.00D-01 BMatC= 7.54D-06 BMatP= 3.20D-05
 IDIUse=1 WtCom= 1.00D+00 WtEn= 0.00D+00
 Coeff-Com:  0.846D-04-0.224D-03 0.111D-01-0.562D-02 0.346D-01 0.508D-01
 Coeff-Com:  0.400D+00 0.509D+00
 Coeff:      0.846D-04-0.224D-03 0.111D-01-0.562D-02 0.346D-01 0.508D-01
 Coeff:      0.400D+00 0.509D+00
 Gap=     0.105 Goal=   None    Shift=    0.000
 Gap=     0.105 Goal=   None    Shift=    0.000
 RMSDP=2.98D-05 MaxDP=2.59D-03 DE=-5.95D-06 OVMax= 7.53D-04

 Cycle   9  Pass 1  IDiag  1:
 RMSU=  1.26D-05    CP:  9.56D-01  7.36D-01  7.47D-01  2.93D-01  7.72D-01
                    CP:  7.41D-01  8.10D-01  5.59D-01
 E= -819.589952356977     Delta-E=       -0.000001691267 Rises=F Damp=F
 DIIS: error= 1.58D-05 at cycle   9 NSaved=   9.
 NSaved= 9 IEnMin= 9 EnMin= -819.589952356977     IErMin= 9 ErrMin= 1.58D-05
 ErrMax= 1.58D-05  0.00D+00 EMaxC= 1.00D-01 BMatC= 4.51D-07 BMatP= 7.54D-06
 IDIUse=1 WtCom= 1.00D+00 WtEn= 0.00D+00
 Coeff-Com:  0.147D-03-0.546D-03 0.294D-02-0.120D-02 0.764D-02 0.124D-01
 Coeff-Com:  0.159D+00 0.277D+00 0.542D+00
 Coeff:      0.147D-03-0.546D-03 0.294D-02-0.120D-02 0.764D-02 0.124D-01
 Coeff:      0.159D+00 0.277D+00 0.542D+00
 Gap=     0.105 Goal=   None    Shift=    0.000
 Gap=     0.105 Goal=   None    Shift=    0.000
 RMSDP=6.39D-06 MaxDP=4.49D-04 DE=-1.69D-06 OVMax= 1.59D-04

 Cycle  10  Pass 1  IDiag  1:
 RMSU=  3.37D-06    CP:  9.56D-01  7.36D-01  7.47D-01  2.93D-01  7.71D-01
                    CP:  7.46D-01  8.23D-01  5.75D-01  8.65D-01
 E= -819.589952463929     Delta-E=       -0.000000106952 Rises=F Damp=F
 DIIS: error= 3.27D-06 at cycle  10 NSaved=  10.
 NSaved=10 IEnMin=10 EnMin= -819.589952463929     IErMin=10 ErrMin= 3.27D-06
 ErrMax= 3.27D-06  0.00D+00 EMaxC= 1.00D-01 BMatC= 1.94D-08 BMatP= 4.51D-07
 IDIUse=1 WtCom= 1.00D+00 WtEn= 0.00D+00
 Coeff-Com:  0.430D-04-0.127D-03 0.165D-03-0.123D-03 0.326D-03-0.486D-04
 Coeff-Com:  0.303D-01 0.682D-01 0.223D+00 0.678D+00
 Coeff:      0.430D-04-0.127D-03 0.165D-03-0.123D-03 0.326D-03-0.486D-04
 Coeff:      0.303D-01 0.682D-01 0.223D+00 0.678D+00
 Gap=     0.105 Goal=   None    Shift=    0.000
 Gap=     0.105 Goal=   None    Shift=    0.000
 RMSDP=1.33D-06 MaxDP=7.06D-05 DE=-1.07D-07 OVMax= 3.34D-05

 Cycle  11  Pass 1  IDiag  1:
 RMSU=  7.58D-07    CP:  9.56D-01  7.36D-01  7.47D-01  2.93D-01  7.71D-01
                    CP:  7.45D-01  8.28D-01  5.77D-01  8.70D-01  8.85D-01
 E= -819.589952466592     Delta-E=       -0.000000002663 Rises=F Damp=F
 DIIS: error= 2.96D-06 at cycle  11 NSaved=  11.
 NSaved=11 IEnMin=11 EnMin= -819.589952466592     IErMin=11 ErrMin= 2.96D-06
 ErrMax= 2.96D-06  0.00D+00 EMaxC= 1.00D-01 BMatC= 8.41D-09 BMatP= 1.94D-08
 IDIUse=1 WtCom= 1.00D+00 WtEn= 0.00D+00
 Coeff-Com:  0.143D-04-0.288D-04-0.298D-03 0.812D-04-0.887D-03-0.183D-02
 Coeff-Com:  0.329D-02 0.169D-01 0.101D+00 0.474D+00 0.409D+00
 Coeff:      0.143D-04-0.288D-04-0.298D-03 0.812D-04-0.887D-03-0.183D-02
 Coeff:      0.329D-02 0.169D-01 0.101D+00 0.474D+00 0.409D+00
 Gap=     0.105 Goal=   None    Shift=    0.000
 Gap=     0.105 Goal=   None    Shift=    0.000
 RMSDP=6.17D-07 MaxDP=4.87D-05 DE=-2.66D-09 OVMax= 1.31D-05

 Cycle  12  Pass 1  IDiag  1:
 RMSU=  2.75D-07    CP:  9.56D-01  7.36D-01  7.47D-01  2.93D-01  7.71D-01
                    CP:  7.45D-01  8.28D-01  5.79D-01  8.76D-01  9.11D-01
                    CP:  6.49D-01
 E= -819.589952468247     Delta-E=       -0.000000001655 Rises=F Damp=F
 DIIS: error= 4.14D-07 at cycle  12 NSaved=  12.
 NSaved=12 IEnMin=12 EnMin= -819.589952468247     IErMin=12 ErrMin= 4.14D-07
 ErrMax= 4.14D-07  0.00D+00 EMaxC= 1.00D-01 BMatC= 2.42D-10 BMatP= 8.41D-09
 IDIUse=1 WtCom= 1.00D+00 WtEn= 0.00D+00
 Coeff-Com: -0.106D-05 0.445D-05-0.109D-03 0.318D-04-0.284D-03-0.697D-03
 Coeff-Com: -0.161D-02-0.179D-02 0.168D-01 0.116D+00 0.143D+00 0.729D+00
 Coeff:     -0.106D-05 0.445D-05-0.109D-03 0.318D-04-0.284D-03-0.697D-03
 Coeff:     -0.161D-02-0.179D-02 0.168D-01 0.116D+00 0.143D+00 0.729D+00
 Gap=     0.105 Goal=   None    Shift=    0.000
 Gap=     0.105 Goal=   None    Shift=    0.000
 RMSDP=1.63D-07 MaxDP=1.78D-05 DE=-1.66D-09 OVMax= 3.79D-06

 Cycle  13  Pass 1  IDiag  1:
 RMSU=  1.06D-07    CP:  9.56D-01  7.36D-01  7.47D-01  2.93D-01  7.71D-01
                    CP:  7.45D-01  8.28D-01  5.79D-01  8.81D-01  9.18D-01
                    CP:  6.52D-01  7.89D-01
 E= -819.589952468272     Delta-E=       -0.000000000025 Rises=F Damp=F
 DIIS: error= 2.29D-07 at cycle  13 NSaved=  13.
 NSaved=13 IEnMin=13 EnMin= -819.589952468272     IErMin=13 ErrMin= 2.29D-07
 ErrMax= 2.29D-07  0.00D+00 EMaxC= 1.00D-01 BMatC= 7.64D-11 BMatP= 2.42D-10
 IDIUse=1 WtCom= 1.00D+00 WtEn= 0.00D+00
 Coeff-Com: -0.247D-05 0.560D-05-0.205D-04 0.799D-05-0.427D-04-0.182D-03
 Coeff-Com: -0.108D-02-0.331D-02-0.275D-02 0.317D-02 0.201D-01 0.428D+00
 Coeff-Com:  0.556D+00
 Coeff:     -0.247D-05 0.560D-05-0.205D-04 0.799D-05-0.427D-04-0.182D-03
 Coeff:     -0.108D-02-0.331D-02-0.275D-02 0.317D-02 0.201D-01 0.428D+00
 Coeff:      0.556D+00
 Gap=     0.105 Goal=   None    Shift=    0.000
 Gap=     0.105 Goal=   None    Shift=    0.000
 RMSDP=8.70D-08 MaxDP=6.04D-06 DE=-2.48D-11 OVMax= 1.72D-06

 Cycle  14  Pass 1  IDiag  1:
 RMSU=  3.29D-08    CP:  9.56D-01  7.36D-01  7.47D-01  2.93D-01  7.71D-01
                    CP:  7.45D-01  8.29D-01  5.78D-01  8.83D-01  9.20D-01
                    CP:  6.63D-01  8.39D-01  9.14D-01
 E= -819.589952468295     Delta-E=       -0.000000000023 Rises=F Damp=F
 DIIS: error= 6.57D-08 at cycle  14 NSaved=  14.
 NSaved=14 IEnMin=14 EnMin= -819.589952468295     IErMin=14 ErrMin= 6.57D-08
 ErrMax= 6.57D-08  0.00D+00 EMaxC= 1.00D-01 BMatC= 6.75D-12 BMatP= 7.64D-11
 IDIUse=1 WtCom= 1.00D+00 WtEn= 0.00D+00
 Coeff-Com: -0.105D-05 0.236D-05 0.109D-05 0.354D-07 0.895D-05-0.403D-04
 Coeff-Com: -0.302D-03-0.147D-02-0.255D-02-0.103D-01-0.865D-02 0.120D+00
 Coeff-Com:  0.263D+00 0.641D+00
 Coeff:     -0.105D-05 0.236D-05 0.109D-05 0.354D-07 0.895D-05-0.403D-04
 Coeff:     -0.302D-03-0.147D-02-0.255D-02-0.103D-01-0.865D-02 0.120D+00
 Coeff:      0.263D+00 0.641D+00
 Gap=     0.105 Goal=   None    Shift=    0.000
 Gap=     0.105 Goal=   None    Shift=    0.000
 RMSDP=3.07D-08 MaxDP=1.79D-06 DE=-2.34D-11 OVMax= 6.57D-07

 Cycle  15  Pass 1  IDiag  1:
 RMSU=  1.02D-08    CP:  9.56D-01  7.36D-01  7.47D-01  2.93D-01  7.71D-01
                    CP:  7.45D-01  8.29D-01  5.78D-01  8.83D-01  9.21D-01
                    CP:  6.65D-01  8.70D-01  9.31D-01  7.51D-01
 E= -819.589952468294     Delta-E=        0.000000000002 Rises=F Damp=F
 DIIS: error= 2.50D-08 at cycle  15 NSaved=  15.
 NSaved=15 IEnMin=14 EnMin= -819.589952468295     IErMin=15 ErrMin= 2.50D-08
 ErrMax= 2.50D-08  0.00D+00 EMaxC= 1.00D-01 BMatC= 1.24D-12 BMatP= 6.75D-12
 IDIUse=1 WtCom= 1.00D+00 WtEn= 0.00D+00
 Coeff-Com: -0.288D-06 0.722D-06 0.285D-05-0.782D-06 0.910D-05-0.778D-05
 Coeff-Com: -0.491D-04-0.524D-03-0.129D-02-0.759D-02-0.980D-02 0.112D-01
 Coeff-Com:  0.824D-01 0.382D+00 0.543D+00
 Coeff:     -0.288D-06 0.722D-06 0.285D-05-0.782D-06 0.910D-05-0.778D-05
 Coeff:     -0.491D-04-0.524D-03-0.129D-02-0.759D-02-0.980D-02 0.112D-01
 Coeff:      0.824D-01 0.382D+00 0.543D+00
 Gap=     0.105 Goal=   None    Shift=    0.000
 Gap=     0.105 Goal=   None    Shift=    0.000
 RMSDP=1.10D-08 MaxDP=9.79D-07 DE= 1.59D-12 OVMax= 1.90D-07

 Cycle  16  Pass 1  IDiag  1:
 RMSU=  3.51D-09    CP:  9.56D-01  7.36D-01  7.47D-01  2.93D-01  7.71D-01
                    CP:  7.45D-01  8.29D-01  5.78D-01  8.83D-01  9.21D-01
                    CP:  6.65D-01  8.70D-01  9.53D-01  8.34D-01  8.65D-01
 E= -819.589952468301     Delta-E=       -0.000000000007 Rises=F Damp=F
 DIIS: error= 5.84D-09 at cycle  16 NSaved=  16.
 NSaved=16 IEnMin=16 EnMin= -819.589952468301     IErMin=16 ErrMin= 5.84D-09
 ErrMax= 5.84D-09  0.00D+00 EMaxC= 1.00D-01 BMatC= 7.51D-14 BMatP= 1.24D-12
 IDIUse=1 WtCom= 1.00D+00 WtEn= 0.00D+00
 Coeff-Com:  0.201D-07 0.186D-07 0.133D-05-0.478D-06 0.349D-05-0.180D-05
 Coeff-Com:  0.234D-04-0.679D-04-0.158D-03-0.176D-02-0.312D-02-0.596D-02
 Coeff-Com:  0.795D-02 0.896D-01 0.215D+00 0.698D+00
 Coeff:      0.201D-07 0.186D-07 0.133D-05-0.478D-06 0.349D-05-0.180D-05
 Coeff:      0.234D-04-0.679D-04-0.158D-03-0.176D-02-0.312D-02-0.596D-02
 Coeff:      0.795D-02 0.896D-01 0.215D+00 0.698D+00
 Gap=     0.105 Goal=   None    Shift=    0.000
 Gap=     0.105 Goal=   None    Shift=    0.000
 RMSDP=2.58D-09 MaxDP=1.31D-07 DE=-7.28D-12 OVMax= 5.69D-08

 Error on total polarization charges =  0.01648
 SCF Done:  E(UB3LYP) =  -819.589952468     A.U. after   16 cycles
            NFock= 16  Conv=0.26D-08     -V/T= 2.0040
 <Sx>= 0.0000 <Sy>= 0.0000 <Sz>= 0.0000 <S**2>=-0.0000 S=-0.0000
 <L.S>=  0.00000000000    
 KE= 8.163239235479D+02 PE=-4.382255097528D+03 EE= 1.511931857335D+03
 Annihilation of the first spin contaminant:
 S**2 before annihilation    -0.0000,   after     0.0000
 Leave Link  502 at Sat Feb 10 15:51:48 2024, MaxMem=  4026531840 cpu:            2421.9 elap:             311.8
 (Enter /sysapps/ubuntu-applications/gaussian/Gaussian/AVX2/g16/l601.exe)
 Copying SCF densities to generalized density rwf, IOpCl= 1 IROHF=0.

 **********************************************************************

            Population analysis using the SCF density.

 **********************************************************************

 Alpha  occ. eigenvalues --  -19.17042 -19.12146 -19.11794 -14.33333 -10.27537
 Alpha  occ. eigenvalues --  -10.27482 -10.26101 -10.24638 -10.20662 -10.20340
 Alpha  occ. eigenvalues --  -10.20287 -10.20266 -10.20190 -10.20001 -10.19504
 Alpha  occ. eigenvalues --  -10.19451 -10.19298 -10.19278  -1.08647  -1.05615
 Alpha  occ. eigenvalues --   -1.05404  -0.94361  -0.88645  -0.86537  -0.81033
 Alpha  occ. eigenvalues --   -0.77423  -0.77120  -0.75437  -0.68748  -0.66932
 Alpha  occ. eigenvalues --   -0.65341  -0.61954  -0.59372  -0.57937  -0.57205
 Alpha  occ. eigenvalues --   -0.54146  -0.52522  -0.50512  -0.49226  -0.48277
 Alpha  occ. eigenvalues --   -0.47617  -0.46089  -0.45837  -0.44831  -0.44497
 Alpha  occ. eigenvalues --   -0.44082  -0.42550  -0.41937  -0.41418  -0.40610
 Alpha  occ. eigenvalues --   -0.38624  -0.38565  -0.37532  -0.37057  -0.36500
 Alpha  occ. eigenvalues --   -0.31289  -0.28769  -0.27931  -0.27519  -0.27477
 Alpha  occ. eigenvalues --   -0.26473  -0.21667
 Alpha virt. eigenvalues --   -0.11130  -0.06357  -0.03683  -0.01074  -0.00760
 Alpha virt. eigenvalues --   -0.00060   0.00331   0.01649   0.01784   0.02998
 Alpha virt. eigenvalues --    0.03486   0.03862   0.04174   0.04287   0.04608
 Alpha virt. eigenvalues --    0.05634   0.06022   0.06279   0.06438   0.07225
 Alpha virt. eigenvalues --    0.07893   0.08914   0.09242   0.09363   0.09532
 Alpha virt. eigenvalues --    0.10480   0.10887   0.11140   0.11669   0.11947
 Alpha virt. eigenvalues --    0.12147   0.12286   0.12379   0.12432   0.12993
 Alpha virt. eigenvalues --    0.13463   0.13752   0.14226   0.15030   0.15664
 Alpha virt. eigenvalues --    0.16017   0.16377   0.16656   0.16782   0.17080
 Alpha virt. eigenvalues --    0.17279   0.17866   0.18249   0.18661   0.18850
 Alpha virt. eigenvalues --    0.19407   0.19863   0.20509   0.20940   0.21489
 Alpha virt. eigenvalues --    0.21781   0.22322   0.22605   0.22980   0.23026
 Alpha virt. eigenvalues --    0.23419   0.23749   0.23956   0.24490   0.24681
 Alpha virt. eigenvalues --    0.25518   0.26124   0.26568   0.26665   0.27068
 Alpha virt. eigenvalues --    0.27315   0.27740   0.27933   0.28132   0.28425
 Alpha virt. eigenvalues --    0.28914   0.29257   0.30399   0.30727   0.30791
 Alpha virt. eigenvalues --    0.31367   0.31408   0.31754   0.32230   0.32448
 Alpha virt. eigenvalues --    0.32661   0.33474   0.33691   0.34571   0.35176
 Alpha virt. eigenvalues --    0.35857   0.36362   0.37181   0.37629   0.38751
 Alpha virt. eigenvalues --    0.39109   0.39472   0.40932   0.41197   0.42562
 Alpha virt. eigenvalues --    0.43445   0.44816   0.47156   0.47777   0.49189
 Alpha virt. eigenvalues --    0.49692   0.51596   0.52408   0.52458   0.53805
 Alpha virt. eigenvalues --    0.54338   0.54805   0.54984   0.56158   0.56820
 Alpha virt. eigenvalues --    0.57695   0.58395   0.59306   0.59310   0.59517
 Alpha virt. eigenvalues --    0.60176   0.61086   0.61881   0.62458   0.62782
 Alpha virt. eigenvalues --    0.63827   0.64481   0.64876   0.65240   0.65367
 Alpha virt. eigenvalues --    0.66385   0.66496   0.68295   0.68480   0.69160
 Alpha virt. eigenvalues --    0.71337   0.72029   0.72481   0.72823   0.73580
 Alpha virt. eigenvalues --    0.75998   0.76410   0.76552   0.78445   0.78590
 Alpha virt. eigenvalues --    0.80958   0.82150   0.82279   0.84091   0.85397
 Alpha virt. eigenvalues --    0.85676   0.86491   0.86833   0.87311   0.88024
 Alpha virt. eigenvalues --    0.89008   0.89923   0.90814   0.90901   0.91901
 Alpha virt. eigenvalues --    0.92635   0.94197   0.94417   0.95785   0.96690
 Alpha virt. eigenvalues --    0.97491   0.97801   0.98625   0.99064   0.99990
 Alpha virt. eigenvalues --    1.01163   1.01423   1.03295   1.03925   1.06162
 Alpha virt. eigenvalues --    1.06411   1.07083   1.07588   1.08414   1.10220
 Alpha virt. eigenvalues --    1.10530   1.11863   1.12519   1.13899   1.14561
 Alpha virt. eigenvalues --    1.15900   1.17955   1.18790   1.19165   1.21055
 Alpha virt. eigenvalues --    1.22006   1.23349   1.23957   1.25323   1.27546
 Alpha virt. eigenvalues --    1.30075   1.32105   1.33276   1.34850   1.38801
 Alpha virt. eigenvalues --    1.40529   1.40701   1.42541   1.44537   1.46154
 Alpha virt. eigenvalues --    1.46394   1.49292   1.49781   1.49890   1.50342
 Alpha virt. eigenvalues --    1.50822   1.52057   1.53185   1.55647   1.55825
 Alpha virt. eigenvalues --    1.57140   1.58192   1.60194   1.60428   1.62589
 Alpha virt. eigenvalues --    1.64759   1.65959   1.66319   1.68189   1.69216
 Alpha virt. eigenvalues --    1.70335   1.72247   1.73415   1.73625   1.74646
 Alpha virt. eigenvalues --    1.75284   1.75478   1.79876   1.80146   1.82718
 Alpha virt. eigenvalues --    1.84002   1.85124   1.85983   1.86716   1.86931
 Alpha virt. eigenvalues --    1.89237   1.89466   1.90641   1.91022   1.92584
 Alpha virt. eigenvalues --    1.92964   1.94428   1.96223   1.96813   1.97071
 Alpha virt. eigenvalues --    1.98627   1.99582   2.01072   2.02438   2.05938
 Alpha virt. eigenvalues --    2.06008   2.07515   2.07982   2.10558   2.11378
 Alpha virt. eigenvalues --    2.11828   2.14796   2.15666   2.18991   2.24388
 Alpha virt. eigenvalues --    2.28014   2.28613   2.29108   2.30404   2.35437
 Alpha virt. eigenvalues --    2.35761   2.36827   2.40853   2.42972   2.45554
 Alpha virt. eigenvalues --    2.46550   2.47656   2.48786   2.51355   2.54854
 Alpha virt. eigenvalues --    2.60283   2.60860   2.61003   2.62826   2.63187
 Alpha virt. eigenvalues --    2.63837   2.67244   2.69125   2.70845   2.71675
 Alpha virt. eigenvalues --    2.72933   2.73386   2.73722   2.75115   2.75540
 Alpha virt. eigenvalues --    2.76404   2.76951   2.77693   2.77968   2.79030
 Alpha virt. eigenvalues --    2.81392   2.83286   2.83892   2.85200   2.85866
 Alpha virt. eigenvalues --    2.86987   2.88585   2.89907   2.91787   2.92899
 Alpha virt. eigenvalues --    2.93706   2.96044   2.99526   3.00073   3.04572
 Alpha virt. eigenvalues --    3.07029   3.08510   3.08881   3.10379   3.12365
 Alpha virt. eigenvalues --    3.14858   3.16996   3.17919   3.19392   3.22321
 Alpha virt. eigenvalues --    3.23346   3.25939   3.32237   3.32774   3.34470
 Alpha virt. eigenvalues --    3.35492   3.36494   3.40091   3.41519   3.45230
 Alpha virt. eigenvalues --    3.49767   3.51812   3.52449   3.54731   3.56497
 Alpha virt. eigenvalues --    3.57958   3.58214   3.65087   3.67896   3.79740
 Alpha virt. eigenvalues --    3.82272   3.84682   3.88528   3.91359   3.97562
 Alpha virt. eigenvalues --    4.03150   4.06179   4.07822   4.15717   4.19309
 Alpha virt. eigenvalues --    4.24338   4.27430   4.45342   4.75010   4.81410
 Alpha virt. eigenvalues --    4.82768   4.85217   4.99490   5.04673   5.05402
 Alpha virt. eigenvalues --    5.06680   5.26053   5.33264   5.50361   5.73190
 Alpha virt. eigenvalues --    5.78335   5.83689  23.51104  23.64976  23.86511
 Alpha virt. eigenvalues --   23.88067  23.90308  23.93440  23.94617  23.95661
 Alpha virt. eigenvalues --   23.98285  24.00771  24.06500  24.08796  24.17037
 Alpha virt. eigenvalues --   24.17619  35.68069  49.94947  50.04331  50.09165
  Beta  occ. eigenvalues --  -19.17042 -19.12146 -19.11794 -14.33333 -10.27537
  Beta  occ. eigenvalues --  -10.27482 -10.26101 -10.24638 -10.20662 -10.20340
  Beta  occ. eigenvalues --  -10.20287 -10.20266 -10.20190 -10.20001 -10.19504
  Beta  occ. eigenvalues --  -10.19451 -10.19298 -10.19278  -1.08647  -1.05615
  Beta  occ. eigenvalues --   -1.05404  -0.94361  -0.88645  -0.86537  -0.81033
  Beta  occ. eigenvalues --   -0.77423  -0.77120  -0.75437  -0.68748  -0.66932
  Beta  occ. eigenvalues --   -0.65341  -0.61954  -0.59372  -0.57937  -0.57205
  Beta  occ. eigenvalues --   -0.54146  -0.52522  -0.50512  -0.49226  -0.48277
  Beta  occ. eigenvalues --   -0.47617  -0.46089  -0.45837  -0.44831  -0.44497
  Beta  occ. eigenvalues --   -0.44082  -0.42550  -0.41937  -0.41418  -0.40610
  Beta  occ. eigenvalues --   -0.38624  -0.38565  -0.37532  -0.37057  -0.36500
  Beta  occ. eigenvalues --   -0.31289  -0.28769  -0.27931  -0.27519  -0.27477
  Beta  occ. eigenvalues --   -0.26473  -0.21667
  Beta virt. eigenvalues --   -0.11130  -0.06357  -0.03683  -0.01074  -0.00760
  Beta virt. eigenvalues --   -0.00060   0.00331   0.01649   0.01784   0.02998
  Beta virt. eigenvalues --    0.03486   0.03862   0.04174   0.04287   0.04608
  Beta virt. eigenvalues --    0.05634   0.06022   0.06279   0.06438   0.07225
  Beta virt. eigenvalues --    0.07893   0.08914   0.09242   0.09363   0.09532
  Beta virt. eigenvalues --    0.10480   0.10887   0.11140   0.11669   0.11947
  Beta virt. eigenvalues --    0.12147   0.12286   0.12379   0.12432   0.12993
  Beta virt. eigenvalues --    0.13463   0.13752   0.14226   0.15030   0.15664
  Beta virt. eigenvalues --    0.16017   0.16377   0.16656   0.16782   0.17080
  Beta virt. eigenvalues --    0.17279   0.17866   0.18249   0.18661   0.18850
  Beta virt. eigenvalues --    0.19407   0.19863   0.20509   0.20940   0.21489
  Beta virt. eigenvalues --    0.21781   0.22322   0.22605   0.22980   0.23026
  Beta virt. eigenvalues --    0.23419   0.23749   0.23956   0.24490   0.24681
  Beta virt. eigenvalues --    0.25518   0.26124   0.26568   0.26665   0.27068
  Beta virt. eigenvalues --    0.27315   0.27740   0.27933   0.28132   0.28425
  Beta virt. eigenvalues --    0.28914   0.29257   0.30399   0.30727   0.30791
  Beta virt. eigenvalues --    0.31367   0.31408   0.31754   0.32230   0.32448
  Beta virt. eigenvalues --    0.32661   0.33474   0.33691   0.34571   0.35176
  Beta virt. eigenvalues --    0.35857   0.36362   0.37181   0.37629   0.38751
  Beta virt. eigenvalues --    0.39109   0.39472   0.40932   0.41197   0.42562
  Beta virt. eigenvalues --    0.43445   0.44816   0.47156   0.47777   0.49189
  Beta virt. eigenvalues --    0.49692   0.51596   0.52408   0.52458   0.53805
  Beta virt. eigenvalues --    0.54338   0.54805   0.54984   0.56158   0.56820
  Beta virt. eigenvalues --    0.57695   0.58395   0.59306   0.59310   0.59517
  Beta virt. eigenvalues --    0.60176   0.61086   0.61881   0.62458   0.62782
  Beta virt. eigenvalues --    0.63827   0.64481   0.64876   0.65240   0.65367
  Beta virt. eigenvalues --    0.66385   0.66496   0.68295   0.68480   0.69160
  Beta virt. eigenvalues --    0.71337   0.72029   0.72481   0.72823   0.73580
  Beta virt. eigenvalues --    0.75998   0.76410   0.76552   0.78445   0.78590
  Beta virt. eigenvalues --    0.80958   0.82150   0.82279   0.84091   0.85397
  Beta virt. eigenvalues --    0.85676   0.86491   0.86833   0.87311   0.88024
  Beta virt. eigenvalues --    0.89008   0.89923   0.90814   0.90901   0.91901
  Beta virt. eigenvalues --    0.92635   0.94197   0.94417   0.95785   0.96690
  Beta virt. eigenvalues --    0.97491   0.97801   0.98625   0.99064   0.99990
  Beta virt. eigenvalues --    1.01163   1.01423   1.03295   1.03925   1.06162
  Beta virt. eigenvalues --    1.06411   1.07083   1.07588   1.08414   1.10220
  Beta virt. eigenvalues --    1.10530   1.11863   1.12519   1.13899   1.14561
  Beta virt. eigenvalues --    1.15900   1.17955   1.18790   1.19165   1.21055
  Beta virt. eigenvalues --    1.22006   1.23349   1.23957   1.25323   1.27546
  Beta virt. eigenvalues --    1.30075   1.32105   1.33276   1.34850   1.38801
  Beta virt. eigenvalues --    1.40529   1.40701   1.42541   1.44537   1.46154
  Beta virt. eigenvalues --    1.46394   1.49292   1.49781   1.49890   1.50342
  Beta virt. eigenvalues --    1.50822   1.52057   1.53185   1.55647   1.55825
  Beta virt. eigenvalues --    1.57140   1.58192   1.60194   1.60428   1.62589
  Beta virt. eigenvalues --    1.64759   1.65959   1.66319   1.68189   1.69216
  Beta virt. eigenvalues --    1.70335   1.72247   1.73415   1.73625   1.74646
  Beta virt. eigenvalues --    1.75284   1.75478   1.79876   1.80146   1.82718
  Beta virt. eigenvalues --    1.84002   1.85124   1.85983   1.86716   1.86931
  Beta virt. eigenvalues --    1.89237   1.89466   1.90641   1.91022   1.92584
  Beta virt. eigenvalues --    1.92964   1.94428   1.96223   1.96813   1.97071
  Beta virt. eigenvalues --    1.98627   1.99582   2.01072   2.02438   2.05938
  Beta virt. eigenvalues --    2.06008   2.07515   2.07982   2.10558   2.11378
  Beta virt. eigenvalues --    2.11828   2.14796   2.15666   2.18991   2.24388
  Beta virt. eigenvalues --    2.28014   2.28613   2.29108   2.30404   2.35437
  Beta virt. eigenvalues --    2.35761   2.36827   2.40853   2.42972   2.45554
  Beta virt. eigenvalues --    2.46550   2.47656   2.48786   2.51355   2.54854
  Beta virt. eigenvalues --    2.60283   2.60860   2.61003   2.62826   2.63187
  Beta virt. eigenvalues --    2.63837   2.67244   2.69125   2.70845   2.71675
  Beta virt. eigenvalues --    2.72933   2.73386   2.73722   2.75115   2.75540
  Beta virt. eigenvalues --    2.76404   2.76951   2.77693   2.77968   2.79030
  Beta virt. eigenvalues --    2.81392   2.83286   2.83892   2.85200   2.85866
  Beta virt. eigenvalues --    2.86987   2.88585   2.89907   2.91787   2.92899
  Beta virt. eigenvalues --    2.93706   2.96044   2.99526   3.00073   3.04572
  Beta virt. eigenvalues --    3.07029   3.08510   3.08881   3.10379   3.12365
  Beta virt. eigenvalues --    3.14858   3.16996   3.17919   3.19392   3.22321
  Beta virt. eigenvalues --    3.23346   3.25939   3.32237   3.32774   3.34470
  Beta virt. eigenvalues --    3.35492   3.36494   3.40091   3.41519   3.45230
  Beta virt. eigenvalues --    3.49767   3.51812   3.52449   3.54731   3.56497
  Beta virt. eigenvalues --    3.57958   3.58214   3.65087   3.67896   3.79740
  Beta virt. eigenvalues --    3.82272   3.84682   3.88528   3.91359   3.97562
  Beta virt. eigenvalues --    4.03150   4.06179   4.07822   4.15717   4.19309
  Beta virt. eigenvalues --    4.24338   4.27430   4.45342   4.75010   4.81410
  Beta virt. eigenvalues --    4.82768   4.85217   4.99490   5.04673   5.05402
  Beta virt. eigenvalues --    5.06680   5.26053   5.33264   5.50361   5.73190
  Beta virt. eigenvalues --    5.78335   5.83689  23.51104  23.64976  23.86511
  Beta virt. eigenvalues --   23.88067  23.90308  23.93440  23.94617  23.95661
  Beta virt. eigenvalues --   23.98285  24.00771  24.06500  24.08796  24.17037
  Beta virt. eigenvalues --   24.17619  35.68069  49.94947  50.04331  50.09165
          Condensed to atoms (all electrons):
               1          2          3          4          5          6
     1  N    6.848266  -0.150473  -0.236020  -0.016852  -0.002314   0.000655
     2  C   -0.150473  12.068922  -0.558360  -0.123529   1.216454   0.018616
     3  C   -0.236020  -0.558360  11.487166   1.347417  -1.222669   0.062072
     4  C   -0.016852  -0.123529   1.347417  11.316715  -0.799047   0.358062
     5  C   -0.002314   1.216454  -1.222669  -0.799047  13.231568   0.045816
     6  O    0.000655   0.018616   0.062072   0.358062   0.045816   8.099372
     7  C    0.068726  -0.662429  -0.423750  -3.226733   2.318145  -0.583671
     8  C    0.053071  -1.234012  -1.323599  -0.759394  -3.514754   0.053217
     9  O   -0.000007  -0.022558  -0.014694  -0.031302   0.059869   0.021197
    10  C    0.051401  -2.374840  -0.750709  -0.096530   0.065460   0.088156
    11  C    0.001165  -0.136758  -0.110375   0.000614   0.102727   0.021259
    12  C    0.002377  -0.222651  -0.048932   0.085452   0.261035  -0.000188
    13  C    0.000629   0.073553   0.028177  -0.020874  -0.125462   0.000114
    14  C   -0.007036   0.366960   0.037729  -0.154935  -0.465544  -0.001416
    15  C    0.001040  -0.643636   0.395797  -0.318449  -2.472974  -0.020858
    16  C    0.158347  -3.138329  -0.881483  -1.168285  -0.976190   0.009958
    17  O    0.004439  -0.082388  -0.108674  -0.004780  -0.012802  -0.000087
    18  C   -0.037259   1.701112  -1.969734  -0.159887  -1.696012  -0.103009
    19  H    0.331149   0.028152  -0.090194   0.011753   0.007404  -0.000169
    20  H    0.358483  -0.097059  -0.027101  -0.010368   0.007459   0.000293
    21  H   -0.001764  -0.243206   0.613570  -0.031625   0.019978  -0.000396
    22  H   -0.004035   0.027273  -0.045777   0.464355  -0.177064  -0.019056
    23  H   -0.000173   0.012349  -0.031636  -0.365620   0.325078   0.165476
    24  H   -0.000029   0.005553   0.001925  -0.000266  -0.017657  -0.000015
    25  H   -0.000027  -0.000265   0.000253   0.000218   0.002929   0.000006
    26  H    0.000038   0.002831   0.000350   0.000244  -0.000682  -0.000010
    27  H   -0.000802  -0.005631   0.001337  -0.003012  -0.002214   0.000023
               7          8          9         10         11         12
     1  N    0.068726   0.053071  -0.000007   0.051401   0.001165   0.002377
     2  C   -0.662429  -1.234012  -0.022558  -2.374840  -0.136758  -0.222651
     3  C   -0.423750  -1.323599  -0.014694  -0.750709  -0.110375  -0.048932
     4  C   -3.226733  -0.759394  -0.031302  -0.096530   0.000614   0.085452
     5  C    2.318145  -3.514754   0.059869   0.065460   0.102727   0.261035
     6  O   -0.583671   0.053217   0.021197   0.088156   0.021259  -0.000188
     7  C   16.261851  -1.031276  -0.001621   1.390228  -0.681347  -0.490377
     8  C   -1.031276  12.181223   0.784502   0.800288  -1.490686  -0.733984
     9  O   -0.001621   0.784502   8.216254  -0.133120   0.116635   0.038944
    10  C    1.390228   0.800288  -0.133120  22.667049   0.512293  -1.743872
    11  C   -0.681347  -1.490686   0.116635   0.512293   9.817078  -0.799477
    12  C   -0.490377  -0.733984   0.038944  -1.743872  -0.799477   8.977673
    13  C   -0.003055   0.049250  -0.009102   1.584865  -0.425004  -0.356707
    14  C   -1.620314  -0.713785  -0.022071  -3.820644   2.039416  -0.503892
    15  C   -5.846515   0.404370  -0.404932  -6.479516  -1.363512   1.780697
    16  C    0.851047   1.788846  -0.003214   1.150462  -1.158902   0.115689
    17  O   -0.204679   0.000074  -0.000062  -0.392285  -0.001562  -0.003136
    18  C   -0.718163   1.065337  -0.289543  -6.454481  -0.913617  -0.226328
    19  H   -0.007227  -0.000664  -0.000031  -0.003759   0.000904   0.000055
    20  H    0.030661   0.005284   0.000175   0.036216  -0.002459   0.001441
    21  H    0.022631  -0.034424  -0.000142  -0.005838  -0.000913  -0.000402
    22  H   -0.027568   0.055497   0.001279   0.007823   0.000944   0.000295
    23  H    0.197879  -0.064113  -0.002868  -0.026607  -0.004114   0.000424
    24  H   -0.038418   0.026677  -0.011436  -0.077350   0.347690  -0.112264
    25  H    0.007756   0.009279   0.002711  -0.005294  -0.112036   0.496645
    26  H   -0.006129  -0.006932  -0.000331  -0.005516  -0.007215  -0.061297
    27  H    0.007981   0.004676   0.000500   0.089742   0.037732   0.007812
              13         14         15         16         17         18
     1  N    0.000629  -0.007036   0.001040   0.158347   0.004439  -0.037259
     2  C    0.073553   0.366960  -0.643636  -3.138329  -0.082388   1.701112
     3  C    0.028177   0.037729   0.395797  -0.881483  -0.108674  -1.969734
     4  C   -0.020874  -0.154935  -0.318449  -1.168285  -0.004780  -0.159887
     5  C   -0.125462  -0.465544  -2.472974  -0.976190  -0.012802  -1.696012
     6  O    0.000114  -0.001416  -0.020858   0.009958  -0.000087  -0.103009
     7  C   -0.003055  -1.620314  -5.846515   0.851047  -0.204679  -0.718163
     8  C    0.049250  -0.713785   0.404370   1.788846   0.000074   1.065337
     9  O   -0.009102  -0.022071  -0.404932  -0.003214  -0.000062  -0.289543
    10  C    1.584865  -3.820644  -6.479516   1.150462  -0.392285  -6.454481
    11  C   -0.425004   2.039416  -1.363512  -1.158902  -0.001562  -0.913617
    12  C   -0.356707  -0.503892   1.780697   0.115689  -0.003136  -0.226328
    13  C    8.137031  -0.464847  -2.363078   0.211733   0.044498  -0.159655
    14  C   -0.464847  10.419118   1.769851  -1.909007   0.166889   0.276175
    15  C   -2.363078   1.769851  19.423156   0.728831  -0.408757   1.568912
    16  C    0.211733  -1.909007   0.728831  10.366347   0.714064  -0.583247
    17  O    0.044498   0.166889  -0.408757   0.714064   8.264340   0.321217
    18  C   -0.159655   0.276175   1.568912  -0.583247   0.321217  14.054370
    19  H   -0.000998   0.001369  -0.001306   0.011580   0.007345   0.032005
    20  H   -0.000736  -0.021779  -0.001729   0.080165   0.022655  -0.035046
    21  H   -0.000078  -0.000088   0.006663   0.020499   0.000403  -0.055509
    22  H    0.000077   0.000052   0.002497  -0.005932  -0.000081   0.034936
    23  H   -0.000341  -0.000623  -0.009516  -0.002730   0.000055   0.017244
    24  H    0.002073   0.037227   0.133159   0.002374   0.000548   0.037581
    25  H   -0.051495   0.001331  -0.003976  -0.010586  -0.000248  -0.007514
    26  H    0.480940  -0.092846  -0.002820   0.021195   0.002082   0.007528
    27  H   -0.135682   0.392201   0.052815  -0.040856  -0.009375  -0.061934
              19         20         21         22         23         24
     1  N    0.331149   0.358483  -0.001764  -0.004035  -0.000173  -0.000029
     2  C    0.028152  -0.097059  -0.243206   0.027273   0.012349   0.005553
     3  C   -0.090194  -0.027101   0.613570  -0.045777  -0.031636   0.001925
     4  C    0.011753  -0.010368  -0.031625   0.464355  -0.365620  -0.000266
     5  C    0.007404   0.007459   0.019978  -0.177064   0.325078  -0.017657
     6  O   -0.000169   0.000293  -0.000396  -0.019056   0.165476  -0.000015
     7  C   -0.007227   0.030661   0.022631  -0.027568   0.197879  -0.038418
     8  C   -0.000664   0.005284  -0.034424   0.055497  -0.064113   0.026677
     9  O   -0.000031   0.000175  -0.000142   0.001279  -0.002868  -0.011436
    10  C   -0.003759   0.036216  -0.005838   0.007823  -0.026607  -0.077350
    11  C    0.000904  -0.002459  -0.000913   0.000944  -0.004114   0.347690
    12  C    0.000055   0.001441  -0.000402   0.000295   0.000424  -0.112264
    13  C   -0.000998  -0.000736  -0.000078   0.000077  -0.000341   0.002073
    14  C    0.001369  -0.021779  -0.000088   0.000052  -0.000623   0.037227
    15  C   -0.001306  -0.001729   0.006663   0.002497  -0.009516   0.133159
    16  C    0.011580   0.080165   0.020499  -0.005932  -0.002730   0.002374
    17  O    0.007345   0.022655   0.000403  -0.000081   0.000055   0.000548
    18  C    0.032005  -0.035046  -0.055509   0.034936   0.017244   0.037581
    19  H    0.395271  -0.021254  -0.001080   0.000829   0.000014   0.000008
    20  H   -0.021254   0.341233   0.002261  -0.000381   0.000049  -0.000091
    21  H   -0.001080   0.002261   0.497566  -0.015357   0.000368  -0.000013
    22  H    0.000829  -0.000381  -0.015357   0.506784  -0.001334  -0.000044
    23  H    0.000014   0.000049   0.000368  -0.001334   0.489477  -0.000148
    24  H    0.000008  -0.000091  -0.000013  -0.000044  -0.000148   0.496847
    25  H    0.000003  -0.000008   0.000002  -0.000005   0.000004  -0.013647
    26  H   -0.000010  -0.000125  -0.000006   0.000003  -0.000003   0.000881
    27  H    0.000133   0.000442  -0.000004  -0.000037  -0.000008   0.001004
              25         26         27
     1  N   -0.000027   0.000038  -0.000802
     2  C   -0.000265   0.002831  -0.005631
     3  C    0.000253   0.000350   0.001337
     4  C    0.000218   0.000244  -0.003012
     5  C    0.002929  -0.000682  -0.002214
     6  O    0.000006  -0.000010   0.000023
     7  C    0.007756  -0.006129   0.007981
     8  C    0.009279  -0.006932   0.004676
     9  O    0.002711  -0.000331   0.000500
    10  C   -0.005294  -0.005516   0.089742
    11  C   -0.112036  -0.007215   0.037732
    12  C    0.496645  -0.061297   0.007812
    13  C   -0.051495   0.480940  -0.135682
    14  C    0.001331  -0.092846   0.392201
    15  C   -0.003976  -0.002820   0.052815
    16  C   -0.010586   0.021195  -0.040856
    17  O   -0.000248   0.002082  -0.009375
    18  C   -0.007514   0.007528  -0.061934
    19  H    0.000003  -0.000010   0.000133
    20  H   -0.000008  -0.000125   0.000442
    21  H    0.000002  -0.000006  -0.000004
    22  H   -0.000005   0.000003  -0.000037
    23  H    0.000004  -0.000003  -0.000008
    24  H   -0.013647   0.000881   0.001004
    25  H    0.493965  -0.013092   0.000951
    26  H   -0.013092   0.493976  -0.014752
    27  H    0.000951  -0.014752   0.492148
          Atomic-Atomic Spin Densities.
               1          2          3          4          5          6
     1  N   -0.000000   0.000000  -0.000000   0.000000   0.000000  -0.000000
     2  C    0.000000  -0.000000  -0.000000  -0.000000  -0.000000   0.000000
     3  C   -0.000000  -0.000000   0.000000  -0.000000  -0.000000   0.000000
     4  C    0.000000  -0.000000  -0.000000  -0.000000   0.000000  -0.000000
     5  C    0.000000  -0.000000  -0.000000   0.000000  -0.000000   0.000000
     6  O   -0.000000   0.000000   0.000000  -0.000000   0.000000   0.000000
     7  C    0.000000   0.000000  -0.000000   0.000000  -0.000000  -0.000000
     8  C   -0.000000   0.000000   0.000000   0.000000   0.000000  -0.000000
     9  O    0.000000  -0.000000  -0.000000   0.000000   0.000000  -0.000000
    10  C   -0.000000   0.000000  -0.000000   0.000000   0.000000  -0.000000
    11  C    0.000000   0.000000  -0.000000   0.000000   0.000000   0.000000
    12  C   -0.000000   0.000000   0.000000  -0.000000   0.000000   0.000000
    13  C   -0.000000   0.000000  -0.000000   0.000000   0.000000  -0.000000
    14  C   -0.000000   0.000000   0.000000  -0.000000  -0.000000   0.000000
    15  C   -0.000000   0.000000   0.000000  -0.000000  -0.000000  -0.000000
    16  C   -0.000000   0.000000   0.000000   0.000000   0.000000  -0.000000
    17  O   -0.000000  -0.000000   0.000000  -0.000000  -0.000000   0.000000
    18  C    0.000000  -0.000000   0.000000  -0.000000  -0.000000  -0.000000
    19  H    0.000000  -0.000000   0.000000  -0.000000   0.000000  -0.000000
    20  H   -0.000000   0.000000  -0.000000   0.000000   0.000000   0.000000
    21  H   -0.000000   0.000000   0.000000   0.000000  -0.000000   0.000000
    22  H    0.000000  -0.000000   0.000000  -0.000000   0.000000  -0.000000
    23  H    0.000000  -0.000000  -0.000000   0.000000  -0.000000  -0.000000
    24  H   -0.000000  -0.000000   0.000000  -0.000000  -0.000000  -0.000000
    25  H   -0.000000   0.000000   0.000000  -0.000000   0.000000   0.000000
    26  H   -0.000000  -0.000000   0.000000   0.000000  -0.000000  -0.000000
    27  H    0.000000   0.000000  -0.000000   0.000000   0.000000  -0.000000
               7          8          9         10         11         12
     1  N    0.000000  -0.000000   0.000000  -0.000000   0.000000  -0.000000
     2  C    0.000000   0.000000  -0.000000   0.000000   0.000000   0.000000
     3  C   -0.000000   0.000000  -0.000000  -0.000000  -0.000000   0.000000
     4  C    0.000000   0.000000   0.000000   0.000000   0.000000  -0.000000
     5  C   -0.000000   0.000000   0.000000   0.000000   0.000000   0.000000
     6  O   -0.000000  -0.000000  -0.000000  -0.000000   0.000000   0.000000
     7  C   -0.000000  -0.000000  -0.000000  -0.000000   0.000000   0.000000
     8  C   -0.000000  -0.000000  -0.000000  -0.000000  -0.000000   0.000000
     9  O   -0.000000  -0.000000   0.000000   0.000000   0.000000   0.000000
    10  C   -0.000000  -0.000000   0.000000  -0.000000  -0.000000   0.000000
    11  C    0.000000  -0.000000   0.000000  -0.000000  -0.000000   0.000000
    12  C    0.000000   0.000000   0.000000   0.000000   0.000000  -0.000000
    13  C   -0.000000  -0.000000  -0.000000  -0.000000  -0.000000   0.000000
    14  C   -0.000000   0.000000  -0.000000   0.000000   0.000000  -0.000000
    15  C    0.000000   0.000000   0.000000   0.000000   0.000000  -0.000000
    16  C   -0.000000  -0.000000   0.000000   0.000000  -0.000000   0.000000
    17  O    0.000000   0.000000  -0.000000   0.000000  -0.000000  -0.000000
    18  C    0.000000   0.000000  -0.000000   0.000000  -0.000000  -0.000000
    19  H    0.000000   0.000000  -0.000000   0.000000  -0.000000  -0.000000
    20  H   -0.000000  -0.000000   0.000000  -0.000000   0.000000   0.000000
[...]
 680,0.00017185,-0.00003554,-0.00000776,0.00003196,0.00012704,-0.000024
 86,-0.00005368,-0.00001400,0.00000123,0.00020635,0.00010412,-0.0000273
 3,0.00024141,-0.00002668,0.00027523,-0.00489629,-0.00247774,0.00026656
 ,0.00575012,-0.00289015,-0.00012740,0.00122334,0.00106169,-0.00038474,
 -0.01230250,0.01473085,-0.00312760,-0.19313404,0.23826391,-0.02683002,
 0.03242271,-0.00550808,-0.00470662,0.00462725,-0.00439833,0.00077805,0
 .00111666,0.00409659,-0.00013940,0.00059337,0.00156773,-0.00026296,0.0
 0010486,0.00030156,0.00004334,-0.00014804,-0.00007383,-0.00000788,-0.0
 0024573,-0.00079696,0.00009460,0.00006099,-0.00022980,-0.00005633,-0.0
 0012124,0.00012819,0.00003930,-0.00000337,0.00006605,-0.00003577,-0.00
 000752,-0.00013463,-0.00000878,-0.00003005,0.00000306,0.00001248,0.000
 00046,-0.00003058,-0.00004260,-0.00001991,-0.00004939,-0.00002320,0.00
 037050,0.00177232,0.00101012,-0.00015457,-0.00024454,-0.00085890,0.000
 13173,-0.00475881,-0.00061137,-0.00045104,-0.00172368,0.00131747,-0.00
 234764,-0.00581634,0.03026516,-0.03574123,0.01696473,0.00184207,-0.001
 48700,0.00029332,-0.01796741,-0.01174330,0.00189387,-0.30035878,-0.093
 05315,0.01415699,0.00017950,0.00038159,-0.00012908,0.00216938,0.000538
 32,-0.00016144,-0.00014635,-0.00043597,0.00007968,0.00037824,0.0006908
 6,-0.00010704,0.00000895,0.00007238,-0.00000588,-0.00007719,-0.0001161
 2,0.00002196,0.00000591,0.00002671,-0.00001030,-0.00002551,0.00000745,
 -0.00000190,-0.00002537,-0.00001186,0.00000192,-0.00003588,0.00002632,
 -0.00000585,-0.00009142,-0.00014265,0.00002528,-0.00029818,0.00039231,
 -0.00007601,-0.00027236,-0.00174699,0.00031220,0.00017039,0.00061841,-
 0.00010683,-0.00208787,0.00399307,-0.00077770,0.00028072,0.00138030,-0
 .00015831,0.00003721,0.00011938,-0.00000069,0.31554517,0.00111919,0.00
 179573,-0.00059265,0.01850924,0.00889717,-0.00061878,-0.09305897,-0.09
 429561,0.00963041,-0.02988554,-0.00753021,0.00184242,0.00107146,-0.003
 97633,0.00231184,-0.00151394,-0.00120788,0.00014072,-0.00023122,-0.001
 09524,0.00000910,0.00049783,0.00035102,-0.00019652,-0.00018982,-0.0002
 7970,0.00005590,-0.00005398,-0.00003567,0.00008337,-0.00004900,0.00004
 403,-0.00001594,0.00000966,-0.00003618,0.00000186,0.00003862,0.0000183
 2,-0.00000559,0.00001503,0.00007036,-0.00003304,0.00022625,-0.00027711
 ,0.00005246,0.00106546,0.00022325,-0.00008124,-0.00011184,0.00038440,-
 0.00005231,0.00229368,-0.00174985,0.00106450,-0.00031228,-0.00043131,-
 0.00005144,0.00003069,0.00002110,-0.00013506,0.10044921,0.09783093,-0.
 00004138,-0.00069708,-0.00188873,-0.00354995,-0.00089169,0.00473755,0.
 01417363,0.00969877,-0.03762740,0.00529042,0.00209908,0.00388194,-0.00
 025623,0.00230525,0.00844517,0.00027054,0.00015225,-0.00037170,0.00007
 290,0.00000557,-0.00103084,-0.00009424,-0.00020383,-0.00073925,0.00003
 435,0.00005856,0.00002534,0.00000734,0.00008536,0.00042127,0.00000709,
 -0.00001452,-0.00003265,-0.00000073,0.00000037,-0.00002660,-0.00000612
 ,-0.00000532,-0.00002027,-0.00000268,-0.00003432,-0.00010311,-0.000041
 81,0.00005500,-0.00001580,-0.00019463,-0.00011603,-0.00027909,0.000024
 94,-0.00004293,0.00010916,-0.00047683,0.00109084,0.00385024,0.00002914
 ,-0.00000762,0.00026376,0.00000283,-0.00012416,-0.00064982,-0.01529140
 ,-0.01228608,0.02588938,0.00032064,0.00033531,-0.00007427,0.00100989,-
 0.00241208,0.00037161,0.00763584,-0.00449573,0.00084083,-0.23252827,0.
 13029471,-0.02520488,-0.01780183,0.01955406,-0.00369623,0.00244209,0.0
 0141823,-0.00021809,-0.00421774,-0.00355037,0.00057727,0.00017096,0.00
 191523,-0.00034928,-0.00001598,-0.00057996,0.00010677,-0.00045231,-0.0
 0033951,0.00005773,-0.00005676,0.00018219,-0.00003580,-0.00004137,-0.0
 0002459,0.00000440,-0.00000700,0.00002648,-0.00000548,-0.00003557,0.00
 001746,-0.00000289,0.00004674,-0.00004990,0.00000530,-0.00016397,0.000
 09328,-0.00001505,-0.00000143,0.00004464,-0.00000624,0.00037901,-0.000
 94371,0.00018085,-0.00003233,0.00000011,0.00000296,0.00004526,-0.00012
 015,0.00003141,0.00082574,0.00012095,0.00003234,0.24374529,0.00163354,
 -0.00069029,0.00009206,-0.00257935,-0.00380095,0.00229062,0.02576862,-
 0.01448311,0.00359542,0.12961315,-0.15624020,0.02270461,-0.01086910,0.
 00653803,-0.00056314,-0.00146488,0.00322094,-0.00106230,-0.00201061,0.
 00005835,0.00067400,-0.00086026,0.00007089,-0.00001338,0.00023865,0.00
 044073,-0.00007297,-0.00015440,-0.00010443,-0.00000147,0.00002578,0.00
 002066,-0.00002407,-0.00000718,0.00003862,-0.00000761,-0.00001275,-0.0
 0002599,0.00000004,0.00006194,0.00003595,-0.00000868,0.00003191,-0.000
 03697,0.00007315,-0.00049108,0.00068280,-0.00021041,0.00010118,-0.0004
 7996,0.00006812,0.00005293,-0.00098966,0.00000976,-0.00000504,0.000108
 32,0.00001921,-0.00026258,-0.00034840,-0.00000680,-0.00005836,0.000938
 71,-0.00108767,-0.13927893,0.16586155,-0.00027701,0.00010591,-0.000082
 60,0.00038309,0.00228943,0.00857732,-0.00459086,0.00330413,0.00363500,
 -0.02498752,0.02279643,-0.04026910,0.00175653,-0.00028715,0.00400564,0
 .00029780,-0.00102390,-0.00240638,0.00028462,0.00064894,0.00376280,0.0
 0015664,0.00002152,0.00003987,-0.00004525,-0.00007968,0.00006047,0.000
 02639,-0.00000831,-0.00011365,-0.00000548,-0.00002109,-0.00011293,0.00
 000019,-0.00000949,-0.00000001,0.00000413,0.00000077,-0.00002630,-0.00
 001356,-0.00000843,-0.00001459,-0.00000972,0.00007297,0.00036336,0.000
 09687,-0.00021812,-0.00043832,-0.00001647,0.00007583,-0.00012161,-0.00
 000215,0.00001276,-0.00092638,-0.00000723,0.00000369,0.00016220,0.0000
 3962,-0.00001251,-0.00044628,0.00006528,-0.00108171,-0.00494407,0.0266
 1587,-0.02662294,0.02897891,-0.00039364,-0.00037517,0.00008030,0.00145
 342,0.00021480,-0.00004529,-0.00140204,0.00084710,-0.00015753,0.003197
 44,-0.00723106,0.00142144,0.00394611,-0.00214696,0.00039304,-0.4364621
 8,0.18735056,-0.03548849,0.00403667,-0.00237891,0.00045053,-0.00216825
 ,-0.00329253,0.00059342,-0.00209452,0.00270433,-0.00049802,-0.00019465
 ,0.00030291,-0.00006690,0.00009457,-0.00001582,0.00000519,-0.00002460,
 0.00009568,-0.00001581,-0.00005640,-0.00009219,0.00001379,0.00014463,0
 .00001639,0.00000242,-0.00029670,-0.00001937,-0.00000176,-0.00007070,0
 .00037997,-0.00006894,-0.00008752,-0.00058517,0.00010403,-0.00048230,-
 0.00101844,0.00017811,0.00002362,-0.00003819,0.00000095,0.00008115,0.0
 0004031,-0.00001038,-0.00003110,-0.00005006,0.00001344,-0.00124421,0.0
 0052450,0.00022947,0.43200508,-0.00006601,0.00030031,-0.00004782,-0.00
 060305,0.00015924,-0.00003720,0.00024218,-0.00077673,0.00000328,0.0032
 1570,0.00341471,-0.00079567,0.04340810,-0.03173032,0.00541494,0.135101
 22,-0.10490227,0.01835940,-0.00456786,-0.00554865,0.00135569,0.0010008
 2,-0.00011473,-0.00002885,-0.00180176,0.00038362,0.00011583,-0.0000355
 7,0.00014011,-0.00020547,-0.00010402,0.00010903,-0.00005831,0.00002118
 ,-0.00007738,0.00004219,0.00003993,0.00010384,-0.00002129,-0.00016378,
 0.00000618,0.00000628,0.00006720,-0.00002855,0.00003666,0.00037111,-0.
 00120290,0.00028987,0.00008722,0.00072516,-0.00017292,0.00117127,0.001
 08975,0.00008657,0.00000725,-0.00005568,0.00001133,-0.00003072,0.00000
 420,-0.00000438,0.00010468,0.00033093,-0.00004555,-0.00222267,-0.00082
 370,0.00003634,-0.17523753,0.13847738,0.00000171,-0.00006166,0.0000458
 1,0.00012735,-0.00001108,0.00005132,-0.00003684,-0.00000791,-0.0008629
 5,-0.00051506,-0.00089658,-0.00084703,-0.00770391,0.00525110,-0.003759
 98,-0.02618405,0.01847773,-0.00855234,0.00081825,0.00140986,0.00203317
 ,-0.00018682,-0.00004500,-0.00031066,0.00032179,0.00015302,0.00103250,
 0.00001771,-0.00021110,-0.00095878,0.00002576,-0.00005327,-0.00018060,
 -0.00000587,0.00003898,0.00013594,-0.00000686,-0.00002042,-0.00000635,
 0.00002689,0.00000859,0.00005041,-0.00001561,0.00003594,0.00017818,-0.
 00007737,0.00029545,0.00031942,-0.00001419,-0.00018439,-0.00021068,-0.
 00023208,0.00004932,0.00144699,0.00000200,0.00000991,0.00001030,0.0000
 0449,-0.00000039,-0.00001066,-0.00001831,-0.00004806,0.00006572,0.0007
 8440,0.00015014,0.00028597,0.03286772,-0.02434167,0.01002229,-0.000088
 25,0.00002301,-0.00000417,0.00022266,0.00006790,-0.00001016,-0.0000038
 6,0.00010292,-0.00001893,-0.00005951,-0.00000483,0.00000215,-0.0000929
 2,0.00025427,-0.00005019,0.00007916,-0.00017163,0.00003284,0.00059950,
 0.00019247,-0.00003088,-0.00037778,-0.00185229,0.00042835,0.00065898,0
 .00167652,-0.00023700,0.00153150,-0.02886618,0.00519807,-0.06272283,-0
 .03817324,0.00652072,0.00716144,0.02501215,-0.00450013,-0.00357994,0.0
 0257862,-0.00068423,-0.00090409,0.00023660,-0.00003940,-0.00572168,-0.
 00066758,-0.00010361,0.00137978,-0.00111806,0.00021002,-0.00084661,-0.
 00065756,0.00010741,-0.00019454,-0.00004737,0.00000407,-0.00000781,0.0
 0001301,-0.00000280,0.00010769,0.00000865,0.00000091,-0.00000809,0.000
 01219,-0.00000225,0.00001587,0.00000132,0.00000011,0.00001870,0.000032
 27,-0.00000743,0.06138785,-0.00006313,-0.00010988,0.00001912,0.0000432
 9,0.00013495,-0.00002864,0.00001504,-0.00005180,0.00001475,0.00002229,
 0.00007739,-0.00002020,-0.00010449,-0.00018202,0.00004089,-0.00000072,
 0.00012108,-0.00002155,-0.00031591,0.00003514,-0.00000930,0.00121934,-
 0.00321362,-0.00008600,0.00313090,0.00126237,-0.00004661,-0.00308548,-
 0.00770615,0.00202734,-0.03872285,-0.32587409,0.05122450,-0.00432040,-
 0.01167862,0.00288325,0.00287250,0.00026224,0.00140526,0.00030639,0.00
 046440,-0.00029086,-0.00177864,0.00121166,0.00095932,0.00071900,-0.000
 08014,0.00017466,-0.00027481,-0.00029782,-0.00002915,-0.00020588,0.000
 07908,-0.00001360,0.00000841,0.00000786,0.00000006,0.00003544,0.000011
 80,-0.00000550,-0.00000809,-0.00000160,0.00000037,-0.00001192,0.000005
 23,-0.00000164,0.00000892,-0.00000851,0.00000575,0.04083175,0.34547540
 ,0.00000952,0.00001363,-0.00002463,-0.00000135,-0.00002742,-0.00002809
 ,-0.00000231,0.00001718,0.00003066,-0.00000401,-0.00001893,-0.00002808
 ,0.00001553,0.00004852,0.00003403,0.00000163,-0.00002560,0.00000927,0.
 00007574,0.00000076,0.00002402,-0.00016818,-0.00011853,-0.00393444,-0.
 00050774,-0.00007811,0.00023976,0.00058167,0.00150269,0.00349122,0.006
 58024,0.05125308,-0.04872076,0.00083122,0.00343933,0.00402314,-0.00073
 650,0.00139284,0.00741374,-0.00005123,-0.00029659,-0.00111297,0.000083
 59,0.00098062,0.00646705,-0.00011155,0.00013752,0.00078415,0.00004147,
 -0.00003104,-0.00040910,0.00003060,-0.00001095,0.00003612,-0.00000135,
 0.00000137,0.00001433,-0.00000549,-0.00000382,-0.00001539,0.00000120,0
 .00000074,0.00000046,0.00000247,-0.00000133,-0.00000211,-0.00000130,0.
 00000580,0.00001808,-0.00685672,-0.05720337,0.03689603,-0.00005545,-0.
 00017672,0.00003767,-0.00004455,0.00019719,-0.00003785,0.00003294,-0.0
 0012283,0.00002146,0.00004857,0.00012791,-0.00002203,-0.00011385,-0.00
 036733,0.00006787,-0.00003378,0.00022768,-0.00004077,-0.00048225,0.000
 34295,-0.00006467,-0.00012293,-0.00155996,0.00028143,-0.00002116,0.000
 44399,-0.00009050,-0.00189660,0.00386907,-0.00089326,-0.01790422,-0.01
 066756,0.00151555,-0.29935003,-0.09534858,0.01221513,0.00027470,0.0010
 2633,-0.00026642,0.00168467,-0.00045303,-0.00002559,0.00026831,0.00050
 909,-0.00006967,0.00029974,0.00006409,0.00001852,-0.00015575,-0.000156
 33,0.00002036,-0.00011486,0.00012680,-0.00002976,0.00001009,0.00000630
 ,-0.00000263,0.00001122,0.00001579,-0.00000434,-0.00000861,-0.00000696
 ,0.00000113,-0.00002446,0.00000336,-0.00000168,0.00000897,-0.00002455,
 0.00000417,0.00111464,-0.00000972,0.00011109,0.31601718,-0.00002442,-0
 .00002618,0.00000456,0.00000350,0.00005203,0.00000635,0.00001188,-0.00
 001795,-0.00000380,0.00004023,-0.00000443,0.00000003,0.00003921,0.0000
 8420,-0.00004086,-0.00000363,0.00000866,0.00000073,0.00023419,-0.00029
 211,0.00001456,0.00084249,0.00081896,-0.00011138,-0.00017809,-0.000057
 72,0.00004326,0.00318796,-0.00164538,0.00174848,0.01959898,0.01059411,
 -0.00077502,-0.09539688,-0.09626980,0.00847534,-0.02934637,-0.00623724
 ,0.00130810,0.00005138,-0.00520891,0.00223479,0.00063298,-0.00097824,0
 .00004190,0.00007959,-0.00012998,-0.00022201,-0.00023233,0.00014695,0.
 00000057,-0.00014351,-0.00002797,0.00003960,0.00000032,0.00000536,-0.0
 0000305,0.00002496,0.00000993,-0.00000037,-0.00000248,0.00000188,0.000
 00037,0.00001146,0.00000523,0.00000544,0.00000200,0.00000042,0.0000001
 1,-0.00060845,0.00073773,-0.00094333,0.10203079,0.09763894,0.00000373,
 0.00000128,-0.00000381,-0.00000281,0.00000977,0.00008989,-0.00000162,-
 0.00000651,-0.00004136,-0.00000625,0.00000257,-0.00000171,-0.00000707,
 -0.00004852,-0.00013616,-0.00000025,0.00000594,0.00001039,-0.00005164,
 0.00001826,-0.00022663,-0.00015202,-0.00015321,0.00016455,0.00002309,0
 .00005806,0.00017932,-0.00076160,0.00175262,0.00728219,-0.00397703,-0.
 00136886,0.00443878,0.01222931,0.00849692,-0.04042332,0.00523492,0.001
 88550,0.00378734,-0.00011417,0.00222480,0.00670973,-0.00009172,0.00004
 673,-0.00081909,0.00001433,-0.00022260,-0.00132031,0.00003232,0.000000
 66,0.00017895,0.00002221,0.00004163,0.00018735,0.00000003,-0.00000279,
 -0.00001027,-0.00000419,-0.00000055,0.00000649,0.00000033,0.00000023,0
 .00000419,-0.00000284,0.00000524,0.00003299,-0.00000059,-0.00000075,0.
 00000149,0.00022036,-0.00093591,-0.00422584,-0.01285060,-0.01096426,0.
 02785615,-0.00009830,-0.00022481,0.00004890,-0.00000615,0.00041472,-0.
 00007469,0.00001499,-0.00014611,0.00002603,0.00008298,0.00012945,-0.00
 002263,-0.00013783,-0.00013592,0.00002371,-0.00000974,0.00017119,-0.00
 003049,-0.00004497,-0.00015500,0.00002108,0.00020644,-0.00017248,0.000
 06152,-0.00001073,0.00021424,-0.00004546,-0.00015570,-0.00074869,0.000
 15042,0.00119242,-0.00158242,0.00017252,0.00757487,-0.00515210,0.00100
 467,-0.23018234,0.13275568,-0.02781165,-0.01804574,0.01903691,-0.00388
 483,-0.00385077,-0.00335917,0.00038516,0.00012082,0.00166754,-0.000303
 68,-0.00011650,-0.00037241,0.00005837,-0.00067515,-0.00022189,0.000035
 24,0.00001050,0.00001117,-0.00000466,0.00004876,0.00003043,-0.00000685
 ,-0.00002552,0.00000562,-0.00000202,-0.00000494,0.00001134,-0.00000221
 ,0.00000692,-0.00001655,0.00000300,0.00020508,-0.00029053,0.00005981,0
 .00065882,0.00044322,0.00000666,0.24196323,0.00003141,0.00007595,-0.00
 001613,-0.00002617,-0.00003144,-0.00001841,-0.00003754,0.00004234,-0.0
 0000388,-0.00003577,-0.00004572,-0.00000044,0.00003627,0.00010068,-0.0
 0000538,0.00001320,-0.00008086,0.00001629,0.00014768,-0.00004436,0.000
 04358,-0.00014969,-0.00005006,-0.00023794,0.00027086,0.00002210,0.0000
 3967,-0.00086547,-0.00058135,-0.00005979,-0.00207680,-0.00474820,0.002
 11099,0.02520192,-0.01315848,0.00361631,0.13285930,-0.16174214,0.02477
 928,-0.01127548,0.01086175,-0.00140481,-0.00271882,0.00024748,0.001288
 87,-0.00066150,0.00057048,-0.00008728,0.00018482,0.00000776,0.00003349
 ,-0.00009725,-0.00015555,-0.00001510,-0.00000602,-0.00000438,0.0000008
 7,-0.00000161,-0.00000577,0.00000359,-0.00000288,0.00000666,0.00000494
 ,0.00000508,-0.00000196,0.00000051,-0.00000278,0.00001033,-0.00000388,
 0.00115734,-0.00057062,0.00009462,-0.00024568,0.00107346,-0.00087441,-
 0.14224674,0.16761844,-0.00000895,-0.00001690,0.00000646,0.00000622,-0
 .00001208,-0.00013451,0.00000732,-0.00000690,0.00001947,0.00000831,0.0
 0000326,-0.00004289,-0.00000987,-0.00000742,0.00006676,-0.00000258,0.0
 0001817,0.00000492,-0.00002855,0.00003988,0.00018381,0.00005507,-0.000
 23972,-0.00131375,-0.00005546,0.00004139,0.00019490,0.00016660,-0.0000
 6855,-0.00081120,0.00026282,0.00212377,0.00673195,-0.00450643,0.003024
 89,0.00345011,-0.02782208,0.02478510,-0.04425370,0.00161507,-0.0008149
 6,0.00448588,0.00027533,0.00127899,0.00741817,0.00012171,-0.00004501,0
 .00016068,-0.00004278,0.00002085,0.00016506,0.00000861,-0.00001747,-0.
 00023249,0.00000161,0.00000048,-0.00000527,0.00000203,0.00000326,0.000
 01076,-0.00000030,0.00000504,0.00003314,-0.00000102,0.00000053,-0.0000
 0033,0.00000065,-0.00000373,-0.00000879,-0.00020149,0.00006688,-0.0001
 8129,0.00013109,-0.00086112,-0.00357484,0.03000829,-0.02841518,0.03186
 346,0.00020342,0.00020098,-0.00004439,-0.00009245,-0.00029495,0.000055
 34,-0.00008836,0.00010424,-0.00001816,-0.00010604,-0.00016985,0.000029
 33,0.00026531,-0.00007518,0.00001547,-0.00003625,-0.00007219,0.0000128
 7,-0.00013186,0.00020206,-0.00003826,0.00140659,0.00061391,-0.00009972
 ,-0.00051504,0.00075764,-0.00014643,-0.00450303,0.00223697,-0.00060846
 ,-0.00093959,0.00018939,-0.00003024,-0.00482174,-0.00123629,-0.0000149
 3,-0.00018803,-0.02860712,0.00510467,-0.06361741,-0.04192133,0.0071632
 6,0.00957381,0.02375512,-0.00420192,-0.00039771,0.00109943,-0.00012479
 ,-0.00067548,-0.00127932,0.00017517,0.00061134,-0.00042907,0.00007980,
 0.00001619,-0.00004145,0.00000879,-0.00022985,-0.00007732,0.00001326,0
 .00001637,-0.00000146,0.00000018,-0.00000916,-0.00001368,0.00000253,-0
 .00000849,0.00000394,-0.00000087,0.00012506,-0.00002069,0.00002197,-0.
 00010137,-0.00129898,0.00023710,0.00127858,0.00054231,0.00000879,0.062
 96520,-0.00005686,0.00006828,-0.00001171,0.00005655,-0.00012501,0.0000
 2640,0.00002756,0.00003904,-0.00000535,0.00000810,0.00000236,-0.000001
 28,-0.00008024,0.00016285,-0.00002520,0.00003907,-0.00009566,0.0000121
 0,0.00023337,-0.00002476,0.00000129,-0.00119789,0.00001714,0.00011602,
 0.00032783,-0.00063747,0.00005092,0.00336634,0.00006515,0.00124655,0.0
 0012616,0.00049307,-0.00029998,-0.00153915,0.00144489,0.00110014,0.000
 76693,-0.00470651,0.00168905,-0.04128631,-0.32538768,0.05109658,-0.002
 21806,-0.01531984,0.00340063,-0.00190991,-0.00304018,-0.00019356,-0.00
 279338,0.00196093,-0.00035732,0.00016229,0.00007675,0.00000014,-0.0000
 1527,0.00001328,0.00000322,0.00008763,0.00003422,-0.00000966,0.0000078
 8,0.00000220,0.00000010,0.00001033,-0.00000040,0.00000031,-0.00000328,
 0.00001421,-0.00000049,-0.00003378,-0.00011148,-0.00012970,0.00014791,
 -0.00028196,0.00002814,-0.00006669,0.00058349,-0.00090346,0.04583289,0
 .34475309,0.00001456,-0.00000513,0.00002064,-0.00001441,0.00001699,0.0
 0001320,-0.00000599,-0.00000558,0.00000262,-0.00000194,-0.00000292,0.0
 0000006,0.00001910,-0.00002812,0.00003320,-0.00000789,0.00001366,-0.00
 003212,-0.00004496,0.00000096,-0.00005094,0.00023045,0.00015206,0.0007
 7197,-0.00005887,0.00004662,-0.00043880,-0.00082462,0.00122715,0.00639
 788,-0.00001407,-0.00029190,-0.00111643,0.00004025,0.00111393,0.007480
 26,-0.00023835,0.00112100,0.00435559,0.00705120,0.05110008,-0.04844295
 ,0.00056143,0.00390063,0.00297833,0.00038934,-0.00016360,-0.00380447,0
 .00041472,-0.00032025,0.00011197,-0.00001315,-0.00001189,0.00006392,0.
 00000276,0.00000158,0.00002714,-0.00001905,-0.00001135,-0.00003036,-0.
 00000104,-0.00000014,0.00000203,-0.00000215,-0.00000015,0.00000012,0.0
 0000053,-0.00000057,0.00001123,0.00002439,-0.00012980,-0.00079937,-0.0
 0002570,0.00000100,-0.00014646,0.00012381,-0.00089037,-0.00423646,-0.0
 0760036,-0.05683388,0.03682820\\0.00000544,0.00002188,-0.00000352,-0.0
 0000830,0.00000029,0.00000674,0.00000806,-0.00001793,-0.00000030,0.000
 01987,0.00001564,-0.00001105,-0.00002768,-0.00001184,0.00000599,0.0000
 0601,0.00001146,-0.00002473,0.00001966,0.00001704,-0.00000687,-0.00001
 838,-0.00005899,0.00001256,0.00000870,0.00002996,-0.00000579,0.,0.0000
 1867,-0.00000379,-0.00000391,-0.00000462,0.00000138,-0.00000570,0.0000
 0253,0.00000054,-0.00000390,-0.00000474,0.00000451,-0.00000703,0.00000
 441,0.00000154,0.00000902,-0.00000608,-0.00000044,0.00000010,-0.000027
 15,0.00000927,0.00001101,0.00002198,-0.00000096,-0.00001076,0.00001119
 ,0.00000052,0.00000715,-0.00000687,0.00000418,-0.00000990,-0.00000692,
 -0.00000109,-0.00000317,0.00000018,-0.00000116,-0.00000293,-0.00000029
 ,-0.00000485,0.00000771,-0.00000690,0.00000722,-0.00000023,0.00000046,
 -0.00000071,0.00000017,0.00000109,0.00000122,-0.00000058,-0.00000197,0
 .00000463,-0.00000040,-0.00000249,0.00000496\\\@


 FROM THE ASHES OF OUR DESPAIR GROW THE FLOWERS OF TOMORROW.
 Job cpu time:       0 days  6 hours 27 minutes  7.2 seconds.
 Elapsed time:       0 days  0 hours 48 minutes 50.6 seconds.
 File lengths (MBytes):  RWF=   1127 Int=      0 D2E=      0 Chk=     33 Scr=      1
 Normal termination of Gaussian 16 at Sat Feb 10 17:51:32 2024.
