 Entering Gaussian System, Link 0=g16
 Input=300-an.com
 Output=300-an.log
 Initial command:
 /sysapps/ubuntu-applications/gaussian/Gaussian/AVX2/g16/l1.exe "/scratch/selhajj1/4597489/Gau-3842560.inp" -scrdir="/scratch/selhajj1/4597489/"
 Entering Link 1 = /sysapps/ubuntu-applications/gaussian/Gaussian/AVX2/g16/l1.exe PID=   3842562.
  
 Copyright (c) 1988,1990,1992,1993,1995,1998,2003,2009,2016,
            Gaussian, Inc.  All Rights Reserved.
  
 This is part of the Gaussian(R) 16 program.  It is based on
 the Gaussian(R) 09 system (copyright 2009, Gaussian, Inc.),
 the Gaussian(R) 03 system (copyright 2003, Gaussian, Inc.),
 the Gaussian(R) 98 system (copyright 1998, Gaussian, Inc.),
 the Gaussian(R) 94 system (copyright 1995, Gaussian, Inc.),
 the Gaussian 92(TM) system (copyright 1992, Gaussian, Inc.),
 the Gaussian 90(TM) system (copyright 1990, Gaussian, Inc.),
 the Gaussian 88(TM) system (copyright 1988, Gaussian, Inc.),
 the Gaussian 86(TM) system (copyright 1986, Carnegie Mellon
 University), and the Gaussian 82(TM) system (copyright 1983,
 Carnegie Mellon University). Gaussian is a federally registered
 trademark of Gaussian, Inc.
  
 This software contains proprietary and confidential information,
 including trade secrets, belonging to Gaussian, Inc.
  
 This software is provided under written license and may be
 used, copied, transmitted, or stored only in accord with that
 written license.
  
 The following legend is applicable only to US Government
 contracts under FAR:
  
                    RESTRICTED RIGHTS LEGEND
  
 Use, reproduction and disclosure by the US Government is
 subject to restrictions as set forth in subparagraphs (a)
 and (c) of the Commercial Computer Software - Restricted
 Rights clause in FAR 52.227-19.
  
 Gaussian, Inc.
 340 Quinnipiac St., Bldg. 40, Wallingford CT 06492
  
  
 ---------------------------------------------------------------
 Warning -- This program may not be used in any manner that
 competes with the business of Gaussian, Inc. or will provide
 assistance to any competitor of Gaussian, Inc.  The licensee
 of this program is prohibited from giving any competitor of
 Gaussian, Inc. access to this program.  By using this program,
 the user acknowledges that Gaussian, Inc. is engaged in the
 business of creating and licensing software in the field of
 computational chemistry and represents and warrants to the
 licensee that it is not a competitor of Gaussian, Inc. and that
 it will not use this program in any manner prohibited above.
 ---------------------------------------------------------------
  

 Cite this work as:
 Gaussian 16, Revision A.03,
 M. J. Frisch, G. W. Trucks, H. B. Schlegel, G. E. Scuseria, 
 M. A. Robb, J. R. Cheeseman, G. Scalmani, V. Barone, 
 G. A. Petersson, H. Nakatsuji, X. Li, M. Caricato, A. V. Marenich, 
 J. Bloino, B. G. Janesko, R. Gomperts, B. Mennucci, H. P. Hratchian, 
 J. V. Ortiz, A. F. Izmaylov, J. L. Sonnenberg, D. Williams-Young, 
 F. Ding, F. Lipparini, F. Egidi, J. Goings, B. Peng, A. Petrone, 
 T. Henderson, D. Ranasinghe, V. G. Zakrzewski, J. Gao, N. Rega, 
 G. Zheng, W. Liang, M. Hada, M. Ehara, K. Toyota, R. Fukuda, 
 J. Hasegawa, M. Ishida, T. Nakajima, Y. Honda, O. Kitao, H. Nakai, 
 T. Vreven, K. Throssell, J. A. Montgomery, Jr., J. E. Peralta, 
 F. Ogliaro, M. J. Bearpark, J. J. Heyd, E. N. Brothers, K. N. Kudin, 
 V. N. Staroverov, T. A. Keith, R. Kobayashi, J. Normand, 
 K. Raghavachari, A. P. Rendell, J. C. Burant, S. S. Iyengar, 
 J. Tomasi, M. Cossi, J. M. Millam, M. Klene, C. Adamo, R. Cammi, 
 J. W. Ochterski, R. L. Martin, K. Morokuma, O. Farkas, 
 J. B. Foresman, and D. J. Fox, Gaussian, Inc., Wallingford CT, 2016.
 
 ******************************************
 Gaussian 16:  ES64L-G16RevA.03 25-Dec-2016
                 4-Mar-2024 
 ******************************************
 %chk=300-an.chk
 %nproc=32
 Will use up to   32 processors via shared memory.
 %mem=825GB
 ----------------------------------------------------------------------
 #P UB3LYP/6-311++G(d,p) nosym opt freq Int=Acc2E=11 SCRF=(PCM,Solvent=
 n,n-DiMethylFormamide)
 ----------------------------------------------------------------------
 1/18=20,19=15,26=3,38=1/1,3;
 2/9=110,12=2,15=1,17=6,18=5,40=1/2;
 3/5=4,6=6,7=1111,11=2,25=1,27=11,30=1,70=2201,71=1,72=148,74=-5,116=2/1,2,3;
 4//1;
 5/5=2,38=5,53=148,87=11/2;
 6/7=2,8=2,9=2,10=2,28=1,87=11/1;
 7/30=1,87=11/1,2,3,16;
 1/18=20,19=15,26=3/3(2);
 2/9=110,15=1/2;
 99//99;
 2/9=110,15=1/2;
 3/5=4,6=6,7=1111,11=2,25=1,27=11,30=1,70=2205,71=1,72=148,74=-5,116=2/1,2,3;
 4/5=5,16=3,69=1/1;
 5/5=2,38=5,53=148,87=11/2;
 7/30=1,87=11/1,2,3,16;
 1/18=20,19=15,26=3/3(-5);
 2/9=110,15=1/2;
 6/7=2,8=2,9=2,10=2,19=2,28=1,87=11/1;
 99/9=1/99;
 Leave Link    1 at Mon Mar  4 17:04:35 2024, MaxMem=110729625600 cpu:               6.4 elap:               0.3
 (Enter /sysapps/ubuntu-applications/gaussian/Gaussian/AVX2/g16/l101.exe)
 -------
 Reduced
 -------
 Symbolic Z-matrix:
 Charge = -2 Multiplicity = 1
 C                    -0.02189   4.08932   0.78779 
 C                    -1.14428   4.05894  -0.03409 
 C                    -1.11085   3.34717  -1.23464 
 C                     1.13465   3.40527   0.40578 
 C                     1.17144   2.68848  -0.80151 
 C                     0.04219   2.6646   -1.61806 
 C                     2.33214   3.42771   1.26523 
 C                     3.53875   2.67667   0.81337 
 C                     3.60169   1.98624  -0.35178 
 C                     2.40963   1.9491   -1.22478 
 O                     2.39972   4.02677   2.33274 
 O                     2.423     1.33059  -2.28002 
 O                     4.57479   2.74796   1.66497 
 C                     4.82819   1.22869  -0.77635 
 C                     4.80107  -0.24974  -0.33242 
 C                     6.047    -1.02035  -0.78084 
 C                     6.0401   -2.49037  -0.34661 
 C                     7.28236  -3.26739  -0.7971 
 C                     7.27606  -4.738    -0.36471 
 C                     8.51489  -5.51627  -0.8216 
 C                     8.50812  -6.98705  -0.38891 
 C                     9.74839  -7.75805  -0.85486 
 C                     9.72765  -9.21378  -0.41558 
 H                    -0.02342   4.63484   1.72352 
 H                    -2.04378   4.58799   0.25865 
 H                    -1.98639   3.3247   -1.87358 
 H                     0.08519   2.10805  -2.54601 
 H                     4.27729   3.31004   2.40558 
 H                     5.71274   1.71532  -0.35755 
 H                     4.90017   1.26935  -1.86605 
 H                     3.90627  -0.72879  -0.74369 
 H                     4.71376  -0.29534   0.75906 
 H                     6.94213  -0.52794  -0.37949 
 H                     6.13115  -0.96533  -1.87357 
 H                     5.1427   -2.98047  -0.74547 
 H                     5.956    -2.54455   0.74651 
 H                     8.18015  -2.7771   -0.39899 
 H                     7.36601  -3.21239  -1.89015 
 H                     6.37595  -5.2268   -0.75953 
 H                     7.19658  -4.79325   0.72877 
 H                     9.41552  -5.02843  -0.42761 
 H                     8.59376  -5.46228  -1.91484 
 H                     7.6055   -7.47311  -0.78105 
 H                     8.4326   -7.03989   0.70485 
 H                     10.65441  -7.28572  -0.46048 
 H                     9.8241   -7.72253  -1.94687 
 H                     8.84633  -9.72786  -0.82117 
 H                     9.68993  -9.28698   0.67928 
 O                     10.91652  -9.83789  -0.9008 
 C                     11.12769  -11.16103  -0.63076 
 C                     10.25746  -11.97338   0.10154 
 C                     12.30931  -11.71077  -1.13768 
 C                     10.57918  -13.31479   0.31706 
 H                     9.33501  -11.57941   0.50677 
 C                     12.60786  -13.04842  -0.91361 
 H                     12.97855  -11.07354  -1.70369 
 C                     11.75308  -13.88392  -0.1817 
 H                     9.88594  -13.92164   0.8905 
 H                     13.52975  -13.45527  -1.31798 
 C                     12.09789  -15.34473   0.04526 
 C                     12.33973  -15.67571   1.54586 
 H                     11.65417  -15.0884   2.16404 
 H                     13.34875  -15.34748   1.81658 
 C                     12.16413  -17.17812   1.86709 
 H                     11.12414  -17.37908   2.15049 
 H                     12.77226  -17.44701   2.73603 
 C                     12.52439  -18.05304   0.66114 
 H                     12.49033  -19.11332   0.92865 
 H                     13.56075  -17.84655   0.36906 
 C                     11.57476  -17.774   -0.52761 
 H                     10.72148  -18.45918  -0.48879 
 H                     12.09573  -17.98767  -1.46668 
 C                     11.05366  -16.31758  -0.54112 
 H                     10.79265  -16.01912  -1.56015 
 H                     10.12993  -16.2444   0.04417 
 H                     13.03602  -15.52974  -0.49164 
 
 ITRead=  0  0  0  0  0  0  0  0  0  0  0  0  0  0  0  0  0  0  0  0
 ITRead=  0  0  0  0  0  0  0  0  0  0  0  0  0  0  0  0  0  0  0  0
 ITRead=  0  0  0  0  0  0  0  0  0  0  0  0  0  0  0  0  0  0  0  0
 ITRead=  0  0  0  0  0  0  0  0  0  0  0  0  0  0  0  0
 MicOpt= -1 -1 -1 -1 -1 -1 -1 -1 -1 -1 -1 -1 -1 -1 -1 -1 -1 -1 -1 -1
 MicOpt= -1 -1 -1 -1 -1 -1 -1 -1 -1 -1 -1 -1 -1 -1 -1 -1 -1 -1 -1 -1
 MicOpt= -1 -1 -1 -1 -1 -1 -1 -1 -1 -1 -1 -1 -1 -1 -1 -1 -1 -1 -1 -1
 MicOpt= -1 -1 -1 -1 -1 -1 -1 -1 -1 -1 -1 -1 -1 -1 -1 -1
 NAtoms=     76 NQM=       76 NQMF=       0 NMMI=      0 NMMIF=      0
                NMic=       0 NMicF=      0.
                    Isotopes and Nuclear Properties:
 (Nuclear quadrupole moments (NQMom) in fm**2, nuclear magnetic moments (NMagM)
  in nuclear magnetons)

  Atom         1           2           3           4           5           6           7           8           9          10
 IAtWgt=          12          12          12          12          12          12          12          12          12          12
 AtmWgt=  12.0000000  12.0000000  12.0000000  12.0000000  12.0000000  12.0000000  12.0000000  12.0000000  12.0000000  12.0000000
 NucSpn=           0           0           0           0           0           0           0           0           0           0
 AtZEff=  -0.0000000  -0.0000000  -0.0000000  -0.0000000  -0.0000000  -0.0000000  -0.0000000  -0.0000000  -0.0000000  -0.0000000
 NQMom=    0.0000000   0.0000000   0.0000000   0.0000000   0.0000000   0.0000000   0.0000000   0.0000000   0.0000000   0.0000000
 NMagM=    0.0000000   0.0000000   0.0000000   0.0000000   0.0000000   0.0000000   0.0000000   0.0000000   0.0000000   0.0000000
 AtZNuc=   6.0000000   6.0000000   6.0000000   6.0000000   6.0000000   6.0000000   6.0000000   6.0000000   6.0000000   6.0000000

  Atom        11          12          13          14          15          16          17          18          19          20
 IAtWgt=          16          16          16          12          12          12          12          12          12          12
 AtmWgt=  15.9949146  15.9949146  15.9949146  12.0000000  12.0000000  12.0000000  12.0000000  12.0000000  12.0000000  12.0000000
 NucSpn=           0           0           0           0           0           0           0           0           0           0
 AtZEff=  -0.0000000  -0.0000000  -0.0000000  -0.0000000  -0.0000000  -0.0000000  -0.0000000  -0.0000000  -0.0000000  -0.0000000
 NQMom=    0.0000000   0.0000000   0.0000000   0.0000000   0.0000000   0.0000000   0.0000000   0.0000000   0.0000000   0.0000000
 NMagM=    0.0000000   0.0000000   0.0000000   0.0000000   0.0000000   0.0000000   0.0000000   0.0000000   0.0000000   0.0000000
 AtZNuc=   8.0000000   8.0000000   8.0000000   6.0000000   6.0000000   6.0000000   6.0000000   6.0000000   6.0000000   6.0000000

  Atom        21          22          23          24          25          26          27          28          29          30
 IAtWgt=          12          12          12           1           1           1           1           1           1           1
 AtmWgt=  12.0000000  12.0000000  12.0000000   1.0078250   1.0078250   1.0078250   1.0078250   1.0078250   1.0078250   1.0078250
 NucSpn=           0           0           0           1           1           1           1           1           1           1
 AtZEff=  -0.0000000  -0.0000000  -0.0000000  -0.0000000  -0.0000000  -0.0000000  -0.0000000  -0.0000000  -0.0000000  -0.0000000
 NQMom=    0.0000000   0.0000000   0.0000000   0.0000000   0.0000000   0.0000000   0.0000000   0.0000000   0.0000000   0.0000000
 NMagM=    0.0000000   0.0000000   0.0000000   2.7928460   2.7928460   2.7928460   2.7928460   2.7928460   2.7928460   2.7928460
 AtZNuc=   6.0000000   6.0000000   6.0000000   1.0000000   1.0000000   1.0000000   1.0000000   1.0000000   1.0000000   1.0000000

  Atom        31          32          33          34          35          36          37          38          39          40
 IAtWgt=           1           1           1           1           1           1           1           1           1           1
 AtmWgt=   1.0078250   1.0078250   1.0078250   1.0078250   1.0078250   1.0078250   1.0078250   1.0078250   1.0078250   1.0078250
 NucSpn=           1           1           1           1           1           1           1           1           1           1
 AtZEff=  -0.0000000  -0.0000000  -0.0000000  -0.0000000  -0.0000000  -0.0000000  -0.0000000  -0.0000000  -0.0000000  -0.0000000
 NQMom=    0.0000000   0.0000000   0.0000000   0.0000000   0.0000000   0.0000000   0.0000000   0.0000000   0.0000000   0.0000000
 NMagM=    2.7928460   2.7928460   2.7928460   2.7928460   2.7928460   2.7928460   2.7928460   2.7928460   2.7928460   2.7928460
 AtZNuc=   1.0000000   1.0000000   1.0000000   1.0000000   1.0000000   1.0000000   1.0000000   1.0000000   1.0000000   1.0000000

  Atom        41          42          43          44          45          46          47          48          49          50
 IAtWgt=           1           1           1           1           1           1           1           1          16          12
 AtmWgt=   1.0078250   1.0078250   1.0078250   1.0078250   1.0078250   1.0078250   1.0078250   1.0078250  15.9949146  12.0000000
 NucSpn=           1           1           1           1           1           1           1           1           0           0
 AtZEff=  -0.0000000  -0.0000000  -0.0000000  -0.0000000  -0.0000000  -0.0000000  -0.0000000  -0.0000000  -0.0000000  -0.0000000
 NQMom=    0.0000000   0.0000000   0.0000000   0.0000000   0.0000000   0.0000000   0.0000000   0.0000000   0.0000000   0.0000000
 NMagM=    2.7928460   2.7928460   2.7928460   2.7928460   2.7928460   2.7928460   2.7928460   2.7928460   0.0000000   0.0000000
 AtZNuc=   1.0000000   1.0000000   1.0000000   1.0000000   1.0000000   1.0000000   1.0000000   1.0000000   8.0000000   6.0000000

  Atom        51          52          53          54          55          56          57          58          59          60
 IAtWgt=          12          12          12           1          12           1          12           1           1          12
 AtmWgt=  12.0000000  12.0000000  12.0000000   1.0078250  12.0000000   1.0078250  12.0000000   1.0078250   1.0078250  12.0000000
 NucSpn=           0           0           0           1           0           1           0           1           1           0
 AtZEff=  -0.0000000  -0.0000000  -0.0000000  -0.0000000  -0.0000000  -0.0000000  -0.0000000  -0.0000000  -0.0000000  -0.0000000
 NQMom=    0.0000000   0.0000000   0.0000000   0.0000000   0.0000000   0.0000000   0.0000000   0.0000000   0.0000000   0.0000000
 NMagM=    0.0000000   0.0000000   0.0000000   2.7928460   0.0000000   2.7928460   0.0000000   2.7928460   2.7928460   0.0000000
 AtZNuc=   6.0000000   6.0000000   6.0000000   1.0000000   6.0000000   1.0000000   6.0000000   1.0000000   1.0000000   6.0000000

  Atom        61          62          63          64          65          66          67          68          69          70
 IAtWgt=          12           1           1          12           1           1          12           1           1          12
 AtmWgt=  12.0000000   1.0078250   1.0078250  12.0000000   1.0078250   1.0078250  12.0000000   1.0078250   1.0078250  12.0000000
 NucSpn=           0           1           1           0           1           1           0           1           1           0
 AtZEff=  -0.0000000  -0.0000000  -0.0000000  -0.0000000  -0.0000000  -0.0000000  -0.0000000  -0.0000000  -0.0000000  -0.0000000
 NQMom=    0.0000000   0.0000000   0.0000000   0.0000000   0.0000000   0.0000000   0.0000000   0.0000000   0.0000000   0.0000000
 NMagM=    0.0000000   2.7928460   2.7928460   0.0000000   2.7928460   2.7928460   0.0000000   2.7928460   2.7928460   0.0000000
 AtZNuc=   6.0000000   1.0000000   1.0000000   6.0000000   1.0000000   1.0000000   6.0000000   1.0000000   1.0000000   6.0000000

  Atom        71          72          73          74          75          76
 IAtWgt=           1           1          12           1           1           1
 AtmWgt=   1.0078250   1.0078250  12.0000000   1.0078250   1.0078250   1.0078250
 NucSpn=           1           1           0           1           1           1
 AtZEff=  -0.0000000  -0.0000000  -0.0000000  -0.0000000  -0.0000000  -0.0000000
 NQMom=    0.0000000   0.0000000   0.0000000   0.0000000   0.0000000   0.0000000
 NMagM=    2.7928460   2.7928460   0.0000000   2.7928460   2.7928460   2.7928460
 AtZNuc=   1.0000000   1.0000000   6.0000000   1.0000000   1.0000000   1.0000000
 Leave Link  101 at Mon Mar  4 17:04:35 2024, MaxMem=110729625600 cpu:              16.4 elap:               0.6
 (Enter /sysapps/ubuntu-applications/gaussian/Gaussian/AVX2/g16/l103.exe)

 GradGradGradGradGradGradGradGradGradGradGradGradGradGradGradGradGradGrad
 Berny optimization.
 Initialization pass.
                           ----------------------------
                           !    Initial Parameters    !
                           ! (Angstroms and Degrees)  !
 --------------------------                            --------------------------
 ! Name  Definition              Value          Derivative Info.                !
 --------------------------------------------------------------------------------
 ! R1    R(1,2)                  1.3915         estimate D2E/DX2                !
 ! R2    R(1,4)                  1.3969         estimate D2E/DX2                !
 ! R3    R(1,24)                 1.0831         estimate D2E/DX2                !
 ! R4    R(2,3)                  1.3961         estimate D2E/DX2                !
 ! R5    R(2,25)                 1.0838         estimate D2E/DX2                !
 ! R6    R(3,6)                  1.3937         estimate D2E/DX2                !
 ! R7    R(3,26)                 1.0841         estimate D2E/DX2                !
 ! R8    R(4,5)                  1.4045         estimate D2E/DX2                !
 ! R9    R(4,7)                  1.4742         estimate D2E/DX2                !
 ! R10   R(5,6)                  1.3937         estimate D2E/DX2                !
 ! R11   R(5,10)                 1.503          estimate D2E/DX2                !
 ! R12   R(6,27)                 1.0829         estimate D2E/DX2                !
 ! R13   R(7,8)                  1.4914         estimate D2E/DX2                !
 ! R14   R(7,11)                 1.226          estimate D2E/DX2                !
 ! R15   R(8,9)                  1.3558         estimate D2E/DX2                !
 ! R16   R(8,13)                 1.343          estimate D2E/DX2                !
 ! R17   R(9,10)                 1.478          estimate D2E/DX2                !
 ! R18   R(9,14)                 1.5028         estimate D2E/DX2                !
 ! R19   R(10,12)                1.2232         estimate D2E/DX2                !
 ! R20   R(13,28)                0.9762         estimate D2E/DX2                !
 ! R21   R(14,15)                1.5439         estimate D2E/DX2                !
 ! R22   R(14,29)                1.093          estimate D2E/DX2                !
 ! R23   R(14,30)                1.0928         estimate D2E/DX2                !
 ! R24   R(15,16)                1.5321         estimate D2E/DX2                !
 ! R25   R(15,31)                1.0951         estimate D2E/DX2                !
 ! R26   R(15,32)                1.0959         estimate D2E/DX2                !
 ! R27   R(16,17)                1.5328         estimate D2E/DX2                !
 ! R28   R(16,33)                1.0976         estimate D2E/DX2                !
 ! R29   R(16,34)                1.0974         estimate D2E/DX2                !
 ! R30   R(17,18)                1.5329         estimate D2E/DX2                !
 ! R31   R(17,35)                1.0976         estimate D2E/DX2                !
 ! R32   R(17,36)                1.0977         estimate D2E/DX2                !
 ! R33   R(18,19)                1.5329         estimate D2E/DX2                !
 ! R34   R(18,37)                1.0977         estimate D2E/DX2                !
 ! R35   R(18,38)                1.0976         estimate D2E/DX2                !
 ! R36   R(19,20)                1.5327         estimate D2E/DX2                !
 ! R37   R(19,39)                1.0977         estimate D2E/DX2                !
 ! R38   R(19,40)                1.0978         estimate D2E/DX2                !
 ! R39   R(20,21)                1.5331         estimate D2E/DX2                !
 ! R40   R(20,41)                1.0974         estimate D2E/DX2                !
 ! R41   R(20,42)                1.0974         estimate D2E/DX2                !
 ! R42   R(21,22)                1.5329         estimate D2E/DX2                !
 ! R43   R(21,43)                1.0976         estimate D2E/DX2                !
 ! R44   R(21,44)                1.0976         estimate D2E/DX2                !
 ! R45   R(22,23)                1.5207         estimate D2E/DX2                !
 ! R46   R(22,45)                1.0952         estimate D2E/DX2                !
 ! R47   R(22,46)                1.0952         estimate D2E/DX2                !
 ! R48   R(23,47)                1.098          estimate D2E/DX2                !
 ! R49   R(23,48)                1.0979         estimate D2E/DX2                !
 ! R50   R(23,49)                1.4277         estimate D2E/DX2                !
 ! R51   R(49,50)                1.3668         estimate D2E/DX2                !
 ! R52   R(50,51)                1.3977         estimate D2E/DX2                !
 ! R53   R(50,52)                1.3984         estimate D2E/DX2                !
 ! R54   R(51,53)                1.3962         estimate D2E/DX2                !
 ! R55   R(51,54)                1.0818         estimate D2E/DX2                !
 ! R56   R(52,55)                1.3888         estimate D2E/DX2                !
 ! R57   R(52,56)                1.0837         estimate D2E/DX2                !
 ! R58   R(53,57)                1.3967         estimate D2E/DX2                !
 ! R59   R(53,58)                1.0852         estimate D2E/DX2                !
 ! R60   R(55,57)                1.4016         estimate D2E/DX2                !
 ! R61   R(55,59)                1.0858         estimate D2E/DX2                !
 ! R62   R(57,60)                1.518          estimate D2E/DX2                !
 ! R63   R(60,61)                1.5556         estimate D2E/DX2                !
 ! R64   R(60,73)                1.5429         estimate D2E/DX2                !
 ! R65   R(60,76)                1.0966         estimate D2E/DX2                !
 ! R66   R(61,62)                1.0941         estimate D2E/DX2                !
 ! R67   R(61,63)                1.0951         estimate D2E/DX2                !
 ! R68   R(61,64)                1.5464         estimate D2E/DX2                !
 ! R69   R(64,65)                1.0965         estimate D2E/DX2                !
 ! R70   R(64,66)                1.0942         estimate D2E/DX2                !
 ! R71   R(64,67)                1.5328         estimate D2E/DX2                !
 ! R72   R(67,68)                1.094          estimate D2E/DX2                !
 ! R73   R(67,69)                1.0964         estimate D2E/DX2                !
 ! R74   R(67,70)                1.5469         estimate D2E/DX2                !
 ! R75   R(70,71)                1.095          estimate D2E/DX2                !
 ! R76   R(70,72)                1.095          estimate D2E/DX2                !
 ! R77   R(70,73)                1.5469         estimate D2E/DX2                !
 ! R78   R(73,74)                1.0934         estimate D2E/DX2                !
 ! R79   R(73,75)                1.096          estimate D2E/DX2                !
 ! A1    A(2,1,4)              119.7091         estimate D2E/DX2                !
 ! A2    A(2,1,24)             121.3416         estimate D2E/DX2                !
 ! A3    A(4,1,24)             118.9492         estimate D2E/DX2                !
 ! A4    A(1,2,3)              119.9834         estimate D2E/DX2                !
 ! A5    A(1,2,25)             119.9499         estimate D2E/DX2                !
 ! A6    A(3,2,25)             120.0666         estimate D2E/DX2                !
 ! A7    A(2,3,6)              120.4029         estimate D2E/DX2                !
 ! A8    A(2,3,26)             119.8708         estimate D2E/DX2                !
 ! A9    A(6,3,26)             119.7263         estimate D2E/DX2                !
 ! A10   A(1,4,5)              120.4409         estimate D2E/DX2                !
 ! A11   A(1,4,7)              120.374          estimate D2E/DX2                !
 ! A12   A(5,4,7)              119.1851         estimate D2E/DX2                !
 ! A13   A(4,5,6)              119.4142         estimate D2E/DX2                !
 ! A14   A(4,5,10)             120.9782         estimate D2E/DX2                !
 ! A15   A(6,5,10)             119.6076         estimate D2E/DX2                !
 ! A16   A(3,6,5)              120.0494         estimate D2E/DX2                !
 ! A17   A(3,6,27)             121.3521         estimate D2E/DX2                !
 ! A18   A(5,6,27)             118.5985         estimate D2E/DX2                !
 ! A19   A(4,7,8)              118.2234         estimate D2E/DX2                !
 ! A20   A(4,7,11)             124.0468         estimate D2E/DX2                !
 ! A21   A(8,7,11)             117.7298         estimate D2E/DX2                !
 ! A22   A(7,8,9)              123.6688         estimate D2E/DX2                !
 ! A23   A(7,8,13)             113.9088         estimate D2E/DX2                !
 ! A24   A(9,8,13)             122.4214         estimate D2E/DX2                !
 ! A25   A(8,9,10)             118.878          estimate D2E/DX2                !
 ! A26   A(8,9,14)             122.5054         estimate D2E/DX2                !
 ! A27   A(10,9,14)            118.6006         estimate D2E/DX2                !
 ! A28   A(5,10,9)             119.0605         estimate D2E/DX2                !
 ! A29   A(5,10,12)            120.0463         estimate D2E/DX2                !
 ! A30   A(9,10,12)            120.893          estimate D2E/DX2                !
 ! A31   A(8,13,28)            106.0539         estimate D2E/DX2                !
 ! A32   A(9,14,15)            112.7766         estimate D2E/DX2                !
 ! A33   A(9,14,29)            109.136          estimate D2E/DX2                !
 ! A34   A(9,14,30)            108.4641         estimate D2E/DX2                !
 ! A35   A(15,14,29)           109.2923         estimate D2E/DX2                !
 ! A36   A(15,14,30)           108.875          estimate D2E/DX2                !
 ! A37   A(29,14,30)           108.1923         estimate D2E/DX2                !
 ! A38   A(14,15,16)           112.5326         estimate D2E/DX2                !
 ! A39   A(14,15,31)           108.9817         estimate D2E/DX2                !
 ! A40   A(14,15,32)           109.1248         estimate D2E/DX2                !
 ! A41   A(16,15,31)           109.5442         estimate D2E/DX2                !
 ! A42   A(16,15,32)           109.594          estimate D2E/DX2                !
 ! A43   A(31,15,32)           106.9018         estimate D2E/DX2                !
 ! A44   A(15,16,17)           113.3159         estimate D2E/DX2                !
 ! A45   A(15,16,33)           109.3012         estimate D2E/DX2                !
 ! A46   A(15,16,34)           109.1841         estimate D2E/DX2                !
 ! A47   A(17,16,33)           109.2876         estimate D2E/DX2                !
 ! A48   A(17,16,34)           109.3001         estimate D2E/DX2                !
 ! A49   A(33,16,34)           106.2056         estimate D2E/DX2                !
 ! A50   A(16,17,18)           113.5293         estimate D2E/DX2                !
 ! A51   A(16,17,35)           109.2062         estimate D2E/DX2                !
 ! A52   A(16,17,36)           109.2555         estimate D2E/DX2                !
 ! A53   A(18,17,35)           109.2357         estimate D2E/DX2                !
 ! A54   A(18,17,36)           109.2521         estimate D2E/DX2                !
 ! A55   A(35,17,36)           106.0942         estimate D2E/DX2                !
 ! A56   A(17,18,19)           113.5827         estimate D2E/DX2                !
 ! A57   A(17,18,37)           109.2579         estimate D2E/DX2                !
 ! A58   A(17,18,38)           109.2085         estimate D2E/DX2                !
 ! A59   A(19,18,37)           109.2431         estimate D2E/DX2                !
 ! A60   A(19,18,38)           109.2256         estimate D2E/DX2                !
 ! A61   A(37,18,38)           106.0483         estimate D2E/DX2                !
 ! A62   A(18,19,20)           113.5629         estimate D2E/DX2                !
 ! A63   A(18,19,39)           109.2151         estimate D2E/DX2                !
 ! A64   A(18,19,40)           109.2421         estimate D2E/DX2                !
 ! A65   A(20,19,39)           109.2345         estimate D2E/DX2                !
 ! A66   A(20,19,40)           109.2624         estimate D2E/DX2                !
 ! A67   A(39,19,40)           106.0505         estimate D2E/DX2                !
 ! A68   A(19,20,21)           113.5429         estimate D2E/DX2                !
 ! A69   A(19,20,41)           109.3041         estimate D2E/DX2                !
 ! A70   A(19,20,42)           109.2731         estimate D2E/DX2                !
 ! A71   A(21,20,41)           109.1932         estimate D2E/DX2                !
 ! A72   A(21,20,42)           109.188          estimate D2E/DX2                !
 ! A73   A(41,20,42)           106.0687         estimate D2E/DX2                !
 ! A74   A(20,21,22)           113.1507         estimate D2E/DX2                !
 ! A75   A(20,21,43)           109.1251         estimate D2E/DX2                !
 ! A76   A(20,21,44)           109.1302         estimate D2E/DX2                !
 ! A77   A(22,21,43)           109.5134         estimate D2E/DX2                !
 ! A78   A(22,21,44)           109.5324         estimate D2E/DX2                !
 ! A79   A(43,21,44)           106.1477         estimate D2E/DX2                !
 ! A80   A(21,22,23)           112.4968         estimate D2E/DX2                !
 ! A81   A(21,22,45)           110.0569         estimate D2E/DX2                !
 ! A82   A(21,22,46)           110.0412         estimate D2E/DX2                !
 ! A83   A(23,22,45)           108.6691         estimate D2E/DX2                !
 ! A84   A(23,22,46)           108.6636         estimate D2E/DX2                !
 ! A85   A(45,22,46)           106.7309         estimate D2E/DX2                !
 ! A86   A(22,23,47)           110.6372         estimate D2E/DX2                !
 ! A87   A(22,23,48)           110.6306         estimate D2E/DX2                !
 ! A88   A(22,23,49)           107.9945         estimate D2E/DX2                !
 ! A89   A(47,23,48)           108.0335         estimate D2E/DX2                !
 ! A90   A(47,23,49)           109.7667         estimate D2E/DX2                !
 ! A91   A(48,23,49)           109.7775         estimate D2E/DX2                !
 ! A92   A(23,49,50)           118.9911         estimate D2E/DX2                !
 ! A93   A(49,50,51)           124.7475         estimate D2E/DX2                !
 ! A94   A(49,50,52)           116.072          estimate D2E/DX2                !
 ! A95   A(51,50,52)           119.1805         estimate D2E/DX2                !
 ! A96   A(50,51,53)           119.7241         estimate D2E/DX2                !
 ! A97   A(50,51,54)           121.0308         estimate D2E/DX2                !
 ! A98   A(53,51,54)           119.2451         estimate D2E/DX2                !
 ! A99   A(50,52,55)           120.1212         estimate D2E/DX2                !
 ! A100  A(50,52,56)           118.6867         estimate D2E/DX2                !
 ! A101  A(55,52,56)           121.1922         estimate D2E/DX2                !
 ! A102  A(51,53,57)           122.009          estimate D2E/DX2                !
 ! A103  A(51,53,58)           118.1404         estimate D2E/DX2                !
 ! A104  A(57,53,58)           119.8506         estimate D2E/DX2                !
 ! A105  A(52,55,57)           121.8251         estimate D2E/DX2                !
 ! A106  A(52,55,59)           118.9044         estimate D2E/DX2                !
 ! A107  A(57,55,59)           119.2704         estimate D2E/DX2                !
 ! A108  A(53,57,55)           117.14           estimate D2E/DX2                !
 ! A109  A(53,57,60)           121.982          estimate D2E/DX2                !
 ! A110  A(55,57,60)           120.8773         estimate D2E/DX2                !
 ! A111  A(57,60,61)           112.5994         estimate D2E/DX2                !
 ! A112  A(57,60,73)           113.3416         estimate D2E/DX2                !
 ! A113  A(57,60,76)           106.4671         estimate D2E/DX2                !
 ! A114  A(61,60,73)           109.735          estimate D2E/DX2                !
 ! A115  A(61,60,76)           107.6617         estimate D2E/DX2                !
 ! A116  A(73,60,76)           106.65           estimate D2E/DX2                !
 ! A117  A(60,61,62)           109.4763         estimate D2E/DX2                !
 ! A118  A(60,61,63)           108.5398         estimate D2E/DX2                !
 ! A119  A(60,61,64)           112.9208         estimate D2E/DX2                !
 ! A120  A(62,61,63)           106.0684         estimate D2E/DX2                !
 ! A121  A(62,61,64)           109.4513         estimate D2E/DX2                !
 ! A122  A(63,61,64)           110.1505         estimate D2E/DX2                !
 ! A123  A(61,64,65)           109.8434         estimate D2E/DX2                !
 ! A124  A(61,64,66)           109.9153         estimate D2E/DX2                !
 ! A125  A(61,64,67)           111.3727         estimate D2E/DX2                !
 ! A126  A(65,64,66)           106.0733         estimate D2E/DX2                !
 ! A127  A(65,64,67)           108.7625         estimate D2E/DX2                !
 ! A128  A(66,64,67)           110.7266         estimate D2E/DX2                !
 ! A129  A(64,67,68)           110.7005         estimate D2E/DX2                !
 ! A130  A(64,67,69)           108.9205         estimate D2E/DX2                !
 ! A131  A(64,67,70)           110.9383         estimate D2E/DX2                !
 ! A132  A(68,67,69)           106.087          estimate D2E/DX2                !
 ! A133  A(68,67,70)           110.0978         estimate D2E/DX2                !
 ! A134  A(69,67,70)           109.9747         estimate D2E/DX2                !
 ! A135  A(67,70,71)           109.7713         estimate D2E/DX2                !
 ! A136  A(67,70,72)           109.3773         estimate D2E/DX2                !
 ! A137  A(67,70,73)           112.5416         estimate D2E/DX2                !
 ! A138  A(71,70,72)           106.2039         estimate D2E/DX2                !
 ! A139  A(71,70,73)           109.0832         estimate D2E/DX2                !
 ! A140  A(72,70,73)           109.6645         estimate D2E/DX2                !
 ! A141  A(60,73,70)           111.2438         estimate D2E/DX2                !
 ! A142  A(60,73,74)           110.0979         estimate D2E/DX2                !
 ! A143  A(60,73,75)           108.9872         estimate D2E/DX2                !
 ! A144  A(70,73,74)           110.2149         estimate D2E/DX2                !
 ! A145  A(70,73,75)           110.0057         estimate D2E/DX2                !
 ! A146  A(74,73,75)           106.1566         estimate D2E/DX2                !
 ! D1    D(4,1,2,3)             -0.0171         estimate D2E/DX2                !
 ! D2    D(4,1,2,25)           179.9784         estimate D2E/DX2                !
 ! D3    D(24,1,2,3)           179.9729         estimate D2E/DX2                !
 ! D4    D(24,1,2,25)           -0.0316         estimate D2E/DX2                !
 ! D5    D(2,1,4,5)              0.0265         estimate D2E/DX2                !
 ! D6    D(2,1,4,7)            179.994          estimate D2E/DX2                !
 ! D7    D(24,1,4,5)          -179.9637         estimate D2E/DX2                !
 ! D8    D(24,1,4,7)             0.0038         estimate D2E/DX2                !
 ! D9    D(1,2,3,6)             -0.0183         estimate D2E/DX2                !
 ! D10   D(1,2,3,26)           179.9981         estimate D2E/DX2                !
 ! D11   D(25,2,3,6)           179.9862         estimate D2E/DX2                !
 ! D12   D(25,2,3,26)            0.0026         estimate D2E/DX2                !
 ! D13   D(2,3,6,5)              0.0445         estimate D2E/DX2                !
 ! D14   D(2,3,6,27)          -179.9779         estimate D2E/DX2                !
 ! D15   D(26,3,6,5)          -179.9719         estimate D2E/DX2                !
 ! D16   D(26,3,6,27)            0.0057         estimate D2E/DX2                !
 ! D17   D(1,4,5,6)             -0.0006         estimate D2E/DX2                !
 ! D18   D(1,4,5,10)           179.9534         estimate D2E/DX2                !
 ! D19   D(7,4,5,6)           -179.9684         estimate D2E/DX2                !
 ! D20   D(7,4,5,10)            -0.0145         estimate D2E/DX2                !
 ! D21   D(1,4,7,8)            179.7745         estimate D2E/DX2                !
 ! D22   D(1,4,7,11)            -0.2062         estimate D2E/DX2                !
 ! D23   D(5,4,7,8)             -0.2576         estimate D2E/DX2                !
 ! D24   D(5,4,7,11)           179.7617         estimate D2E/DX2                !
 ! D25   D(4,5,6,3)             -0.0348         estimate D2E/DX2                !
 ! D26   D(4,5,6,27)           179.987          estimate D2E/DX2                !
 ! D27   D(10,5,6,3)          -179.9894         estimate D2E/DX2                !
 ! D28   D(10,5,6,27)            0.0324         estimate D2E/DX2                !
 ! D29   D(4,5,10,9)            -0.1542         estimate D2E/DX2                !
 ! D30   D(4,5,10,12)         -179.977          estimate D2E/DX2                !
 ! D31   D(6,5,10,9)           179.7997         estimate D2E/DX2                !
 ! D32   D(6,5,10,12)           -0.0231         estimate D2E/DX2                !
 ! D33   D(4,7,8,9)              0.7826         estimate D2E/DX2                !
 ! D34   D(4,7,8,13)          -179.5613         estimate D2E/DX2                !
 ! D35   D(11,7,8,9)          -179.2356         estimate D2E/DX2                !
 ! D36   D(11,7,8,13)            0.4206         estimate D2E/DX2                !
 ! D37   D(7,8,9,10)            -0.9573         estimate D2E/DX2                !
 ! D38   D(7,8,9,14)          -179.4843         estimate D2E/DX2                !
 ! D39   D(13,8,9,10)          179.4151         estimate D2E/DX2                !
 ! D40   D(13,8,9,14)            0.8881         estimate D2E/DX2                !
 ! D41   D(7,8,13,28)           -0.6676         estimate D2E/DX2                !
 ! D42   D(9,8,13,28)          178.9934         estimate D2E/DX2                !
 ! D43   D(8,9,10,5)             0.6332         estimate D2E/DX2                !
 ! D44   D(8,9,10,12)         -179.5456         estimate D2E/DX2                !
 ! D45   D(14,9,10,5)          179.2182         estimate D2E/DX2                !
 ! D46   D(14,9,10,12)          -0.9605         estimate D2E/DX2                !
 ! D47   D(8,9,14,15)           92.3355         estimate D2E/DX2                !
 ! D48   D(8,9,14,29)          -29.3314         estimate D2E/DX2                !
 ! D49   D(8,9,14,30)         -146.9937         estimate D2E/DX2                !
 ! D50   D(10,9,14,15)         -86.1953         estimate D2E/DX2                !
 ! D51   D(10,9,14,29)         152.1378         estimate D2E/DX2                !
 ! D52   D(10,9,14,30)          34.4754         estimate D2E/DX2                !
 ! D53   D(9,14,15,16)         179.3952         estimate D2E/DX2                !
 ! D54   D(9,14,15,31)          57.6788         estimate D2E/DX2                !
 ! D55   D(9,14,15,32)         -58.7246         estimate D2E/DX2                !
 ! D56   D(29,14,15,16)        -59.0263         estimate D2E/DX2                !
 ! D57   D(29,14,15,31)        179.2572         estimate D2E/DX2                !
 ! D58   D(29,14,15,32)         62.8539         estimate D2E/DX2                !
 ! D59   D(30,14,15,16)         58.9597         estimate D2E/DX2                !
 ! D60   D(30,14,15,31)        -62.7568         estimate D2E/DX2                !
 ! D61   D(30,14,15,32)       -179.1601         estimate D2E/DX2                !
 ! D62   D(14,15,16,17)        179.8731         estimate D2E/DX2                !
 ! D63   D(14,15,16,33)         57.7293         estimate D2E/DX2                !
 ! D64   D(14,15,16,34)        -58.0523         estimate D2E/DX2                !
 ! D65   D(31,15,16,17)        -58.7305         estimate D2E/DX2                !
 ! D66   D(31,15,16,33)        179.1257         estimate D2E/DX2                !
 ! D67   D(31,15,16,34)         63.3441         estimate D2E/DX2                !
 ! D68   D(32,15,16,17)         58.2594         estimate D2E/DX2                !
 ! D69   D(32,15,16,33)        -63.8844         estimate D2E/DX2                !
 ! D70   D(32,15,16,34)       -179.666          estimate D2E/DX2                !
 ! D71   D(15,16,17,18)        179.7937         estimate D2E/DX2                !
 ! D72   D(15,16,17,35)         57.6401         estimate D2E/DX2                !
 ! D73   D(15,16,17,36)        -57.9953         estimate D2E/DX2                !
 ! D74   D(33,16,17,18)        -58.0548         estimate D2E/DX2                !
 ! D75   D(33,16,17,35)        179.7915         estimate D2E/DX2                !
 ! D76   D(33,16,17,36)         64.1561         estimate D2E/DX2                !
 ! D77   D(34,16,17,18)         57.7839         estimate D2E/DX2                !
 ! D78   D(34,16,17,35)        -64.3698         estimate D2E/DX2                !
 ! D79   D(34,16,17,36)        179.9948         estimate D2E/DX2                !
 ! D80   D(16,17,18,19)       -179.9414         estimate D2E/DX2                !
 ! D81   D(16,17,18,37)         57.8207         estimate D2E/DX2                !
 ! D82   D(16,17,18,38)        -57.7624         estimate D2E/DX2                !
 ! D83   D(35,17,18,19)        -57.8041         estimate D2E/DX2                !
 ! D84   D(35,17,18,37)        179.958          estimate D2E/DX2                !
 ! D85   D(35,17,18,38)         64.375          estimate D2E/DX2                !
 ! D86   D(36,17,18,19)         57.8457         estimate D2E/DX2                !
 ! D87   D(36,17,18,37)        -64.3922         estimate D2E/DX2                !
 ! D88   D(36,17,18,38)       -179.9753         estimate D2E/DX2                !
 ! D89   D(17,18,19,20)        179.7007         estimate D2E/DX2                !
 ! D90   D(17,18,19,39)         57.5189         estimate D2E/DX2                !
 ! D91   D(17,18,19,40)        -58.0618         estimate D2E/DX2                !
 ! D92   D(37,18,19,20)        -58.0533         estimate D2E/DX2                !
 ! D93   D(37,18,19,39)        179.765          estimate D2E/DX2                !
 ! D94   D(37,18,19,40)         64.1843         estimate D2E/DX2                !
 ! D95   D(38,18,19,20)         57.5311         estimate D2E/DX2                !
 ! D96   D(38,18,19,39)        -64.6507         estimate D2E/DX2                !
 ! D97   D(38,18,19,40)        179.7687         estimate D2E/DX2                !
 ! D98   D(18,19,20,21)       -179.9997         estimate D2E/DX2                !
 ! D99   D(18,19,20,41)         57.8201         estimate D2E/DX2                !
 ! D100  D(18,19,20,42)        -57.8489         estimate D2E/DX2                !
 ! D101  D(39,19,20,21)        -57.8286         estimate D2E/DX2                !
 ! D102  D(39,19,20,41)        179.9911         estimate D2E/DX2                !
 ! D103  D(39,19,20,42)         64.3221         estimate D2E/DX2                !
 ! D104  D(40,19,20,21)         57.774          estimate D2E/DX2                !
 ! D105  D(40,19,20,41)        -64.4062         estimate D2E/DX2                !
 ! D106  D(40,19,20,42)        179.9247         estimate D2E/DX2                !
 ! D107  D(19,20,21,22)        179.788          estimate D2E/DX2                !
 ! D108  D(19,20,21,43)         57.5946         estimate D2E/DX2                !
 ! D109  D(19,20,21,44)        -57.9906         estimate D2E/DX2                !
 ! D110  D(41,20,21,22)        -57.9703         estimate D2E/DX2                !
 ! D111  D(41,20,21,43)        179.8363         estimate D2E/DX2                !
 ! D112  D(41,20,21,44)         64.2511         estimate D2E/DX2                !
 ! D113  D(42,20,21,22)         57.5901         estimate D2E/DX2                !
 ! D114  D(42,20,21,43)        -64.6033         estimate D2E/DX2                !
 ! D115  D(42,20,21,44)        179.8115         estimate D2E/DX2                !
 ! D116  D(20,21,22,23)        179.8894         estimate D2E/DX2                !
 ! D117  D(20,21,22,45)         58.5545         estimate D2E/DX2                !
 ! D118  D(20,21,22,46)        -58.7938         estimate D2E/DX2                !
 ! D119  D(43,21,22,23)        -58.1343         estimate D2E/DX2                !
 ! D120  D(43,21,22,45)       -179.4693         estimate D2E/DX2                !
 ! D121  D(43,21,22,46)         63.1825         estimate D2E/DX2                !
 ! D122  D(44,21,22,23)         57.8929         estimate D2E/DX2                !
 ! D123  D(44,21,22,45)        -63.4421         estimate D2E/DX2                !
 ! D124  D(44,21,22,46)        179.2097         estimate D2E/DX2                !
 ! D125  D(21,22,23,47)         59.6764         estimate D2E/DX2                !
 ! D126  D(21,22,23,48)        -60.0103         estimate D2E/DX2                !
 ! D127  D(21,22,23,49)        179.8284         estimate D2E/DX2                !
 ! D128  D(45,22,23,47)       -178.1999         estimate D2E/DX2                !
 ! D129  D(45,22,23,48)         62.1134         estimate D2E/DX2                !
 ! D130  D(45,22,23,49)        -58.0479         estimate D2E/DX2                !
 ! D131  D(46,22,23,47)        -62.4235         estimate D2E/DX2                !
 ! D132  D(46,22,23,48)        177.8897         estimate D2E/DX2                !
 ! D133  D(46,22,23,49)         57.7285         estimate D2E/DX2                !
 ! D134  D(22,23,49,50)        179.9951         estimate D2E/DX2                !
 ! D135  D(47,23,49,50)        -59.3075         estimate D2E/DX2                !
 ! D136  D(48,23,49,50)         59.2993         estimate D2E/DX2                !
 ! D137  D(23,49,50,51)         -0.1759         estimate D2E/DX2                !
 ! D138  D(23,49,50,52)        179.8488         estimate D2E/DX2                !
 ! D139  D(49,50,51,53)       -179.8913         estimate D2E/DX2                !
 ! D140  D(49,50,51,54)          0.0711         estimate D2E/DX2                !
 ! D141  D(52,50,51,53)          0.0833         estimate D2E/DX2                !
 ! D142  D(52,50,51,54)       -179.9543         estimate D2E/DX2                !
 ! D143  D(49,50,52,55)       -179.9677         estimate D2E/DX2                !
 ! D144  D(49,50,52,56)          0.0188         estimate D2E/DX2                !
 ! D145  D(51,50,52,55)          0.0555         estimate D2E/DX2                !
 ! D146  D(51,50,52,56)       -179.958          estimate D2E/DX2                !
 ! D147  D(50,51,53,57)         -0.165          estimate D2E/DX2                !
 ! D148  D(50,51,53,58)        179.8981         estimate D2E/DX2                !
 ! D149  D(54,51,53,57)        179.8719         estimate D2E/DX2                !
 ! D150  D(54,51,53,58)         -0.065          estimate D2E/DX2                !
 ! D151  D(50,52,55,57)         -0.1203         estimate D2E/DX2                !
 ! D152  D(50,52,55,59)        179.8785         estimate D2E/DX2                !
 ! D153  D(56,52,55,57)        179.8935         estimate D2E/DX2                !
 ! D154  D(56,52,55,59)         -0.1077         estimate D2E/DX2                !
 ! D155  D(51,53,57,55)          0.1012         estimate D2E/DX2                !
 ! D156  D(51,53,57,60)       -179.5916         estimate D2E/DX2                !
 ! D157  D(58,53,57,55)       -179.963          estimate D2E/DX2                !
 ! D158  D(58,53,57,60)          0.3442         estimate D2E/DX2                !
 ! D159  D(52,55,57,53)          0.042          estimate D2E/DX2                !
 ! D160  D(52,55,57,60)        179.7385         estimate D2E/DX2                !
 ! D161  D(59,55,57,53)       -179.9568         estimate D2E/DX2                !
 ! D162  D(59,55,57,60)         -0.2603         estimate D2E/DX2                !
 ! D163  D(53,57,60,61)        -65.0239         estimate D2E/DX2                !
 ! D164  D(53,57,60,73)         60.2848         estimate D2E/DX2                !
 ! D165  D(53,57,60,76)        177.219          estimate D2E/DX2                !
 ! D166  D(55,57,60,61)        115.2946         estimate D2E/DX2                !
 ! D167  D(55,57,60,73)       -119.3967         estimate D2E/DX2                !
 ! D168  D(55,57,60,76)         -2.4625         estimate D2E/DX2                !
 ! D169  D(57,60,61,62)         36.1809         estimate D2E/DX2                !
 ! D170  D(57,60,61,63)        -79.1762         estimate D2E/DX2                !
 ! D171  D(57,60,61,64)        158.3917         estimate D2E/DX2                !
 ! D172  D(73,60,61,62)        -91.0675         estimate D2E/DX2                !
 ! D173  D(73,60,61,63)        153.5754         estimate D2E/DX2                !
 ! D174  D(73,60,61,64)         31.1433         estimate D2E/DX2                !
 ! D175  D(76,60,61,62)        153.2307         estimate D2E/DX2                !
 ! D176  D(76,60,61,63)         37.8737         estimate D2E/DX2                !
 ! D177  D(76,60,61,64)        -84.5584         estimate D2E/DX2                !
 ! D178  D(57,60,73,70)        169.0876         estimate D2E/DX2                !
 ! D179  D(57,60,73,74)         46.6065         estimate D2E/DX2                !
 ! D180  D(57,60,73,75)        -69.45           estimate D2E/DX2                !
 ! D181  D(61,60,73,70)        -64.0808         estimate D2E/DX2                !
 ! D182  D(61,60,73,74)        173.4381         estimate D2E/DX2                !
 ! D183  D(61,60,73,75)         57.3815         estimate D2E/DX2                !
 ! D184  D(76,60,73,70)         52.2607         estimate D2E/DX2                !
 ! D185  D(76,60,73,74)        -70.2205         estimate D2E/DX2                !
 ! D186  D(76,60,73,75)        173.723          estimate D2E/DX2                !
 ! D187  D(60,61,64,65)        -90.5724         estimate D2E/DX2                !
 ! D188  D(60,61,64,66)        153.0802         estimate D2E/DX2                !
 ! D189  D(60,61,64,67)         29.987          estimate D2E/DX2                !
 ! D190  D(62,61,64,65)         31.6524         estimate D2E/DX2                !
 ! D191  D(62,61,64,66)        -84.695          estimate D2E/DX2                !
 ! D192  D(62,61,64,67)        152.2118         estimate D2E/DX2                !
 ! D193  D(63,61,64,65)        147.9013         estimate D2E/DX2                !
 ! D194  D(63,61,64,66)         31.5538         estimate D2E/DX2                !
 ! D195  D(63,61,64,67)        -91.5394         estimate D2E/DX2                !
 ! D196  D(61,64,67,68)        174.5019         estimate D2E/DX2                !
 ! D197  D(61,64,67,69)         58.2277         estimate D2E/DX2                !
 ! D198  D(61,64,67,70)        -62.9574         estimate D2E/DX2                !
 ! D199  D(65,64,67,68)        -64.3055         estimate D2E/DX2                !
 ! D200  D(65,64,67,69)        179.4203         estimate D2E/DX2                !
 ! D201  D(65,64,67,70)         58.2351         estimate D2E/DX2                !
 ! D202  D(66,64,67,68)         51.8738         estimate D2E/DX2                !
 ! D203  D(66,64,67,69)        -64.4004         estimate D2E/DX2                !
 ! D204  D(66,64,67,70)        174.4144         estimate D2E/DX2                !
 ! D205  D(64,67,70,71)        -91.6457         estimate D2E/DX2                !
 ! D206  D(64,67,70,72)        152.2014         estimate D2E/DX2                !
 ! D207  D(64,67,70,73)         30.0466         estimate D2E/DX2                !
 ! D208  D(68,67,70,71)         31.2439         estimate D2E/DX2                !
 ! D209  D(68,67,70,72)        -84.909          estimate D2E/DX2                !
 ! D210  D(68,67,70,73)        152.9362         estimate D2E/DX2                !
 ! D211  D(69,67,70,71)        147.7918         estimate D2E/DX2                !
 ! D212  D(69,67,70,72)         31.6389         estimate D2E/DX2                !
 ! D213  D(69,67,70,73)        -90.516          estimate D2E/DX2                !
 ! D214  D(67,70,73,60)         31.6636         estimate D2E/DX2                !
 ! D215  D(67,70,73,74)        154.0771         estimate D2E/DX2                !
 ! D216  D(67,70,73,75)        -89.2025         estimate D2E/DX2                !
 ! D217  D(71,70,73,60)        153.7459         estimate D2E/DX2                !
 ! D218  D(71,70,73,74)        -83.8405         estimate D2E/DX2                !
 ! D219  D(71,70,73,75)         32.8798         estimate D2E/DX2                !
 ! D220  D(72,70,73,60)        -90.3288         estimate D2E/DX2                !
 ! D221  D(72,70,73,74)         32.0848         estimate D2E/DX2                !
 ! D222  D(72,70,73,75)        148.8052         estimate D2E/DX2                !
 --------------------------------------------------------------------------------
 Trust Radius=3.00D-01 FncErr=1.00D-07 GrdErr=1.00D-06 EigMax=2.50D+02 EigMin=1.00D-04
 Number of steps in this run=    456 maximum allowed number of steps=    456.
 GradGradGradGradGradGradGradGradGradGradGradGradGradGradGradGradGradGrad

 Leave Link  103 at Mon Mar  4 17:04:36 2024, MaxMem=110729625600 cpu:               3.5 elap:               0.2
 (Enter /sysapps/ubuntu-applications/gaussian/Gaussian/AVX2/g16/l202.exe)
 Symmetry turned off by external request.
 Stoichiometry    C32H40O4(2-)
 Framework group  C1[X(C32H40O4)]
 Deg. of freedom   222
 Full point group                 C1      NOp   1
                          Input orientation:                          
 ---------------------------------------------------------------------
 Center     Atomic      Atomic             Coordinates (Angstroms)
 Number     Number       Type             X           Y           Z
 ---------------------------------------------------------------------
      1          6           0       -0.021893    4.089325    0.787791
      2          6           0       -1.144285    4.058938   -0.034090
      3          6           0       -1.110854    3.347170   -1.234638
      4          6           0        1.134652    3.405268    0.405781
      5          6           0        1.171440    2.688482   -0.801505
      6          6           0        0.042193    2.664601   -1.618059
      7          6           0        2.332139    3.427710    1.265231
      8          6           0        3.538745    2.676669    0.813370
      9          6           0        3.601692    1.986236   -0.351781
     10          6           0        2.409634    1.949100   -1.224781
     11          8           0        2.399718    4.026771    2.332744
     12          8           0        2.423004    1.330590   -2.280019
     13          8           0        4.574788    2.747962    1.664973
     14          6           0        4.828192    1.228693   -0.776354
     15          6           0        4.801065   -0.249740   -0.332422
     16          6           0        6.046998   -1.020345   -0.780839
     17          6           0        6.040104   -2.490374   -0.346608
     18          6           0        7.282358   -3.267391   -0.797097
     19          6           0        7.276064   -4.737999   -0.364714
     20          6           0        8.514886   -5.516271   -0.821595
     21          6           0        8.508115   -6.987045   -0.388910
     22          6           0        9.748390   -7.758046   -0.854862
     23          6           0        9.727647   -9.213783   -0.415578
     24          1           0       -0.023417    4.634839    1.723521
     25          1           0       -2.043784    4.587987    0.258652
     26          1           0       -1.986394    3.324697   -1.873578
     27          1           0        0.085192    2.108045   -2.546011
     28          1           0        4.277289    3.310036    2.405581
     29          1           0        5.712743    1.715316   -0.357548
     30          1           0        4.900172    1.269352   -1.866051
     31          1           0        3.906268   -0.728787   -0.743687
     32          1           0        4.713764   -0.295344    0.759064
     33          1           0        6.942133   -0.527935   -0.379486
     34          1           0        6.131150   -0.965334   -1.873574
     35          1           0        5.142703   -2.980474   -0.745474
     36          1           0        5.956000   -2.544548    0.746514
     37          1           0        8.180152   -2.777098   -0.398994
     38          1           0        7.366009   -3.212386   -1.890150
     39          1           0        6.375954   -5.226805   -0.759532
     40          1           0        7.196581   -4.793251    0.728774
     41          1           0        9.415518   -5.028432   -0.427605
     42          1           0        8.593763   -5.462280   -1.914835
     43          1           0        7.605497   -7.473110   -0.781053
     44          1           0        8.432602   -7.039886    0.704850
     45          1           0       10.654405   -7.285716   -0.460475
     46          1           0        9.824097   -7.722528   -1.946866
     47          1           0        8.846328   -9.727863   -0.821170
     48          1           0        9.689925   -9.286980    0.679275
     49          8           0       10.916518   -9.837886   -0.900797
     50          6           0       11.127693  -11.161027   -0.630757
     51          6           0       10.257462  -11.973381    0.101538
     52          6           0       12.309313  -11.710768   -1.137676
     53          6           0       10.579181  -13.314787    0.317055
     54          1           0        9.335012  -11.579408    0.506772
     55          6           0       12.607855  -13.048421   -0.913614
     56          1           0       12.978548  -11.073537   -1.703694
     57          6           0       11.753082  -13.883916   -0.181701
     58          1           0        9.885944  -13.921641    0.890500
     59          1           0       13.529748  -13.455265   -1.317980
     60          6           0       12.097886  -15.344734    0.045257
     61          6           0       12.339727  -15.675709    1.545856
     62          1           0       11.654166  -15.088403    2.164040
     63          1           0       13.348745  -15.347483    1.816578
     64          6           0       12.164134  -17.178122    1.867093
     65          1           0       11.124137  -17.379075    2.150486
     66          1           0       12.772262  -17.447014    2.736030
     67          6           0       12.524385  -18.053039    0.661137
     68          1           0       12.490334  -19.113317    0.928647
     69          1           0       13.560748  -17.846546    0.369055
     70          6           0       11.574757  -17.774005   -0.527606
     71          1           0       10.721482  -18.459180   -0.488789
     72          1           0       12.095731  -17.987674   -1.466675
     73          6           0       11.053664  -16.317579   -0.541121
     74          1           0       10.792649  -16.019120   -1.560149
     75          1           0       10.129927  -16.244403    0.044167
     76          1           0       13.036019  -15.529744   -0.491643
 ---------------------------------------------------------------------
 Rotational constants (GHZ):           0.3662415           0.0131295           0.0130432
 Leave Link  202 at Mon Mar  4 17:04:36 2024, MaxMem=110729625600 cpu:               2.9 elap:               0.2
 (Enter /sysapps/ubuntu-applications/gaussian/Gaussian/AVX2/g16/l301.exe)
 Standard basis: 6-311++G(d,p) (5D, 7F)
 Ernie: Thresh=  0.10000D-02 Tol=  0.10000D-05 Strict=F.
  1072 basis functions,  1656 primitive gaussians,  1108 cartesian basis functions
   133 alpha electrons      133 beta electrons
       nuclear repulsion energy      3148.8629125802 Hartrees.
 IExCor=  402 DFT=T Ex+Corr=B3LYP ExCW=0 ScaHFX=  0.200000
 ScaDFX=  0.800000  0.720000  1.000000  0.810000 ScalE2=  1.000000  1.000000
 IRadAn=      5 IRanWt=     -1 IRanGd=            0 ICorTp=0 IEmpDi=  4
 NAtoms=   76 NActive=   76 NUniq=   76 SFac= 1.00D+00 NAtFMM=   60 NAOKFM=T Big=T
 Integral buffers will be    131072 words long.
 Raffenetti 2 integral format.
 Two-electron integral symmetry is turned off.
 Force PCM accuracy= 1.00D-11.
 ------------------------------------------------------------------------------
 Polarizable Continuum Model (PCM)
 =================================
 Model                : PCM.
 Atomic radii         : UFF (Universal Force Field).
 Polarization charges : Total charges.
 Charge compensation  : None.
 Solution method      : On-the-fly selection.
 Cavity type          : Scaled VdW (van der Waals Surface) (Alpha=1.100).
 Cavity algorithm     : GePol (No added spheres)
                        Default sphere list used, NSphG=   76.
                        Lebedev-Laikov grids with approx.  5.0 points / Ang**2.
                        Smoothing algorithm: York/Karplus (Gamma=1.0000).
                        Polarization charges: spherical gaussians, with
                                              point-specific exponents (IZeta= 3).
                        Self-potential: point-specific (ISelfS= 7).
                        Self-field    : sphere-specific E.n sum rule (ISelfD= 2).
 1st derivatives      : Analytical E(r).r(x)/FMM algorithm (CHGder, D1EAlg=3).
                        Cavity 1st derivative terms included.
 Solvent              : n,n-DiMethylFormamide, Eps=  37.219000 Eps(inf)=   2.046330
 ------------------------------------------------------------------------------
 GePol: Number of generator spheres                  =      76
 GePol: Total number of spheres                      =      76
 GePol: Number of exposed spheres                    =      76 (100.00%)
 GePol: Number of points                             =    5193
 GePol: Average weight of points                     =       0.13
 GePol: Minimum weight of points                     =   0.21D-11
 GePol: Maximum weight of points                     =    0.20577
 GePol: Number of points with low weight             =     455
 GePol: Fraction of low-weight points (<1% of avg)   =       8.76%
 GePol: Cavity surface area                          =    667.316 Ang**2
 GePol: Cavity volume                                =    728.724 Ang**3
 Leave Link  301 at Mon Mar  4 17:04:36 2024, MaxMem=110729625600 cpu:               4.7 elap:               0.2
 (Enter /sysapps/ubuntu-applications/gaussian/Gaussian/AVX2/g16/l302.exe)
 NPDir=0 NMtPBC=     1 NCelOv=     1 NCel=       1 NClECP=     1 NCelD=      1
         NCelK=      1 NCelE2=     1 NClLst=     1 CellRange=     0.0.
 One-electron integrals computed using PRISM.
 NBasis=  1072 RedAO= T EigKep=  1.10D-06  NBF=  1072
 NBsUse=  1063 1.00D-06 EigRej=  9.93D-07 NBFU=  1063
 Precomputing XC quadrature grid using
 IXCGrd= 4 IRadAn=           5 IRanWt=          -1 IRanGd=           0 AccXCQ= 1.00D-11.
 Generated NRdTot=       0 NPtTot=           0 NUsed=           0 NTot=          32
 NSgBfM=   838   838   838   838   838 MxSgAt=    76 MxSgA2=    76.
 Leave Link  302 at Mon Mar  4 17:04:39 2024, MaxMem=110729625600 cpu:              75.1 elap:               2.4
 (Enter /sysapps/ubuntu-applications/gaussian/Gaussian/AVX2/g16/l303.exe)
 DipDrv:  MaxL=1.
 Leave Link  303 at Mon Mar  4 17:04:39 2024, MaxMem=110729625600 cpu:              11.6 elap:               0.5
 (Enter /sysapps/ubuntu-applications/gaussian/Gaussian/AVX2/g16/l401.exe)
 ExpMin= 3.60D-02 ExpMax= 8.59D+03 ExpMxC= 1.30D+03 IAcc=3 IRadAn=         5 AccDes= 0.00D+00
 Harris functional with IExCor=  402 and IRadAn=       5 diagonalized for initial guess.
 HarFok:  IExCor=  402 AccDes= 0.00D+00 IRadAn=         5 IDoV= 1 UseB2=F ITyADJ=14
 ICtDFT=  3500011 ScaDFX=  1.000000  1.000000  1.000000  1.000000
 FoFCou: FMM=F IPFlag=           0 FMFlag=      100000 FMFlg1=        2001
         NFxFlg=           0 DoJE=T BraDBF=F KetDBF=T FulRan=T
         wScrn=  0.000000 ICntrl=       500 IOpCl=  0 I1Cent=   200000004 NGrid=           0
         NMat0=    1 NMatS0=      1 NMatT0=    0 NMatD0=    1 NMtDS0=    0 NMtDT0=    0
 Symmetry not used in FoFCou.
 Harris En= -1545.44253809310    
 JPrj=0 DoOrth=F DoCkMO=F.
 Initial guess <Sx>= 0.0000 <Sy>= 0.0000 <Sz>= 0.0000 <S**2>=-0.0000 S=-0.0000
 Leave Link  401 at Mon Mar  4 17:04:45 2024, MaxMem=110729625600 cpu:             162.2 elap:               5.2
 (Enter /sysapps/ubuntu-applications/gaussian/Gaussian/AVX2/g16/l502.exe)
 Two-electron integral symmetry not used.
 UHF open shell SCF:
 Using DIIS extrapolation, IDIIS=  1040.
 NGot=110729625600 LenX=110727126748 LenY=110725897976
 Requested convergence on RMS density matrix=1.00D-08 within 128 cycles.
 Requested convergence on MAX density matrix=1.00D-06.
 Requested convergence on             energy=1.00D-06.
 No special actions if energy rises.
 Fock matrices will be formed incrementally for  20 cycles.

 Cycle   1  Pass 1  IDiag  1:
 FoFJK:  IHMeth= 1 ICntrl=       0 DoSepK=F KAlg= 0 I1Cent=           0 FoldK=F
 IRaf= 610000000 NMat=       1 IRICut=       1 DoRegI=T DoRafI=F ISym2E= 0 IDoP0=0 IntGTp=1.
 FoFCou: FMM=T IPFlag=           0 FMFlag=      100000 FMFlg1=        2001
         NFxFlg=           0 DoJE=F BraDBF=F KetDBF=F FulRan=T
         wScrn=  0.000000 ICntrl=         0 IOpCl=  1 I1Cent=           0 NGrid=           0
         NMat0=    1 NMatS0=      1 NMatT0=    0 NMatD0=    1 NMtDS0=    0 NMtDT0=    0
 Symmetry not used in FoFCou.
 FMM levels:  10  Number of levels for PrismC:   9
 Inv3:  Mode=1 IEnd=    80901747.
 Iteration    1 A*A^-1 deviation from unit magnitude is 3.11D-15 for    852.
 Iteration    1 A*A^-1 deviation from orthogonality  is 3.05D-15 for   3404   3200.
 Iteration    1 A^-1*A deviation from unit magnitude is 3.11D-15 for    852.
 Iteration    1 A^-1*A deviation from orthogonality  is 3.11D-15 for   4549   2467.
 E= -1543.82104700386    
 DIIS: error= 2.60D-02 at cycle   1 NSaved=   1.
 NSaved= 1 IEnMin= 1 EnMin= -1543.82104700386     IErMin= 1 ErrMin= 2.60D-02
 ErrMax= 2.60D-02  0.00D+00 EMaxC= 1.00D-01 BMatC= 5.21D+00 BMatP= 5.21D+00
 IDIUse=3 WtCom= 7.40D-01 WtEn= 2.60D-01
 Coeff-Com:  0.100D+01
 Coeff-En:   0.100D+01
 Coeff:      0.100D+01
 Gap=     0.077 Goal=   None    Shift=    0.000
 Gap=     0.077 Goal=   None    Shift=    0.000
 GapD=    0.077 DampG=0.500 DampE=0.500 DampFc=0.2500 IDamp=-1.
 Damping current iteration by 2.50D-01
 RMSDP=2.82D-01 MaxDP=4.38D+01              OVMax= 9.95D-01

 Cycle   2  Pass 1  IDiag  1:
 RMSU=  6.92D-02    CP:  1.47D+00
 E= -1544.23476821176     Delta-E=       -0.413721207902 Rises=F Damp=T
 DIIS: error= 1.38D-02 at cycle   2 NSaved=   2.
 NSaved= 2 IEnMin= 2 EnMin= -1544.23476821176     IErMin= 2 ErrMin= 1.38D-02
 ErrMax= 1.38D-02  0.00D+00 EMaxC= 1.00D-01 BMatC= 1.16D+00 BMatP= 5.21D+00
 IDIUse=3 WtCom= 8.62D-01 WtEn= 1.38D-01
 Coeff-Com: -0.656D+00 0.166D+01
 Coeff-En:   0.000D+00 0.100D+01
 Coeff:     -0.566D+00 0.157D+01
 Gap=     0.013 Goal=   None    Shift=    0.000
 Gap=     0.013 Goal=   None    Shift=    0.000
 RMSDP=7.19D-02 MaxDP=1.11D+01 DE=-4.14D-01 OVMax= 9.16D-01

 Cycle   3  Pass 1  IDiag  1:
 RMSU=  4.65D-03    CP:  9.18D-01 -9.93D-03
 E= -1544.86884338950     Delta-E=       -0.634075177737 Rises=F Damp=F
 DIIS: error= 1.48D-02 at cycle   3 NSaved=   3.
 NSaved= 3 IEnMin= 3 EnMin= -1544.86884338950     IErMin= 2 ErrMin= 1.38D-02
 ErrMax= 1.48D-02  0.00D+00 EMaxC= 1.00D-01 BMatC= 8.94D-01 BMatP= 1.16D+00
 IDIUse=3 WtCom= 8.52D-01 WtEn= 1.48D-01
 Coeff-Com: -0.493D+00 0.109D+01 0.405D+00
 Coeff-En:   0.000D+00 0.000D+00 0.100D+01
 Coeff:     -0.420D+00 0.927D+00 0.493D+00
 Gap=     0.068 Goal=   None    Shift=    0.000
 Gap=     0.068 Goal=   None    Shift=    0.000
 RMSDP=5.82D-03 MaxDP=9.97D-01 DE=-6.34D-01 OVMax= 1.69D-01

 Cycle   4  Pass 1  IDiag  1:
 RMSU=  5.03D-03    CP:  8.32D-01  3.84D-03  7.70D-01
 E= -1545.03036282171     Delta-E=       -0.161519432216 Rises=F Damp=F
 DIIS: error= 4.20D-03 at cycle   4 NSaved=   4.
 NSaved= 4 IEnMin= 4 EnMin= -1545.03036282171     IErMin= 4 ErrMin= 4.20D-03
 ErrMax= 4.20D-03  0.00D+00 EMaxC= 1.00D-01 BMatC= 1.05D-01 BMatP= 8.94D-01
 IDIUse=3 WtCom= 9.58D-01 WtEn= 4.20D-02
 Coeff-Com: -0.189D+00 0.337D+00 0.265D+00 0.586D+00
 Coeff-En:   0.000D+00 0.000D+00 0.733D-01 0.927D+00
 Coeff:     -0.181D+00 0.323D+00 0.257D+00 0.601D+00
 Gap=     0.056 Goal=   None    Shift=    0.000
 Gap=     0.056 Goal=   None    Shift=    0.000
 RMSDP=2.97D-03 MaxDP=9.74D-01 DE=-1.62D-01 OVMax= 5.56D-02

 Cycle   5  Pass 1  IDiag  1:
 RMSU=  1.78D-03    CP:  7.52D-01  2.32D-03  7.43D-01  9.55D-01
 E= -1545.05124836600     Delta-E=       -0.020885544286 Rises=F Damp=F
 DIIS: error= 2.13D-03 at cycle   5 NSaved=   5.
 NSaved= 5 IEnMin= 5 EnMin= -1545.05124836600     IErMin= 5 ErrMin= 2.13D-03
 ErrMax= 2.13D-03  0.00D+00 EMaxC= 1.00D-01 BMatC= 1.33D-02 BMatP= 1.05D-01
 IDIUse=3 WtCom= 9.79D-01 WtEn= 2.13D-02
 Coeff-Com: -0.778D-01 0.118D+00 0.749D-01 0.310D+00 0.574D+00
 Coeff-En:   0.000D+00 0.000D+00 0.000D+00 0.529D-01 0.947D+00
 Coeff:     -0.761D-01 0.116D+00 0.733D-01 0.305D+00 0.582D+00
 Gap=     0.061 Goal=   None    Shift=    0.000
 Gap=     0.061 Goal=   None    Shift=    0.000
 RMSDP=6.04D-04 MaxDP=8.60D-02 DE=-2.09D-02 OVMax= 2.06D-02

 Cycle   6  Pass 1  IDiag  1:
 RMSU=  3.09D-04    CP:  7.42D-01  2.24D-03  7.40D-01  1.04D+00  9.73D-01
 E= -1545.05407399256     Delta-E=       -0.002825626556 Rises=F Damp=F
 DIIS: error= 3.09D-04 at cycle   6 NSaved=   6.
 NSaved= 6 IEnMin= 6 EnMin= -1545.05407399256     IErMin= 6 ErrMin= 3.09D-04
 ErrMax= 3.09D-04  0.00D+00 EMaxC= 1.00D-01 BMatC= 7.09D-04 BMatP= 1.33D-02
 IDIUse=3 WtCom= 9.97D-01 WtEn= 3.09D-03
 Coeff-Com: -0.157D-01 0.195D-01-0.306D-02 0.575D-01 0.260D+00 0.682D+00
 Coeff-En:   0.000D+00 0.000D+00 0.000D+00 0.000D+00 0.000D+00 0.100D+01
 Coeff:     -0.156D-01 0.194D-01-0.305D-02 0.573D-01 0.259D+00 0.683D+00
 Gap=     0.060 Goal=   None    Shift=    0.000
 Gap=     0.060 Goal=   None    Shift=    0.000
 RMSDP=2.67D-04 MaxDP=6.69D-02 DE=-2.83D-03 OVMax= 5.18D-03

 Cycle   7  Pass 1  IDiag  1:
 RMSU=  1.26D-04    CP:  7.37D-01  2.45D-03  7.42D-01  1.06D+00  1.05D+00
                    CP:  1.21D+00
 E= -1545.05423119671     Delta-E=       -0.000157204152 Rises=F Damp=F
 DIIS: error= 1.44D-04 at cycle   7 NSaved=   7.
 NSaved= 7 IEnMin= 7 EnMin= -1545.05423119671     IErMin= 7 ErrMin= 1.44D-04
 ErrMax= 1.44D-04  0.00D+00 EMaxC= 1.00D-01 BMatC= 1.01D-04 BMatP= 7.09D-04
 IDIUse=3 WtCom= 9.99D-01 WtEn= 1.44D-03
 Coeff-Com: -0.790D-03-0.415D-03-0.753D-02-0.119D-02 0.734D-01 0.349D+00
 Coeff-Com:  0.588D+00
 Coeff-En:   0.000D+00 0.000D+00 0.000D+00 0.000D+00 0.000D+00 0.264D-01
 Coeff-En:   0.974D+00
 Coeff:     -0.789D-03-0.414D-03-0.752D-02-0.118D-02 0.733D-01 0.348D+00
 Coeff:      0.588D+00
 Gap=     0.060 Goal=   None    Shift=    0.000
 Gap=     0.060 Goal=   None    Shift=    0.000
 RMSDP=7.20D-05 MaxDP=8.35D-03 DE=-1.57D-04 OVMax= 3.01D-03

 Cycle   8  Pass 1  IDiag  1:
 RMSU=  5.65D-05    CP:  7.36D-01  2.57D-03  7.42D-01  1.06D+00  1.07D+00
                    CP:  1.24D+00  9.79D-01
 E= -1545.05425091675     Delta-E=       -0.000019720043 Rises=F Damp=F
 DIIS: error= 6.58D-05 at cycle   8 NSaved=   8.
 NSaved= 8 IEnMin= 8 EnMin= -1545.05425091675     IErMin= 8 ErrMin= 6.58D-05
 ErrMax= 6.58D-05  0.00D+00 EMaxC= 1.00D-01 BMatC= 2.54D-05 BMatP= 1.01D-04
 IDIUse=1 WtCom= 1.00D+00 WtEn= 0.00D+00
 Coeff-Com:  0.885D-03-0.146D-02-0.281D-02-0.576D-02 0.146D-01 0.130D+00
 Coeff-Com:  0.370D+00 0.494D+00
 Coeff:      0.885D-03-0.146D-02-0.281D-02-0.576D-02 0.146D-01 0.130D+00
 Coeff:      0.370D+00 0.494D+00
 Gap=     0.060 Goal=   None    Shift=    0.000
 Gap=     0.060 Goal=   None    Shift=    0.000
 RMSDP=2.65D-05 MaxDP=6.82D-03 DE=-1.97D-05 OVMax= 1.27D-03

 Cycle   9  Pass 1  IDiag  1:
 RMSU=  1.54D-05    CP:  7.36D-01  2.49D-03  7.42D-01  1.06D+00  1.07D+00
                    CP:  1.26D+00  1.01D+00  8.98D-01
 E= -1545.05425706330     Delta-E=       -0.000006146548 Rises=F Damp=F
 DIIS: error= 1.55D-05 at cycle   9 NSaved=   9.
 NSaved= 9 IEnMin= 9 EnMin= -1545.05425706330     IErMin= 9 ErrMin= 1.55D-05
 ErrMax= 1.55D-05  0.00D+00 EMaxC= 1.00D-01 BMatC= 1.49D-06 BMatP= 2.54D-05
 IDIUse=1 WtCom= 1.00D+00 WtEn= 0.00D+00
 Coeff-Com:  0.507D-03-0.678D-03-0.680D-03-0.264D-02 0.316D-02 0.464D-01
 Coeff-Com:  0.161D+00 0.266D+00 0.527D+00
 Coeff:      0.507D-03-0.678D-03-0.680D-03-0.264D-02 0.316D-02 0.464D-01
 Coeff:      0.161D+00 0.266D+00 0.527D+00
 Gap=     0.060 Goal=   None    Shift=    0.000
 Gap=     0.060 Goal=   None    Shift=    0.000
 RMSDP=7.03D-06 MaxDP=1.65D-03 DE=-6.15D-06 OVMax= 2.89D-04

 Cycle  10  Pass 1  IDiag  1:
 RMSU=  4.89D-06    CP:  7.36D-01  2.47D-03  7.42D-01  1.06D+00  1.07D+00
                    CP:  1.27D+00  1.01D+00  9.45D-01  1.02D+00
 E= -1545.05425743315     Delta-E=       -0.000000369853 Rises=F Damp=F
 DIIS: error= 4.58D-06 at cycle  10 NSaved=  10.
 NSaved=10 IEnMin=10 EnMin= -1545.05425743315     IErMin=10 ErrMin= 4.58D-06
 ErrMax= 4.58D-06  0.00D+00 EMaxC= 1.00D-01 BMatC= 1.19D-07 BMatP= 1.49D-06
 IDIUse=1 WtCom= 1.00D+00 WtEn= 0.00D+00
 Coeff-Com:  0.144D-03-0.175D-03 0.690D-04-0.373D-03 0.295D-03 0.746D-02
 Coeff-Com:  0.315D-01 0.595D-01 0.238D+00 0.663D+00
 Coeff:      0.144D-03-0.175D-03 0.690D-04-0.373D-03 0.295D-03 0.746D-02
 Coeff:      0.315D-01 0.595D-01 0.238D+00 0.663D+00
 Gap=     0.060 Goal=   None    Shift=    0.000
 Gap=     0.060 Goal=   None    Shift=    0.000
 RMSDP=3.89D-06 MaxDP=6.63D-04 DE=-3.70D-07 OVMax= 1.38D-04

 Cycle  11  Pass 1  IDiag  1:
 RMSU=  1.59D-06    CP:  7.36D-01  2.47D-03  7.42D-01  1.06D+00  1.07D+00
                    CP:  1.27D+00  1.03D+00  9.60D-01  1.11D+00  9.60D-01
 E= -1545.05425745731     Delta-E=       -0.000000024162 Rises=F Damp=F
 DIIS: error= 2.83D-06 at cycle  11 NSaved=  11.
 NSaved=11 IEnMin=11 EnMin= -1545.05425745731     IErMin=11 ErrMin= 2.83D-06
 ErrMax= 2.83D-06  0.00D+00 EMaxC= 1.00D-01 BMatC= 3.57D-08 BMatP= 1.19D-07
 IDIUse=1 WtCom= 1.00D+00 WtEn= 0.00D+00
 Coeff-Com:  0.482D-04-0.658D-04 0.962D-04 0.562D-04-0.170D-05 0.239D-03
 Coeff-Com:  0.300D-02 0.771D-02 0.833D-01 0.413D+00 0.493D+00
 Coeff:      0.482D-04-0.658D-04 0.962D-04 0.562D-04-0.170D-05 0.239D-03
 Coeff:      0.300D-02 0.771D-02 0.833D-01 0.413D+00 0.493D+00
 Gap=     0.060 Goal=   None    Shift=    0.000
 Gap=     0.060 Goal=   None    Shift=    0.000
 RMSDP=1.40D-06 MaxDP=2.45D-04 DE=-2.42D-08 OVMax= 5.36D-05

 Cycle  12  Pass 1  IDiag  1:
 RMSU=  7.06D-07    CP:  7.36D-01  2.47D-03  7.42D-01  1.06D+00  1.07D+00
                    CP:  1.27D+00  1.03D+00  9.72D-01  1.13D+00  1.07D+00
                    CP:  9.51D-01
 E= -1545.05425746576     Delta-E=       -0.000000008448 Rises=F Damp=F
 DIIS: error= 7.93D-07 at cycle  12 NSaved=  12.
 NSaved=12 IEnMin=12 EnMin= -1545.05425746576     IErMin=12 ErrMin= 7.93D-07
 ErrMax= 7.93D-07  0.00D+00 EMaxC= 1.00D-01 BMatC= 2.75D-09 BMatP= 3.57D-08
 IDIUse=1 WtCom= 1.00D+00 WtEn= 0.00D+00
 Coeff-Com:  0.380D-05-0.972D-05 0.291D-04 0.754D-04 0.201D-05-0.825D-03
 Coeff-Com: -0.305D-02-0.503D-02 0.322D-03 0.906D-01 0.251D+00 0.667D+00
 Coeff:      0.380D-05-0.972D-05 0.291D-04 0.754D-04 0.201D-05-0.825D-03
 Coeff:     -0.305D-02-0.503D-02 0.322D-03 0.906D-01 0.251D+00 0.667D+00
 Gap=     0.060 Goal=   None    Shift=    0.000
 Gap=     0.060 Goal=   None    Shift=    0.000
 RMSDP=7.27D-07 MaxDP=1.14D-04 DE=-8.45D-09 OVMax= 3.44D-05

 Cycle  13  Pass 1  IDiag  1:
 RMSU=  2.56D-07    CP:  7.36D-01  2.47D-03  7.42D-01  1.06D+00  1.07D+00
                    CP:  1.27D+00  1.03D+00  9.78D-01  1.15D+00  1.11D+00
                    CP:  1.08D+00  9.40D-01
 E= -1545.05425746649     Delta-E=       -0.000000000726 Rises=F Damp=F
 DIIS: error= 5.02D-07 at cycle  13 NSaved=  13.
 NSaved=13 IEnMin=13 EnMin= -1545.05425746649     IErMin=13 ErrMin= 5.02D-07
 ErrMax= 5.02D-07  0.00D+00 EMaxC= 1.00D-01 BMatC= 7.82D-10 BMatP= 2.75D-09
 IDIUse=1 WtCom= 1.00D+00 WtEn= 0.00D+00
 Coeff-Com: -0.331D-05 0.236D-05 0.125D-04 0.476D-04-0.916D-05-0.690D-03
 Coeff-Com: -0.266D-02-0.461D-02-0.921D-02 0.181D-01 0.119D+00 0.454D+00
 Coeff-Com:  0.426D+00
 Coeff:     -0.331D-05 0.236D-05 0.125D-04 0.476D-04-0.916D-05-0.690D-03
 Coeff:     -0.266D-02-0.461D-02-0.921D-02 0.181D-01 0.119D+00 0.454D+00
 Coeff:      0.426D+00
 Gap=     0.060 Goal=   None    Shift=    0.000
 Gap=     0.060 Goal=   None    Shift=    0.000
 RMSDP=1.85D-07 MaxDP=4.32D-05 DE=-7.26D-10 OVMax= 7.17D-06

 Cycle  14  Pass 1  IDiag  1:
 RMSU=  9.95D-08    CP:  7.36D-01  2.47D-03  7.42D-01  1.06D+00  1.07D+00
                    CP:  1.27D+00  1.03D+00  9.80D-01  1.15D+00  1.12D+00
                    CP:  1.07D+00  1.03D+00  1.04D+00
 E= -1545.05425746668     Delta-E=       -0.000000000194 Rises=F Damp=F
 DIIS: error= 1.45D-07 at cycle  14 NSaved=  14.
 NSaved=14 IEnMin=14 EnMin= -1545.05425746668     IErMin=14 ErrMin= 1.45D-07
 ErrMax= 1.45D-07  0.00D+00 EMaxC= 1.00D-01 BMatC= 3.62D-11 BMatP= 7.82D-10
 IDIUse=1 WtCom= 1.00D+00 WtEn= 0.00D+00
 Coeff-Com: -0.147D-05 0.182D-05 0.566D-06 0.526D-05-0.243D-05-0.157D-03
 Coeff-Com: -0.612D-03-0.104D-02-0.391D-02-0.835D-02 0.951D-02 0.107D+00
 Coeff-Com:  0.157D+00 0.740D+00
 Coeff:     -0.147D-05 0.182D-05 0.566D-06 0.526D-05-0.243D-05-0.157D-03
 Coeff:     -0.612D-03-0.104D-02-0.391D-02-0.835D-02 0.951D-02 0.107D+00
 Coeff:      0.157D+00 0.740D+00
 Gap=     0.060 Goal=   None    Shift=    0.000
 Gap=     0.060 Goal=   None    Shift=    0.000
 RMSDP=1.14D-07 MaxDP=1.33D-05 DE=-1.94D-10 OVMax= 8.37D-06

 Cycle  15  Pass 1  IDiag  1:
 RMSU=  3.99D-08    CP:  7.36D-01  2.47D-03  7.42D-01  1.06D+00  1.07D+00
                    CP:  1.27D+00  1.03D+00  9.80D-01  1.15D+00  1.13D+00
[...]
 0000297,0.00000159,-0.00000002,0.,0.00000003,-0.00000004,0.,0.00000001
 ,0.00000002,-0.00000004,0.00000002,0.,-0.00000002,0.00000008,-0.000000
 08,-0.00000005,-0.00000009,0.00000007,0.00000008,0.,-0.00000004,-0.000
 00012,-0.00000002,0.00000011,0.00000004,0.00000003,-0.00000005,0.,0.00
 000012,0.00000015,0.00000015,0.00000004,-0.00000005,-0.00000005,0.0000
 0014,0.00000024,0.00000008,0.00000002,-0.00000007,0.00000001,0.0000001
 9,0.00000023,0.00000022,0.00000003,-0.00000006,-0.00000010,0.00000025,
 0.00000045,0.00000011,0.00000004,-0.00000009,0.00000005,0.00000032,0.0
 0000031,0.00000033,0.00000002,-0.00000007,-0.00000029,0.00000054,0.000
 00112,0.00000015,0.00000002,-0.00000008,0.00000017,0.00000048,0.000000
 43,0.00000029,0.00000034,-0.00000005,-0.00000112,0.00000118,0.00000386
 ,0.00000127,-0.00000164,0.00000177,0.00000153,-0.00000016,0.00001704,-
 0.00004411,0.00002336,0.00006128,-0.00000092,-0.00008451,-0.00003557,-
 0.00012758,0.00002904,-0.00012207,0.00003591,-0.00000299,0.00048099,-0
 .00020764,-0.00003445,0.00000141,-0.00001609,-0.00000646,0.00001936,-0
 .00055430,0.00030157,0.00000269,-0.00002205,0.00000678,0.00003580,0.00
 107280,0.00060472,-0.00008697,0.00004796,0.00004049,0.00002497,0.00001
 084,-0.00001310,-0.00182742,0.00157813,-0.00837530,-0.00212970,-0.0009
 4406,0.00118403,0.00017825,-0.00008273,0.00008377,-0.00035669,0.000110
 07,-0.00080102,0.00026093,-0.00046472,0.00038037,-0.00003965,-0.000059
 15,0.00015990,-0.00014164,0.00009446,-0.00004094,0.00067178,-0.0005545
 0,0.00080169,-0.00004168,-0.00001893,0.00005802,-0.00009383,0.00002326
 ,-0.00003880,0.00213739,-0.00208816,0.00211359,-0.00034826,0.00042789,
 -0.00008269,-0.00010007,0.00002337,0.00183962,-0.07391323,0.06182735,-
 0.26111077,0.08158773,-0.06509583,0.28170947,0.00000002,0.00000004,-0.
 00000003,0.00000003,0.00000001,0.,0.00000006,0.00000001,-0.00000001,-0
 .00000007,-0.00000004,-0.00000004,0.00000004,0.00000002,0.00000003,-0.
 00000003,0.00000002,-0.00000001,0.00000005,0.00000003,0.00000018,0.,0.
 00000007,-0.00000002,0.,0.00000001,-0.00000008,0.,0.00000006,0.0000001
 3,0.00000005,0.,-0.00000019,0.00000006,-0.00000001,-0.00000018,0.00000
 003,0.00000002,-0.00000006,-0.00000003,-0.00000006,0.00000002,-0.00000
 007,-0.00000004,0.00000010,0.00000012,0.00000002,0.00000007,-0.0000002
 7,-0.00000026,-0.00000009,0.00000050,0.00000001,-0.00000014,-0.0000003
 0,-0.00000058,0.00000106,0.00000110,0.00000007,-0.00000192,-0.00000268
 ,-0.00000234,0.00000246,0.00000447,0.00000015,-0.00000346,-0.00004431,
 0.00001787,0.00002815,0.,-0.00000002,0.,0.,-0.00000002,0.,0.,-0.000000
 01,0.00000001,-0.00000002,-0.00000001,0.00000002,-0.00000004,-0.000000
 04,0.00000005,0.00000002,0.00000003,0.00000004,0.,-0.00000001,-0.00000
 004,0.00000002,0.,0.00000004,-0.00000001,-0.00000001,-0.00000003,0.000
 00002,0.00000003,0.00000001,0.,0.,-0.00000007,0.00000008,0.00000001,0.
 00000008,-0.00000001,-0.00000005,-0.00000012,0.00000003,0.00000004,0.0
 0000005,-0.00000003,0.00000002,-0.00000007,0.00000021,0.00000004,0.000
 00010,-0.00000001,-0.00000008,-0.00000026,0.00000001,0.00000004,0.0000
 0004,-0.00000002,-0.00000003,-0.00000005,0.00000060,0.00000002,0.00000
 028,-0.00000009,-0.00000005,-0.00000058,0.00000017,-0.00000076,-0.0000
 0019,0.00000016,-0.00000042,0.00000003,0.00000741,0.00000419,-0.000001
 14,0.00000211,0.00000226,-0.00000808,0.00004094,-0.00014119,-0.0000232
 9,0.00017734,0.00014859,-0.00019281,0.00030277,-0.00028235,-0.00002243
 ,0.00002108,0.00020846,0.00003732,-0.00025607,0.00016224,0.00058062,0.
 00001416,-0.00003373,0.00002392,-0.00000539,-0.00047741,0.00024851,-0.
 00001574,-0.00003215,-0.00000528,0.00018664,0.00129228,-0.00056139,0.0
 0041550,-0.00002904,-0.00044447,0.00007325,0.00002863,-0.00013354,-0.0
 2265689,0.00035892,0.01555458,0.00112294,0.00001214,0.00095539,-0.0001
 2227,-0.00010722,-0.00065961,0.00035287,-0.00001185,0.00005168,-0.0003
 9890,0.00023114,0.00020306,0.00034463,0.00037143,-0.00054663,0.0002764
 0,-0.00001053,-0.00014811,0.00023921,0.00020760,0.00029435,-0.00010572
 ,0.00008983,-0.00016491,0.00007368,-0.00013418,-0.00004190,-0.00652728
 ,0.00014337,0.00587196,0.00161819,-0.00018035,-0.00057204,0.00023269,0
 .00134427,-0.00045454,-0.19540043,0.01849376,0.12059856,0.00847573,-0.
 00089921,-0.00586834,0.21462015,0.00000001,0.,0.00000001,-0.00000001,-
 0.00000004,0.00000002,0.,-0.00000001,0.00000001,0.,0.00000003,-0.00000
 007,0.,0.00000002,0.00000002,-0.00000001,0.,-0.00000002,0.,-0.00000008
 ,0.00000007,0.00000001,0.00000011,-0.00000003,-0.00000002,-0.00000003,
 0.00000003,0.,0.,-0.00000002,0.,-0.00000004,0.,-0.00000001,-0.00000003
 ,0.00000004,0.00000003,-0.00000004,0.00000004,0.00000003,-0.00000007,0
 .00000004,-0.00000009,-0.00000004,-0.00000034,0.00000005,-0.00000006,0
 .00000022,0.00000044,0.00000028,0.00000054,-0.00000065,-0.00000049,-0.
 00000072,0.00000042,0.00000063,-0.00000072,-0.00000011,-0.00000016,0.0
 0000227,0.00000046,0.00000087,-0.00000196,-0.00000212,-0.00000147,0.00
 000332,0.00000875,-0.00000898,-0.00000170,0.,0.,0.,0.00000001,0.,-0.00
 000001,0.,0.00000001,0.,0.,0.,0.,0.,0.00000003,-0.00000001,0.,-0.00000
 001,-0.00000002,-0.00000001,0.,0.00000001,0.,0.,-0.00000002,0.00000001
 ,0.,0.00000003,0.00000001,0.,0.,0.,0.,0.00000001,-0.00000003,-0.000000
 02,0.,0.,0.00000001,0.00000005,0.00000003,0.,0.,0.00000002,0.,0.,-0.00
 000002,-0.00000005,0.,0.,-0.00000001,0.00000010,0.00000011,0.00000006,
 0.,-0.00000004,0.00000005,-0.00000009,-0.00000011,-0.00000010,-0.00000
 025,-0.00000013,0.,0.00000028,0.00000089,0.00000095,-0.00000024,0.0000
 0065,-0.00000030,-0.00000015,-0.00000206,0.00000380,0.00000282,-0.0000
 0338,0.00000293,0.00000064,-0.00003997,0.00003222,-0.00004047,0.000315
 50,0.00002896,-0.00017290,0.00017373,-0.00028631,0.00013455,-0.0001215
 4,0.00033576,-0.00000358,-0.00023797,-0.00009803,0.00002175,-0.0000251
 5,-0.00001509,-0.00001825,-0.00002037,-0.00045510,0.00039910,-0.000014
 88,0.00000133,-0.00001404,0.00026300,0.00148226,0.00030249,-0.00004747
 ,-0.00094265,-0.00045573,0.00006477,0.00002051,-0.00008907,-0.01752931
 ,0.00071422,0.01279031,0.00117516,0.00086375,0.00070978,0.00010042,0.0
 0000499,-0.00021760,0.00016321,-0.00007303,0.00015247,0.00025681,0.000
 08851,-0.00006410,0.00002226,0.00016409,0.00041473,-0.00008852,0.00004
 289,0.00003033,-0.00036271,-0.00007892,-0.00065905,0.00006426,-0.00010
 143,0.00013322,0.00008939,0.00004425,0.00013735,0.02276129,-0.00666312
 ,-0.02114766,-0.00007967,0.00181993,-0.00017325,0.00283630,-0.00529464
 ,0.00008387,0.01711427,-0.04726791,-0.01244139,-0.00660814,0.00032643,
 0.00509467,-0.01705536,0.05758149,0.,0.00000002,0.,-0.00000005,-0.0000
 0007,0.00000007,0.,-0.00000002,0.,-0.00000004,0.00000003,-0.00000002,0
 .00000005,-0.00000009,0.,-0.00000008,-0.00000010,0.00000005,-0.0000000
 3,0.00000008,0.00000015,0.00000017,-0.00000003,0.00000021,-0.00000001,
 0.,-0.00000003,-0.00000001,0.00000010,0.00000017,-0.00000009,-0.000000
 21,-0.00000016,-0.00000010,-0.00000022,-0.00000009,-0.00000020,-0.0000
 0009,-0.00000010,0.00000005,0.00000009,-0.00000005,0.00000010,0.000000
 08,0.00000015,0.,0.00000014,0.,-0.00000011,-0.00000010,-0.00000060,0.0
 0000006,0.00000026,0.00000015,0.00000113,0.00000075,0.00000101,-0.0000
 0125,-0.00000021,0.00000014,0.00000121,0.00000108,-0.00000052,-0.00000
 286,0.00000055,0.00000193,0.00002534,-0.00001082,-0.00001407,0.0000000
 2,0.00000003,-0.00000002,0.00000002,0.00000002,-0.00000002,0.00000001,
 0.00000003,-0.00000003,0.00000003,0.00000003,-0.00000005,0.00000009,0.
 00000010,-0.00000003,-0.00000007,-0.00000006,-0.00000003,0.,0.00000005
 ,0.00000006,-0.00000006,-0.00000002,-0.00000008,0.00000005,0.00000004,
 0.00000001,-0.00000012,-0.00000012,-0.00000006,0.00000005,0.,0.0000000
 7,-0.00000018,-0.00000005,-0.00000011,0.00000005,0.00000005,0.00000008
 ,-0.00000016,-0.00000016,-0.00000008,0.00000007,0.,0.00000008,-0.00000
 030,-0.00000007,-0.00000020,0.00000008,0.00000006,0.00000013,-0.000000
 19,-0.00000021,-0.00000007,0.00000011,-0.00000002,0.00000002,-0.000000
 70,-0.00000003,-0.00000030,0.00000004,0.00000013,0.00000016,-0.0000002
 6,-0.00000051,-0.00000007,0.00000047,-0.00000013,0.00000029,-0.0000058
 4,-0.00000128,-0.00000086,-0.00000169,-0.00000030,0.00000489,-0.000040
 49,0.00007976,-0.00001190,0.00006303,-0.00005858,0.00005461,-0.0000875
 7,0.00004111,0.00000789,-0.00003633,0.00000614,-0.00000570,0.00005215,
 -0.00013318,-0.00034921,-0.00001299,-0.00000305,-0.00002049,0.00002325
 ,0.00004483,0.00011692,-0.00000785,0.00001093,-0.00000998,0.00042290,0
 .00008976,0.00025872,-0.00017800,-0.00040386,0.00019468,0.00001370,0.0
 0002059,-0.00001194,-0.00831857,0.00070969,0.00607031,-0.00037971,0.00
 077128,0.00103275,0.00033649,-0.00013017,0.00021544,0.00024246,-0.0000
 2326,0.00015396,0.00024839,0.00029433,-0.00072353,-0.00085459,0.000253
 55,-0.00044036,-0.00002284,-0.00004722,0.00017504,-0.00021912,-0.00007
 809,0.00031888,0.00010005,-0.00005762,0.00004586,0.00012980,-0.0000052
 5,0.00000557,-0.00063917,-0.00056395,-0.00069910,-0.00024436,-0.000469
 20,0.00097286,0.00001824,-0.00075575,0.00110723,0.12122002,-0.01285073
 ,-0.14893862,0.02312329,-0.00208467,-0.01928331,-0.13285812,0.01657157
 ,0.15925017,0.00000004,0.00000008,-0.00000007,0.,0.00000004,0.00000001
 ,0.00000001,0.00000007,-0.00000008,0.,-0.00000002,0.00000018,-0.000000
 01,-0.00000006,-0.00000008,0.00000006,0.00000004,0.00000002,-0.0000001
 1,0.00000002,-0.00000002,0.00000010,-0.00000006,-0.00000002,0.00000011
 ,0.00000015,-0.00000005,-0.00000007,0.00000002,0.00000002,0.00000002,0
 .00000017,-0.00000005,0.00000004,0.00000015,-0.00000010,-0.00000008,0.
 00000012,-0.00000011,-0.00000017,0.,0.00000005,0.00000014,0.00000023,-
 0.00000007,-0.00000063,0.00000001,0.00000027,0.00000037,0.00000078,-0.
 00000047,-0.00000212,-0.00000014,0.00000131,0.00000228,0.00000325,-0.0
 0000227,-0.00000687,-0.00000138,0.00000501,0.00000981,0.00000794,-0.00
 000895,-0.00001184,-0.00000761,0.00001129,0.00010204,-0.00006800,-0.00
 005576,-0.00000001,-0.00000003,0.00000001,-0.00000003,-0.00000002,0.00
 000002,-0.00000003,-0.00000004,0.00000001,-0.00000001,-0.00000003,0.00
 000004,0.,-0.00000013,0.00000003,0.00000005,0.00000004,0.00000004,0.,-
 0.00000001,-0.00000006,0.00000002,-0.00000002,0.00000004,-0.00000005,-
 0.00000003,0.,0.00000010,0.00000008,0.00000005,-0.00000002,0.00000002,
 -0.00000016,0.,-0.00000004,0.00000007,-0.00000004,-0.00000005,-0.00000
 003,0.00000026,0.00000020,0.00000012,-0.00000001,0.00000005,-0.0000003
 4,-0.00000017,-0.00000015,0.00000010,-0.00000011,-0.00000011,0.0000001
 4,0.00000078,0.00000067,0.00000014,0.00000003,0.00000027,-0.00000099,-
 0.00000092,-0.00000051,0.00000044,-0.00000027,-0.00000014,0.00000106,0
 .00000221,0.00000385,-0.00000126,-0.00000019,0.00000413,-0.00000397,-0
 .00001430,0.00000543,0.00001216,-0.00001759,-0.00000072,0.00001185,-0.
 00007459,0.00039061,-0.00005819,0.00029547,-0.00039556,-0.00003936,-0.
 00032390,-0.00014565,0.00044840,0.00004605,0.00032028,-0.00030740,0.00
 085173,0.00184056,-0.00038034,-0.00008108,0.00016350,-0.00007631,0.000
 53094,-0.00263098,0.00044318,-0.00001983,0.00003618,-0.00002720,-0.008
 06596,0.00288902,0.00517412,0.00002694,-0.00020672,-0.00009974,0.00068
 913,0.00021446,-0.00043341,-0.20272906,0.04012589,0.11406855,0.0058348
 7,-0.00189865,-0.00699440,0.00080696,0.00037378,-0.00219853,0.00177484
 ,-0.00026348,-0.00003736,0.00028626,-0.00011685,0.00017933,-0.00004007
 ,0.00003839,-0.00006645,-0.00000634,-0.00014558,0.00004226,-0.00028585
 ,0.00034240,0.00034599,0.00023313,-0.00002406,-0.00014813,0.00063989,0
 .00037705,-0.00005815,0.00071065,0.00106459,-0.00024499,0.00015936,0.0
 0017208,-0.00012774,0.00010517,-0.00060136,-0.00014121,-0.02380684,0.0
 0147969,0.01398319,0.00065398,0.00054316,-0.00036239,-0.00306885,-0.00
 317245,-0.00210888,0.22479416,-0.00000001,-0.00000007,0.00000004,0.000
 00002,0.,-0.00000003,0.00000001,-0.00000005,0.00000006,-0.00000004,0.,
 -0.00000012,-0.00000003,0.00000006,0.00000007,-0.00000002,0.,-0.000000
 05,0.00000008,-0.00000003,0.00000013,0.00000007,0.00000025,0.,-0.00000
 017,-0.00000025,0.00000015,0.00000007,0.00000005,-0.00000010,0.,-0.000
 00006,-0.00000007,0.00000002,-0.00000003,0.00000004,0.00000004,-0.0000
 0006,0.00000002,0.00000015,-0.00000002,-0.00000008,-0.00000030,-0.0000
 0039,-0.00000014,0.00000085,0.00000021,-0.00000006,-0.00000057,-0.0000
 0103,0.00000074,0.00000209,0.,-0.00000245,-0.00000235,-0.00000380,0.00
 000414,0.00000869,0.00000175,-0.00000631,-0.00001280,-0.00000865,0.000
 01109,0.00000971,0.00001012,-0.00001025,-0.00011818,0.00005768,0.00006
 552,0.,0.,-0.00000001,0.00000001,0.,0.,0.00000002,0.00000002,0.,-0.000
 00001,0.,0.,-0.00000003,0.00000002,0.00000001,-0.00000002,0.,0.,-0.000
 00001,0.,0.00000001,0.00000002,0.00000002,-0.00000002,0.00000003,0.000
 00001,-0.00000002,-0.00000007,-0.00000005,-0.00000002,0.,0.,0.00000008
 ,0.00000009,0.00000004,0.,0.00000002,0.,-0.00000009,-0.00000020,-0.000
 00017,-0.00000006,-0.00000003,-0.00000002,0.00000026,0.00000042,0.0000
 0018,0.00000004,0.00000007,0.00000003,-0.00000046,-0.00000079,-0.00000
 072,-0.00000009,-0.00000014,-0.00000031,0.00000095,0.00000166,0.000000
 71,-0.00000025,0.00000065,0.00000020,-0.00000178,-0.00000270,-0.000007
 56,0.00000138,-0.00000032,-0.00000557,0.00000504,0.00001091,-0.0000019
 9,-0.00001942,0.00002160,0.00000159,-0.00000354,0.00007266,-0.00045516
 ,0.00009330,-0.00025965,0.00042373,0.00006041,0.00131028,0.00012348,-0
 .00090786,0.00005425,-0.00026779,0.00000033,0.00000378,-0.00583505,0.0
 0206016,0.00012791,-0.00046780,0.00006293,0.00180276,0.00109846,-0.001
 68098,-0.00002846,0.00002113,-0.00001127,0.02738843,-0.01135644,-0.017
 80386,-0.00003457,0.00022998,-0.00013991,-0.00081914,-0.00018726,0.000
 72601,0.03681008,-0.05761522,-0.02567078,-0.00468523,0.00148277,0.0033
 9766,0.00023047,0.00004553,0.00078993,0.00004991,0.00061113,-0.0005076
 1,-0.00021215,0.00040385,-0.00004950,0.00008139,0.00007055,-0.00015761
 ,0.00004115,-0.00000607,-0.00002698,0.00031856,-0.00063494,0.00026048,
 0.00004259,0.00012344,-0.00006784,0.00009464,-0.00102465,0.00041703,-0
 .00036170,0.00083919,0.00071625,0.00017769,0.00029794,-0.00012263,0.00
 018596,0.00002904,-0.00031102,-0.01865992,0.00188214,0.01159324,0.0007
 8693,0.00054427,-0.00007013,-0.00371835,-0.00227310,-0.00121779,-0.040
 71881,0.07185476,-0.00000003,-0.00000006,0.00000006,0.,-0.00000003,-0.
 00000003,0.,-0.00000007,0.00000008,-0.00000007,-0.00000002,-0.00000012
 ,-0.00000003,0.00000008,0.00000010,-0.00000004,-0.00000002,-0.00000003
 ,0.00000013,-0.00000003,0.00000004,-0.00000002,0.00000022,-0.00000007,
 -0.00000012,-0.00000028,0.00000015,0.00000008,0.00000001,-0.00000005,-
 0.00000002,-0.00000012,0.00000004,-0.00000003,-0.00000009,0.00000009,0
 .00000006,-0.00000015,0.00000013,0.00000007,0.00000004,-0.00000011,0.,
 -0.00000012,0.,0.00000037,0.00000013,0.,-0.00000030,-0.00000050,-0.000
 00008,0.00000038,-0.00000007,-0.00000117,-0.00000042,-0.00000122,0.000
 00173,0.00000259,0.00000072,-0.00000239,-0.00000282,-0.00000326,0.0000
 0434,0.00000869,0.00000272,-0.00000418,-0.00005547,0.00003619,0.000020
 18,0.00000001,0.00000002,-0.00000001,0.00000002,0.,-0.00000002,0.00000
 003,0.00000004,-0.00000002,0.,0.00000002,-0.00000002,0.,0.00000011,-0.
 00000003,-0.00000003,-0.00000003,-0.00000003,0.,0.00000002,0.00000005,
 0.,0.,-0.00000005,0.00000003,0.00000002,0.00000002,-0.00000007,-0.0000
 0005,-0.00000004,0.,0.00000001,0.00000010,-0.00000002,0.,-0.00000006,0
 .00000002,0.00000003,0.00000005,-0.00000013,-0.00000011,-0.00000006,0.
 ,-0.00000001,0.00000022,0.00000001,0.00000007,-0.00000010,0.00000002,0
 .00000006,-0.00000002,-0.00000035,-0.00000036,-0.00000013,0.00000001,-
 0.00000016,0.00000053,0.00000029,0.00000011,0.00000010,0.00000030,0.00
 000023,-0.00000024,-0.00000076,-0.00000184,-0.00000027,-0.00000079,-0.
 00000031,0.00000088,0.00001163,0.00000248,-0.00000495,0.00000770,-0.00
 000369,-0.00000479,0.00004658,-0.00018262,0.00002981,-0.00009674,0.000
 20188,0.00005190,-0.00005183,0.00013941,0.00014273,-0.00019297,-0.0002
 0632,0.00006851,0.00018980,0.00090170,0.00075187,-0.00006171,-0.000013
 61,-0.00007371,-0.00085503,0.00167380,0.00026145,-0.00000479,-0.000047
 82,-0.00001521,-0.00277098,0.00156882,0.00145432,-0.00013138,-0.000004
 44,-0.00006679,-0.00015732,-0.00008190,0.00030333,0.11343175,-0.028621
 18,-0.12831165,0.02194073,-0.00695322,-0.02245100,-0.00128416,0.001897
 99,-0.00540742,-0.00003307,-0.00016054,0.00165488,-0.00022555,-0.00071
 181,0.00012789,0.00005356,0.00006949,0.00012999,-0.00007295,0.00019257
 ,-0.00008434,0.00050682,-0.00001562,-0.00023113,-0.00025362,-0.0000176
 4,0.00017093,-0.00053708,0.00025240,0.00035957,0.00049364,0.00040027,0
 .00074434,-0.00008244,0.00018026,-0.00005020,0.00010202,0.00030881,-0.
 00013232,-0.00787217,0.00156396,0.00607865,0.00043095,0.00059414,0.000
 53633,-0.00173860,-0.00148328,0.00052112,-0.12074438,0.02852374,0.1434
 2635\\0.00000050,-0.00000018,0.00000409,0.00000332,0.00000179,0.000005
 96,-0.00000163,-0.00000165,0.00000604,0.00000901,0.00000466,0.00000444
 ,0.00000093,-0.00000249,-0.00000066,-0.00000509,0.00000198,0.00000628,
 0.00000271,-0.00000345,0.00000403,-0.00000095,0.00000302,0.00000079,0.
 00000125,0.00000052,0.00000105,-0.00000124,0.00000168,0.00001135,0.000
 00694,-0.00000039,-0.00000186,-0.00000276,-0.00000284,-0.00000299,0.00
 000042,0.00000192,-0.00000595,-0.00000188,0.00000281,-0.00000179,-0.00
 000167,0.00000031,-0.00000203,0.00000176,-0.00000040,-0.00000147,0.000
 00037,0.00000045,0.00000015,-0.00000023,-0.00000023,-0.00000133,0.0000
 0038,0.00000002,-0.00000073,-0.00000054,-0.00000050,-0.00000182,0.0000
 0043,-0.00000019,-0.00000110,-0.00000188,-0.00000026,-0.00000258,-0.00
 000278,-0.00000258,-0.00000336,0.00000299,0.00000291,0.00000404,0.0000
 0146,0.00000093,0.00000840,-0.00000090,0.00000047,0.00000733,-0.000003
 17,-0.00000066,0.00000414,0.00000589,0.00000561,0.00000932,0.00000186,
 -0.00000060,-0.00000089,-0.00000110,-0.00000146,-0.00000090,0.00000156
 ,0.00000014,0.00000216,0.00000249,-0.00000115,0.00000137,-0.00000005,0
 .00000009,-0.00000245,-0.00000226,-0.00000032,-0.00000080,-0.00000013,
 0.,0.00000143,0.00000199,0.00000042,-0.00000033,0.00000005,-0.00000036
 ,-0.00000297,-0.00000198,-0.00000064,-0.00000170,-0.00000039,-0.000000
 01,0.00000089,0.00000163,0.00000028,-0.00000080,-0.00000015,-0.0000004
 2,-0.00000344,-0.00000240,-0.00000088,-0.00000208,-0.00000059,-0.00000
 029,0.00000052,0.00000115,0.00000037,-0.00000124,-0.00000016,-0.000000
 88,-0.00000395,-0.00000283,-0.00000111,-0.00000239,-0.00000049,-0.0000
 0279,0.00000062,0.00000099,0.00000100,-0.00000173,0.00000362,-0.000001
 05,0.00000251,-0.00000485,0.00000013,-0.00000539,0.00000208,0.00000231
 ,0.00000004,-0.00000235,-0.00000255,-0.00000511,0.00000016,0.00000028,
 -0.00000067,-0.00000094,0.00000147,-0.00000057,-0.00000145,-0.00000061
 ,-0.00000377,-0.00000349,-0.00000150,-0.00000517,-0.00000091,-0.000000
 15,-0.00000110,0.00000098,0.00000043,0.00000061,-0.00000286,-0.0000015
 1,-0.00000444,-0.00000064,-0.00000053,-0.00000158,0.00000132,0.0000003
 3,-0.00000184,0.00000207,0.00000060,-0.00000142,0.00000140,0.00000028,
 -0.00000338,0.00000163,0.00000032,-0.00000068,0.00000232,0.00000094,0.
 00000084,0.00000279,0.00000094,-0.00000163,-0.00000016,-0.00000006,-0.
 00000065,0.00000007,0.00000009,0.00000019,-0.00000084,-0.00000055,-0.0
 0000201,-0.00000174,-0.00000091,0.00000077,-0.00000156,-0.00000037,0.0
 0000225,-0.00000306,-0.00000092,0.00000025,-0.00000143,-0.00000010,0.0
 0000031,-0.00000302,-0.00000150,0.00000091,-0.00000041,0.00000016,0.00
 000200,-0.00000154,-0.00000063,-0.00000233\\\@


 IF AT FIRST YOU DON'T SUCCEED, TRY, TRY AGAIN.
 THEN GIVE UP;
 THERE'S NO USE BEING A DAMN FOOL ABOUT IT.

                                 -- W. C. FIELDS
 Job cpu time:       8 days  3 hours 27 minutes 11.9 seconds.
 Elapsed time:       0 days  6 hours  6 minutes 58.8 seconds.
 File lengths (MBytes):  RWF=  13356 Int=      0 D2E=      0 Chk=    160 Scr=      1
 Normal termination of Gaussian 16 at Tue Mar  5 02:52:01 2024.
