
Running Job 1 of 1 263-an-COSMO.in
qchem 263-an-COSMO.in_4010603.0 /expanse/lustre/scratch/selhajj/temp_project/qcscratch/28872243/qchem4010603/ 0
/cm/shared/apps/spack/cpu/opt/spack/linux-centos8-zen2/gcc-10.2.0/qchem-5.4-akfmr7b3t57bfs6qan3padb2wnb2i7cl/exe/qcprog.exe_s 263-an-COSMO.in_4010603.0 /expanse/lustre/scratch/selhajj/temp_project/qcscratch/28872243/qchem4010603/
                  Welcome to Q-Chem
     A Quantum Leap Into The Future Of Chemistry


 Q-Chem 5.4, Q-Chem, Inc., Pleasanton, CA (2021)

 License issued to: University of California, San Diego (site)

 E. Epifanovsky,  A. T. B. Gilbert,  Xintian Feng,  Joonho Lee,  Yuezhi Mao,  
 N. Mardirossian,  P. Pokhilko,  A. White,  M. Wormit,  M. P. Coons,  
 A. L. Dempwolff,  Zhengting Gan,  D. Hait,  P. R. Horn,  L. D. Jacobson,  
 I. Kaliman,  J. Kussmann,  A. W. Lange,  Ka Un Lao,  D. S. Levine,  Jie Liu,  
 S. C. McKenzie,  A. F. Morrison,  K. Nanda,  F. Plasser,  D. R. Rehn,  
 M. L. Vidal,  Zhi-Qiang You,  Ying Zhu,  B. Alam,  B. Albrecht,  
 A. Aldossary,  E. Alguire,  J. H. Andersen,  D. Barton,  K. Begam,  A. Behn,  
 Y. A. Bernard,  E. J. Berquist,  H. Burton,  A. Carreras,  K. Carter-Fenk,  
 R. Chakraborty,  A. D. Chien,  K. D. Closser,  V. Cofer-Shabica,  
 S. Dasgupta,  Jia Deng,  M. de Wergifosse,  M. Diedenhofen,  Hainam Do,  
 S. Ehlert,  Po-Tung Fang,  S. Fatehi,  Qingguo Feng,  J. Gayvert,  
 Qinghui Ge,  G. Gidofalvi,  M. Goldey,  J. Gomes,  C. Gonzalez-Espinoza,  
 S. Gulania,  A. Gunina,  M. W. D. Hanson-Heine,  P. H. P. Harbach,  
 A. W. Hauser,  M. F. Herbst,  M. Hernandez Vera,  M. Hodecker,  
 Z. C. Holden,  S. Houck,  Xunkun Huang,  Kerwin Hui,  B. C. Huynh,  
 M. Ivanov,  Hyunjun Ji,  Hanjie Jiang,  B. Kaduk,  S. Kaehler,  
 K. Khistyaev,  Jaehoon Kim,  P. Klunzinger,  Z. Koczor-Benda,  
 Joong Hoon Koh,  D. Kosenkov,  L. Koulias,  T. Kowalczyk,  C. M. Krauter,  
 K. Kue,  A. Kunitsa,  T. Kus,  A. Landau,  K. V. Lawler,  D. Lefrancois,  
 S. Lehtola,  Rain Li,  Yi-Pei Li,  Jiashu Liang,  M. Liebenthal,  
 Hung-Hsuan Lin,  You-Sheng Lin,  Fenglai Liu,  Kuan-Yu Liu,  
 M. Loipersberger,  A. Luenser,  A. Manjanath,  P. Manohar,  E. Mansoor,  
 S. F. Manzer,  Shan-Ping Mao,  A. V. Marenich,  T. Markovich,  S. Mason,  
 S. A. Maurer,  P. F. McLaughlin,  M. F. S. J. Menger,  J.-M. Mewes,  
 S. A. Mewes,  P. Morgante,  J. W. Mullinax,  T. S. Nguyen-Beck,  
 K. J. Oosterbaan,  G. Paran,  Alexander C. Paul,  Suranjan K. Paul,  
 F. Pavosevic,  Zheng Pei,  S. Prager,  E. I. Proynov,  E. Ramos,  B. Rana,  
 A. E. Rask,  A. Rettig,  R. M. Richard,  F. Rob,  E. Rossomme,  T. Scheele,  
 M. Scheurer,  M. Schneider,  N. Sergueev,  S. M. Sharada,  W. Skomorowski,  
 D. W. Small,  C. J. Stein,  Yu-Chuan Su,  E. J. Sundstrom,  Zhen Tao,  
 J. Thirman,  T. Tsuchimochi,  N. M. Tubman,  S. P. Veccham,  O. Vydrov,  
 J. Wenzel,  J. Witte,  A. Yamada,  Kun Yao,  S. Yeganeh,  S. R. Yost,  
 A. Zech,  Igor Ying Zhang,  Xing Zhang,  Yu Zhang,  D. Zuev,  
 A. Aspuru-Guzik,  A. T. Bell,  N. A. Besley,  K. B. Bravaya,  B. R. Brooks,  
 D. Casanova,  Jeng-Da Chai,  S. Coriani,  C. J. Cramer,  
 A. E. DePrince, III,  R. A. DiStasio Jr.,  A. Dreuw,  B. D. Dunietz,  
 T. R. Furlani,  W. A. Goddard III,  S. Grimme,  S. Hammes-Schiffer,  
 T. Head-Gordon,  W. J. Hehre,  Chao-Ping Hsu,  T.-C. Jagau,  Yousung Jung,  
 A. Klamt,  Jing Kong,  D. S. Lambrecht,  WanZhen Liang,  N. J. Mayhall,  
 C. W. McCurdy,  J. B. Neaton,  C. Ochsenfeld,  J. A. Parkhill,  R. Peverati,  
 V. A. Rassolov,  Yihan Shao,  L. V. Slipchenko,  T. Stauch,  R. P. Steele,  
 J. E. Subotnik,  A. J. W. Thom,  A. Tkatchenko,  D. G. Truhlar,  
 T. Van Voorhis,  T. A. Wesolowski,  K. B. Whaley,  H. L. Woodcock III,  
 P. M. Zimmerman,  S. Faraji,  P. M. W. Gill,  M. Head-Gordon,  
 J. M. Herbert,  A. I. Krylov

 Contributors to earlier versions of Q-Chem not listed above: 
 R. D. Adamson,  B. Austin,  R. Baer,  J. Baker,  G. J. O. Beran,  
 K. Brandhorst,  S. T. Brown,  E. F. C. Byrd,  A. K. Chakraborty,  
 G. K. L. Chan,  Chun-Min Chang,  Yunqing Chen,  C.-L. Cheng,  
 Siu Hung Chien,  D. M. Chipman,  D. L. Crittenden,  H. Dachsel,  
 R. J. Doerksen,  A. D. Dutoi,  R. G. Edgar,  J. Fosso-Tande,  
 L. Fusti-Molnar,  D. Ghosh,  A. Ghysels,  A. Golubeva-Zadorozhnaya,  
 J. Gonthier,  M. S. Gordon,  S. R. Gwaltney,  G. Hawkins,  J. E. Herr,  
 A. Heyden,  S. Hirata,  E. G. Hohenstein,  G. Kedziora,  F. J. Keil,  
 C. Kelley,  Jihan Kim,  R. A. King,  R. Z. Khaliullin,  P. P. Korambath,  
 W. Kurlancheek,  A. Laurent,  A. M. Lee,  M. S. Lee,  S. V. Levchenko,  
 Ching Yeh Lin,  D. Liotard,  E. Livshits,  R. C. Lochan,  I. Lotan,  
 L. A. Martinez-Martinez,  P. E. Maslen,  N. Nair,  D. P. O'Neill,  
 D. Neuhauser,  E. Neuscamman,  C. M. Oana,  R. Olivares-Amaya,  R. Olson,  
 T. M. Perrine,  B. Peters,  P. A. Pieniazek,  A. Prociuk,  Y. M. Rhee,  
 J. Ritchie,  M. A. Rohrdanz,  E. Rosta,  N. J. Russ,  H. F. Schaefer III,  
 M. W. Schmidt,  N. E. Schultz,  S. Sharma,  N. Shenvi,  C. D. Sherrill,  
 A. C. Simmonett,  A. Sodt,  T. Stein,  D. Stuck,  K. S. Thanthiriwatte,  
 V. Vanovschi,  L. Vogt,  Tao Wang,  A. Warshel,  M. A. Watson,  
 C. F. Williams,  Q. Wu,  X. Xu,  Jun Yang,  W. Zhang,  Yan Zhao

 Please cite Q-Chem as follows:
 Y. Shao et al., Mol. Phys. 113, 184-215 (2015)
 DOI: 10.1080/00268976.2014.952696

 Q-Chem 5.4.0 for Intel X86 EM64T Linux

 Parts of Q-Chem use Armadillo 9.800.1 (Horizon Scraper).
 http://arma.sourceforge.net/

 Q-Chem begins on Thu Feb 22 07:57:10 2024  

 Host: 
0

     Scratch files written to /expanse/lustre/scratch/selhajj/temp_project/qcscratch/28872243/qchem4010603//
 May1621 |scratch|qcdevops|jenkins|workspace|build_RNUM    
 Processing $rem in /cm/shared/apps/spack/cpu/opt/spack/linux-centos8-zen2/gcc-10.2.0/qchem-5.4-akfmr7b3t57bfs6qan3padb2wnb2i7cl/config/preferences:
 Processing $rem in /home/selhajj/.qchemrc:

 Checking the input file for inconsistencies... 
 Q-Chem warning in module libgen/CheckREMs.C, line 172:

 Found a $solvent section, which is only used for PCM and Kirkwood-Onsager solvation models

	...done.

--------------------------------------------------------------
User input:
--------------------------------------------------------------
$molecule
-2 1
C                 -1.2517340000      2.8555330000      0.2604250000
C                 -2.5893440000      2.4779280000      0.1724600000
C                 -2.9445290000      1.1339150000     -0.0800800000
C                 -0.1876550000      1.9257370000      0.1033800000
C                 -0.5789610000      0.5493530000     -0.1836210000
C                 -1.9575340000      0.1863930000     -0.2299740000
C                  1.2349390000      2.2984180000      0.1757860000
C                  2.1225230000      1.2228500000     -0.1359350000
C                  1.7238980000     -0.0795960000     -0.4521810000
C                  0.3714990000     -0.4852020000     -0.4972160000
O                  1.6647210000      3.4656670000      0.4841070000
O                 -0.0336620000     -1.6840730000     -0.8144690000
O                 -0.9760990000      4.1900580000      0.5011670000
H                 -3.9914920000      0.8464870000     -0.1264460000
H                  2.4762060000     -0.8328970000     -0.6884290000
C                 -2.3578730000     -1.2430470000     -0.4057010000
O                 -3.0082700000     -1.6982690000     -1.3310120000
O                 -2.2114320000     -1.9549560000      0.7722420000
C                 -2.1688500000     -3.3645870000      0.6003080000
H                 -3.3639650000      3.2288010000      0.3295140000
H                  3.1832210000      1.4710750000     -0.1107160000
H                 -1.8184910000      4.6512720000      0.4082430000
H                 -2.0277610000     -3.7891390000      1.5982830000
H                 -1.3175140000     -3.6096430000     -0.0410770000
H                 -3.0962910000     -3.7482210000      0.1595320000
$end
$rem
MAX_SCF_CYCLES=200
BASIS  =  6-311++G(d,p)
GUI  =  2
JOB_TYPE  =  SP
METHOD  =  B3LYP
SOLVENT_METHOD = COSMO
$end
$solvent
dielectric 37.219
opticaldielectric 1.43
$end





--------------------------------------------------------------
 ----------------------------------------------------------------
             Standard Nuclear Orientation (Angstroms)
    I     Atom           X                Y                Z
 ----------------------------------------------------------------
    1      C       1.9282306965     1.4303878027     0.0663638984
    2      C       0.9968970255     2.4605973495    -0.0376061572
    3      C      -0.3803916432     2.1769645153    -0.1752001921
    4      C       1.5514264164     0.0597059857     0.0399490737
    5      C       0.1269324039    -0.2081871781    -0.1302653090
    6      C      -0.8064186138     0.8683390668    -0.1958335974
    7      C       2.5145826249    -1.0501235069     0.1322315790
    8      C       1.9191674346    -2.3374672473    -0.0411140489
    9      C       0.5557130338    -2.5689524431    -0.2477192449
   10      C      -0.4042710206    -1.5343246004    -0.3069077238
   11      O       3.7700377296    -0.9058736133     0.3449969024
   12      O      -1.6778625929    -1.7150815051    -0.5245956313
   13      O       3.2613031428     1.7804124069     0.1900124681
   14      H      -1.1005416423     2.9885716556    -0.2349832435
   15      H       0.1948196807    -3.5892503360    -0.3818499217
   16      C      -2.2748244494     0.5940654037    -0.2506812677
   17      O      -3.0312219028     0.9094940946    -1.1533503140
   18      O      -2.7680713132     0.2440254377     0.9943041360
   19      C      -4.0240935202    -0.4189769449     0.9586651226
   20      H       1.3404219106     3.4938016319     0.0171065353
   21      H       2.6087782426    -3.1800344703     0.0018894874
   22      H       3.2985132607     2.7296185414     0.0208952703
   23      H      -4.2745002140    -0.6533326061     1.9971633263
   24      H      -3.9137871691    -1.3387174385     0.3771927847
   25      H      -4.8048869068     0.2133592378     0.5203524760
 ----------------------------------------------------------------
 Molecular Point Group                 C1    NOp =  1
 Largest Abelian Subgroup              C1    NOp =  1
 Nuclear Repulsion Energy =        1168.37491116 hartrees
 There are       61 alpha and       61 beta electrons
 Requested basis set is 6-311++G(d,p)
 There are 142 shells and 430 basis functions

 Total QAlloc Memory Limit   8000 MB
 Mega-Array Size       188 MB
 MEM_STATIC part       192 MB
 A cutoff of  1.0D-08 yielded   7220 shell pairs
 There are     69388 function pairs (     74437 Cartesian)
 Smallest overlap matrix eigenvalue = 1.40E-07

 Q-Chem warning in module stvman/mkSTV.C, line 323:

 Overlap eigenvalue is smaller than square root of threshold
 Use THRESH >= 12 to get rid of this warning

 Linear dependence detected in AO basis
 Tighter screening thresholds may be required for diffuse basis sets
 Use S2THRESH > 14 and THRESH = 14 in case of SCF convergence issues
 Number of orthogonalized atomic orbitals = 426
 Maximum deviation from orthogonality = 1.034E-10

 Scale SEOQF with 1.000000e-01/1.000000e-01/1.000000e-01

 Standard Electronic Orientation quadrupole field applied
 Nucleus-field energy     =     0.0000000414 hartrees
 Guess from superposition of atomic densities
 Warning:  Energy on first SCF cycle will be non-variational
 SAD guess density has 120.000000 electrons

 -----------------------------------------------------------------------
  General SCF calculation program by
  Eric Jon Sundstrom, Paul Horn, Yuezhi Mao, Dmitri Zuev, Alec White,
  David Stuck, Shaama M.S., Shane Yost, Joonho Lee, David Small,
  Daniel Levine, Susi Lehtola, Hugh Burton, Evgeny Epifanovsky,
  Bang C. Huynh
 -----------------------------------------------------------------------
 Exchange:     0.2000 Hartree-Fock + 0.0800 Slater + 0.7200 B88
 Correlation:  0.1900 VWN1RPA + 0.8100 LYP
 Using SG-1 standard quadrature grid
 using 8 threads for integral computing
 -------------------------------------------------------
 OpenMP Integral computing Module                
 Release: version 1.0, May 2013, Q-Chem Inc. Pittsburgh 
 -------------------------------------------------------
 A restricted SCF calculation will be
 performed using DIIS
 SCF converges when DIIS error is below 1.0e-05
 ---------------------------------------
  Cycle       Energy         DIIS error
 ---------------------------------------
    1    -842.0680708091      3.16e-02  
    2    -837.9190833919      4.81e-03  
    3    -828.1563979929      1.41e-02  
    4    -837.8602234935      4.83e-03  
    5    -838.3290519054      1.68e-03  
    6    -838.3789589629      1.35e-03  
    7    -838.4114939465      4.38e-04  
    8    -838.4143246656      2.28e-04  
    9    -838.4153151020      9.14e-05  
   10    -838.4154748756      3.81e-05  
   11    -838.4155156126      1.47e-05  
   12    -838.4155336610      1.07e-05  
   13    -838.4155509760      9.07e-06  Convergence criterion met
 ---------------------------------------
 SCF time:   CPU 337.37s  wall 48.00s 
 SCF   energy in the final basis set =     -838.4155509760
 Total energy in the final basis set =     -838.4155509760
 Exchange:     0.2000 Hartree-Fock + 0.0800 Slater + 0.7200 B88
 Correlation:  0.1900 VWN1RPA + 0.8100 LYP
 Using SG-1 standard quadrature grid
 in get_qchem_info
 IBasis=      401111
 IBasis=      401111
 USING 1082 GRID
 MICHARGE=          -2
 Set epsilon to    37.2190017700195     
==== cosmo data ====
outfile: 263-an-COSMO.out.cosmo.0
phsran:    0.00000D+00
ampran:    0.10000D-04
volume:   1688.7810123
area:    831.8744640
routf:      0.8500000
rsolv [a.u]:      2.4566438
disex:     10.0000000
disex2:   4460.4464627
fepsi:      0.9731320
eps :    37.2190018
lcavity:     1
nppa:  1082
nspa:    92
nsph:    32
maxnps:  1820
natoms:    25
Atom   Radius [a.u.] nuc. charge
    1      3.7794520    6
    2      3.7794520    6
    3      3.7794520    6
    4      3.7794520    6
    5      3.7794520    6
    6      3.7794520    6
    7      3.7794520    6
    8      3.7794520    6
    9      3.7794520    6
   10      3.7794520    6
   11      3.2503287    8
   12      3.2503287    8
   13      3.2503287    8
   14      2.4566438    1
   15      2.4566438    1
   16      3.7794520    6
   17      3.2503287    8
   18      3.2503287    8
   19      3.7794520    6
   20      2.4566438    1
   21      2.4566438    1
   22      2.4566438    1
   23      2.4566438    1
   24      2.4566438    1
   25      2.4566438    1
=== end cosmo data ===
 number of segments:          985
 f_epsilon=  0.973132003749614     
Ediel:   -0.2754092
 A restricted SCF calculation will be
 performed using Roothaan-Hall, DIIS
 SCF converges when DIIS error is below 1.0e-05
 ---------------------------------------
  Cycle       Energy         DIIS error
 ---------------------------------------
 number of segments:          985
 f_epsilon=  0.973132003749614     
Ediel:   -0.3208548
    1    -838.6909782394      4.59e-04  Roothaan Step
 ---------------------------------------
  Cycle       Energy         DIIS error
 ---------------------------------------
 number of segments:          985
 f_epsilon=  0.973132003749614     
Ediel:   -0.3023927
    1    -838.7046768962      4.61e-04  
 number of segments:          985
 f_epsilon=  0.973132003749614     
Ediel:   -0.3135649
    2    -838.6959093511      8.22e-04  
 number of segments:          985
 f_epsilon=  0.973132003749614     
Ediel:   -0.3145419
    3    -838.7096004970      9.69e-05  
 number of segments:          985
 f_epsilon=  0.973132003749614     
Ediel:   -0.3145676
    4    -838.7097748014      3.35e-05  
 number of segments:          985
 f_epsilon=  0.973132003749614     
Ediel:   -0.3147297
    5    -838.7097937516      1.45e-05  
    6    -838.7097981383      3.84e-06  Convergence criterion met
 ---------------------------------------
 SCF time:   CPU 199.72s  wall 29.00s 
before final oc correction, ETot:      -838.7097981383
 number of outlayer segments:          434
SCF energy after oc correction:      -838.7235549275
 SCF   energy in the final basis set =     -838.7235549275
 Total energy in the final basis set =     -838.7097981383
 
 --------------------------------------------------------------
 
                    Orbital Energies (a.u.)
 --------------------------------------------------------------
 
 Alpha MOs
 -- Occupied --
-19.1416 -19.1388 -19.0989 -19.0281 -19.0239 -10.2948 -10.2246 -10.1993
-10.1853 -10.1750 -10.1636 -10.1629 -10.1548 -10.1533 -10.1529 -10.1298
-10.1252  -1.0832  -1.0479  -1.0021  -0.9446  -0.9397  -0.8371  -0.7742
 -0.7479  -0.7164  -0.6962  -0.6519  -0.6137  -0.6006  -0.5640  -0.5441
 -0.5205  -0.4903  -0.4721  -0.4675  -0.4561  -0.4536  -0.4341  -0.4246
 -0.4072  -0.4038  -0.3916  -0.3766  -0.3705  -0.3642  -0.3618  -0.3536
 -0.3424  -0.3352  -0.3290  -0.3241  -0.3113  -0.2839  -0.2726  -0.2345
 -0.2253  -0.2180  -0.2095  -0.2006  -0.1209
 -- Virtual --
 -0.0144  -0.0013   0.0032   0.0110   0.0149   0.0211   0.0257   0.0334
  0.0368   0.0424   0.0544   0.0554   0.0607   0.0686   0.0716   0.0792
  0.0809   0.0833   0.0894   0.0926   0.1034   0.1057   0.1089   0.1151
  0.1198   0.1212   0.1238   0.1274   0.1322   0.1353   0.1445   0.1484
  0.1500   0.1512   0.1529   0.1555   0.1614   0.1660   0.1689   0.1719
  0.1815   0.1861   0.1896   0.1969   0.2026   0.2060   0.2094   0.2195
  0.2213   0.2264   0.2282   0.2343   0.2369   0.2381   0.2419   0.2454
  0.2568   0.2624   0.2641   0.2741   0.2783   0.2823   0.2833   0.2896
  0.2930   0.2956   0.3011   0.3045   0.3077   0.3134   0.3157   0.3173
  0.3220   0.3240   0.3298   0.3377   0.3403   0.3458   0.3469   0.3523
  0.3557   0.3634   0.3651   0.3699   0.3788   0.3823   0.3924   0.3950
  0.3996   0.4063   0.4167   0.4203   0.4226   0.4333   0.4589   0.4664
  0.4734   0.4870   0.4942   0.4995   0.5170   0.5315   0.5482   0.5633
  0.5702   0.5750   0.5793   0.5825   0.6094   0.6173   0.6259   0.6313
  0.6368   0.6446   0.6469   0.6516   0.6549   0.6632   0.6694   0.6759
  0.6794   0.6845   0.6928   0.7031   0.7168   0.7232   0.7324   0.7407
  0.7550   0.7677   0.7754   0.7850   0.7936   0.8039   0.8161   0.8289
  0.8421   0.8601   0.8653   0.8714   0.8940   0.9110   0.9156   0.9204
  0.9348   0.9459   0.9554   0.9661   0.9841   0.9952   1.0040   1.0123
  1.0239   1.0298   1.0482   1.0689   1.0715   1.0854   1.0895   1.0952
  1.1124   1.1256   1.1345   1.1530   1.1622   1.1669   1.1774   1.1866
  1.1941   1.2158   1.2289   1.2397   1.2492   1.2601   1.2650   1.2703
  1.2859   1.3025   1.3128   1.3301   1.3356   1.3503   1.3782   1.4108
  1.4198   1.4243   1.4405   1.4653   1.4788   1.5006   1.5209   1.5218
  1.5378   1.5451   1.5603   1.5697   1.5830   1.5956   1.6003   1.6150
  1.6212   1.6456   1.6529   1.6670   1.6879   1.6996   1.7103   1.7359
  1.7456   1.7474   1.7632   1.7749   1.7774   1.7985   1.8289   1.8360
  1.8466   1.8541   1.8679   1.8785   1.8904   1.9063   1.9181   1.9347
  1.9539   1.9639   1.9810   1.9853   2.0022   2.0084   2.0281   2.0394
  2.0635   2.0798   2.0882   2.0946   2.1307   2.1390   2.1481   2.1526
  2.1761   2.1852   2.2135   2.2427   2.2565   2.2965   2.3394   2.3637
  2.3860   2.4083   2.4663   2.4699   2.4916   2.5155   2.5389   2.5541
  2.5828   2.6134   2.6284   2.6490   2.6616   2.6748   2.6964   2.7073
  2.7317   2.7482   2.7578   2.7735   2.7768   2.7784   2.7939   2.8192
  2.8402   2.8423   2.8588   2.8742   2.8840   2.9018   2.9259   2.9273
  2.9636   2.9682   2.9944   3.0096   3.0232   3.0465   3.0700   3.0755
  3.0888   3.1196   3.1231   3.1419   3.1733   3.1906   3.2008   3.2107
  3.2394   3.2630   3.2720   3.2934   3.3029   3.3462   3.3639   3.3717
  3.3782   3.3986   3.4529   3.4663   3.4935   3.5231   3.5301   3.5934
  3.6186   3.6251   3.6667   3.7081   3.7892   3.8148   3.8308   3.8733
  3.9095   3.9314   4.0718   4.0951   4.1109   4.1247   4.1582   4.2302
  4.2728   4.3427   4.4283   4.8143   4.8602   5.0249   5.0726   5.1320
  5.1482   5.1790   5.2330   5.2878   5.3609   5.3972   5.5139   5.6137
  5.7311   5.8034   5.8587   5.8894  23.5604  23.8234  23.8437  23.8985
 23.9449  23.9651  23.9742  23.9975  24.0249  24.0916  24.1698  24.1817
 49.9289  49.9606  50.0132  50.0879  50.1315
 --------------------------------------------------------------
 
          Ground-State Mulliken Net Atomic Charges

     Atom                 Charge (a.u.)
  ----------------------------------------
      1 C                    -0.002125
      2 C                    -0.133061
      3 C                    -0.311594
      4 C                     0.070631
      5 C                     0.474752
      6 C                     0.653147
      7 C                    -0.348160
      8 C                    -0.215608
      9 C                    -0.283330
     10 C                    -0.537085
     11 O                    -0.724730
     12 O                    -0.649733
     13 O                    -0.275801
     14 H                     0.191440
     15 H                     0.155128
     16 C                    -0.534175
     17 O                    -0.343830
     18 O                    -0.058004
     19 C                    -0.263291
     20 H                     0.174623
     21 H                     0.150368
     22 H                     0.308166
     23 H                     0.164860
     24 H                     0.186216
     25 H                     0.151194
  ----------------------------------------
  Sum of atomic charges =    -2.000000

 -----------------------------------------------------------------
                    Cartesian Multipole Moments
 -----------------------------------------------------------------
    Charge (ESU x 10^10)
                -9.6064
    Dipole Moment (Debye)
         X      -7.0121      Y       9.5363      Z       2.3329
       Tot      12.0645
    Quadrupole Moments (Debye-Ang)
        XX    -181.0043     XY      16.3796     YY    -113.3021
        XZ     -17.6595     YZ      -1.1895     ZZ    -114.7102
    Octopole Moments (Debye-Ang^2)
       XXX    -230.8571    XXY      65.0174    XYY      22.5821
       YYY      84.6189    XXZ      15.6106    XYZ       3.2487
       YYZ       7.2527    XZZ       0.9237    YZZ       2.7304
       ZZZ      11.3723
    Hexadecapole Moments (Debye-Ang^3)
      XXXX   -4354.9277   XXXY     329.4724   XXYY    -858.8897
      XYYY     112.7112   YYYY   -1536.8405   XXXZ    -236.5912
      XXYZ       9.6887   XYYZ     -28.3259   YYYZ      -8.6420
      XXZZ    -670.6773   XYZZ      30.1421   YYZZ    -359.0969
      XZZZ     -32.2742   YZZZ      -3.0125   ZZZZ    -295.5220
 -----------------------------------------------------------------
 Total job time:  80.08s(wall), 544.90s(cpu) 
 Thu Feb 22 07:58:30 2024

        *************************************************************
        *                                                           *
        *  Thank you very much for using Q-Chem.  Have a nice day.  *
        *                                                           *
        *************************************************************


