
Running Job 1 of 1 215-rad-SM12.in
qchem 215-rad-SM12.in_3964244.0 /expanse/lustre/scratch/selhajj/temp_project/qcscratch/28446411/qchem3964244/ 0
/cm/shared/apps/spack/cpu/opt/spack/linux-centos8-zen2/gcc-10.2.0/qchem-5.4-akfmr7b3t57bfs6qan3padb2wnb2i7cl/exe/qcprog.exe_s 215-rad-SM12.in_3964244.0 /expanse/lustre/scratch/selhajj/temp_project/qcscratch/28446411/qchem3964244/
                  Welcome to Q-Chem
     A Quantum Leap Into The Future Of Chemistry


 Q-Chem 5.4, Q-Chem, Inc., Pleasanton, CA (2021)

 License issued to: University of California, San Diego (site)

 E. Epifanovsky,  A. T. B. Gilbert,  Xintian Feng,  Joonho Lee,  Yuezhi Mao,  
 N. Mardirossian,  P. Pokhilko,  A. White,  M. Wormit,  M. P. Coons,  
 A. L. Dempwolff,  Zhengting Gan,  D. Hait,  P. R. Horn,  L. D. Jacobson,  
 I. Kaliman,  J. Kussmann,  A. W. Lange,  Ka Un Lao,  D. S. Levine,  Jie Liu,  
 S. C. McKenzie,  A. F. Morrison,  K. Nanda,  F. Plasser,  D. R. Rehn,  
 M. L. Vidal,  Zhi-Qiang You,  Ying Zhu,  B. Alam,  B. Albrecht,  
 A. Aldossary,  E. Alguire,  J. H. Andersen,  D. Barton,  K. Begam,  A. Behn,  
 Y. A. Bernard,  E. J. Berquist,  H. Burton,  A. Carreras,  K. Carter-Fenk,  
 R. Chakraborty,  A. D. Chien,  K. D. Closser,  V. Cofer-Shabica,  
 S. Dasgupta,  Jia Deng,  M. de Wergifosse,  M. Diedenhofen,  Hainam Do,  
 S. Ehlert,  Po-Tung Fang,  S. Fatehi,  Qingguo Feng,  J. Gayvert,  
 Qinghui Ge,  G. Gidofalvi,  M. Goldey,  J. Gomes,  C. Gonzalez-Espinoza,  
 S. Gulania,  A. Gunina,  M. W. D. Hanson-Heine,  P. H. P. Harbach,  
 A. W. Hauser,  M. F. Herbst,  M. Hernandez Vera,  M. Hodecker,  
 Z. C. Holden,  S. Houck,  Xunkun Huang,  Kerwin Hui,  B. C. Huynh,  
 M. Ivanov,  Hyunjun Ji,  Hanjie Jiang,  B. Kaduk,  S. Kaehler,  
 K. Khistyaev,  Jaehoon Kim,  P. Klunzinger,  Z. Koczor-Benda,  
 Joong Hoon Koh,  D. Kosenkov,  L. Koulias,  T. Kowalczyk,  C. M. Krauter,  
 K. Kue,  A. Kunitsa,  T. Kus,  A. Landau,  K. V. Lawler,  D. Lefrancois,  
 S. Lehtola,  Rain Li,  Yi-Pei Li,  Jiashu Liang,  M. Liebenthal,  
 Hung-Hsuan Lin,  You-Sheng Lin,  Fenglai Liu,  Kuan-Yu Liu,  
 M. Loipersberger,  A. Luenser,  A. Manjanath,  P. Manohar,  E. Mansoor,  
 S. F. Manzer,  Shan-Ping Mao,  A. V. Marenich,  T. Markovich,  S. Mason,  
 S. A. Maurer,  P. F. McLaughlin,  M. F. S. J. Menger,  J.-M. Mewes,  
 S. A. Mewes,  P. Morgante,  J. W. Mullinax,  T. S. Nguyen-Beck,  
 K. J. Oosterbaan,  G. Paran,  Alexander C. Paul,  Suranjan K. Paul,  
 F. Pavosevic,  Zheng Pei,  S. Prager,  E. I. Proynov,  E. Ramos,  B. Rana,  
 A. E. Rask,  A. Rettig,  R. M. Richard,  F. Rob,  E. Rossomme,  T. Scheele,  
 M. Scheurer,  M. Schneider,  N. Sergueev,  S. M. Sharada,  W. Skomorowski,  
 D. W. Small,  C. J. Stein,  Yu-Chuan Su,  E. J. Sundstrom,  Zhen Tao,  
 J. Thirman,  T. Tsuchimochi,  N. M. Tubman,  S. P. Veccham,  O. Vydrov,  
 J. Wenzel,  J. Witte,  A. Yamada,  Kun Yao,  S. Yeganeh,  S. R. Yost,  
 A. Zech,  Igor Ying Zhang,  Xing Zhang,  Yu Zhang,  D. Zuev,  
 A. Aspuru-Guzik,  A. T. Bell,  N. A. Besley,  K. B. Bravaya,  B. R. Brooks,  
 D. Casanova,  Jeng-Da Chai,  S. Coriani,  C. J. Cramer,  
 A. E. DePrince, III,  R. A. DiStasio Jr.,  A. Dreuw,  B. D. Dunietz,  
 T. R. Furlani,  W. A. Goddard III,  S. Grimme,  S. Hammes-Schiffer,  
 T. Head-Gordon,  W. J. Hehre,  Chao-Ping Hsu,  T.-C. Jagau,  Yousung Jung,  
 A. Klamt,  Jing Kong,  D. S. Lambrecht,  WanZhen Liang,  N. J. Mayhall,  
 C. W. McCurdy,  J. B. Neaton,  C. Ochsenfeld,  J. A. Parkhill,  R. Peverati,  
 V. A. Rassolov,  Yihan Shao,  L. V. Slipchenko,  T. Stauch,  R. P. Steele,  
 J. E. Subotnik,  A. J. W. Thom,  A. Tkatchenko,  D. G. Truhlar,  
 T. Van Voorhis,  T. A. Wesolowski,  K. B. Whaley,  H. L. Woodcock III,  
 P. M. Zimmerman,  S. Faraji,  P. M. W. Gill,  M. Head-Gordon,  
 J. M. Herbert,  A. I. Krylov

 Contributors to earlier versions of Q-Chem not listed above: 
 R. D. Adamson,  B. Austin,  R. Baer,  J. Baker,  G. J. O. Beran,  
 K. Brandhorst,  S. T. Brown,  E. F. C. Byrd,  A. K. Chakraborty,  
 G. K. L. Chan,  Chun-Min Chang,  Yunqing Chen,  C.-L. Cheng,  
 Siu Hung Chien,  D. M. Chipman,  D. L. Crittenden,  H. Dachsel,  
 R. J. Doerksen,  A. D. Dutoi,  R. G. Edgar,  J. Fosso-Tande,  
 L. Fusti-Molnar,  D. Ghosh,  A. Ghysels,  A. Golubeva-Zadorozhnaya,  
 J. Gonthier,  M. S. Gordon,  S. R. Gwaltney,  G. Hawkins,  J. E. Herr,  
 A. Heyden,  S. Hirata,  E. G. Hohenstein,  G. Kedziora,  F. J. Keil,  
 C. Kelley,  Jihan Kim,  R. A. King,  R. Z. Khaliullin,  P. P. Korambath,  
 W. Kurlancheek,  A. Laurent,  A. M. Lee,  M. S. Lee,  S. V. Levchenko,  
 Ching Yeh Lin,  D. Liotard,  E. Livshits,  R. C. Lochan,  I. Lotan,  
 L. A. Martinez-Martinez,  P. E. Maslen,  N. Nair,  D. P. O'Neill,  
 D. Neuhauser,  E. Neuscamman,  C. M. Oana,  R. Olivares-Amaya,  R. Olson,  
 T. M. Perrine,  B. Peters,  P. A. Pieniazek,  A. Prociuk,  Y. M. Rhee,  
 J. Ritchie,  M. A. Rohrdanz,  E. Rosta,  N. J. Russ,  H. F. Schaefer III,  
 M. W. Schmidt,  N. E. Schultz,  S. Sharma,  N. Shenvi,  C. D. Sherrill,  
 A. C. Simmonett,  A. Sodt,  T. Stein,  D. Stuck,  K. S. Thanthiriwatte,  
 V. Vanovschi,  L. Vogt,  Tao Wang,  A. Warshel,  M. A. Watson,  
 C. F. Williams,  Q. Wu,  X. Xu,  Jun Yang,  W. Zhang,  Yan Zhao

 Please cite Q-Chem as follows:
 Y. Shao et al., Mol. Phys. 113, 184-215 (2015)
 DOI: 10.1080/00268976.2014.952696

 Q-Chem 5.4.0 for Intel X86 EM64T Linux

 Parts of Q-Chem use Armadillo 9.800.1 (Horizon Scraper).
 http://arma.sourceforge.net/

 Q-Chem begins on Sat Feb  3 12:51:43 2024  

 Host: 
0

     Scratch files written to /expanse/lustre/scratch/selhajj/temp_project/qcscratch/28446411/qchem3964244//
 May1621 |scratch|qcdevops|jenkins|workspace|build_RNUM    
 Processing $rem in /cm/shared/apps/spack/cpu/opt/spack/linux-centos8-zen2/gcc-10.2.0/qchem-5.4-akfmr7b3t57bfs6qan3padb2wnb2i7cl/config/preferences:
 Processing $rem in /home/selhajj/.qchemrc:
 Symmetry turned off for PCM/SM12/SMD calculation
 Method-specific promolecule density matrix will be built for SM12 calculation

 Checking the input file for inconsistencies... 	...done.

--------------------------------------------------------------
User input:
--------------------------------------------------------------
$molecule
-1 2
C                  5.0191580000     -2.3964690000      0.5722360000
C                  5.8235520000     -1.7070930000     -0.3146570000
C                  5.2376280000     -0.8973770000     -1.3090160000
C                  3.6140730000     -2.3050610000      0.5016410000
C                  3.0224160000     -1.4890560000     -0.5000420000
C                  3.8630290000     -0.7938440000     -1.3955030000
C                  2.8013770000     -3.0576650000      1.4696260000
C                  1.3482370000     -2.9127960000      1.3347920000
C                  0.7575780000     -2.0899590000      0.3242570000
C                  1.5658480000     -1.3473280000     -0.6333020000
C                  0.5161560000     -3.6082370000      2.2271770000
C                 -0.6539100000     -1.9965850000      0.2573410000
C                 -1.4651000000     -2.6776050000      1.1332780000
O                  3.3194660000     -3.7762680000      2.3490470000
O                  1.0519000000     -0.6255510000     -1.5231270000
H                  5.4400110000     -3.0264370000      1.3472190000
H                  6.9040860000     -1.7876690000     -0.2471330000
H                  5.8686990000     -0.3549000000     -2.0065690000
H                 -2.5433500000     -2.5950690000      1.0887320000
H                  3.3867690000     -0.1787320000     -2.1499340000
H                  0.9776670000     -4.2249230000      2.9882570000
H                 -1.0740960000     -1.3611460000     -0.5130410000
C                 -0.8576830000     -3.4883420000      2.1256240000
S                 -1.8865330000     -4.3984290000      3.2295080000
O                 -1.1711360000     -4.7944730000      4.4411070000
O                 -3.2001300000     -3.7648400000      3.3632570000
O                 -2.1076840000     -5.7772810000      2.3169790000
C                 -2.9231170000     -6.7898650000      2.9291520000
H                 -2.4723500000     -7.1365130000      3.8625950000
H                 -2.9572990000     -7.6063670000      2.2086890000
H                 -3.9330130000     -6.4141600000      3.1141680000
$end

$rem
BASIS  =  6-311++G(d,p)
GUI  =  2
JOB_TYPE  =  SP
METHOD  =  B3LYP
SCF_CONVERGENCE  = 8
SOLVENT_METHOD = sm12
$end

$smx
solvent dimethylformamide
charges CM5
$end





--------------------------------------------------------------
 ----------------------------------------------------------------
             Standard Nuclear Orientation (Angstroms)
    I     Atom           X                Y                Z
 ----------------------------------------------------------------
    1      C       5.0191580000    -2.3964690000     0.5722360000
    2      C       5.8235520000    -1.7070930000    -0.3146570000
    3      C       5.2376280000    -0.8973770000    -1.3090160000
    4      C       3.6140730000    -2.3050610000     0.5016410000
    5      C       3.0224160000    -1.4890560000    -0.5000420000
    6      C       3.8630290000    -0.7938440000    -1.3955030000
    7      C       2.8013770000    -3.0576650000     1.4696260000
    8      C       1.3482370000    -2.9127960000     1.3347920000
    9      C       0.7575780000    -2.0899590000     0.3242570000
   10      C       1.5658480000    -1.3473280000    -0.6333020000
   11      C       0.5161560000    -3.6082370000     2.2271770000
   12      C      -0.6539100000    -1.9965850000     0.2573410000
   13      C      -1.4651000000    -2.6776050000     1.1332780000
   14      O       3.3194660000    -3.7762680000     2.3490470000
   15      O       1.0519000000    -0.6255510000    -1.5231270000
   16      H       5.4400110000    -3.0264370000     1.3472190000
   17      H       6.9040860000    -1.7876690000    -0.2471330000
   18      H       5.8686990000    -0.3549000000    -2.0065690000
   19      H      -2.5433500000    -2.5950690000     1.0887320000
   20      H       3.3867690000    -0.1787320000    -2.1499340000
   21      H       0.9776670000    -4.2249230000     2.9882570000
   22      H      -1.0740960000    -1.3611460000    -0.5130410000
   23      C      -0.8576830000    -3.4883420000     2.1256240000
   24      S      -1.8865330000    -4.3984290000     3.2295080000
   25      O      -1.1711360000    -4.7944730000     4.4411070000
   26      O      -3.2001300000    -3.7648400000     3.3632570000
   27      O      -2.1076840000    -5.7772810000     2.3169790000
   28      C      -2.9231170000    -6.7898650000     2.9291520000
   29      H      -2.4723500000    -7.1365130000     3.8625950000
   30      H      -2.9572990000    -7.6063670000     2.2086890000
   31      H      -3.9330130000    -6.4141600000     3.1141680000
 ----------------------------------------------------------------
 Nuclear Repulsion Energy =        1734.22652889 hartrees
 There are       79 alpha and       78 beta electrons
 Requested basis set is 6-311++G(d,p)
 There are 183 shells and 540 basis functions

 Total QAlloc Memory Limit   8000 MB
 Mega-Array Size       188 MB
 MEM_STATIC part       192 MB
 A cutoff of  1.0D-11 yielded  11728 shell pairs
 There are    106628 function pairs (    114160 Cartesian)
 Smallest overlap matrix eigenvalue = 5.82E-08

 Q-Chem warning in module stvman/mkSTV.C, line 323:

 Overlap eigenvalue is smaller than square root of threshold
 Use THRESH >= 12 to get rid of this warning

 Linear dependence detected in AO basis
 Tighter screening thresholds may be required for diffuse basis sets
 Use S2THRESH > 14 and THRESH = 14 in case of SCF convergence issues
 Number of orthogonalized atomic orbitals = 533
 Maximum deviation from orthogonality = 2.306E-10

 Scale SEOQF with 1.000000e-02/1.000000e-02/1.000000e-01

 Standard Electronic Orientation quadrupole field applied
 Nucleus-field energy     =    -0.0000000610 hartrees
 ================ Generating on-the-fly Promolecule Density  ================
Attempting to make child job directory: /expanse/lustre/scratch/selhajj/temp_project/qcscratch/28446411/qchem3964244//Frg1/
Attempting to make child job directory: /expanse/lustre/scratch/selhajj/temp_project/qcscratch/28446411/qchem3964244//Frg2/
Attempting to make child job directory: /expanse/lustre/scratch/selhajj/temp_project/qcscratch/28446411/qchem3964244//Frg3/
Attempting to make child job directory: /expanse/lustre/scratch/selhajj/temp_project/qcscratch/28446411/qchem3964244//Frg4/
Creating input file /expanse/lustre/scratch/selhajj/temp_project/qcscratch/28446411/qchem3964244/Frg1.input
using default PutDataFrgm: nothing
calling putenv with: QCSCRATCH=/expanse/lustre/scratch/selhajj/temp_project/qcscratch/28446411/qchem3964244/ 
Spawning Job For Fragment 0
Done Job For Fragment 0
calling putenv with: QCSCRATCH=/expanse/lustre/scratch/selhajj/temp_project/qcscratch/28446411 
calling putenv with: QCTHREADS=8 
Creating input file /expanse/lustre/scratch/selhajj/temp_project/qcscratch/28446411/qchem3964244/Frg2.input
using default PutDataFrgm: nothing
calling putenv with: QCSCRATCH=/expanse/lustre/scratch/selhajj/temp_project/qcscratch/28446411/qchem3964244/ 
Spawning Job For Fragment 1
Done Job For Fragment 1
calling putenv with: QCSCRATCH=/expanse/lustre/scratch/selhajj/temp_project/qcscratch/28446411 
calling putenv with: QCTHREADS=8 
Creating input file /expanse/lustre/scratch/selhajj/temp_project/qcscratch/28446411/qchem3964244/Frg3.input
using default PutDataFrgm: nothing
calling putenv with: QCSCRATCH=/expanse/lustre/scratch/selhajj/temp_project/qcscratch/28446411/qchem3964244/ 
Spawning Job For Fragment 2
Done Job For Fragment 2
calling putenv with: QCSCRATCH=/expanse/lustre/scratch/selhajj/temp_project/qcscratch/28446411 
calling putenv with: QCTHREADS=8 
Creating input file /expanse/lustre/scratch/selhajj/temp_project/qcscratch/28446411/qchem3964244/Frg4.input
using default PutDataFrgm: nothing
calling putenv with: QCSCRATCH=/expanse/lustre/scratch/selhajj/temp_project/qcscratch/28446411/qchem3964244/ 
Spawning Job For Fragment 3
Done Job For Fragment 3
calling putenv with: QCSCRATCH=/expanse/lustre/scratch/selhajj/temp_project/qcscratch/28446411 
calling putenv with: QCTHREADS=8 
 Time for running child jobs:  CPU 0.01 s  wall 4.78 s
 ============= Method Specific Promolecule Density Constructed =============
 Guess from superposition of atomic densities
 Warning:  Energy on first SCF cycle will be non-variational
 SAD guess density has 156.000000 electrons

 -----------------------------------------------------------------------
  General SCF calculation program by
  Eric Jon Sundstrom, Paul Horn, Yuezhi Mao, Dmitri Zuev, Alec White,
  David Stuck, Shaama M.S., Shane Yost, Joonho Lee, David Small,
  Daniel Levine, Susi Lehtola, Hugh Burton, Evgeny Epifanovsky,
  Bang C. Huynh
 -----------------------------------------------------------------------
 Exchange:     0.2000 Hartree-Fock + 0.0800 Slater + 0.7200 B88
 Correlation:  0.1900 VWN1RPA + 0.8100 LYP
 Using SG-1 standard quadrature grid
 using 8 threads for integral computing
 -------------------------------------------------------
 OpenMP Integral computing Module                
 Release: version 1.0, May 2013, Q-Chem Inc. Pittsburgh 
 -------------------------------------------------------
 
 SM12 calculation using CM5 charges
 Citation of the SM12 model:
 Marenich, A.V.; Cramer, C.J.; Truhlar, D.G.
 J. Chem. Theory Comput. 2013, 9, 609-612.
 iSolventCode=          91
 Solvent: dimethylformamide                                               
 
Hirshfeld: reading atomic densities from disk.
warning:  vdwdata pointer should have been initialzed before dftman
 Inaccurate integrated density:
   Number of electrons =   157
   Numerical integral  =   155.997789098146
   Relative error      =    -0.6383508929 %

 Charges (in A.U.) from CM5PAC (Nov. 11, 2011)
 -----------------------------------------------
 Center     Atomic      CM5         Hirshfeld
 Number     Number      Charge      Charge
 -----------------------------------------------
    1          6       -0.051960   -0.000392
    2          6       -0.057898   -0.002726
    3          6       -0.057891   -0.002754
    4          6       -0.001757    0.000102
    5          6       -0.001717    0.000146
    6          6       -0.051985   -0.000395
    7          6        0.038200    0.007020
    8          6       -0.001739   -0.000160
    9          6       -0.001692    0.000037
   10          6        0.037580    0.007022
   11          6       -0.047063   -0.000733
   12          6       -0.052028   -0.000700
   13          6       -0.053394   -0.002795
   14          8       -0.064307   -0.017328
   15          8       -0.063726   -0.017297
   16          1        0.066453    0.005450
   17          1        0.058563    0.003042
   18          1        0.058559    0.003044
   19          1        0.063696    0.003375
   20          1        0.066492    0.005444
   21          1        0.070918    0.005626
   22          1        0.066522    0.005428
   23          6        0.009120    0.000139
   24         16        0.131681    0.049048
   25          8       -0.064575   -0.017049
   26          8       -0.064086   -0.016826
   27          8       -0.106037   -0.026138
   28          6       -0.118115    0.001462
   29          1        0.065069    0.003588
   30          1        0.064467    0.004007
   31          1        0.064860    0.003525
 -----------------------------------------------

 Dipole moment (in Debye)
 -----------------------------------------------
                 X        Y        Z     Total
 -----------------------------------------------
 CM5          0.0640  -0.2234  -0.2802   0.3641
 Hirshfeld    0.0066  -0.0359   0.0066   0.0371
 -----------------------------------------------

 A unrestricted SCF calculation will be
 performed using DIIS
 SCF converges when DIIS error is below 1.0e-08
 ---------------------------------------
  Cycle       Energy         DIIS error
 ---------------------------------------
Hirshfeld: reading atomic densities from disk.

 Charges (in A.U.) from CM5PAC (Nov. 11, 2011)
 -----------------------------------------------
 Center     Atomic      CM5         Hirshfeld
 Number     Number      Charge      Charge
 -----------------------------------------------
    1          6       -0.170603   -0.119036
    2          6       -0.175888   -0.120716
    3          6       -0.174576   -0.119439
    4          6       -0.065677   -0.063818
    5          6       -0.063755   -0.061892
    6          6       -0.171741   -0.120150
    7          6        0.270454    0.239273
    8          6       -0.058183   -0.056605
    9          6       -0.057388   -0.055659
   10          6        0.257319    0.226761
   11          6       -0.147839   -0.101509
   12          6       -0.161680   -0.110351
   13          6       -0.157954   -0.107355
   14          8       -0.615006   -0.568028
   15          8       -0.625703   -0.579275
   16          1        0.168917    0.107914
   17          1        0.178721    0.123200
   18          1        0.178682    0.123167
   19          1        0.175493    0.115172
   20          1        0.168350    0.107302
   21          1        0.167121    0.101829
   22          1        0.169170    0.108076
   23          6        0.008920   -0.000061
   24         16        1.321420    1.238788
   25          8       -0.639083   -0.591557
   26          8       -0.642800   -0.595541
   27          8       -0.348208   -0.268310
   28          6       -0.226258   -0.106681
   29          1        0.142433    0.080951
   30          1        0.153377    0.092917
   31          1        0.142686    0.081351
 -----------------------------------------------

 Dipole moment (in Debye)
 -----------------------------------------------
                 X        Y        Z     Total
 -----------------------------------------------
 CM5         -7.9174  10.2390  -6.0606  14.2917
 Hirshfeld   -7.9748  10.4265  -5.7737  14.3404
 -----------------------------------------------

    1   -1357.3445868648      1.47e-02  
Hirshfeld: reading atomic densities from disk.

 Charges (in A.U.) from CM5PAC (Nov. 11, 2011)
 -----------------------------------------------
 Center     Atomic      CM5         Hirshfeld
 Number     Number      Charge      Charge
 -----------------------------------------------
    1          6       -0.018062    0.033505
    2          6       -0.008927    0.046244
    3          6       -0.004100    0.051037
    4          6       -0.040057   -0.038198
    5          6       -0.037080   -0.035217
    6          6       -0.022330    0.029260
    7          6       -0.201740   -0.232920
    8          6       -0.033589   -0.032011
    9          6       -0.064873   -0.063144
   10          6       -0.227679   -0.258237
   11          6       -0.046076    0.000255
   12          6        0.012379    0.063707
   13          6       -0.080005   -0.029406
   14          8        0.235646    0.282624
   15          8        0.176052    0.222481
   16          1       -0.002570   -0.063573
   17          1        0.008199   -0.047322
   18          1        0.008926   -0.046589
   19          1        0.032100   -0.028221
   20          1       -0.007953   -0.069001
   21          1        0.029325   -0.035968
   22          1        0.017367   -0.043727
   23          6       -0.321366   -0.330347
   24         16       -0.727242   -0.809874
   25          8        0.189752    0.237278
   26          8        0.186711    0.233970
   27          8       -0.241125   -0.161226
   28          6       -0.016589    0.102987
   29          1        0.060250   -0.001231
   30          1        0.089323    0.028864
   31          1        0.057361   -0.003973
 -----------------------------------------------

 Dipole moment (in Debye)
 -----------------------------------------------
                 X        Y        Z     Total
 -----------------------------------------------
 CM5          1.3053  15.5445  -7.4343  17.2801
 Hirshfeld    1.2478  15.7319  -7.1474  17.3245
 -----------------------------------------------

    2   -1351.6859171310      2.13e-03  
Hirshfeld: reading atomic densities from disk.

 Charges (in A.U.) from CM5PAC (Nov. 11, 2011)
 -----------------------------------------------
 Center     Atomic      CM5         Hirshfeld
 Number     Number      Charge      Charge
 -----------------------------------------------
    1          6       -0.074692   -0.023125
    2          6       -0.090084   -0.034913
    3          6       -0.089449   -0.034312
    4          6       -0.010167   -0.008308
    5          6       -0.007058   -0.005194
    6          6       -0.075352   -0.023761
    7          6        0.112110    0.080929
    8          6       -0.014748   -0.013170
    9          6        0.001048    0.002777
   10          6        0.109154    0.078596
   11          6       -0.028683    0.017647
   12          6       -0.089271   -0.037943
   13          6       -0.041274    0.009325
   14          8       -0.524492   -0.477513
   15          8       -0.513072   -0.466643
   16          1        0.071730    0.010727
   17          1        0.073707    0.018186
   18          1        0.073880    0.018364
   19          1        0.072413    0.012092
   20          1        0.070591    0.009543
   21          1        0.076446    0.011154
   22          1        0.067950    0.006855
   23          6        0.102186    0.093205
   24         16        0.654485    0.571853
   25          8       -0.453189   -0.405662
   26          8       -0.457609   -0.410350
   27          8       -0.181980   -0.102082
   28          6       -0.092643    0.026933
   29          1        0.081162    0.019680
   30          1        0.098287    0.037827
   31          1        0.079995    0.018661
 -----------------------------------------------

 Dipole moment (in Debye)
 -----------------------------------------------
                 X        Y        Z     Total
 -----------------------------------------------
 CM5         -7.2885  10.8620  -6.6524  14.6752
 Hirshfeld   -7.3459  11.0495  -6.3655  14.7165
 -----------------------------------------------

    3   -1350.6491560580      3.82e-03  
Hirshfeld: reading atomic densities from disk.

 Charges (in A.U.) from CM5PAC (Nov. 11, 2011)
 -----------------------------------------------
 Center     Atomic      CM5         Hirshfeld
 Number     Number      Charge      Charge
 -----------------------------------------------
    1          6       -0.104507   -0.052940
    2          6       -0.112304   -0.057132
    3          6       -0.108815   -0.053678
    4          6       -0.049218   -0.047359
    5          6       -0.048258   -0.046394
    6          6       -0.107507   -0.055916
    7          6        0.112720    0.081539
    8          6       -0.048721   -0.047142
    9          6       -0.047266   -0.045537
   10          6        0.094315    0.063757
   11          6       -0.084911   -0.038581
   12          6       -0.087872   -0.036543
   13          6       -0.119233   -0.068634
   14          8       -0.344521   -0.297542
   15          8       -0.370775   -0.324346
   16          1        0.095239    0.034236
   17          1        0.098917    0.043396
   18          1        0.099382    0.043866
   19          1        0.108992    0.048671
   20          1        0.094266    0.033218
   21          1        0.110907    0.045615
   22          1        0.101373    0.040278
   23          6       -0.079704   -0.088685
   24         16        0.647785    0.565152
   25          8       -0.373324   -0.325798
   26          8       -0.377892   -0.330633
   27          8       -0.312477   -0.232578
   28          6       -0.113098    0.006479
   29          1        0.105302    0.043820
   30          1        0.118206    0.057747
   31          1        0.104235    0.042901
 -----------------------------------------------

 Dipole moment (in Debye)
 -----------------------------------------------
                 X        Y        Z     Total
 -----------------------------------------------
 CM5         -5.6816  11.5386  -6.0891  14.2302
 Hirshfeld   -5.7390  11.7261  -5.8023  14.2865
 -----------------------------------------------

    4   -1352.1661526823      6.83e-04  
Hirshfeld: reading atomic densities from disk.

 Charges (in A.U.) from CM5PAC (Nov. 11, 2011)
 -----------------------------------------------
 Center     Atomic      CM5         Hirshfeld
 Number     Number      Charge      Charge
 -----------------------------------------------
    1          6       -0.100699   -0.049131
    2          6       -0.105255   -0.050084
    3          6       -0.103063   -0.047926
    4          6       -0.042209   -0.040350
    5          6       -0.038116   -0.036253
    6          6       -0.102031   -0.050440
    7          6        0.101633    0.070452
    8          6       -0.038559   -0.036980
    9          6       -0.035918   -0.034189
   10          6        0.087479    0.056922
   11          6       -0.076484   -0.030153
   12          6       -0.093423   -0.042094
   13          6       -0.092582   -0.041982
   14          8       -0.395408   -0.348429
   15          8       -0.395589   -0.349160
   16          1        0.094902    0.033899
   17          1        0.097253    0.041732
   18          1        0.097630    0.042115
   19          1        0.104778    0.044457
   20          1        0.093408    0.032360
   21          1        0.107863    0.042570
   22          1        0.099341    0.038247
   23          6       -0.043356   -0.052337
   24         16        0.590390    0.507758
   25          8       -0.377551   -0.330025
   26          8       -0.380601   -0.333342
   27          8       -0.250844   -0.170945
   28          6       -0.125105   -0.005528
   29          1        0.102926    0.041445
   30          1        0.118468    0.058009
   31          1        0.101956    0.040622
 -----------------------------------------------

 Dipole moment (in Debye)
 -----------------------------------------------
                 X        Y        Z     Total
 -----------------------------------------------
 CM5         -6.0886  11.4779  -6.5553  14.5528
 Hirshfeld   -6.1460  11.6654  -6.2685  14.5996
 -----------------------------------------------

    5   -1352.2244880485      2.44e-04  
Hirshfeld: reading atomic densities from disk.

 Charges (in A.U.) from CM5PAC (Nov. 11, 2011)
 -----------------------------------------------
 Center     Atomic      CM5         Hirshfeld
 Number     Number      Charge      Charge
 -----------------------------------------------
    1          6       -0.098352   -0.046784
    2          6       -0.107133   -0.051962
    3          6       -0.104624   -0.049488
    4          6       -0.038981   -0.037122
    5          6       -0.037112   -0.035249
    6          6       -0.100917   -0.049327
    7          6        0.101655    0.070474
    8          6       -0.039915   -0.038337
    9          6       -0.035297   -0.033568
   10          6        0.088962    0.058404
   11          6       -0.073193   -0.026862
   12          6       -0.092440   -0.041112
   13          6       -0.097303   -0.046704
   14          8       -0.382155   -0.335177
   15          8       -0.399043   -0.352614
   16          1        0.091676    0.030673
   17          1        0.094720    0.039199
   18          1        0.095171    0.039655
   19          1        0.102170    0.041849
   20          1        0.090552    0.029503
   21          1        0.104397    0.039105
   22          1        0.096117    0.035023
   23          6       -0.033221   -0.042202
   24         16        0.615525    0.532893
   25          8       -0.384098   -0.336572
   26          8       -0.388798   -0.341539
   27          8       -0.271200   -0.191301
   28          6       -0.114705    0.004871
   29          1        0.101706    0.040225
   30          1        0.116451    0.055991
   31          1        0.100635    0.039300
 -----------------------------------------------

 Dipole moment (in Debye)
 -----------------------------------------------
                 X        Y        Z     Total
 -----------------------------------------------
 CM5         -6.0258  11.3722  -6.3077  14.3327
 Hirshfeld   -6.0833  11.5597  -6.0209  14.3835
 -----------------------------------------------

    6   -1352.2304556921      8.02e-05  
Hirshfeld: reading atomic densities from disk.

 Charges (in A.U.) from CM5PAC (Nov. 11, 2011)
 -----------------------------------------------
 Center     Atomic      CM5         Hirshfeld
 Number     Number      Charge      Charge
 -----------------------------------------------
    1          6       -0.099393   -0.047825
    2          6       -0.106624   -0.051453
    3          6       -0.104088   -0.048951
    4          6       -0.040507   -0.038648
    5          6       -0.037835   -0.035972
    6          6       -0.101317   -0.049726
    7          6        0.106101    0.074921
    8          6       -0.039438   -0.037859
    9          6       -0.034870   -0.033141
   10          6        0.091167    0.060609
   11          6       -0.074440   -0.028109
   12          6       -0.091041   -0.039713
   13          6       -0.097800   -0.047201
   14          8       -0.389272   -0.342294
   15          8       -0.395267   -0.348838
   16          1        0.092071    0.031068
   17          1        0.094868    0.039347
   18          1        0.095277    0.039762
   19          1        0.102597    0.042276
   20          1        0.090708    0.029659
   21          1        0.105137    0.039845
   22          1        0.096331    0.035237
   23          6       -0.040631   -0.049612
   24         16        0.615155    0.532523
   25          8       -0.383668   -0.336142
   26          8       -0.387171   -0.339912
   27          8       -0.266651   -0.186752
   28          6       -0.116508    0.003068
   29          1        0.101514    0.040033
   30          1        0.116375    0.055915
   31          1        0.100466    0.039131
 -----------------------------------------------

 Dipole moment (in Debye)
 -----------------------------------------------
                 X        Y        Z     Total
 -----------------------------------------------
 CM5         -6.0747  11.4538  -6.4233  14.4689
 Hirshfeld   -6.1321  11.6413  -6.1365  14.5182
 -----------------------------------------------

    7   -1352.2316646360      2.71e-05  
Hirshfeld: reading atomic densities from disk.

 Charges (in A.U.) from CM5PAC (Nov. 11, 2011)
 -----------------------------------------------
 Center     Atomic      CM5         Hirshfeld
 Number     Number      Charge      Charge
 -----------------------------------------------
    1          6       -0.099284   -0.047716
    2          6       -0.106652   -0.051480
    3          6       -0.104190   -0.049053
    4          6       -0.040727   -0.038867
    5          6       -0.038113   -0.036250
    6          6       -0.101433   -0.049842
    7          6        0.103656    0.072476
    8          6       -0.040025   -0.038446
    9          6       -0.035666   -0.033937
   10          6        0.090194    0.059636
   11          6       -0.074066   -0.027735
   12          6       -0.092111   -0.040783
   13          6       -0.096202   -0.045603
   14          8       -0.385506   -0.338527
   15          8       -0.397530   -0.351101
   16          1        0.092240    0.031236
   17          1        0.095046    0.039525
   18          1        0.095473    0.039958
   19          1        0.102655    0.042334
   20          1        0.091019    0.029971
   21          1        0.105172    0.039880
   22          1        0.096578    0.035484
   23          6       -0.038077   -0.047058
   24         16        0.615055    0.532422
   25          8       -0.383623   -0.336096
   26          8       -0.387852   -0.340593
   27          8       -0.266547   -0.186648
   28          6       -0.117108    0.002469
   29          1        0.101675    0.040194
   30          1        0.116559    0.056100
   31          1        0.100634    0.039300
 -----------------------------------------------

 Dipole moment (in Debye)
 -----------------------------------------------
                 X        Y        Z     Total
 -----------------------------------------------
 CM5         -6.0714  11.4004  -6.3596  14.3970
 Hirshfeld   -6.1288  11.5879  -6.0728  14.4471
 -----------------------------------------------

    8   -1352.2317525274      1.14e-05  
Hirshfeld: reading atomic densities from disk.

 Charges (in A.U.) from CM5PAC (Nov. 11, 2011)
 -----------------------------------------------
 Center     Atomic      CM5         Hirshfeld
 Number     Number      Charge      Charge
 -----------------------------------------------
    1          6       -0.099351   -0.047783
    2          6       -0.107074   -0.051902
    3          6       -0.104604   -0.049467
    4          6       -0.039923   -0.038064
    5          6       -0.037474   -0.035611
    6          6       -0.101499   -0.049909
    7          6        0.103955    0.072775
    8          6       -0.039381   -0.037803
    9          6       -0.034783   -0.033054
   10          6        0.089823    0.059265
   11          6       -0.074077   -0.027747
   12          6       -0.091913   -0.040584
   13          6       -0.097336   -0.046737
   14          8       -0.387437   -0.340459
   15          8       -0.395737   -0.349309
   16          1        0.092162    0.031159
   17          1        0.094968    0.039446
   18          1        0.095387    0.039872
   19          1        0.102658    0.042337
   20          1        0.090881    0.029832
   21          1        0.105151    0.039859
   22          1        0.096525    0.035431
   23          6       -0.037987   -0.046968
   24         16        0.614923    0.532290
   25          8       -0.383872   -0.336346
   26          8       -0.387721   -0.340462
   27          8       -0.267398   -0.187499
   28          6       -0.116598    0.002979
   29          1        0.101724    0.040243
   30          1        0.116576    0.056116
   31          1        0.100681    0.039346
 -----------------------------------------------

 Dipole moment (in Debye)
 -----------------------------------------------
                 X        Y        Z     Total
 -----------------------------------------------
 CM5         -6.0882  11.4266  -6.3911  14.4388
 Hirshfeld   -6.1456  11.6141  -6.1043  14.4885
 -----------------------------------------------

    9   -1352.2317090526      6.49e-06  
Hirshfeld: reading atomic densities from disk.

 Charges (in A.U.) from CM5PAC (Nov. 11, 2011)
 -----------------------------------------------
 Center     Atomic      CM5         Hirshfeld
 Number     Number      Charge      Charge
 -----------------------------------------------
    1          6       -0.099437   -0.047869
    2          6       -0.106804   -0.051632
    3          6       -0.104329   -0.049193
    4          6       -0.040372   -0.038513
    5          6       -0.037843   -0.035980
    6          6       -0.101509   -0.049918
    7          6        0.104063    0.072883
    8          6       -0.039674   -0.038096
    9          6       -0.035044   -0.033315
   10          6        0.090158    0.059600
   11          6       -0.074259   -0.027929
   12          6       -0.091810   -0.040482
   13          6       -0.097074   -0.046475
   14          8       -0.386454   -0.339476
   15          8       -0.396094   -0.349665
   16          1        0.092115    0.031112
   17          1        0.094894    0.039373
   18          1        0.095308    0.039792
   19          1        0.102621    0.042300
   20          1        0.090849    0.029801
   21          1        0.105142    0.039850
   22          1        0.096511    0.035417
   23          6       -0.038414   -0.047394
   24         16        0.615175    0.532543
   25          8       -0.383992   -0.336465
   26          8       -0.387938   -0.340679
   27          8       -0.266577   -0.186678
   28          6       -0.116724    0.002852
   29          1        0.101649    0.040168
   30          1        0.116507    0.056047
   31          1        0.100604    0.039269
 -----------------------------------------------

 Dipole moment (in Debye)
 -----------------------------------------------
                 X        Y        Z     Total
 -----------------------------------------------
 CM5         -6.0824  11.4164  -6.3847  14.4254
 Hirshfeld   -6.1399  11.6039  -6.0978  14.4752
 -----------------------------------------------

   10   -1352.2317792038      3.83e-06  
Hirshfeld: reading atomic densities from disk.

 Charges (in A.U.) from CM5PAC (Nov. 11, 2011)
 -----------------------------------------------
 Center     Atomic      CM5         Hirshfeld
 Number     Number      Charge      Charge
 -----------------------------------------------
    1          6       -0.099391   -0.047823
    2          6       -0.106895   -0.051724
    3          6       -0.104447   -0.049310
    4          6       -0.040350   -0.038490
    5          6       -0.037820   -0.035956
    6          6       -0.101506   -0.049916
    7          6        0.103973    0.072793
    8          6       -0.039651   -0.038072
    9          6       -0.035144   -0.033415
   10          6        0.090052    0.059495
   11          6       -0.074113   -0.027782
   12          6       -0.091963   -0.040635
   13          6       -0.096856   -0.046257
   14          8       -0.386617   -0.339638
   15          8       -0.395984   -0.349555
   16          1        0.092128    0.031125
   17          1        0.094915    0.039393
   18          1        0.095329    0.039813
   19          1        0.102592    0.042271
   20          1        0.090863    0.029814
   21          1        0.105114    0.039821
   22          1        0.096494    0.035400
   23          6       -0.038191   -0.047172
   24         16        0.615120    0.532487
   25          8       -0.383781   -0.336255
   26          8       -0.387758   -0.340499
   27          8       -0.266905   -0.187006
   28          6       -0.116790    0.002787
   29          1        0.101670    0.040188
   30          1        0.116533    0.056073
   31          1        0.100626    0.039291
 -----------------------------------------------

 Dipole moment (in Debye)
 -----------------------------------------------
                 X        Y        Z     Total
 -----------------------------------------------
 CM5         -6.0900  11.4169  -6.3797  14.4269
 Hirshfeld   -6.1474  11.6044  -6.0928  14.4768
 -----------------------------------------------

   11   -1352.2317712640      1.18e-06  
Hirshfeld: reading atomic densities from disk.

 Charges (in A.U.) from CM5PAC (Nov. 11, 2011)
 -----------------------------------------------
 Center     Atomic      CM5         Hirshfeld
 Number     Number      Charge      Charge
 -----------------------------------------------
    1          6       -0.099415   -0.047848
    2          6       -0.106907   -0.051736
    3          6       -0.104455   -0.049318
    4          6       -0.040300   -0.038440
    5          6       -0.037792   -0.035929
    6          6       -0.101523   -0.049932
    7          6        0.103928    0.072747
    8          6       -0.039604   -0.038025
    9          6       -0.035051   -0.033322
   10          6        0.090036    0.059479
   11          6       -0.074161   -0.027830
   12          6       -0.091875   -0.040547
   13          6       -0.097027   -0.046427
   14          8       -0.386490   -0.339511
   15          8       -0.395936   -0.349507
   16          1        0.092118    0.031115
   17          1        0.094908    0.039386
   18          1        0.095320    0.039804
   19          1        0.102604    0.042283
   20          1        0.090852    0.029804
   21          1        0.105120    0.039827
   22          1        0.096496    0.035401
   23          6       -0.038293   -0.047273
   24         16        0.615140    0.532508
   25          8       -0.383884   -0.336358
   26          8       -0.387827   -0.340567
   27          8       -0.266781   -0.186883
   28          6       -0.116762    0.002814
   29          1        0.101661    0.040179
   30          1        0.116529    0.056069
   31          1        0.100617    0.039282
 -----------------------------------------------

 Dipole moment (in Debye)
 -----------------------------------------------
                 X        Y        Z     Total
 -----------------------------------------------
 CM5         -6.0877  11.4168  -6.3819  14.4268
 Hirshfeld   -6.1451  11.6043  -6.0950  14.4766
 -----------------------------------------------

   12   -1352.2317711027      7.12e-07  
Hirshfeld: reading atomic densities from disk.

 Charges (in A.U.) from CM5PAC (Nov. 11, 2011)
 -----------------------------------------------
 Center     Atomic      CM5         Hirshfeld
 Number     Number      Charge      Charge
 -----------------------------------------------
    1          6       -0.099418   -0.047851
    2          6       -0.106868   -0.051697
    3          6       -0.104415   -0.049278
    4          6       -0.040328   -0.038468
    5          6       -0.037820   -0.035957
    6          6       -0.101513   -0.049922
    7          6        0.103973    0.072792
    8          6       -0.039630   -0.038051
    9          6       -0.035090   -0.033361
   10          6        0.090063    0.059505
   11          6       -0.074182   -0.027851
   12          6       -0.091881   -0.040553
   13          6       -0.096995   -0.046396
   14          8       -0.386508   -0.339530
   15          8       -0.395958   -0.349530
   16          1        0.092115    0.031112
   17          1        0.094900    0.039378
   18          1        0.095310    0.039795
   19          1        0.102603    0.042282
   20          1        0.090849    0.029800
   21          1        0.105123    0.039831
   22          1        0.096500    0.035406
   23          6       -0.038277   -0.047257
   24         16        0.615127    0.532494
   25          8       -0.383859   -0.336333
   26          8       -0.387820   -0.340561
   27          8       -0.266816   -0.186918
   28          6       -0.116742    0.002835
   29          1        0.101661    0.040179
   30          1        0.116526    0.056066
   31          1        0.100617    0.039283
 -----------------------------------------------

 Dipole moment (in Debye)
 -----------------------------------------------
                 X        Y        Z     Total
 -----------------------------------------------
 CM5         -6.0873  11.4169  -6.3817  14.4266
 Hirshfeld   -6.1447  11.6044  -6.0949  14.4765
 -----------------------------------------------

   13   -1352.2317757312      2.04e-07  
Hirshfeld: reading atomic densities from disk.

 Charges (in A.U.) from CM5PAC (Nov. 11, 2011)
 -----------------------------------------------
 Center     Atomic      CM5         Hirshfeld
 Number     Number      Charge      Charge
 -----------------------------------------------
    1          6       -0.099413   -0.047846
    2          6       -0.106894   -0.051723
    3          6       -0.104445   -0.049308
    4          6       -0.040318   -0.038459
    5          6       -0.037811   -0.035948
    6          6       -0.101516   -0.049925
    7          6        0.103959    0.072779
    8          6       -0.039617   -0.038039
    9          6       -0.035084   -0.033355
   10          6        0.090061    0.059503
   11          6       -0.074167   -0.027836
   12          6       -0.091889   -0.040561
   13          6       -0.097000   -0.046401
   14          8       -0.386500   -0.339522
   15          8       -0.395952   -0.349524
   16          1        0.092118    0.031114
   17          1        0.094905    0.039384
   18          1        0.095315    0.039800
   19          1        0.102601    0.042280
   20          1        0.090852    0.029803
   21          1        0.105120    0.039828
   22          1        0.096499    0.035404
   23          6       -0.038273   -0.047254
   24         16        0.615142    0.532509
   25          8       -0.383873   -0.336347
   26          8       -0.387820   -0.340560
   27          8       -0.266800   -0.186901
   28          6       -0.116756    0.002820
   29          1        0.101662    0.040180
   30          1        0.116526    0.056067
   31          1        0.100618    0.039284
 -----------------------------------------------

 Dipole moment (in Debye)
 -----------------------------------------------
                 X        Y        Z     Total
 -----------------------------------------------
 CM5         -6.0879  11.4167  -6.3814  14.4265
 Hirshfeld   -6.1453  11.6042  -6.0946  14.4764
 -----------------------------------------------

   14   -1352.2317737631      1.15e-07  
Hirshfeld: reading atomic densities from disk.

 Charges (in A.U.) from CM5PAC (Nov. 11, 2011)
 -----------------------------------------------
 Center     Atomic      CM5         Hirshfeld
 Number     Number      Charge      Charge
 -----------------------------------------------
    1          6       -0.099418   -0.047851
    2          6       -0.106885   -0.051713
    3          6       -0.104435   -0.049299
    4          6       -0.040316   -0.038457
    5          6       -0.037814   -0.035950
    6          6       -0.101518   -0.049928
    7          6        0.103955    0.072775
    8          6       -0.039614   -0.038035
    9          6       -0.035078   -0.033349
   10          6        0.090059    0.059501
   11          6       -0.074172   -0.027841
   12          6       -0.091878   -0.040550
   13          6       -0.097004   -0.046405
   14          8       -0.386502   -0.339523
   15          8       -0.395963   -0.349535
   16          1        0.092117    0.031114
   17          1        0.094903    0.039382
   18          1        0.095313    0.039798
   19          1        0.102602    0.042281
   20          1        0.090851    0.029803
   21          1        0.105121    0.039829
   22          1        0.096498    0.035404
   23          6       -0.038278   -0.047258
   24         16        0.615141    0.532509
   25          8       -0.383865   -0.336339
   26          8       -0.387823   -0.340564
   27          8       -0.266802   -0.186904
   28          6       -0.116755    0.002822
   29          1        0.101662    0.040180
   30          1        0.116527    0.056068
   31          1        0.100618    0.039284
 -----------------------------------------------

 Dipole moment (in Debye)
 -----------------------------------------------
                 X        Y        Z     Total
 -----------------------------------------------
 CM5         -6.0877  11.4166  -6.3814  14.4264
 Hirshfeld   -6.1452  11.6041  -6.0946  14.4763
 -----------------------------------------------

   15   -1352.2317748435      4.63e-08  
Hirshfeld: reading atomic densities from disk.

 Charges (in A.U.) from CM5PAC (Nov. 11, 2011)
 -----------------------------------------------
 Center     Atomic      CM5         Hirshfeld
 Number     Number      Charge      Charge
 -----------------------------------------------
    1          6       -0.099416   -0.047849
    2          6       -0.106887   -0.051716
    3          6       -0.104438   -0.049302
    4          6       -0.040317   -0.038458
    5          6       -0.037814   -0.035951
    6          6       -0.101516   -0.049925
    7          6        0.103959    0.072778
    8          6       -0.039616   -0.038037
    9          6       -0.035086   -0.033356
   10          6        0.090059    0.059501
   11          6       -0.074170   -0.027840
   12          6       -0.091885   -0.040557
   13          6       -0.097000   -0.046401
   14          8       -0.386500   -0.339521
   15          8       -0.395960   -0.349531
   16          1        0.092117    0.031114
   17          1        0.094904    0.039382
   18          1        0.095313    0.039798
   19          1        0.102602    0.042281
   20          1        0.090851    0.029802
   21          1        0.105121    0.039829
   22          1        0.096499    0.035405
   23          6       -0.038273   -0.047253
   24         16        0.615140    0.532507
   25          8       -0.383871   -0.336345
   26          8       -0.387819   -0.340560
   27          8       -0.266801   -0.186902
   28          6       -0.116754    0.002823
   29          1        0.101662    0.040180
   30          1        0.116527    0.056067
   31          1        0.100618    0.039283
 -----------------------------------------------

 Dipole moment (in Debye)
 -----------------------------------------------
                 X        Y        Z     Total
 -----------------------------------------------
 CM5         -6.0878  11.4166  -6.3814  14.4264
 Hirshfeld   -6.1452  11.6041  -6.0945  14.4763
 -----------------------------------------------

   16   -1352.2317745952      3.20e-08  
Hirshfeld: reading atomic densities from disk.

 Charges (in A.U.) from CM5PAC (Nov. 11, 2011)
 -----------------------------------------------
 Center     Atomic      CM5         Hirshfeld
 Number     Number      Charge      Charge
 -----------------------------------------------
    1          6       -0.099415   -0.047848
    2          6       -0.106889   -0.051717
    3          6       -0.104441   -0.049304
    4          6       -0.040317   -0.038457
    5          6       -0.037814   -0.035950
    6          6       -0.101517   -0.049926
    7          6        0.103960    0.072779
    8          6       -0.039614   -0.038035
    9          6       -0.035082   -0.033353
   10          6        0.090062    0.059504
   11          6       -0.074170   -0.027839
   12          6       -0.091884   -0.040556
   13          6       -0.097003   -0.046404
   14          8       -0.386499   -0.339520
   15          8       -0.395964   -0.349536
   16          1        0.092117    0.031114
   17          1        0.094904    0.039383
   18          1        0.095313    0.039798
   19          1        0.102602    0.042281
   20          1        0.090851    0.029802
   21          1        0.105121    0.039829
   22          1        0.096499    0.035405
   23          6       -0.038275   -0.047256
   24         16        0.615137    0.532504
   25          8       -0.383866   -0.336340
   26          8       -0.387821   -0.340562
   27          8       -0.266802   -0.186904
   28          6       -0.116754    0.002823
   29          1        0.101662    0.040180
   30          1        0.116527    0.056067
   31          1        0.100618    0.039284
 -----------------------------------------------

 Dipole moment (in Debye)
 -----------------------------------------------
                 X        Y        Z     Total
 -----------------------------------------------
 CM5         -6.0878  11.4165  -6.3813  14.4263
 Hirshfeld   -6.1452  11.6040  -6.0944  14.4762
 -----------------------------------------------

   17   -1352.2317745153      1.59e-08  
Hirshfeld: reading atomic densities from disk.

 Charges (in A.U.) from CM5PAC (Nov. 11, 2011)
 -----------------------------------------------
 Center     Atomic      CM5         Hirshfeld
 Number     Number      Charge      Charge
 -----------------------------------------------
    1          6       -0.099416   -0.047849
    2          6       -0.106887   -0.051715
    3          6       -0.104438   -0.049301
    4          6       -0.040317   -0.038457
    5          6       -0.037815   -0.035952
    6          6       -0.101517   -0.049926
    7          6        0.103958    0.072777
    8          6       -0.039615   -0.038036
    9          6       -0.035083   -0.033354
   10          6        0.090059    0.059501
   11          6       -0.074171   -0.027840
   12          6       -0.091883   -0.040554
   13          6       -0.097002   -0.046403
   14          8       -0.386497   -0.339519
   15          8       -0.395963   -0.349534
   16          1        0.092117    0.031114
   17          1        0.094903    0.039382
   18          1        0.095313    0.039798
   19          1        0.102602    0.042281
   20          1        0.090851    0.029802
   21          1        0.105121    0.039829
   22          1        0.096499    0.035404
   23          6       -0.038274   -0.047255
   24         16        0.615138    0.532506
   25          8       -0.383869   -0.336342
   26          8       -0.387819   -0.340560
   27          8       -0.266802   -0.186904
   28          6       -0.116754    0.002823
   29          1        0.101662    0.040180
   30          1        0.116527    0.056067
   31          1        0.100618    0.039284
 -----------------------------------------------

 Dipole moment (in Debye)
 -----------------------------------------------
                 X        Y        Z     Total
 -----------------------------------------------
 CM5         -6.0878  11.4165  -6.3813  14.4263
 Hirshfeld   -6.1452  11.6040  -6.0945  14.4762
 -----------------------------------------------

   18   -1352.2317747081      1.19e-08  
   19   -1352.2317745522      6.37e-09  Convergence criterion met
 ---------------------------------------
 SCF time:   CPU 8138.76s  wall 1042.00s 
<S^2> =          0.760529466
(1)  E-EN(liq) elect-nuc energy of solute              -1352.231774552 a.u.
(2)  G-P(liq) polarization free energy of solvation           -42.0966 kcal/mol
(3)  G-ENP(liq) elect-nuc-pol free energy of system    -1352.298859740 a.u.
(4)  G-CDS(liq) cavity-dispersion-solvent structure 
     free energy                                              -11.9351 kcal/mol
(5)  G-P-CDS(liq) = G-P(liq) + G-CDS(liq) = (2) + (4)         -54.0317 kcal/mol
(6)  G-S(liq) free energy of system = (1) + (5)        -1352.317879593 a.u.
 SCF   energy in the final basis set =    -1352.3178795933
 Total energy in the final basis set =    -1352.3178795933
 
 --------------------------------------------------------------
 
                    Orbital Energies (a.u.)
 --------------------------------------------------------------
 
 Alpha MOs
 -- Occupied --
-89.0836 -19.1687 -19.1319 -19.1314 -19.0878 -19.0834 -10.2390 -10.2321
-10.2261 -10.2212 -10.2020 -10.1983 -10.1907 -10.1901 -10.1884 -10.1866
-10.1860 -10.1860 -10.1851 -10.1825 -10.1815  -8.1446  -6.1084  -6.1066
 -6.1051  -1.1489  -1.0396  -1.0229  -1.0168  -1.0094  -0.8844  -0.8677
 -0.8113  -0.7807  -0.7644  -0.7619  -0.7323  -0.6858  -0.6673  -0.6424
 -0.6149  -0.6032  -0.5731  -0.5607  -0.5471  -0.5251  -0.5068  -0.4941
 -0.4814  -0.4763  -0.4710  -0.4544  -0.4530  -0.4477  -0.4360  -0.4351
 -0.4292  -0.4209  -0.4190  -0.4053  -0.4002  -0.3899  -0.3855  -0.3720
 -0.3626  -0.3550  -0.3495  -0.3484  -0.3454  -0.3308  -0.3287  -0.2975
 -0.2834  -0.2792  -0.2669  -0.2655  -0.2549  -0.2457  -0.1542
 -- Virtual --
 -0.0732  -0.0483  -0.0221  -0.0212  -0.0153  -0.0100  -0.0006  -0.0001
  0.0069   0.0174   0.0194   0.0242   0.0281   0.0299   0.0350   0.0430
  0.0440   0.0455   0.0459   0.0514   0.0581   0.0645   0.0679   0.0694
  0.0717   0.0730   0.0784   0.0809   0.0829   0.0858   0.0896   0.0937
  0.0963   0.0970   0.1004   0.1023   0.1050   0.1108   0.1138   0.1151
  0.1178   0.1204   0.1238   0.1250   0.1294   0.1328   0.1388   0.1402
  0.1446   0.1462   0.1528   0.1604   0.1639   0.1680   0.1683   0.1701
  0.1725   0.1726   0.1770   0.1868   0.1875   0.1890   0.1939   0.2024
  0.2071   0.2117   0.2147   0.2154   0.2229   0.2266   0.2269   0.2300
  0.2319   0.2382   0.2411   0.2455   0.2494   0.2508   0.2556   0.2572
  0.2633   0.2694   0.2747   0.2793   0.2817   0.2854   0.2932   0.2948
  0.2978   0.3003   0.3050   0.3054   0.3091   0.3124   0.3144   0.3188
  0.3220   0.3255   0.3351   0.3382   0.3404   0.3444   0.3484   0.3516
  0.3566   0.3614   0.3636   0.3662   0.3815   0.3847   0.3859   0.3914
  0.4003   0.4047   0.4118   0.4201   0.4230   0.4309   0.4375   0.4481
  0.4576   0.4658   0.4760   0.4869   0.4898   0.4963   0.5028   0.5164
  0.5259   0.5356   0.5375   0.5448   0.5523   0.5538   0.5710   0.5717
  0.5747   0.5785   0.5827   0.5870   0.5970   0.6068   0.6131   0.6276
  0.6305   0.6323   0.6417   0.6441   0.6517   0.6556   0.6606   0.6666
  0.6717   0.6732   0.6781   0.6821   0.6915   0.7042   0.7107   0.7230
  0.7283   0.7323   0.7386   0.7428   0.7512   0.7653   0.7732   0.7799
  0.7824   0.7986   0.8091   0.8233   0.8388   0.8498   0.8547   0.8612
  0.8785   0.8930   0.8969   0.9029   0.9145   0.9203   0.9215   0.9281
  0.9340   0.9392   0.9423   0.9501   0.9534   0.9788   0.9837   0.9923
  0.9998   1.0029   1.0040   1.0088   1.0182   1.0351   1.0377   1.0400
  1.0498   1.0606   1.0677   1.0715   1.0840   1.0917   1.1079   1.1162
  1.1260   1.1330   1.1441   1.1453   1.1545   1.1632   1.1763   1.1829
  1.1873   1.2022   1.2088   1.2298   1.2342   1.2370   1.2486   1.2571
  1.2608   1.2836   1.2897   1.3024   1.3265   1.3307   1.3458   1.3495
  1.3588   1.3851   1.4074   1.4334   1.4483   1.4694   1.4774   1.4940
  1.5019   1.5090   1.5169   1.5189   1.5232   1.5395   1.5541   1.5620
  1.5650   1.5756   1.5846   1.6002   1.6087   1.6126   1.6234   1.6331
  1.6530   1.6702   1.6845   1.6904   1.7000   1.7020   1.7236   1.7325
  1.7346   1.7404   1.7467   1.7624   1.7730   1.7813   1.7851   1.7864
  1.8204   1.8320   1.8452   1.8479   1.8878   1.9028   1.9049   1.9094
  1.9191   1.9232   1.9291   1.9361   1.9424   1.9582   1.9663   1.9702
  1.9721   1.9817   2.0063   2.0165   2.0291   2.0474   2.0568   2.0705
  2.0777   2.0948   2.1113   2.1286   2.1494   2.1672   2.1781   2.1830
  2.2008   2.2368   2.2699   2.2722   2.3256   2.3308   2.3417   2.3784
  2.3851   2.4021   2.4341   2.4419   2.4700   2.4855   2.4930   2.4938
  2.5246   2.5499   2.5599   2.6008   2.6125   2.6217   2.6281   2.6514
  2.6650   2.6976   2.7025   2.7179   2.7296   2.7468   2.7514   2.7552
  2.7617   2.7671   2.7753   2.7787   2.7813   2.7888   2.7914   2.8060
  2.8131   2.8209   2.8317   2.8396   2.8450   2.8535   2.8624   2.8776
  2.8801   2.8843   2.8889   2.8991   2.9049   2.9418   2.9489   2.9535
  2.9575   2.9777   2.9856   2.9897   3.0295   3.0589   3.0823   3.0920
  3.1004   3.1156   3.1169   3.1234   3.1648   3.1976   3.2129   3.2313
  3.2462   3.2677   3.3096   3.3282   3.3330   3.3385   3.3565   3.3597
  3.4254   3.4508   3.5138   3.5254   3.5365   3.5476   3.5555   3.5659
  3.5814   3.5847   3.5986   3.6790   3.7802   3.7830   3.7945   3.8081
  3.8463   3.8733   4.0345   4.0397   4.0559   4.0907   4.1825   4.2103
  4.2723   4.3069   4.4782   4.7984   4.8231   4.8443   4.9910   5.0079
  5.0528   5.0712   5.0759   5.0847   5.0958   5.1320   5.2030   5.2738
  5.2915   5.3000   5.4995   5.7547   5.8354   8.1833  17.3074  17.4363
 17.5260  23.5187  23.6740  23.8929  23.9116  23.9141  23.9321  23.9385
 23.9572  23.9612  23.9964  24.0370  24.0971  24.1086  24.1707  24.1824
 49.8737  49.8758  49.9370  50.0572  50.1118 189.2938
 
 Beta MOs
 -- Occupied --
-89.0836 -19.1686 -19.1319 -19.1314 -19.0825 -19.0770 -10.2380 -10.2308
-10.2261 -10.2203 -10.2025 -10.1973 -10.1896 -10.1888 -10.1883 -10.1861
-10.1858 -10.1854 -10.1847 -10.1825 -10.1814  -8.1446  -6.1083  -6.1066
 -6.1051  -1.1487  -1.0394  -1.0228  -1.0078  -0.9983  -0.8820  -0.8663
 -0.8074  -0.7786  -0.7626  -0.7603  -0.7309  -0.6801  -0.6652  -0.6402
 -0.6136  -0.6025  -0.5714  -0.5592  -0.5454  -0.5242  -0.5054  -0.4933
 -0.4790  -0.4755  -0.4700  -0.4539  -0.4528  -0.4474  -0.4355  -0.4285
 -0.4230  -0.4169  -0.4155  -0.4034  -0.3987  -0.3818  -0.3710  -0.3673
 -0.3616  -0.3491  -0.3476  -0.3450  -0.3441  -0.3307  -0.3267  -0.2973
 -0.2744  -0.2629  -0.2597  -0.2563  -0.2497  -0.2401
 -- Virtual --
 -0.0955  -0.0655  -0.0376  -0.0221  -0.0188  -0.0153  -0.0100  -0.0005
  0.0001   0.0072   0.0183   0.0228   0.0253   0.0293   0.0304   0.0354
  0.0437   0.0445   0.0459   0.0465   0.0569   0.0632   0.0662   0.0701
  0.0709   0.0727   0.0753   0.0788   0.0811   0.0831   0.0861   0.0900
  0.0942   0.0966   0.0974   0.1009   0.1031   0.1054   0.1112   0.1141
  0.1171   0.1187   0.1207   0.1240   0.1262   0.1296   0.1330   0.1394
  0.1404   0.1446   0.1463   0.1529   0.1606   0.1644   0.1685   0.1695
  0.1719   0.1729   0.1735   0.1791   0.1865   0.1877   0.1895   0.1943
  0.2032   0.2075   0.2121   0.2149   0.2161   0.2242   0.2270   0.2304
  0.2324   0.2334   0.2385   0.2426   0.2461   0.2503   0.2516   0.2564
  0.2581   0.2635   0.2703   0.2753   0.2800   0.2827   0.2860   0.2937
  0.2954   0.2982   0.3019   0.3069   0.3087   0.3101   0.3133   0.3153
  0.3200   0.3227   0.3263   0.3358   0.3385   0.3412   0.3452   0.3487
  0.3525   0.3574   0.3619   0.3642   0.3665   0.3822   0.3851   0.3868
  0.3925   0.4008   0.4055   0.4129   0.4212   0.4240   0.4319   0.4380
  0.4486   0.4582   0.4664   0.4762   0.4882   0.4908   0.4971   0.5042
  0.5169   0.5267   0.5367   0.5385   0.5488   0.5532   0.5547   0.5723
  0.5729   0.5754   0.5792   0.5842   0.5881   0.5982   0.6078   0.6141
  0.6284   0.6326   0.6340   0.6445   0.6451   0.6538   0.6578   0.6616
  0.6668   0.6725   0.6744   0.6803   0.6835   0.6929   0.7055   0.7114
  0.7241   0.7292   0.7339   0.7397   0.7445   0.7520   0.7658   0.7738
  0.7806   0.7849   0.7991   0.8102   0.8236   0.8395   0.8506   0.8554
  0.8622   0.8794   0.8939   0.8982   0.9038   0.9157   0.9211   0.9232
  0.9299   0.9349   0.9401   0.9435   0.9518   0.9567   0.9805   0.9858
  0.9936   1.0012   1.0039   1.0062   1.0098   1.0195   1.0356   1.0400
  1.0404   1.0514   1.0615   1.0691   1.0730   1.0870   1.0972   1.1089
  1.1214   1.1278   1.1363   1.1452   1.1457   1.1568   1.1698   1.1792
  1.1843   1.1886   1.2034   1.2099   1.2351   1.2378   1.2402   1.2558
  1.2594   1.2634   1.2849   1.2911   1.3037   1.3281   1.3330   1.3474
  1.3502   1.3606   1.3870   1.4080   1.4353   1.4484   1.4705   1.4813
  1.4946   1.5025   1.5097   1.5190   1.5207   1.5270   1.5402   1.5547
  1.5631   1.5657   1.5759   1.5853   1.6005   1.6105   1.6139   1.6243
  1.6343   1.6542   1.6708   1.6866   1.6931   1.7015   1.7026   1.7246
  1.7330   1.7365   1.7416   1.7481   1.7636   1.7746   1.7840   1.7860
  1.7873   1.8230   1.8336   1.8459   1.8502   1.8920   1.9037   1.9079
  1.9113   1.9204   1.9246   1.9297   1.9381   1.9440   1.9605   1.9676
  1.9712   1.9761   1.9830   2.0074   2.0177   2.0297   2.0487   2.0584
  2.0715   2.0796   2.0972   2.1128   2.1287   2.1506   2.1683   2.1789
  2.1837   2.2021   2.2397   2.2730   2.2746   2.3293   2.3343   2.3427
  2.3796   2.3888   2.4056   2.4346   2.4419   2.4705   2.4856   2.4930
  2.4938   2.5253   2.5500   2.5605   2.6016   2.6128   2.6276   2.6291
  2.6540   2.6666   2.6995   2.7048   2.7181   2.7299   2.7470   2.7517
  2.7610   2.7627   2.7676   2.7756   2.7791   2.7814   2.7897   2.7932
  2.8116   2.8140   2.8212   2.8335   2.8402   2.8470   2.8541   2.8697
  2.8800   2.8817   2.8872   2.8955   2.9025   2.9096   2.9501   2.9504
  2.9648   2.9688   2.9806   2.9885   2.9959   3.0341   3.0597   3.0837
  3.0944   3.1047   3.1161   3.1183   3.1243   3.1683   3.2009   3.2145
  3.2317   3.2475   3.2690   3.3104   3.3290   3.3392   3.3484   3.3608
  3.3712   3.4262   3.4520   3.5150   3.5269   3.5379   3.5488   3.5566
  3.5665   3.5837   3.5858   3.5988   3.6805   3.7811   3.7832   3.7960
  3.8082   3.8506   3.8762   4.0351   4.0399   4.0568   4.0924   4.1838
  4.2114   4.2749   4.3101   4.4811   4.8027   4.8247   4.8453   4.9912
  5.0081   5.0530   5.0753   5.0953   5.0959   5.1094   5.1323   5.2031
  5.2786   5.2926   5.3039   5.4996   5.7596   5.8403   8.1834  17.3075
 17.4363  17.5260  23.5194  23.6746  23.8937  23.9125  23.9143  23.9330
 23.9388  23.9586  23.9622  23.9976  24.0377  24.0972  24.1088  24.1712
 24.1826  49.8737  49.8758  49.9370  50.0630  50.1176 189.2938
 --------------------------------------------------------------
 
          Ground-State Mulliken Net Atomic Charges

     Atom                 Charge (a.u.)    Spin (a.u.)
  --------------------------------------------------------
      1 C                    -0.059331       0.012367
      2 C                     1.043404       0.036256
      3 C                     1.027040       0.016215
      4 C                    -0.285846       0.028982
      5 C                    -0.612960       0.012196
      6 C                     0.082312       0.036291
      7 C                    -1.644034       0.047620
      8 C                    -0.657497       0.084064
      9 C                    -0.780117       0.103728
     10 C                    -2.028393       0.066528
     11 C                     0.016977      -0.024690
     12 C                     0.142418       0.021726
     13 C                     0.722004       0.082632
     14 O                    -0.300191       0.197879
     15 O                    -0.299635       0.240503
     16 H                     0.159723      -0.001066
     17 H                     0.363373      -0.002725
     18 H                     0.365629      -0.001483
     19 H                     0.326221      -0.005340
     20 H                     0.164961      -0.002625
     21 H                     0.159795       0.001232
     22 H                     0.206373      -0.000933
     23 C                    -0.169443       0.040832
     24 S                     0.717874       0.006343
     25 O                    -0.187680       0.003087
     26 O                    -0.141223      -0.001363
     27 O                    -0.030862       0.000168
     28 C                     0.066934       0.001165
     29 H                     0.179714       0.000082
     30 H                     0.261864       0.000294
     31 H                     0.190596       0.000036
  --------------------------------------------------------
  Sum of atomic charges =    -1.000000
  Sum of spin   charges =     1.000000

 -----------------------------------------------------------------
                    Cartesian Multipole Moments
 -----------------------------------------------------------------
    Charge (ESU x 10^10)
                -4.8032
    Dipole Moment (Debye)
         X      -5.9576      Y      11.2486      Z      -6.6112
       Tot      14.3434
    Quadrupole Moments (Debye-Ang)
        XX    -156.5481     XY      22.9493     YY    -161.5298
        XZ      -1.8171     YZ      30.1194     ZZ    -173.0901
    Octopole Moments (Debye-Ang^2)
       XXX    -387.7910    XXY     467.5910    XYY    -263.1633
       YYY    1200.6710    XXZ    -237.1404    XYZ      28.0129
       YYZ    -250.5603    XZZ    -118.7206    YZZ     537.4737
       ZZZ    -622.1175
    Hexadecapole Moments (Debye-Ang^3)
      XXXX   -6864.2618   XXXY     110.4821   XXYY   -2856.1157
      XYYY     801.1889   YYYY   -8676.7783   XXXZ     723.0847
      XXYZ     960.0542   XYYZ      -6.3147   YYYZ    2512.9375
      XXZZ   -1995.0008   XYZZ      14.9600   YYZZ   -2636.8900
      XZZZ     945.2692   YZZZ    3025.3325   ZZZZ   -4333.5593
 -----------------------------------------------------------------
 Total job time:  1049.24s(wall), 8145.86s(cpu) 
 Sat Feb  3 13:09:12 2024

        *************************************************************
        *                                                           *
        *  Thank you very much for using Q-Chem.  Have a nice day.  *
        *                                                           *
        *************************************************************


