 Entering Gaussian System, Link 0=g16
 Input=115-an-PCM.com
 Output=115-an-PCM.log
 Initial command:
 /sysapps/ubuntu-applications/gaussian/Gaussian/AVX2/g16/l1.exe "/scratch/selhajj1/4332971/Gau-1800678.inp" -scrdir="/scratch/selhajj1/4332971/"
 Entering Link 1 = /sysapps/ubuntu-applications/gaussian/Gaussian/AVX2/g16/l1.exe PID=   1800680.
  
 Copyright (c) 1988,1990,1992,1993,1995,1998,2003,2009,2016,
            Gaussian, Inc.  All Rights Reserved.
  
 This is part of the Gaussian(R) 16 program.  It is based on
 the Gaussian(R) 09 system (copyright 2009, Gaussian, Inc.),
 the Gaussian(R) 03 system (copyright 2003, Gaussian, Inc.),
 the Gaussian(R) 98 system (copyright 1998, Gaussian, Inc.),
 the Gaussian(R) 94 system (copyright 1995, Gaussian, Inc.),
 the Gaussian 92(TM) system (copyright 1992, Gaussian, Inc.),
 the Gaussian 90(TM) system (copyright 1990, Gaussian, Inc.),
 the Gaussian 88(TM) system (copyright 1988, Gaussian, Inc.),
 the Gaussian 86(TM) system (copyright 1986, Carnegie Mellon
 University), and the Gaussian 82(TM) system (copyright 1983,
 Carnegie Mellon University). Gaussian is a federally registered
 trademark of Gaussian, Inc.
  
 This software contains proprietary and confidential information,
 including trade secrets, belonging to Gaussian, Inc.
  
 This software is provided under written license and may be
 used, copied, transmitted, or stored only in accord with that
 written license.
  
 The following legend is applicable only to US Government
 contracts under FAR:
  
                    RESTRICTED RIGHTS LEGEND
  
 Use, reproduction and disclosure by the US Government is
 subject to restrictions as set forth in subparagraphs (a)
 and (c) of the Commercial Computer Software - Restricted
 Rights clause in FAR 52.227-19.
  
 Gaussian, Inc.
 340 Quinnipiac St., Bldg. 40, Wallingford CT 06492
  
  
 ---------------------------------------------------------------
 Warning -- This program may not be used in any manner that
 competes with the business of Gaussian, Inc. or will provide
 assistance to any competitor of Gaussian, Inc.  The licensee
 of this program is prohibited from giving any competitor of
 Gaussian, Inc. access to this program.  By using this program,
 the user acknowledges that Gaussian, Inc. is engaged in the
 business of creating and licensing software in the field of
 computational chemistry and represents and warrants to the
 licensee that it is not a competitor of Gaussian, Inc. and that
 it will not use this program in any manner prohibited above.
 ---------------------------------------------------------------
  

 Cite this work as:
 Gaussian 16, Revision A.03,
 M. J. Frisch, G. W. Trucks, H. B. Schlegel, G. E. Scuseria, 
 M. A. Robb, J. R. Cheeseman, G. Scalmani, V. Barone, 
 G. A. Petersson, H. Nakatsuji, X. Li, M. Caricato, A. V. Marenich, 
 J. Bloino, B. G. Janesko, R. Gomperts, B. Mennucci, H. P. Hratchian, 
 J. V. Ortiz, A. F. Izmaylov, J. L. Sonnenberg, D. Williams-Young, 
 F. Ding, F. Lipparini, F. Egidi, J. Goings, B. Peng, A. Petrone, 
 T. Henderson, D. Ranasinghe, V. G. Zakrzewski, J. Gao, N. Rega, 
 G. Zheng, W. Liang, M. Hada, M. Ehara, K. Toyota, R. Fukuda, 
 J. Hasegawa, M. Ishida, T. Nakajima, Y. Honda, O. Kitao, H. Nakai, 
 T. Vreven, K. Throssell, J. A. Montgomery, Jr., J. E. Peralta, 
 F. Ogliaro, M. J. Bearpark, J. J. Heyd, E. N. Brothers, K. N. Kudin, 
 V. N. Staroverov, T. A. Keith, R. Kobayashi, J. Normand, 
 K. Raghavachari, A. P. Rendell, J. C. Burant, S. S. Iyengar, 
 J. Tomasi, M. Cossi, J. M. Millam, M. Klene, C. Adamo, R. Cammi, 
 J. W. Ochterski, R. L. Martin, K. Morokuma, O. Farkas, 
 J. B. Foresman, and D. J. Fox, Gaussian, Inc., Wallingford CT, 2016.
 
 ******************************************
 Gaussian 16:  ES64L-G16RevA.03 25-Dec-2016
                24-Jan-2024 
 ******************************************
 %chk=115-an-PCM.chk
 %nproc=8
 Will use up to    8 processors via shared memory.
 %mem=30GB
 ----------------------------------------------------------------
 #P UB3LYP/6-311++G(d,p) SCRF=(PCM,Solvent=n,n-DiMethylFormamide)
 ----------------------------------------------------------------
 1/38=1,172=1/1;
 2/12=2,17=6,18=5,40=1/2;
 3/5=4,6=6,7=1111,11=2,25=1,30=1,70=2201,72=148,74=-5,116=2/1,2,3;
 4//1;
 5/5=2,38=5,53=148/2;
 6/7=2,8=2,9=2,10=2,28=1/1;
 99/5=1,9=1/99;
 Leave Link    1 at Wed Jan 24 22:47:53 2024, MaxMem=  4026531840 cpu:               0.6 elap:               0.1
 (Enter /sysapps/ubuntu-applications/gaussian/Gaussian/AVX2/g16/l101.exe)
 -------
 Reduced
 -------
 Symbolic Z-matrix:
 Charge = -2 Multiplicity = 1
 C                    -2.17848  -3.91454   1.1111 
 C                    -0.765    -3.83877   1.38606 
 C                    -0.07128  -2.67457   1.66894 
 C                    -0.68699  -1.37818   1.71583 
 C                    -2.10874  -1.41557   1.458 
 C                    -2.77948  -2.62029   1.1656 
 O                    -2.78579  -5.02224   0.86663 
 O                    -0.03202  -0.2895    1.92545 
 Cl                   -4.56501  -2.56452   0.91294 
 C                    -2.80307  -0.10796   1.46011 
 O                    -3.2392    0.51187   0.50944 
 O                    -2.91428   0.40508   2.72931 
 C                    -3.3775    1.74981   2.81315 
 H                    -0.23934  -4.79362   1.36623 
 H                     1.00051  -2.70771   1.86355 
 H                    -3.381     2.00552   3.87599 
 H                    -4.3865    1.8535    2.4014 
 H                    -2.7082    2.42666   2.2722 
 
 ITRead=  0  0  0  0  0  0  0  0  0  0  0  0  0  0  0  0  0  0
 MicOpt= -1 -1 -1 -1 -1 -1 -1 -1 -1 -1 -1 -1 -1 -1 -1 -1 -1 -1
 NAtoms=     18 NQM=       18 NQMF=       0 NMMI=      0 NMMIF=      0
                NMic=       0 NMicF=      0.
                    Isotopes and Nuclear Properties:
 (Nuclear quadrupole moments (NQMom) in fm**2, nuclear magnetic moments (NMagM)
  in nuclear magnetons)

  Atom         1           2           3           4           5           6           7           8           9          10
 IAtWgt=          12          12          12          12          12          12          16          16          35          12
 AtmWgt=  12.0000000  12.0000000  12.0000000  12.0000000  12.0000000  12.0000000  15.9949146  15.9949146  34.9688527  12.0000000
 NucSpn=           0           0           0           0           0           0           0           0           3           0
 AtZEff=  -0.0000000  -0.0000000  -0.0000000  -0.0000000  -0.0000000  -0.0000000  -0.0000000  -0.0000000  -0.0000000  -0.0000000
 NQMom=    0.0000000   0.0000000   0.0000000   0.0000000   0.0000000   0.0000000   0.0000000   0.0000000  -8.1650000   0.0000000
 NMagM=    0.0000000   0.0000000   0.0000000   0.0000000   0.0000000   0.0000000   0.0000000   0.0000000   0.8218740   0.0000000
 AtZNuc=   6.0000000   6.0000000   6.0000000   6.0000000   6.0000000   6.0000000   8.0000000   8.0000000  17.0000000   6.0000000

  Atom        11          12          13          14          15          16          17          18
 IAtWgt=          16          16          12           1           1           1           1           1
 AtmWgt=  15.9949146  15.9949146  12.0000000   1.0078250   1.0078250   1.0078250   1.0078250   1.0078250
 NucSpn=           0           0           0           1           1           1           1           1
 AtZEff=  -0.0000000  -0.0000000  -0.0000000  -0.0000000  -0.0000000  -0.0000000  -0.0000000  -0.0000000
 NQMom=    0.0000000   0.0000000   0.0000000   0.0000000   0.0000000   0.0000000   0.0000000   0.0000000
 NMagM=    0.0000000   0.0000000   0.0000000   2.7928460   2.7928460   2.7928460   2.7928460   2.7928460
 AtZNuc=   8.0000000   8.0000000   6.0000000   1.0000000   1.0000000   1.0000000   1.0000000   1.0000000
 Leave Link  101 at Wed Jan 24 22:47:54 2024, MaxMem=  4026531840 cpu:               1.1 elap:               0.2
 (Enter /sysapps/ubuntu-applications/gaussian/Gaussian/AVX2/g16/l202.exe)
                          Input orientation:                          
 ---------------------------------------------------------------------
 Center     Atomic      Atomic             Coordinates (Angstroms)
 Number     Number       Type             X           Y           Z
 ---------------------------------------------------------------------
      1          6           0       -2.178480   -3.914544    1.111096
      2          6           0       -0.764999   -3.838770    1.386058
      3          6           0       -0.071275   -2.674571    1.668939
      4          6           0       -0.686986   -1.378181    1.715826
      5          6           0       -2.108736   -1.415568    1.458003
      6          6           0       -2.779483   -2.620291    1.165595
      7          8           0       -2.785793   -5.022236    0.866629
      8          8           0       -0.032023   -0.289497    1.925448
      9         17           0       -4.565013   -2.564524    0.912940
     10          6           0       -2.803069   -0.107959    1.460107
     11          8           0       -3.239204    0.511867    0.509441
     12          8           0       -2.914281    0.405078    2.729305
     13          6           0       -3.377495    1.749814    2.813147
     14          1           0       -0.239344   -4.793622    1.366227
     15          1           0        1.000510   -2.707713    1.863550
     16          1           0       -3.381001    2.005521    3.875989
     17          1           0       -4.386498    1.853495    2.401402
     18          1           0       -2.708200    2.426662    2.272198
 ---------------------------------------------------------------------
                    Distance matrix (angstroms):
                    1          2          3          4          5
     1  C    0.000000
     2  C    1.441969   0.000000
     3  C    2.507795   1.384425   0.000000
     4  C    3.003896   2.483814   1.435941   0.000000
     5  C    2.523904   2.771771   2.404336   1.445422   0.000000
     6  C    1.428029   2.364623   2.755121   2.494822   1.409525
     7  O    1.286691   2.398751   3.677477   4.290136   3.717013
     8  O    4.290852   3.664087   2.399149   1.287692   2.408169
     9  Cl   2.749065   4.035796   4.558215   4.134142   2.765952
    10  C    3.873243   4.251842   3.754172   2.481262   1.480522
    11  O    4.591322   5.081160   4.640431   3.397273   2.427495
    12  O    4.671096   4.943073   4.323343   3.027870   2.362173
    13  C    6.034863   6.331981   5.640522   4.269345   3.669579
    14  H    2.144322   1.090160   2.147151   3.462346   3.861903
    15  H    3.482615   2.150421   1.089814   2.153397   3.391389
    16  H    6.643633   6.870150   6.142362   4.834611   4.378260
    17  H    6.309557   6.822614   6.297701   4.959852   4.094505
    18  H    6.468358   6.619434   5.774069   4.344155   3.973034
                    6          7          8          9         10
     6  C    0.000000
     7  O    2.420488   0.000000
     8  O    3.682189   5.577021   0.000000
     9  Cl   1.804179   3.034488   5.171936   0.000000
    10  C    2.529645   4.950013   2.815705   3.072222   0.000000
    11  O    3.233001   5.564123   3.596286   3.374131   1.215798
    12  O    3.408257   5.739495   3.071812   3.852614   1.373477
    13  C    4.708488   7.071047   4.017335   4.861532   2.368967
    14  H    3.349019   2.605046   4.543441   4.887306   5.341997
    15  H    3.844884   4.548292   2.630157   5.647938   4.624792
    16  H    5.395016   7.668109   4.504150   5.573765   3.261486
    17  H    4.911667   7.224504   4.876515   4.665434   2.690834
    18  H    5.167338   7.580747   3.828796   5.496114   2.663230
                   11         12         13         14         15
    11  O    0.000000
    12  O    2.246058   0.000000
    13  C    2.618912   1.424750   0.000000
    14  H    6.154791   6.003312   7.399873   0.000000
    15  H    5.493130   5.075883   6.319668   2.477011   0.000000
    16  H    3.685750   2.023396   1.093175   7.899194   6.742561
    17  H    2.587618   2.091137   1.094701   7.902825   7.079107
    18  H    2.656260   2.082839   1.094854   7.684304   6.346915
                   16         17         18
    16  H    0.000000
    17  H    1.791241   0.000000
    18  H    1.789460   1.778173   0.000000
 Stoichiometry    C8H5ClO4(2-)
 Framework group  C1[X(C8H5ClO4)]
 Deg. of freedom    48
 Full point group                 C1      NOp   1
 Largest Abelian subgroup         C1      NOp   1
 Largest concise Abelian subgroup C1      NOp   1
                         Standard orientation:                         
 ---------------------------------------------------------------------
 Center     Atomic      Atomic             Coordinates (Angstroms)
 Number     Number       Type             X           Y           Z
 ---------------------------------------------------------------------
      1          6           0       -2.336694   -0.045728   -0.116959
      2          6           0       -2.395712    1.394847   -0.140123
      3          6           0       -1.301921    2.237224   -0.036897
      4          6           0        0.046540    1.767933    0.115897
      5          6           0        0.147421    0.326105    0.130029
      6          6           0       -0.990696   -0.499436    0.030362
      7          8           0       -3.379342   -0.791086   -0.230542
      8          8           0        1.057145    2.551671    0.266170
      9         17           0       -0.749699   -2.287240    0.003165
     10          6           0        1.507995   -0.227258    0.315959
     11          8           0        1.969669   -0.769281    1.301470
     12          8           0        2.283567   -0.053379   -0.804172
     13          6           0        3.666099   -0.362055   -0.651731
     14          1           0       -3.395538    1.813791   -0.255368
     15          1           0       -1.437341    3.318306   -0.061762
     16          1           0        4.135035   -0.145460   -1.615171
     17          1           0        3.816364   -1.414888   -0.392247
     18          1           0        4.119873    0.258134    0.128115
 ---------------------------------------------------------------------
 Rotational constants (GHZ):           1.0132801           0.6062154           0.4096001
 Leave Link  202 at Wed Jan 24 22:47:54 2024, MaxMem=  4026531840 cpu:               0.5 elap:               0.1
 (Enter /sysapps/ubuntu-applications/gaussian/Gaussian/AVX2/g16/l301.exe)
 Standard basis: 6-311++G(d,p) (5D, 7F)
 Ernie: Thresh=  0.10000D-02 Tol=  0.10000D-05 Strict=F.
 There are   342 symmetry adapted cartesian basis functions of A   symmetry.
 There are   329 symmetry adapted basis functions of A   symmetry.
   329 basis functions,   530 primitive gaussians,   342 cartesian basis functions
    52 alpha electrons       52 beta electrons
       nuclear repulsion energy       860.1976061344 Hartrees.
 IExCor=  402 DFT=T Ex+Corr=B3LYP ExCW=0 ScaHFX=  0.200000
 ScaDFX=  0.800000  0.720000  1.000000  0.810000 ScalE2=  1.000000  1.000000
 IRadAn=      5 IRanWt=     -1 IRanGd=            0 ICorTp=0 IEmpDi=  4
 NAtoms=   18 NActive=   18 NUniq=   18 SFac= 1.00D+00 NAtFMM=   60 NAOKFM=F Big=F
 Integral buffers will be    131072 words long.
 Raffenetti 2 integral format.
 Two-electron integral symmetry is turned on.
 ------------------------------------------------------------------------------
 Polarizable Continuum Model (PCM)
 =================================
 Model                : PCM.
 Atomic radii         : UFF (Universal Force Field).
 Polarization charges : Total charges.
 Charge compensation  : None.
 Solution method      : On-the-fly selection.
 Cavity type          : Scaled VdW (van der Waals Surface) (Alpha=1.100).
 Cavity algorithm     : GePol (No added spheres)
                        Default sphere list used, NSphG=   18.
                        Lebedev-Laikov grids with approx.  5.0 points / Ang**2.
                        Smoothing algorithm: York/Karplus (Gamma=1.0000).
                        Polarization charges: spherical gaussians, with
                                              point-specific exponents (IZeta= 3).
                        Self-potential: point-specific (ISelfS= 7).
                        Self-field    : sphere-specific E.n sum rule (ISelfD= 2).
 Solvent              : n,n-DiMethylFormamide, Eps=  37.219000 Eps(inf)=   2.046330
 ------------------------------------------------------------------------------
 Spheres list:
 ISph  on   Nord     Re0    Alpha      Xe            Ye            Ze
    1   C      1    1.9255  1.100     -2.336694     -0.045728     -0.116959
    2   C      2    1.9255  1.100     -2.395712      1.394847     -0.140123
    3   C      3    1.9255  1.100     -1.301921      2.237224     -0.036897
    4   C      4    1.9255  1.100      0.046540      1.767933      0.115897
    5   C      5    1.9255  1.100      0.147421      0.326105      0.130029
    6   C      6    1.9255  1.100     -0.990696     -0.499436      0.030362
    7   O      7    1.7500  1.100     -3.379342     -0.791086     -0.230542
    8   O      8    1.7500  1.100      1.057145      2.551671      0.266170
    9  Cl      9    1.9735  1.100     -0.749699     -2.287240      0.003165
   10   C     10    1.9255  1.100      1.507995     -0.227258      0.315959
   11   O     11    1.7500  1.100      1.969669     -0.769281      1.301470
   12   O     12    1.7500  1.100      2.283567     -0.053379     -0.804172
   13   C     13    1.9255  1.100      3.666099     -0.362055     -0.651731
   14   H     14    1.4430  1.100     -3.395538      1.813791     -0.255368
   15   H     15    1.4430  1.100     -1.437341      3.318306     -0.061762
   16   H     16    1.4430  1.100      4.135035     -0.145460     -1.615171
   17   H     17    1.4430  1.100      3.816364     -1.414888     -0.392247
   18   H     18    1.4430  1.100      4.119873      0.258134      0.128115
 ------------------------------------------------------------------------------
 GePol: Number of generator spheres                  =      18
 GePol: Total number of spheres                      =      18
 GePol: Number of exposed spheres                    =      18 (100.00%)
 GePol: Number of points                             =    1758
 GePol: Average weight of points                     =       0.14
 GePol: Minimum weight of points                     =   0.18D-11
 GePol: Maximum weight of points                     =    0.21616
 GePol: Number of points with low weight             =      94
 GePol: Fraction of low-weight points (<1% of avg)   =       5.35%
 GePol: Cavity surface area                          =    238.558 Ang**2
 GePol: Cavity volume                                =    242.254 Ang**3
 Leave Link  301 at Wed Jan 24 22:47:54 2024, MaxMem=  4026531840 cpu:               0.9 elap:               0.2
 (Enter /sysapps/ubuntu-applications/gaussian/Gaussian/AVX2/g16/l302.exe)
 NPDir=0 NMtPBC=     1 NCelOv=     1 NCel=       1 NClECP=     1 NCelD=      1
         NCelK=      1 NCelE2=     1 NClLst=     1 CellRange=     0.0.
 One-electron integrals computed using PRISM.
 One-electron integral symmetry used in STVInt
 NBasis=   329 RedAO= T EigKep=  1.32D-06  NBF=   329
 NBsUse=   329 1.00D-06 EigRej= -1.00D+00 NBFU=   329
 Precomputing XC quadrature grid using
 IXCGrd= 4 IRadAn=           5 IRanWt=          -1 IRanGd=           0 AccXCQ= 0.00D+00.
 Generated NRdTot=       0 NPtTot=           0 NUsed=           0 NTot=          32
 NSgBfM=   342   342   342   342   342 MxSgAt=    18 MxSgA2=    18.
 Leave Link  302 at Wed Jan 24 22:47:54 2024, MaxMem=  4026531840 cpu:               2.8 elap:               0.4
 (Enter /sysapps/ubuntu-applications/gaussian/Gaussian/AVX2/g16/l303.exe)
 DipDrv:  MaxL=1.
 Leave Link  303 at Wed Jan 24 22:47:55 2024, MaxMem=  4026531840 cpu:               1.5 elap:               0.4
 (Enter /sysapps/ubuntu-applications/gaussian/Gaussian/AVX2/g16/l401.exe)
 ExpMin= 3.60D-02 ExpMax= 1.06D+05 ExpMxC= 3.62D+03 IAcc=3 IRadAn=         5 AccDes= 0.00D+00
 Harris functional with IExCor=  402 and IRadAn=       5 diagonalized for initial guess.
 HarFok:  IExCor=  402 AccDes= 0.00D+00 IRadAn=         5 IDoV= 1 UseB2=F ITyADJ=14
 ICtDFT=  3500011 ScaDFX=  1.000000  1.000000  1.000000  1.000000
 FoFCou: FMM=F IPFlag=           0 FMFlag=      100000 FMFlg1=           0
         NFxFlg=           0 DoJE=T BraDBF=F KetDBF=T FulRan=T
         wScrn=  0.000000 ICntrl=       500 IOpCl=  0 I1Cent=   200000004 NGrid=           0
         NMat0=    1 NMatS0=      1 NMatT0=    0 NMatD0=    1 NMtDS0=    0 NMtDT0=    0
 Petite list used in FoFCou.
 Harris En= -1069.54223507431    
 JPrj=0 DoOrth=F DoCkMO=F.
 Initial guess <Sx>= 0.0000 <Sy>= 0.0000 <Sz>= 0.0000 <S**2>= 0.0000 S= 0.0000
 Leave Link  401 at Wed Jan 24 22:47:56 2024, MaxMem=  4026531840 cpu:              11.7 elap:               1.5
 (Enter /sysapps/ubuntu-applications/gaussian/Gaussian/AVX2/g16/l502.exe)
 Integral symmetry usage will be decided dynamically.
 UHF open shell SCF:
 Using DIIS extrapolation, IDIIS=  1040.
 NGot=  4026531840 LenX=  4026291955 LenY=  4026174550
 Requested convergence on RMS density matrix=1.00D-08 within 128 cycles.
 Requested convergence on MAX density matrix=1.00D-06.
 Requested convergence on             energy=1.00D-06.
 No special actions if energy rises.
 Fock matrices will be formed incrementally for  20 cycles.

 Cycle   1  Pass 1  IDiag  1:
 FoFJK:  IHMeth= 1 ICntrl=       0 DoSepK=F KAlg= 0 I1Cent=           0 FoldK=F
 IRaf= 890000000 NMat=       1 IRICut=       1 DoRegI=T DoRafI=F ISym2E= 0 IDoP0=0 IntGTp=1.
 FoFCou: FMM=F IPFlag=           0 FMFlag=      100000 FMFlg1=           0
         NFxFlg=           0 DoJE=F BraDBF=F KetDBF=F FulRan=T
         wScrn=  0.000000 ICntrl=         0 IOpCl=  1 I1Cent=           0 NGrid=           0
         NMat0=    1 NMatS0=      1 NMatT0=    0 NMatD0=    1 NMtDS0=    0 NMtDT0=    0
 Symmetry not used in FoFCou.
 Inv3:  Mode=1 IEnd=     9271692.
 Iteration    1 A*A^-1 deviation from unit magnitude is 2.89D-15 for    957.
 Iteration    1 A*A^-1 deviation from orthogonality  is 1.83D-15 for   1400    220.
 Iteration    1 A^-1*A deviation from unit magnitude is 2.89D-15 for    977.
 Iteration    1 A^-1*A deviation from orthogonality  is 2.20D-15 for   1157    231.
 E= -1068.90946115911    
 DIIS: error= 3.71D-02 at cycle   1 NSaved=   1.
 NSaved= 1 IEnMin= 1 EnMin= -1068.90946115911     IErMin= 1 ErrMin= 3.71D-02
 ErrMax= 3.71D-02  0.00D+00 EMaxC= 1.00D-01 BMatC= 2.50D+00 BMatP= 2.50D+00
 IDIUse=3 WtCom= 6.29D-01 WtEn= 3.71D-01
 Coeff-Com:  0.100D+01
 Coeff-En:   0.100D+01
 Coeff:      0.100D+01
 Gap=     0.130 Goal=   None    Shift=    0.000
 Gap=     0.130 Goal=   None    Shift=    0.000
 GapD=    0.130 DampG=1.000 DampE=0.500 DampFc=0.5000 IDamp=-1.
 Damping current iteration by 5.00D-01
 RMSDP=1.21D+00 MaxDP=1.35D+02              OVMax= 8.87D-01

 Cycle   2  Pass 1  IDiag  1:
 RMSU=  5.37D-01    CP:  3.00D+00
 E= -1068.75420628218     Delta-E=        0.155254876934 Rises=F Damp=T
 DIIS: error= 2.92D-02 at cycle   2 NSaved=   2.
 NSaved= 2 IEnMin= 1 EnMin= -1068.90946115911     IErMin= 2 ErrMin= 2.92D-02
 ErrMax= 2.92D-02  0.00D+00 EMaxC= 1.00D-01 BMatC= 7.99D-01 BMatP= 2.50D+00
 IDIUse=3 WtCom= 7.08D-01 WtEn= 2.92D-01
 Coeff-Com:  0.328D+00 0.672D+00
 Coeff-En:   0.598D+00 0.402D+00
 Coeff:      0.407D+00 0.593D+00
 Gap=    -0.023 Goal=   None    Shift=    0.000
 Gap=    -0.023 Goal=   None    Shift=    0.000
 RMSDP=6.03D-01 MaxDP=6.65D+01 DE= 1.55D-01 OVMax= 8.42D-01

 Cycle   3  Pass 1  IDiag  1:
 RMSU=  1.55D-02    CP:  9.24D-01  7.76D-03
 E= -1069.33109995766     Delta-E=       -0.576893675485 Rises=F Damp=F
 DIIS: error= 2.47D-02 at cycle   3 NSaved=   3.
 NSaved= 3 IEnMin= 3 EnMin= -1069.33109995766     IErMin= 3 ErrMin= 2.47D-02
 ErrMax= 2.47D-02  0.00D+00 EMaxC= 1.00D-01 BMatC= 3.57D-01 BMatP= 7.99D-01
 IDIUse=3 WtCom= 7.53D-01 WtEn= 2.47D-01
 Coeff-Com:  0.138D+00 0.396D+00 0.466D+00
 Coeff-En:   0.000D+00 0.000D+00 0.100D+01
 Coeff:      0.104D+00 0.298D+00 0.598D+00
 Gap=     0.127 Goal=   None    Shift=    0.000
 Gap=     0.127 Goal=   None    Shift=    0.000
 RMSDP=8.40D-03 MaxDP=6.12D-01 DE=-5.77D-01 OVMax= 1.05D-01

 Cycle   4  Pass 1  IDiag  1:
 RMSU=  7.95D-03    CP:  9.48D-01  1.08D-02  1.08D+00
 E= -1069.38030318630     Delta-E=       -0.049203228638 Rises=F Damp=F
 DIIS: error= 1.43D-02 at cycle   4 NSaved=   4.
 NSaved= 4 IEnMin= 4 EnMin= -1069.38030318630     IErMin= 4 ErrMin= 1.43D-02
 ErrMax= 1.43D-02  0.00D+00 EMaxC= 1.00D-01 BMatC= 1.38D-01 BMatP= 3.57D-01
 IDIUse=3 WtCom= 8.57D-01 WtEn= 1.43D-01
 Coeff-Com: -0.228D-02 0.872D-01 0.382D+00 0.533D+00
 Coeff-En:   0.000D+00 0.000D+00 0.295D+00 0.705D+00
 Coeff:     -0.195D-02 0.747D-01 0.370D+00 0.558D+00
 Gap=     0.120 Goal=   None    Shift=    0.000
 Gap=     0.120 Goal=   None    Shift=    0.000
 RMSDP=6.80D-03 MaxDP=8.70D-01 DE=-4.92D-02 OVMax= 4.31D-02

 Cycle   5  Pass 1  IDiag  1:
 RMSU=  4.25D-03    CP:  8.79D-01  1.00D-02  1.04D+00  7.98D-01
 E= -1069.40691881621     Delta-E=       -0.026615629911 Rises=F Damp=F
 DIIS: error= 2.13D-03 at cycle   5 NSaved=   5.
 NSaved= 5 IEnMin= 5 EnMin= -1069.40691881621     IErMin= 5 ErrMin= 2.13D-03
 ErrMax= 2.13D-03  0.00D+00 EMaxC= 1.00D-01 BMatC= 7.94D-03 BMatP= 1.38D-01
 IDIUse=3 WtCom= 9.79D-01 WtEn= 2.13D-02
 Coeff-Com: -0.865D-02 0.223D-01 0.174D+00 0.322D+00 0.490D+00
 Coeff-En:   0.000D+00 0.000D+00 0.000D+00 0.000D+00 0.100D+01
 Coeff:     -0.847D-02 0.219D-01 0.170D+00 0.315D+00 0.501D+00
 Gap=     0.120 Goal=   None    Shift=    0.000
 Gap=     0.120 Goal=   None    Shift=    0.000
 RMSDP=1.19D-03 MaxDP=7.16D-02 DE=-2.66D-02 OVMax= 1.05D-02

 Cycle   6  Pass 1  IDiag  1:
 RMSU=  9.45D-04    CP:  8.73D-01  9.76D-03  1.05D+00  8.28D-01  8.93D-01
 E= -1069.40835694325     Delta-E=       -0.001438127039 Rises=F Damp=F
 DIIS: error= 1.01D-03 at cycle   6 NSaved=   6.
 NSaved= 6 IEnMin= 6 EnMin= -1069.40835694325     IErMin= 6 ErrMin= 1.01D-03
 ErrMax= 1.01D-03  0.00D+00 EMaxC= 1.00D-01 BMatC= 9.61D-04 BMatP= 7.94D-03
 IDIUse=3 WtCom= 9.90D-01 WtEn= 1.01D-02
 Coeff-Com: -0.262D-02 0.311D-02 0.390D-01 0.924D-01 0.296D+00 0.572D+00
 Coeff-En:   0.000D+00 0.000D+00 0.000D+00 0.000D+00 0.769D-01 0.923D+00
 Coeff:     -0.260D-02 0.308D-02 0.386D-01 0.915D-01 0.294D+00 0.576D+00
 Gap=     0.120 Goal=   None    Shift=    0.000
 Gap=     0.120 Goal=   None    Shift=    0.000
 RMSDP=5.68D-04 MaxDP=5.16D-02 DE=-1.44D-03 OVMax= 5.19D-03

 Cycle   7  Pass 1  IDiag  1:
 RMSU=  4.29D-04    CP:  8.72D-01  9.44D-03  1.03D+00  8.40D-01  9.18D-01
                    CP:  7.99D-01
 E= -1069.40851560416     Delta-E=       -0.000158660909 Rises=F Damp=F
 DIIS: error= 3.62D-04 at cycle   7 NSaved=   7.
 NSaved= 7 IEnMin= 7 EnMin= -1069.40851560416     IErMin= 7 ErrMin= 3.62D-04
 ErrMax= 3.62D-04  0.00D+00 EMaxC= 1.00D-01 BMatC= 1.96D-04 BMatP= 9.61D-04
 IDIUse=3 WtCom= 9.96D-01 WtEn= 3.62D-03
 Coeff-Com: -0.115D-04-0.241D-02 0.253D-02 0.155D-01 0.120D+00 0.363D+00
 Coeff-Com:  0.501D+00
 Coeff-En:   0.000D+00 0.000D+00 0.000D+00 0.000D+00 0.000D+00 0.141D+00
 Coeff-En:   0.859D+00
 Coeff:     -0.115D-04-0.240D-02 0.252D-02 0.155D-01 0.119D+00 0.363D+00
 Coeff:      0.503D+00
 Gap=     0.120 Goal=   None    Shift=    0.000
 Gap=     0.120 Goal=   None    Shift=    0.000
 RMSDP=1.54D-04 MaxDP=2.23D-02 DE=-1.59D-04 OVMax= 1.42D-03

 Cycle   8  Pass 1  IDiag  1:
 RMSU=  1.06D-04    CP:  8.72D-01  9.46D-03  1.03D+00  8.39D-01  9.39D-01
                    CP:  8.25D-01  9.75D-01
 E= -1069.40855159254     Delta-E=       -0.000035988376 Rises=F Damp=F
 DIIS: error= 7.85D-05 at cycle   8 NSaved=   8.
 NSaved= 8 IEnMin= 8 EnMin= -1069.40855159254     IErMin= 8 ErrMin= 7.85D-05
 ErrMax= 7.85D-05  0.00D+00 EMaxC= 1.00D-01 BMatC= 1.01D-05 BMatP= 1.96D-04
 IDIUse=1 WtCom= 1.00D+00 WtEn= 0.00D+00
 Coeff-Com:  0.700D-03-0.143D-02 0.305D-03 0.858D-03 0.301D-01 0.114D+00
 Coeff-Com:  0.207D+00 0.648D+00
 Coeff:      0.700D-03-0.143D-02 0.305D-03 0.858D-03 0.301D-01 0.114D+00
 Coeff:      0.207D+00 0.648D+00
 Gap=     0.120 Goal=   None    Shift=    0.000
 Gap=     0.120 Goal=   None    Shift=    0.000
 RMSDP=7.17D-05 MaxDP=5.85D-03 DE=-3.60D-05 OVMax= 4.41D-04

 Cycle   9  Pass 1  IDiag  1:
 RMSU=  3.34D-05    CP:  8.71D-01  9.40D-03  1.03D+00  8.35D-01  9.38D-01
                    CP:  8.37D-01  1.04D+00  9.54D-01
 E= -1069.40855361796     Delta-E=       -0.000002025420 Rises=F Damp=F
 DIIS: error= 3.05D-05 at cycle   9 NSaved=   9.
 NSaved= 9 IEnMin= 9 EnMin= -1069.40855361796     IErMin= 9 ErrMin= 3.05D-05
 ErrMax= 3.05D-05  0.00D+00 EMaxC= 1.00D-01 BMatC= 1.93D-06 BMatP= 1.01D-05
 IDIUse=1 WtCom= 1.00D+00 WtEn= 0.00D+00
 Coeff-Com:  0.503D-03-0.634D-03 0.701D-03-0.509D-03 0.396D-02 0.230D-01
 Coeff-Com:  0.538D-01 0.348D+00 0.571D+00
 Coeff:      0.503D-03-0.634D-03 0.701D-03-0.509D-03 0.396D-02 0.230D-01
 Coeff:      0.538D-01 0.348D+00 0.571D+00
 Gap=     0.120 Goal=   None    Shift=    0.000
 Gap=     0.120 Goal=   None    Shift=    0.000
 RMSDP=2.36D-05 MaxDP=2.48D-03 DE=-2.03D-06 OVMax= 3.50D-04

 Cycle  10  Pass 1  IDiag  1:
 RMSU=  1.13D-05    CP:  8.71D-01  9.39D-03  1.03D+00  8.35D-01  9.38D-01
                    CP:  8.35D-01  1.08D+00  1.03D+00  1.14D+00
 E= -1069.40855398242     Delta-E=       -0.000000364466 Rises=F Damp=F
 DIIS: error= 1.50D-05 at cycle  10 NSaved=  10.
 NSaved=10 IEnMin=10 EnMin= -1069.40855398242     IErMin=10 ErrMin= 1.50D-05
 ErrMax= 1.50D-05  0.00D+00 EMaxC= 1.00D-01 BMatC= 3.15D-07 BMatP= 1.93D-06
 IDIUse=1 WtCom= 1.00D+00 WtEn= 0.00D+00
 Coeff-Com:  0.186D-03-0.253D-03 0.509D-03-0.171D-03-0.198D-02-0.390D-02
 Coeff-Com: -0.405D-02 0.643D-01 0.301D+00 0.644D+00
 Coeff:      0.186D-03-0.253D-03 0.509D-03-0.171D-03-0.198D-02-0.390D-02
 Coeff:     -0.405D-02 0.643D-01 0.301D+00 0.644D+00
 Gap=     0.120 Goal=   None    Shift=    0.000
 Gap=     0.120 Goal=   None    Shift=    0.000
 RMSDP=1.25D-05 MaxDP=1.11D-03 DE=-3.64D-07 OVMax= 1.02D-04

 Cycle  11  Pass 1  IDiag  1:
 RMSU=  5.66D-06    CP:  8.71D-01  9.38D-03  1.03D+00  8.34D-01  9.38D-01
                    CP:  8.40D-01  1.09D+00  1.03D+00  1.24D+00  9.12D-01
 E= -1069.40855404706     Delta-E=       -0.000000064641 Rises=F Damp=F
 DIIS: error= 6.55D-06 at cycle  11 NSaved=  11.
 NSaved=11 IEnMin=11 EnMin= -1069.40855404706     IErMin=11 ErrMin= 6.55D-06
 ErrMax= 6.55D-06  0.00D+00 EMaxC= 1.00D-01 BMatC= 4.68D-08 BMatP= 3.15D-07
 IDIUse=1 WtCom= 1.00D+00 WtEn= 0.00D+00
 Coeff-Com:  0.370D-04-0.500D-04 0.291D-03 0.110D-03-0.149D-02-0.529D-02
 Coeff-Com: -0.103D-01-0.259D-01 0.838D-01 0.386D+00 0.572D+00
 Coeff:      0.370D-04-0.500D-04 0.291D-03 0.110D-03-0.149D-02-0.529D-02
 Coeff:     -0.103D-01-0.259D-01 0.838D-01 0.386D+00 0.572D+00
 Gap=     0.120 Goal=   None    Shift=    0.000
 Gap=     0.120 Goal=   None    Shift=    0.000
 RMSDP=5.63D-06 MaxDP=4.56D-04 DE=-6.46D-08 OVMax= 9.41D-05

 Cycle  12  Pass 1  IDiag  1:
 RMSU=  2.51D-06    CP:  8.71D-01  9.38D-03  1.03D+00  8.34D-01  9.38D-01
                    CP:  8.39D-01  1.09D+00  1.04D+00  1.25D+00  1.07D+00
                    CP:  7.51D-01
 E= -1069.40855405975     Delta-E=       -0.000000012688 Rises=F Damp=F
 DIIS: error= 1.47D-06 at cycle  12 NSaved=  12.
 NSaved=12 IEnMin=12 EnMin= -1069.40855405975     IErMin=12 ErrMin= 1.47D-06
 ErrMax= 1.47D-06  0.00D+00 EMaxC= 1.00D-01 BMatC= 4.10D-09 BMatP= 4.68D-08
 IDIUse=1 WtCom= 1.00D+00 WtEn= 0.00D+00
 Coeff-Com:  0.102D-05 0.469D-06 0.101D-03 0.586D-04-0.689D-03-0.265D-02
 Coeff-Com: -0.518D-02-0.211D-01 0.107D-01 0.114D+00 0.297D+00 0.607D+00
 Coeff:      0.102D-05 0.469D-06 0.101D-03 0.586D-04-0.689D-03-0.265D-02
 Coeff:     -0.518D-02-0.211D-01 0.107D-01 0.114D+00 0.297D+00 0.607D+00
 Gap=     0.120 Goal=   None    Shift=    0.000
 Gap=     0.120 Goal=   None    Shift=    0.000
 RMSDP=1.39D-06 MaxDP=9.98D-05 DE=-1.27D-08 OVMax= 1.25D-05

 Cycle  13  Pass 1  IDiag  1:
 RMSU=  5.51D-07    CP:  8.71D-01  9.38D-03  1.03D+00  8.34D-01  9.38D-01
                    CP:  8.39D-01  1.09D+00  1.04D+00  1.27D+00  1.07D+00
                    CP:  8.62D-01  7.94D-01
 E= -1069.40855406070     Delta-E=       -0.000000000949 Rises=F Damp=F
 DIIS: error= 6.36D-07 at cycle  13 NSaved=  13.
 NSaved=13 IEnMin=13 EnMin= -1069.40855406070     IErMin=13 ErrMin= 6.36D-07
 ErrMax= 6.36D-07  0.00D+00 EMaxC= 1.00D-01 BMatC= 5.39D-10 BMatP= 4.10D-09
 IDIUse=1 WtCom= 1.00D+00 WtEn= 0.00D+00
 Coeff-Com: -0.190D-05 0.208D-05 0.237D-04 0.246D-04-0.128D-03-0.534D-03
 Coeff-Com: -0.109D-02-0.705D-02-0.308D-02 0.111D-01 0.102D+00 0.345D+00
 Coeff-Com:  0.553D+00
 Coeff:     -0.190D-05 0.208D-05 0.237D-04 0.246D-04-0.128D-03-0.534D-03
 Coeff:     -0.109D-02-0.705D-02-0.308D-02 0.111D-01 0.102D+00 0.345D+00
 Coeff:      0.553D+00
 Gap=     0.120 Goal=   None    Shift=    0.000
 Gap=     0.120 Goal=   None    Shift=    0.000
 RMSDP=4.54D-07 MaxDP=3.57D-05 DE=-9.49D-10 OVMax= 7.46D-06

 Cycle  14  Pass 1  IDiag  1:
 RMSU=  1.77D-07    CP:  8.71D-01  9.38D-03  1.03D+00  8.34D-01  9.38D-01
                    CP:  8.39D-01  1.09D+00  1.04D+00  1.27D+00  1.07D+00
                    CP:  8.80D-01  8.33D-01  7.94D-01
 E= -1069.40855406083     Delta-E=       -0.000000000126 Rises=F Damp=F
 DIIS: error= 2.70D-07 at cycle  14 NSaved=  14.
 NSaved=14 IEnMin=14 EnMin= -1069.40855406083     IErMin=14 ErrMin= 2.70D-07
 ErrMax= 2.70D-07  0.00D+00 EMaxC= 1.00D-01 BMatC= 5.84D-11 BMatP= 5.39D-10
 IDIUse=1 WtCom= 1.00D+00 WtEn= 0.00D+00
 Coeff-Com: -0.125D-05 0.137D-05 0.100D-05 0.425D-05-0.116D-04-0.431D-04
 Coeff-Com: -0.106D-03-0.174D-02-0.289D-02-0.771D-02 0.274D-01 0.117D+00
 Coeff-Com:  0.302D+00 0.566D+00
 Coeff:     -0.125D-05 0.137D-05 0.100D-05 0.425D-05-0.116D-04-0.431D-04
 Coeff:     -0.106D-03-0.174D-02-0.289D-02-0.771D-02 0.274D-01 0.117D+00
 Coeff:      0.302D+00 0.566D+00
 Gap=     0.120 Goal=   None    Shift=    0.000
 Gap=     0.120 Goal=   None    Shift=    0.000
 RMSDP=1.74D-07 MaxDP=2.19D-05 DE=-1.26D-10 OVMax= 1.74D-06

 Cycle  15  Pass 1  IDiag  1:
 RMSU=  5.99D-08    CP:  8.71D-01  9.38D-03  1.03D+00  8.34D-01  9.38D-01
                    CP:  8.39D-01  1.09D+00  1.04D+00  1.27D+00  1.07D+00
                    CP:  8.97D-01  8.25D-01  9.16D-01  9.09D-01
 E= -1069.40855406084     Delta-E=       -0.000000000008 Rises=F Damp=F
 DIIS: error= 9.70D-08 at cycle  15 NSaved=  15.
 NSaved=15 IEnMin=15 EnMin= -1069.40855406084     IErMin=15 ErrMin= 9.70D-08
 ErrMax= 9.70D-08  0.00D+00 EMaxC= 1.00D-01 BMatC= 6.21D-12 BMatP= 5.84D-11
 IDIUse=1 WtCom= 1.00D+00 WtEn= 0.00D+00
 Coeff-Com: -0.433D-06 0.852D-06-0.311D-05-0.225D-05 0.297D-05 0.309D-04
 Coeff-Com:  0.538D-04-0.242D-04-0.110D-02-0.608D-02 0.175D-02 0.120D-01
 Coeff-Com:  0.862D-01 0.294D+00 0.613D+00
 Coeff:     -0.433D-06 0.852D-06-0.311D-05-0.225D-05 0.297D-05 0.309D-04
 Coeff:      0.538D-04-0.242D-04-0.110D-02-0.608D-02 0.175D-02 0.120D-01
 Coeff:      0.862D-01 0.294D+00 0.613D+00
 Gap=     0.120 Goal=   None    Shift=    0.000
 Gap=     0.120 Goal=   None    Shift=    0.000
 RMSDP=7.21D-08 MaxDP=6.73D-06 DE=-8.19D-12 OVMax= 7.41D-07

 Cycle  16  Pass 1  IDiag  1:
 RMSU=  2.72D-08    CP:  8.71D-01  9.38D-03  1.03D+00  8.34D-01  9.38D-01
                    CP:  8.39D-01  1.09D+00  1.04D+00  1.27D+00  1.07D+00
                    CP:  9.00D-01  8.32D-01  9.12D-01  1.06D+00  8.69D-01
 E= -1069.40855406083     Delta-E=        0.000000000005 Rises=F Damp=F
 DIIS: error= 3.71D-08 at cycle  16 NSaved=  16.
 NSaved=16 IEnMin=15 EnMin= -1069.40855406084     IErMin=16 ErrMin= 3.71D-08
 ErrMax= 3.71D-08  0.00D+00 EMaxC= 1.00D-01 BMatC= 1.30D-12 BMatP= 6.21D-12
 IDIUse=1 WtCom= 1.00D+00 WtEn= 0.00D+00
 Coeff-Com: -0.111D-06 0.325D-06-0.167D-05-0.139D-05 0.232D-05 0.209D-04
 Coeff-Com:  0.349D-04 0.148D-03-0.244D-03-0.260D-02-0.665D-03-0.426D-02
 Coeff-Com:  0.217D-01 0.118D+00 0.379D+00 0.488D+00
 Coeff:     -0.111D-06 0.325D-06-0.167D-05-0.139D-05 0.232D-05 0.209D-04
 Coeff:      0.349D-04 0.148D-03-0.244D-03-0.260D-02-0.665D-03-0.426D-02
 Coeff:      0.217D-01 0.118D+00 0.379D+00 0.488D+00
 Gap=     0.120 Goal=   None    Shift=    0.000
 Gap=     0.120 Goal=   None    Shift=    0.000
 RMSDP=2.90D-08 MaxDP=4.64D-06 DE= 5.46D-12 OVMax= 3.07D-07

 Cycle  17  Pass 1  IDiag  1:
 RMSU=  8.89D-09    CP:  8.71D-01  9.38D-03  1.03D+00  8.34D-01  9.38D-01
                    CP:  8.39D-01  1.09D+00  1.04D+00  1.27D+00  1.07D+00
                    CP:  9.01D-01  8.34D-01  9.22D-01  1.02D+00  9.96D-01
                    CP:  8.82D-01
 E= -1069.40855406083     Delta-E=       -0.000000000001 Rises=F Damp=F
 DIIS: error= 9.11D-09 at cycle  17 NSaved=  17.
 NSaved=17 IEnMin=15 EnMin= -1069.40855406084     IErMin=17 ErrMin= 9.11D-09
 ErrMax= 9.11D-09  0.00D+00 EMaxC= 1.00D-01 BMatC= 1.33D-13 BMatP= 1.30D-12
 IDIUse=1 WtCom= 1.00D+00 WtEn= 0.00D+00
 Coeff-Com: -0.181D-07 0.711D-07-0.489D-06-0.403D-06 0.385D-06 0.542D-05
 Coeff-Com:  0.823D-05 0.869D-04 0.624D-04-0.452D-03-0.704D-03-0.518D-02
 Coeff-Com: -0.512D-02 0.635D-02 0.922D-01 0.258D+00 0.655D+00
 Coeff:     -0.181D-07 0.711D-07-0.489D-06-0.403D-06 0.385D-06 0.542D-05
 Coeff:      0.823D-05 0.869D-04 0.624D-04-0.452D-03-0.704D-03-0.518D-02
 Coeff:     -0.512D-02 0.635D-02 0.922D-01 0.258D+00 0.655D+00
 Gap=     0.120 Goal=   None    Shift=    0.000
 Gap=     0.120 Goal=   None    Shift=    0.000
 RMSDP=1.35D-08 MaxDP=1.08D-06 DE=-9.09D-13 OVMax= 9.89D-08

 Cycle  18  Pass 1  IDiag  1:
 RMSU=  3.78D-09    CP:  8.71D-01  9.38D-03  1.03D+00  8.34D-01  9.38D-01
                    CP:  8.39D-01  1.09D+00  1.04D+00  1.27D+00  1.07D+00
                    CP:  9.01D-01  8.33D-01  9.23D-01  1.05D+00  1.01D+00
                    CP:  9.64D-01  8.86D-01
 E= -1069.40855406083     Delta-E=       -0.000000000003 Rises=F Damp=F
 DIIS: error= 3.30D-09 at cycle  18 NSaved=  18.
 NSaved=18 IEnMin=15 EnMin= -1069.40855406084     IErMin=18 ErrMin= 3.30D-09
 ErrMax= 3.30D-09  0.00D+00 EMaxC= 1.00D-01 BMatC= 2.39D-14 BMatP= 1.33D-13
 IDIUse=1 WtCom= 1.00D+00 WtEn= 0.00D+00
 Coeff-Com: -0.389D-09 0.134D-07-0.146D-06-0.119D-06-0.277D-07 0.149D-05
 Coeff-Com:  0.230D-05 0.390D-04 0.626D-04-0.434D-04-0.304D-03-0.260D-02
 Coeff-Com: -0.504D-02-0.877D-02 0.172D-01 0.108D+00 0.402D+00 0.489D+00
 Coeff:     -0.389D-09 0.134D-07-0.146D-06-0.119D-06-0.277D-07 0.149D-05
 Coeff:      0.230D-05 0.390D-04 0.626D-04-0.434D-04-0.304D-03-0.260D-02
 Coeff:     -0.504D-02-0.877D-02 0.172D-01 0.108D+00 0.402D+00 0.489D+00
 Gap=     0.120 Goal=   None    Shift=    0.000
 Gap=     0.120 Goal=   None    Shift=    0.000
 RMSDP=3.45D-09 MaxDP=3.78D-07 DE=-2.73D-12 OVMax= 2.57D-08

 Error on total polarization charges =  0.02689
 SCF Done:  E(UB3LYP) =  -1069.40855406     A.U. after   18 cycles
            NFock= 18  Conv=0.34D-08     -V/T= 2.0033
 <Sx>= 0.0000 <Sy>= 0.0000 <Sz>= 0.0000 <S**2>=-0.0000 S=-0.0000
 <L.S>=  0.00000000000    
 KE= 1.065917284682D+03 PE=-4.274732750709D+03 EE= 1.279209305832D+03
 Annihilation of the first spin contaminant:
 S**2 before annihilation    -0.0000,   after     0.0000
 Leave Link  502 at Wed Jan 24 22:49:55 2024, MaxMem=  4026531840 cpu:             940.1 elap:             118.9
 (Enter /sysapps/ubuntu-applications/gaussian/Gaussian/AVX2/g16/l601.exe)
 Copying SCF densities to generalized density rwf, IOpCl= 1 IROHF=0.

 **********************************************************************

            Population analysis using the SCF density.

 **********************************************************************

 Orbital symmetries:
 Alpha Orbitals:
       Occupied  (A) (A) (A) (A) (A) (A) (A) (A) (A) (A) (A) (A)
                 (A) (A) (A) (A) (A) (A) (A) (A) (A) (A) (A) (A)
                 (A) (A) (A) (A) (A) (A) (A) (A) (A) (A) (A) (A)
                 (A) (A) (A) (A) (A) (A) (A) (A) (A) (A) (A) (A)
                 (A) (A) (A) (A)
       Virtual   (A) (A) (A) (A) (A) (A) (A) (A) (A) (A) (A) (A)
                 (A) (A) (A) (A) (A) (A) (A) (A) (A) (A) (A) (A)
                 (A) (A) (A) (A) (A) (A) (A) (A) (A) (A) (A) (A)
                 (A) (A) (A) (A) (A) (A) (A) (A) (A) (A) (A) (A)
                 (A) (A) (A) (A) (A) (A) (A) (A) (A) (A) (A) (A)
                 (A) (A) (A) (A) (A) (A) (A) (A) (A) (A) (A) (A)
                 (A) (A) (A) (A) (A) (A) (A) (A) (A) (A) (A) (A)
                 (A) (A) (A) (A) (A) (A) (A) (A) (A) (A) (A) (A)
                 (A) (A) (A) (A) (A) (A) (A) (A) (A) (A) (A) (A)
                 (A) (A) (A) (A) (A) (A) (A) (A) (A) (A) (A) (A)
                 (A) (A) (A) (A) (A) (A) (A) (A) (A) (A) (A) (A)
                 (A) (A) (A) (A) (A) (A) (A) (A) (A) (A) (A) (A)
                 (A) (A) (A) (A) (A) (A) (A) (A) (A) (A) (A) (A)
                 (A) (A) (A) (A) (A) (A) (A) (A) (A) (A) (A) (A)
                 (A) (A) (A) (A) (A) (A) (A) (A) (A) (A) (A) (A)
                 (A) (A) (A) (A) (A) (A) (A) (A) (A) (A) (A) (A)
                 (A) (A) (A) (A) (A) (A) (A) (A) (A) (A) (A) (A)
                 (A) (A) (A) (A) (A) (A) (A) (A) (A) (A) (A) (A)
                 (A) (A) (A) (A) (A) (A) (A) (A) (A) (A) (A) (A)
                 (A) (A) (A) (A) (A) (A) (A) (A) (A) (A) (A) (A)
                 (A) (A) (A) (A) (A) (A) (A) (A) (A) (A) (A) (A)
                 (A) (A) (A) (A) (A) (A) (A) (A) (A) (A) (A) (A)
                 (A) (A) (A) (A) (A) (A) (A) (A) (A) (A) (A) (A)
                 (A)
 Beta  Orbitals:
       Occupied  (A) (A) (A) (A) (A) (A) (A) (A) (A) (A) (A) (A)
                 (A) (A) (A) (A) (A) (A) (A) (A) (A) (A) (A) (A)
                 (A) (A) (A) (A) (A) (A) (A) (A) (A) (A) (A) (A)
                 (A) (A) (A) (A) (A) (A) (A) (A) (A) (A) (A) (A)
                 (A) (A) (A) (A)
       Virtual   (A) (A) (A) (A) (A) (A) (A) (A) (A) (A) (A) (A)
                 (A) (A) (A) (A) (A) (A) (A) (A) (A) (A) (A) (A)
                 (A) (A) (A) (A) (A) (A) (A) (A) (A) (A) (A) (A)
                 (A) (A) (A) (A) (A) (A) (A) (A) (A) (A) (A) (A)
                 (A) (A) (A) (A) (A) (A) (A) (A) (A) (A) (A) (A)
                 (A) (A) (A) (A) (A) (A) (A) (A) (A) (A) (A) (A)
                 (A) (A) (A) (A) (A) (A) (A) (A) (A) (A) (A) (A)
                 (A) (A) (A) (A) (A) (A) (A) (A) (A) (A) (A) (A)
                 (A) (A) (A) (A) (A) (A) (A) (A) (A) (A) (A) (A)
                 (A) (A) (A) (A) (A) (A) (A) (A) (A) (A) (A) (A)
                 (A) (A) (A) (A) (A) (A) (A) (A) (A) (A) (A) (A)
                 (A) (A) (A) (A) (A) (A) (A) (A) (A) (A) (A) (A)
                 (A) (A) (A) (A) (A) (A) (A) (A) (A) (A) (A) (A)
                 (A) (A) (A) (A) (A) (A) (A) (A) (A) (A) (A) (A)
                 (A) (A) (A) (A) (A) (A) (A) (A) (A) (A) (A) (A)
                 (A) (A) (A) (A) (A) (A) (A) (A) (A) (A) (A) (A)
                 (A) (A) (A) (A) (A) (A) (A) (A) (A) (A) (A) (A)
                 (A) (A) (A) (A) (A) (A) (A) (A) (A) (A) (A) (A)
                 (A) (A) (A) (A) (A) (A) (A) (A) (A) (A) (A) (A)
                 (A) (A) (A) (A) (A) (A) (A) (A) (A) (A) (A) (A)
                 (A) (A) (A) (A) (A) (A) (A) (A) (A) (A) (A) (A)
                 (A) (A) (A) (A) (A) (A) (A) (A) (A) (A) (A) (A)
                 (A) (A) (A) (A) (A) (A) (A) (A) (A) (A) (A) (A)
                 (A)
 The electronic state is 1-A.
 Alpha  occ. eigenvalues -- -101.52744 -19.15530 -19.10743 -19.02311 -19.02166
 Alpha  occ. eigenvalues --  -10.29444 -10.21236 -10.19145 -10.18614 -10.18361
 Alpha  occ. eigenvalues --  -10.14973 -10.13654 -10.13254  -9.44181  -7.20565
 Alpha  occ. eigenvalues --   -7.19718  -7.19671  -1.09545  -1.00995  -0.94216
 Alpha  occ. eigenvalues --   -0.93836  -0.83801  -0.78140  -0.74028  -0.69414
 Alpha  occ. eigenvalues --   -0.65687  -0.59920  -0.54864  -0.54138  -0.48940
 Alpha  occ. eigenvalues --   -0.47350  -0.47309  -0.44255  -0.43360  -0.41734
 Alpha  occ. eigenvalues --   -0.39353  -0.38195  -0.37438  -0.36745  -0.35491
 Alpha  occ. eigenvalues --   -0.34361  -0.33600  -0.32940  -0.30913  -0.30046
 Alpha  occ. eigenvalues --   -0.29198  -0.27812  -0.23300  -0.22103  -0.20446
 Alpha  occ. eigenvalues --   -0.20312  -0.12766
 Alpha virt. eigenvalues --   -0.00737   0.00230   0.01213   0.01545   0.02278
 Alpha virt. eigenvalues --    0.02902   0.03580   0.04084   0.04495   0.05489
 Alpha virt. eigenvalues --    0.06361   0.06758   0.06959   0.07084   0.08317
 Alpha virt. eigenvalues --    0.08510   0.09108   0.10112   0.10323   0.11572
 Alpha virt. eigenvalues --    0.11757   0.12311   0.12554   0.12701   0.13128
 Alpha virt. eigenvalues --    0.13879   0.14202   0.14503   0.14847   0.15418
 Alpha virt. eigenvalues --    0.15641   0.16931   0.17406   0.18274   0.18434
 Alpha virt. eigenvalues --    0.19483   0.19752   0.20352   0.20965   0.21074
 Alpha virt. eigenvalues --    0.21648   0.22407   0.23230   0.23602   0.24549
 Alpha virt. eigenvalues --    0.25312   0.25888   0.26831   0.26964   0.27602
 Alpha virt. eigenvalues --    0.27939   0.29275   0.29447   0.30330   0.30717
 Alpha virt. eigenvalues --    0.30958   0.31362   0.32591   0.32794   0.33046
 Alpha virt. eigenvalues --    0.33313   0.34278   0.34388   0.35820   0.37079
 Alpha virt. eigenvalues --    0.37665   0.37817   0.38100   0.39034   0.39940
 Alpha virt. eigenvalues --    0.40683   0.42228   0.42595   0.43741   0.44678
 Alpha virt. eigenvalues --    0.47799   0.48323   0.49817   0.50022   0.50822
 Alpha virt. eigenvalues --    0.52137   0.54419   0.56425   0.58166   0.59612
 Alpha virt. eigenvalues --    0.59883   0.60995   0.62090   0.62631   0.63442
 Alpha virt. eigenvalues --    0.65377   0.65425   0.66609   0.67154   0.68446
 Alpha virt. eigenvalues --    0.68930   0.69790   0.70671   0.72195   0.73394
 Alpha virt. eigenvalues --    0.75874   0.77359   0.78595   0.80161   0.81234
 Alpha virt. eigenvalues --    0.86092   0.87071   0.88111   0.88697   0.90643
 Alpha virt. eigenvalues --    0.91238   0.92998   0.93614   0.94917   0.95735
 Alpha virt. eigenvalues --    0.97079   0.98646   1.00635   1.01658   1.02382
 Alpha virt. eigenvalues --    1.04214   1.05270   1.07725   1.09120   1.10257
 Alpha virt. eigenvalues --    1.11862   1.15753   1.16268   1.17291   1.22543
 Alpha virt. eigenvalues --    1.22703   1.23367   1.23954   1.25251   1.26173
 Alpha virt. eigenvalues --    1.27428   1.27954   1.30188   1.32169   1.33182
 Alpha virt. eigenvalues --    1.34274   1.35543   1.36706   1.38010   1.40811
 Alpha virt. eigenvalues --    1.42918   1.45625   1.50433   1.51866   1.52826
 Alpha virt. eigenvalues --    1.56568   1.57623   1.59138   1.59365   1.61307
 Alpha virt. eigenvalues --    1.67452   1.68375   1.69523   1.70468   1.71424
 Alpha virt. eigenvalues --    1.72141   1.73961   1.77471   1.79292   1.79669
 Alpha virt. eigenvalues --    1.80509   1.83987   1.86003   1.87021   1.91200
 Alpha virt. eigenvalues --    1.92097   1.93967   1.97311   1.99436   2.00966
 Alpha virt. eigenvalues --    2.02105   2.05124   2.12337   2.12878   2.13688
 Alpha virt. eigenvalues --    2.16354   2.17502   2.21972   2.25170   2.27440
 Alpha virt. eigenvalues --    2.29522   2.32356   2.38266   2.39399   2.44258
 Alpha virt. eigenvalues --    2.44939   2.48688   2.50744   2.52796   2.56138
 Alpha virt. eigenvalues --    2.57771   2.62513   2.63109   2.65585   2.67492
 Alpha virt. eigenvalues --    2.73564   2.75903   2.77215   2.78530   2.80186
 Alpha virt. eigenvalues --    2.83562   2.85976   2.88460   2.89360   2.91262
 Alpha virt. eigenvalues --    2.92859   2.97646   2.98128   2.99289   3.00272
 Alpha virt. eigenvalues --    3.03087   3.06294   3.08968   3.11770   3.12707
 Alpha virt. eigenvalues --    3.19479   3.21577   3.22127   3.23180   3.26485
 Alpha virt. eigenvalues --    3.29364   3.33966   3.35550   3.37665   3.39157
 Alpha virt. eigenvalues --    3.45259   3.48696   3.54061   3.58832   3.60207
 Alpha virt. eigenvalues --    3.64328   3.71703   3.78359   3.81065   3.84418
 Alpha virt. eigenvalues --    3.97218   4.06439   4.10305   4.12208   4.19151
 Alpha virt. eigenvalues --    4.27527   4.30326   4.80765   5.05393   5.11214
 Alpha virt. eigenvalues --    5.13552   5.15502   5.23155   5.27213   5.30762
 Alpha virt. eigenvalues --    5.38430   5.60597   5.74816   5.83840   5.85850
 Alpha virt. eigenvalues --    9.81921  23.58351  23.85935  23.88653  23.93489
 Alpha virt. eigenvalues --   23.97246  23.98340  24.04305  24.17395  25.88316
 Alpha virt. eigenvalues --   26.22105  26.64723  49.90664  50.00006  50.07591
 Alpha virt. eigenvalues --   50.11469 215.81669
  Beta  occ. eigenvalues -- -101.52744 -19.15530 -19.10743 -19.02311 -19.02166
  Beta  occ. eigenvalues --  -10.29444 -10.21236 -10.19145 -10.18614 -10.18361
  Beta  occ. eigenvalues --  -10.14973 -10.13654 -10.13254  -9.44181  -7.20565
  Beta  occ. eigenvalues --   -7.19718  -7.19671  -1.09545  -1.00995  -0.94216
  Beta  occ. eigenvalues --   -0.93836  -0.83801  -0.78140  -0.74028  -0.69414
  Beta  occ. eigenvalues --   -0.65687  -0.59920  -0.54864  -0.54138  -0.48940
  Beta  occ. eigenvalues --   -0.47350  -0.47309  -0.44255  -0.43360  -0.41734
  Beta  occ. eigenvalues --   -0.39353  -0.38195  -0.37438  -0.36745  -0.35491
  Beta  occ. eigenvalues --   -0.34361  -0.33600  -0.32940  -0.30913  -0.30046
  Beta  occ. eigenvalues --   -0.29198  -0.27812  -0.23300  -0.22103  -0.20446
  Beta  occ. eigenvalues --   -0.20312  -0.12766
  Beta virt. eigenvalues --   -0.00737   0.00230   0.01213   0.01545   0.02278
  Beta virt. eigenvalues --    0.02902   0.03580   0.04084   0.04495   0.05489
  Beta virt. eigenvalues --    0.06361   0.06758   0.06959   0.07084   0.08317
  Beta virt. eigenvalues --    0.08510   0.09108   0.10112   0.10323   0.11572
  Beta virt. eigenvalues --    0.11757   0.12311   0.12554   0.12701   0.13128
  Beta virt. eigenvalues --    0.13879   0.14202   0.14503   0.14847   0.15418
  Beta virt. eigenvalues --    0.15641   0.16931   0.17406   0.18274   0.18434
  Beta virt. eigenvalues --    0.19483   0.19752   0.20352   0.20965   0.21074
  Beta virt. eigenvalues --    0.21648   0.22407   0.23230   0.23602   0.24549
  Beta virt. eigenvalues --    0.25312   0.25888   0.26831   0.26964   0.27602
  Beta virt. eigenvalues --    0.27939   0.29275   0.29447   0.30330   0.30717
  Beta virt. eigenvalues --    0.30958   0.31362   0.32591   0.32794   0.33046
  Beta virt. eigenvalues --    0.33313   0.34278   0.34388   0.35820   0.37079
  Beta virt. eigenvalues --    0.37665   0.37817   0.38100   0.39034   0.39940
  Beta virt. eigenvalues --    0.40683   0.42228   0.42595   0.43741   0.44678
  Beta virt. eigenvalues --    0.47799   0.48323   0.49817   0.50022   0.50822
  Beta virt. eigenvalues --    0.52137   0.54419   0.56425   0.58166   0.59612
  Beta virt. eigenvalues --    0.59883   0.60995   0.62090   0.62631   0.63442
  Beta virt. eigenvalues --    0.65377   0.65425   0.66609   0.67154   0.68446
  Beta virt. eigenvalues --    0.68930   0.69790   0.70671   0.72195   0.73394
  Beta virt. eigenvalues --    0.75874   0.77359   0.78595   0.80161   0.81234
  Beta virt. eigenvalues --    0.86092   0.87071   0.88111   0.88697   0.90643
  Beta virt. eigenvalues --    0.91238   0.92998   0.93614   0.94917   0.95735
  Beta virt. eigenvalues --    0.97079   0.98646   1.00635   1.01658   1.02382
  Beta virt. eigenvalues --    1.04214   1.05270   1.07725   1.09120   1.10257
  Beta virt. eigenvalues --    1.11862   1.15753   1.16268   1.17291   1.22543
  Beta virt. eigenvalues --    1.22703   1.23367   1.23954   1.25251   1.26173
  Beta virt. eigenvalues --    1.27428   1.27954   1.30188   1.32169   1.33182
  Beta virt. eigenvalues --    1.34274   1.35543   1.36706   1.38010   1.40811
  Beta virt. eigenvalues --    1.42918   1.45625   1.50433   1.51866   1.52826
  Beta virt. eigenvalues --    1.56568   1.57623   1.59138   1.59365   1.61307
  Beta virt. eigenvalues --    1.67452   1.68375   1.69523   1.70468   1.71424
  Beta virt. eigenvalues --    1.72141   1.73961   1.77471   1.79292   1.79669
  Beta virt. eigenvalues --    1.80509   1.83987   1.86003   1.87021   1.91200
  Beta virt. eigenvalues --    1.92097   1.93967   1.97311   1.99436   2.00966
  Beta virt. eigenvalues --    2.02105   2.05124   2.12337   2.12878   2.13688
  Beta virt. eigenvalues --    2.16354   2.17502   2.21972   2.25170   2.27440
  Beta virt. eigenvalues --    2.29522   2.32356   2.38266   2.39399   2.44258
  Beta virt. eigenvalues --    2.44939   2.48688   2.50744   2.52796   2.56138
  Beta virt. eigenvalues --    2.57771   2.62513   2.63109   2.65585   2.67492
  Beta virt. eigenvalues --    2.73564   2.75903   2.77215   2.78530   2.80186
  Beta virt. eigenvalues --    2.83562   2.85976   2.88460   2.89360   2.91262
  Beta virt. eigenvalues --    2.92859   2.97646   2.98128   2.99289   3.00272
  Beta virt. eigenvalues --    3.03087   3.06294   3.08968   3.11770   3.12707
  Beta virt. eigenvalues --    3.19479   3.21577   3.22127   3.23180   3.26485
  Beta virt. eigenvalues --    3.29364   3.33966   3.35550   3.37665   3.39157
  Beta virt. eigenvalues --    3.45259   3.48696   3.54061   3.58832   3.60207
  Beta virt. eigenvalues --    3.64328   3.71703   3.78359   3.81065   3.84418
  Beta virt. eigenvalues --    3.97218   4.06439   4.10305   4.12208   4.19151
  Beta virt. eigenvalues --    4.27527   4.30326   4.80765   5.05393   5.11214
  Beta virt. eigenvalues --    5.13552   5.15502   5.23155   5.27213   5.30762
  Beta virt. eigenvalues --    5.38430   5.60597   5.74816   5.83840   5.85850
  Beta virt. eigenvalues --    9.81921  23.58351  23.85935  23.88653  23.93489
  Beta virt. eigenvalues --   23.97246  23.98340  24.04305  24.17395  25.88316
  Beta virt. eigenvalues --   26.22105  26.64723  49.90664  50.00006  50.07591
  Beta virt. eigenvalues --   50.11469 215.81669
          Condensed to atoms (all electrons):
               1          2          3          4          5          6
     1  C   12.842425  -1.074613   1.778663  -2.025236   0.024793  -5.613170
     2  C   -1.074613   9.863271  -2.145846   2.420656  -0.727283  -2.672297
     3  C    1.778663  -2.145846  11.023997  -1.836363  -2.388667   0.032414
     4  C   -2.025236   2.420656  -1.836363  15.019406  -4.126777  -1.480094
     5  C    0.024793  -0.727283  -2.388667  -4.126777  27.197052  -9.946532
     6  C   -5.613170  -2.672297   0.032414  -1.480094  -9.946532  30.245875
     7  O    0.274562  -0.294206  -0.010345  -0.008940   0.019554  -0.088414
     8  O    0.032528  -0.021024  -0.211000   0.317589  -0.129779  -0.114240
     9  Cl   0.096940   0.297556  -0.036994   0.302594   0.381952  -1.252751
    10  C    0.360464   0.041195  -0.667748  -1.700839  -4.958294  -3.549417
    11  O    0.061317  -0.016571   0.007289  -0.054396   0.273442   0.008983
    12  O    0.028580   0.001772  -0.005492   0.076394  -0.264536   0.080430
    13  C    0.012072   0.004259  -0.023354  -0.050524  -0.302522  -0.034167
    14  H   -0.146306   0.450764  -0.056631   0.038037   0.056294  -0.026031
    15  H    0.014399  -0.038282   0.436465  -0.107500  -0.035170   0.076739
    16  H    0.002110   0.001165  -0.003397  -0.012445  -0.021162   0.005066
    17  H   -0.008093   0.002688  -0.002994   0.046553   0.022462  -0.056666
    18  H   -0.000072  -0.003055   0.008370  -0.056084   0.072349   0.043695
               7          8          9         10         11         12
     1  C    0.274562   0.032528   0.096940   0.360464   0.061317   0.028580
     2  C   -0.294206  -0.021024   0.297556   0.041195  -0.016571   0.001772
     3  C   -0.010345  -0.211000  -0.036994  -0.667748   0.007289  -0.005492
     4  C   -0.008940   0.317589   0.302594  -1.700839  -0.054396   0.076394
     5  C    0.019554  -0.129779   0.381952  -4.958294   0.273442  -0.264536
     6  C   -0.088414  -0.114240  -1.252751  -3.549417   0.008983   0.080430
     7  O    8.719968  -0.000101   0.038459   0.025929  -0.000634  -0.000055
     8  O   -0.000101   8.682199  -0.007568   0.124390  -0.000988  -0.006862
     9  Cl   0.038459  -0.007568  17.695762  -0.788728  -0.017951  -0.000489
    10  C    0.025929   0.124390  -0.788728  17.871787   0.132854  -0.055494
    11  O   -0.000634  -0.000988  -0.017951   0.132854   8.133409  -0.184421
    12  O   -0.000055  -0.006862  -0.000489  -0.055494  -0.184421   8.316869
    13  C    0.000117  -0.007381  -0.006991   0.208951  -0.036677   0.190192
    14  H   -0.007290   0.000398  -0.004360   0.001221  -0.000079  -0.000211
    15  H    0.000754  -0.005139   0.005132  -0.045856   0.000358   0.000242
    16  H   -0.000009   0.001727  -0.004311   0.059685   0.004645  -0.064061
    17  H    0.000032  -0.000681   0.006736  -0.023332  -0.006558  -0.027582
    18  H    0.000006   0.001416   0.001515  -0.091021  -0.007600  -0.029237
              13         14         15         16         17         18
     1  C    0.012072  -0.146306   0.014399   0.002110  -0.008093  -0.000072
     2  C    0.004259   0.450764  -0.038282   0.001165   0.002688  -0.003055
     3  C   -0.023354  -0.056631   0.436465  -0.003397  -0.002994   0.008370
     4  C   -0.050524   0.038037  -0.107500  -0.012445   0.046553  -0.056084
     5  C   -0.302522   0.056294  -0.035170  -0.021162   0.022462   0.072349
     6  C   -0.034167  -0.026031   0.076739   0.005066  -0.056666   0.043695
     7  O    0.000117  -0.007290   0.000754  -0.000009   0.000032   0.000006
     8  O   -0.007381   0.000398  -0.005139   0.001727  -0.000681   0.001416
     9  Cl  -0.006991  -0.004360   0.005132  -0.004311   0.006736   0.001515
    10  C    0.208951   0.001221  -0.045856   0.059685  -0.023332  -0.091021
    11  O   -0.036677  -0.000079   0.000358   0.004645  -0.006558  -0.007600
    12  O    0.190192  -0.000211   0.000242  -0.064061  -0.027582  -0.029237
    13  C    5.086680  -0.000089  -0.000532   0.394140   0.409873   0.403762
    14  H   -0.000089   0.567406  -0.026342   0.000019   0.000000   0.000012
    15  H   -0.000532  -0.026342   0.577487  -0.000130  -0.000019   0.000090
    16  H    0.394140   0.000019  -0.000130   0.536730  -0.029414  -0.029911
    17  H    0.409873   0.000000  -0.000019  -0.029414   0.565947  -0.059554
    18  H    0.403762   0.000012   0.000090  -0.029911  -0.059554   0.570054
          Atomic-Atomic Spin Densities.
               1          2          3          4          5          6
     1  C    0.000000  -0.000000   0.000000  -0.000000  -0.000000  -0.000000
     2  C   -0.000000   0.000000  -0.000000   0.000000   0.000000   0.000000
     3  C    0.000000  -0.000000   0.000000  -0.000000  -0.000000  -0.000000
     4  C   -0.000000   0.000000  -0.000000   0.000000   0.000000  -0.000000
     5  C   -0.000000   0.000000  -0.000000   0.000000   0.000000  -0.000000
     6  C   -0.000000   0.000000  -0.000000  -0.000000  -0.000000   0.000000
     7  O   -0.000000   0.000000  -0.000000   0.000000  -0.000000   0.000000
     8  O    0.000000  -0.000000   0.000000  -0.000000   0.000000   0.000000
     9  Cl  -0.000000  -0.000000  -0.000000   0.000000   0.000000  -0.000000
    10  C    0.000000  -0.000000   0.000000   0.000000  -0.000000   0.000000
    11  O    0.000000  -0.000000   0.000000  -0.000000   0.000000  -0.000000
    12  O    0.000000   0.000000   0.000000  -0.000000  -0.000000   0.000000
    13  C    0.000000  -0.000000  -0.000000  -0.000000  -0.000000   0.000000
    14  H   -0.000000   0.000000  -0.000000   0.000000   0.000000   0.000000
    15  H    0.000000  -0.000000   0.000000  -0.000000  -0.000000  -0.000000
    16  H    0.000000  -0.000000   0.000000   0.000000  -0.000000   0.000000
    17  H   -0.000000   0.000000  -0.000000   0.000000   0.000000  -0.000000
    18  H    0.000000  -0.000000   0.000000  -0.000000   0.000000   0.000000
               7          8          9         10         11         12
     1  C   -0.000000   0.000000  -0.000000   0.000000   0.000000   0.000000
     2  C    0.000000  -0.000000  -0.000000  -0.000000  -0.000000   0.000000
     3  C   -0.000000   0.000000  -0.000000   0.000000   0.000000   0.000000
     4  C    0.000000  -0.000000   0.000000   0.000000  -0.000000  -0.000000
     5  C   -0.000000   0.000000   0.000000  -0.000000   0.000000  -0.000000
     6  C    0.000000   0.000000  -0.000000   0.000000  -0.000000   0.000000
     7  O    0.000000  -0.000000  -0.000000  -0.000000  -0.000000   0.000000
     8  O   -0.000000   0.000000  -0.000000   0.000000   0.000000  -0.000000
     9  Cl  -0.000000  -0.000000   0.000000  -0.000000  -0.000000  -0.000000
    10  C   -0.000000   0.000000  -0.000000   0.000000  -0.000000   0.000000
    11  O   -0.000000   0.000000  -0.000000  -0.000000   0.000000   0.000000
    12  O    0.000000  -0.000000  -0.000000   0.000000   0.000000  -0.000000
    13  C   -0.000000   0.000000  -0.000000   0.000000  -0.000000   0.000000
    14  H    0.000000   0.000000   0.000000  -0.000000  -0.000000  -0.000000
    15  H   -0.000000   0.000000  -0.000000  -0.000000   0.000000  -0.000000
    16  H   -0.000000   0.000000  -0.000000   0.000000  -0.000000   0.000000
    17  H    0.000000  -0.000000   0.000000   0.000000  -0.000000  -0.000000
    18  H   -0.000000   0.000000   0.000000  -0.000000   0.000000   0.000000
              13         14         15         16         17         18
     1  C    0.000000  -0.000000   0.000000   0.000000  -0.000000   0.000000
     2  C   -0.000000   0.000000  -0.000000  -0.000000   0.000000  -0.000000
     3  C   -0.000000  -0.000000   0.000000   0.000000  -0.000000   0.000000
     4  C   -0.000000   0.000000  -0.000000   0.000000   0.000000  -0.000000
     5  C   -0.000000   0.000000  -0.000000  -0.000000   0.000000   0.000000
     6  C    0.000000   0.000000  -0.000000   0.000000  -0.000000   0.000000
     7  O   -0.000000   0.000000  -0.000000  -0.000000   0.000000  -0.000000
     8  O    0.000000   0.000000   0.000000   0.000000  -0.000000   0.000000
     9  Cl  -0.000000   0.000000  -0.000000  -0.000000   0.000000   0.000000
    10  C    0.000000  -0.000000  -0.000000   0.000000   0.000000  -0.000000
    11  O   -0.000000  -0.000000   0.000000  -0.000000  -0.000000   0.000000
    12  O    0.000000  -0.000000  -0.000000   0.000000  -0.000000   0.000000
    13  C    0.000000  -0.000000  -0.000000   0.000000  -0.000000  -0.000000
    14  H   -0.000000  -0.000000   0.000000  -0.000000   0.000000  -0.000000
    15  H   -0.000000   0.000000   0.000000  -0.000000  -0.000000   0.000000
    16  H    0.000000  -0.000000  -0.000000  -0.000000  -0.000000   0.000000
    17  H   -0.000000   0.000000  -0.000000  -0.000000   0.000000  -0.000000
    18  H   -0.000000  -0.000000   0.000000   0.000000  -0.000000   0.000000
 Mulliken charges and spin densities:
               1          2
     1  C   -0.661365   0.000000
     2  C   -0.090150   0.000000
     3  C    0.101633  -0.000000
     4  C   -0.762033   0.000000
     5  C    0.852826  -0.000000
     6  C    0.340575  -0.000000
     7  O   -0.669387  -0.000000
     8  O   -0.655485  -0.000000
     9  Cl   0.293497   0.000000
    10  C   -0.945749   0.000000
    11  O   -0.296424  -0.000000
    12  O   -0.056038   0.000000
    13  C   -0.247808  -0.000000
    14  H    0.153187  -0.000000
    15  H    0.147304  -0.000000
    16  H    0.159553  -0.000000
    17  H    0.160601   0.000000
    18  H    0.175264   0.000000
 Sum of Mulliken charges =  -2.00000  -0.00000
 Mulliken charges and spin densities with hydrogens summed into heavy atoms:
               1          2
     1  C   -0.661365   0.000000
     2  C    0.063036   0.000000
     3  C    0.248937  -0.000000
     4  C   -0.762033   0.000000
     5  C    0.852826  -0.000000
     6  C    0.340575  -0.000000
     7  O   -0.669387  -0.000000
     8  O   -0.655485  -0.000000
     9  Cl   0.293497   0.000000
    10  C   -0.945749   0.000000
    11  O   -0.296424  -0.000000
    12  O   -0.056038   0.000000
    13  C    0.247610  -0.000000
 Electronic spatial extent (au):  <R**2>=           2686.7516
 Charge=             -2.0000 electrons
 Dipole moment (field-independent basis, Debye):
    X=              9.1587    Y=             -3.1263    Z=             -2.0866  Tot=              9.8999
 Quadrupole moment (field-independent basis, Debye-Ang):
   XX=           -132.3790   YY=           -122.1540   ZZ=            -95.3970
   XY=            -20.5465   XZ=             -9.1988   YZ=             -0.2542
 Traceless Quadrupole moment (field-independent basis, Debye-Ang):
   XX=            -15.7357   YY=             -5.5107   ZZ=             21.2464
   XY=            -20.5465   XZ=             -9.1988   YZ=             -0.2542
 Octapole moment (field-independent basis, Debye-Ang**2):
  XXX=            207.1298  YYY=            -69.4860  ZZZ=             -6.7693  XYY=             -4.3280
  XXY=             22.5054  XXZ=             -7.7199  XZZ=              5.1161  YZZ=             -4.9451
  YYZ=             -8.4903  XYZ=              6.6200
 Hexadecapole moment (field-independent basis, Debye-Ang**3):
 XXXX=          -2613.6626 YYYY=          -1471.5927 ZZZZ=           -236.1831 XXXY=           -152.1584
 XXXZ=            -92.1142 YYYX=           -100.6203 YYYZ=            -20.2529 ZZZX=            -23.7444
 ZZZY=              2.9526 XXYY=           -657.1807 XXZZ=           -430.1505 YYZZ=           -269.5211
 XXYZ=             -0.3047 YYXZ=            -14.2736 ZZXY=             11.6467
 N-N= 8.601976061344D+02 E-N=-4.274732750219D+03  KE= 1.065917284682D+03
                          Isotropic Fermi Contact Couplings
        Atom                 a.u.       MegaHertz       Gauss      10(-4) cm-1
     1  C(13)             -0.00000      -0.00000      -0.00000      -0.00000
     2  C(13)             -0.00000      -0.00000      -0.00000      -0.00000
     3  C(13)             -0.00000      -0.00000      -0.00000      -0.00000
     4  C(13)             -0.00000      -0.00000      -0.00000      -0.00000
     5  C(13)             -0.00000      -0.00000      -0.00000      -0.00000
     6  C(13)             -0.00000      -0.00000      -0.00000      -0.00000
     7  O(17)              0.00000      -0.00000      -0.00000      -0.00000
     8  O(17)             -0.00000       0.00000       0.00000       0.00000
     9  Cl(35)            -0.00000      -0.00000      -0.00000      -0.00000
    10  C(13)              0.00000       0.00000       0.00000       0.00000
    11  O(17)              0.00000      -0.00000      -0.00000      -0.00000
    12  O(17)              0.00000      -0.00000      -0.00000      -0.00000
    13  C(13)              0.00000       0.00000       0.00000       0.00000
    14  H(1)               0.00000       0.00000       0.00000       0.00000
    15  H(1)               0.00000       0.00000       0.00000       0.00000
    16  H(1)              -0.00000      -0.00000      -0.00000      -0.00000
    17  H(1)               0.00000       0.00000       0.00000       0.00000
    18  H(1)               0.00000       0.00000       0.00000       0.00000
 --------------------------------------------------------
       Center         ----  Spin Dipole Couplings  ----
                      3XX-RR        3YY-RR        3ZZ-RR
 --------------------------------------------------------
     1   Atom        0.000000     -0.000000     -0.000000
     2   Atom        0.000000     -0.000000      0.000000
     3   Atom        0.000000      0.000000     -0.000000
     4   Atom       -0.000000     -0.000000      0.000000
     5   Atom       -0.000000      0.000000     -0.000000
     6   Atom        0.000000     -0.000000      0.000000
     7   Atom        0.000000     -0.000000      0.000000
     8   Atom       -0.000000      0.000000     -0.000000
     9   Atom       -0.000000      0.000000     -0.000000
    10   Atom        0.000000      0.000000     -0.000000
    11   Atom        0.000000      0.000000     -0.000000
    12   Atom        0.000000     -0.000000      0.000000
    13   Atom       -0.000000      0.000000      0.000000
    14   Atom        0.000000     -0.000000      0.000000
    15   Atom        0.000000     -0.000000     -0.000000
    16   Atom        0.000000      0.000000     -0.000000
    17   Atom        0.000000     -0.000000     -0.000000
    18   Atom        0.000000      0.000000     -0.000000
 --------------------------------------------------------
                        XY            XZ            YZ
 --------------------------------------------------------
     1   Atom       -0.000000      0.000000      0.000000
     2   Atom        0.000000     -0.000000      0.000000
     3   Atom        0.000000      0.000000      0.000000
     4   Atom        0.000000      0.000000      0.000000
     5   Atom        0.000000      0.000000      0.000000
     6   Atom        0.000000      0.000000     -0.000000
     7   Atom        0.000000     -0.000000      0.000000
     8   Atom       -0.000000     -0.000000     -0.000000
     9   Atom        0.000000     -0.000000     -0.000000
    10   Atom        0.000000     -0.000000      0.000000
    11   Atom        0.000000     -0.000000      0.000000
    12   Atom        0.000000      0.000000     -0.000000
    13   Atom       -0.000000     -0.000000     -0.000000
    14   Atom       -0.000000     -0.000000      0.000000
    15   Atom       -0.000000     -0.000000     -0.000000
    16   Atom       -0.000000     -0.000000      0.000000
    17   Atom       -0.000000     -0.000000      0.000000
    18   Atom        0.000000      0.000000      0.000000
 --------------------------------------------------------


 ---------------------------------------------------------------------------------
              Anisotropic Spin Dipole Couplings in Principal Axis System
 ---------------------------------------------------------------------------------

       Atom             a.u.   MegaHertz   Gauss  10(-4) cm-1        Axes

              Baa    -0.0000    -0.000    -0.000    -0.000 -0.0964 -0.1407  0.9853
     1 C(13)  Bbb    -0.0000    -0.000    -0.000    -0.000  0.5036  0.8470  0.1702
              Bcc     0.0000     0.000     0.000     0.000  0.8585 -0.5127  0.0108
 
              Baa    -0.0000    -0.000    -0.000    -0.000  0.6391 -0.5075  0.5779
     2 C(13)  Bbb     0.0000     0.000     0.000     0.000  0.2291  0.8429  0.4868
              Bcc     0.0000     0.000     0.000     0.000  0.7342  0.1787 -0.6550
 
              Baa    -0.0000    -0.000    -0.000    -0.000  0.0065 -0.0925  0.9957
     3 C(13)  Bbb     0.0000     0.000     0.000     0.000 -0.2839  0.9546  0.0905
              Bcc     0.0000     0.000     0.000     0.000  0.9588  0.2832  0.0201
 
              Baa    -0.0000    -0.000    -0.000    -0.000 -0.1566  0.9862 -0.0546
     4 C(13)  Bbb    -0.0000    -0.000    -0.000    -0.000  0.9489  0.1349 -0.2852
              Bcc     0.0000     0.000     0.000     0.000  0.2739  0.0965  0.9569
 
              Baa    -0.0000    -0.000    -0.000    -0.000  0.8535 -0.3244 -0.4077
     5 C(13)  Bbb    -0.0000    -0.000    -0.000    -0.000  0.2716 -0.3906  0.8796
              Bcc     0.0000     0.000     0.000     0.000  0.4446  0.8615  0.2453
 
              Baa    -0.0000    -0.000    -0.000    -0.000 -0.5873  0.7615  0.2742
     6 C(13)  Bbb     0.0000     0.000     0.000     0.000 -0.0601 -0.3788  0.9235
              Bcc     0.0000     0.000     0.000     0.000  0.8071  0.5259  0.2683
 
              Baa    -0.0000     0.000     0.000     0.000 -0.0811  0.9605 -0.2663
     7 O(17)  Bbb     0.0000    -0.000    -0.000    -0.000  0.9697  0.1378  0.2016
              Bcc     0.0000    -0.000    -0.000    -0.000 -0.2303  0.2419  0.9426
 
              Baa    -0.0000     0.000     0.000     0.000  0.6333  0.5017  0.5893
     8 O(17)  Bbb    -0.0000     0.000     0.000     0.000 -0.6810 -0.0005  0.7323
              Bcc     0.0000    -0.000    -0.000    -0.000 -0.3677  0.8651 -0.3413
 
              Baa    -0.0000    -0.000    -0.000    -0.000  0.9390 -0.3027 -0.1634
     9 Cl(35) Bbb    -0.0000    -0.000    -0.000    -0.000  0.2491  0.2709  0.9298
              Bcc     0.0000     0.000     0.000     0.000  0.2372  0.9138 -0.3297
 
              Baa    -0.0000    -0.000    -0.000    -0.000  0.0772 -0.0295  0.9966
    10 C(13)  Bbb     0.0000     0.000     0.000     0.000 -0.2873  0.9565  0.0505
              Bcc     0.0000     0.000     0.000     0.000  0.9547  0.2902 -0.0654
 
              Baa    -0.0000     0.000     0.000     0.000  0.1848 -0.1402  0.9727
    11 O(17)  Bbb    -0.0000     0.000     0.000     0.000 -0.6830  0.6934  0.2297
              Bcc     0.0000    -0.000    -0.000    -0.000  0.7067  0.7068 -0.0324
 
              Baa    -0.0000     0.000     0.000     0.000 -0.2636  0.9449  0.1941
    12 O(17)  Bbb     0.0000    -0.000    -0.000    -0.000 -0.5923 -0.3174  0.7406
              Bcc     0.0000    -0.000    -0.000    -0.000  0.7614  0.0802  0.6433
 
              Baa    -0.0000    -0.000    -0.000    -0.000  0.9104  0.4030  0.0940
    13 C(13)  Bbb     0.0000     0.000     0.000     0.000 -0.4035  0.9149 -0.0144
              Bcc     0.0000     0.000     0.000     0.000 -0.0918 -0.0248  0.9955
 
              Baa    -0.0000    -0.000    -0.000    -0.000  0.0320  0.9995  0.0011
    14 H(1)   Bbb     0.0000     0.000     0.000     0.000  0.5651 -0.0190  0.8248
              Bcc     0.0000     0.000     0.000     0.000  0.8244 -0.0258 -0.5655
 
              Baa    -0.0000    -0.000    -0.000    -0.000  0.5197  0.7557  0.3985
    15 H(1)   Bbb     0.0000     0.000     0.000     0.000 -0.1780 -0.3604  0.9157
              Bcc     0.0000     0.000     0.000     0.000  0.8356 -0.5468 -0.0528
 
              Baa    -0.0000    -0.000    -0.000    -0.000  0.0714 -0.1187  0.9904
    16 H(1)   Bbb     0.0000     0.000     0.000     0.000  0.7019  0.7114  0.0347
              Bcc     0.0000     0.000     0.000     0.000  0.7087 -0.6927 -0.1341
 
              Baa    -0.0000    -0.000    -0.000    -0.000  0.5647  0.1539  0.8108
    17 H(1)   Bbb    -0.0000    -0.000    -0.000    -0.000  0.1313  0.9532 -0.2724
              Bcc     0.0000     0.000     0.000     0.000  0.8148 -0.2603 -0.5180
 
              Baa    -0.0000    -0.000    -0.000    -0.000 -0.3935  0.0212  0.9191
    18 H(1)   Bbb     0.0000     0.000     0.000     0.000 -0.3204  0.9339 -0.1587
              Bcc     0.0000     0.000     0.000     0.000  0.8617  0.3569  0.3607
 

 ---------------------------------------------------------------------------------

 No NMR shielding tensors so no spin-rotation constants.
 Leave Link  601 at Wed Jan 24 22:49:57 2024, MaxMem=  4026531840 cpu:               8.5 elap:               1.3
 (Enter /sysapps/ubuntu-applications/gaussian/Gaussian/AVX2/g16/l9999.exe)
 1\1\GINC-ACIDSCN006\SP\UB3LYP\6-311++G(d,p)\C8H5Cl1O4(2-)\SELHAJJ1\24-
 Jan-2024\0\\#P UB3LYP/6-311++G(d,p) SCRF=(PCM,Solvent=n,n-DiMethylForm
 amide)\\Reduced\\-2,1\C,0,-2.17848,-3.914544,1.111096\C,0,-0.764999,-3
 .83877,1.386058\C,0,-0.071275,-2.674571,1.668939\C,0,-0.686986,-1.3781
 81,1.715826\C,0,-2.108736,-1.415568,1.458003\C,0,-2.779483,-2.620291,1
 .165595\O,0,-2.785793,-5.022236,0.866629\O,0,-0.032023,-0.289497,1.925
 448\Cl,0,-4.565013,-2.564524,0.91294\C,0,-2.803069,-0.107959,1.460107\
 O,0,-3.239204,0.511867,0.509441\O,0,-2.914281,0.405078,2.729305\C,0,-3
 .377495,1.749814,2.813147\H,0,-0.239344,-4.793622,1.366227\H,0,1.00051
 ,-2.707713,1.86355\H,0,-3.381001,2.005521,3.875989\H,0,-4.386498,1.853
 495,2.401402\H,0,-2.7082,2.426662,2.272198\\Version=ES64L-G16RevA.03\S
 tate=1-A\HF=-1069.4085541\S2=0.\S2-1=0.\S2A=0.\RMSD=3.450e-09\Dipole=-
 1.8163405,3.1864601,1.3106741\Quadrupole=0.5040887,-16.070486,15.56639
 73,-13.4632506,-6.4736835,-2.8571983\PG=C01 [X(C8H5Cl1O4)]\\@


 THOSE WHO TRY TO PASS CHEMISTRY OFF AS A NEW SCIENCE
 SHOW HOW LITTLE KNOWLEDGE THEY HAVE OF THE CHARACTER
 AND LITERATURE OF THE ANCIENTS.
   -- NICOLAS LEFEVRE
 "COURS DE CHYMIE" J.-N.LELOUP, PARIS, 1751
 Job cpu time:       0 days  0 hours 16 minutes  8.6 seconds.
 Elapsed time:       0 days  0 hours  2 minutes  3.2 seconds.
 File lengths (MBytes):  RWF=    162 Int=      0 D2E=      0 Chk=      9 Scr=      1
 Normal termination of Gaussian 16 at Wed Jan 24 22:49:57 2024.
