 Entering Gaussian System, Link 0=g16
 Input=345.com
 Output=345.log
 Initial command:
 /sysapps/ubuntu-applications/gaussian/Gaussian/AVX2/g16/l1.exe "/scratch/selhajj1/4408505/Gau-2987461.inp" -scrdir="/scratch/selhajj1/4408505/"
 Entering Link 1 = /sysapps/ubuntu-applications/gaussian/Gaussian/AVX2/g16/l1.exe PID=   2987465.
  
 Copyright (c) 1988,1990,1992,1993,1995,1998,2003,2009,2016,
            Gaussian, Inc.  All Rights Reserved.
  
 This is part of the Gaussian(R) 16 program.  It is based on
 the Gaussian(R) 09 system (copyright 2009, Gaussian, Inc.),
 the Gaussian(R) 03 system (copyright 2003, Gaussian, Inc.),
 the Gaussian(R) 98 system (copyright 1998, Gaussian, Inc.),
 the Gaussian(R) 94 system (copyright 1995, Gaussian, Inc.),
 the Gaussian 92(TM) system (copyright 1992, Gaussian, Inc.),
 the Gaussian 90(TM) system (copyright 1990, Gaussian, Inc.),
 the Gaussian 88(TM) system (copyright 1988, Gaussian, Inc.),
 the Gaussian 86(TM) system (copyright 1986, Carnegie Mellon
 University), and the Gaussian 82(TM) system (copyright 1983,
 Carnegie Mellon University). Gaussian is a federally registered
 trademark of Gaussian, Inc.
  
 This software contains proprietary and confidential information,
 including trade secrets, belonging to Gaussian, Inc.
  
 This software is provided under written license and may be
 used, copied, transmitted, or stored only in accord with that
 written license.
  
 The following legend is applicable only to US Government
 contracts under FAR:
  
                    RESTRICTED RIGHTS LEGEND
  
 Use, reproduction and disclosure by the US Government is
 subject to restrictions as set forth in subparagraphs (a)
 and (c) of the Commercial Computer Software - Restricted
 Rights clause in FAR 52.227-19.
  
 Gaussian, Inc.
 340 Quinnipiac St., Bldg. 40, Wallingford CT 06492
  
  
 ---------------------------------------------------------------
 Warning -- This program may not be used in any manner that
 competes with the business of Gaussian, Inc. or will provide
 assistance to any competitor of Gaussian, Inc.  The licensee
 of this program is prohibited from giving any competitor of
 Gaussian, Inc. access to this program.  By using this program,
 the user acknowledges that Gaussian, Inc. is engaged in the
 business of creating and licensing software in the field of
 computational chemistry and represents and warrants to the
 licensee that it is not a competitor of Gaussian, Inc. and that
 it will not use this program in any manner prohibited above.
 ---------------------------------------------------------------
  

 Cite this work as:
 Gaussian 16, Revision A.03,
 M. J. Frisch, G. W. Trucks, H. B. Schlegel, G. E. Scuseria, 
 M. A. Robb, J. R. Cheeseman, G. Scalmani, V. Barone, 
 G. A. Petersson, H. Nakatsuji, X. Li, M. Caricato, A. V. Marenich, 
 J. Bloino, B. G. Janesko, R. Gomperts, B. Mennucci, H. P. Hratchian, 
 J. V. Ortiz, A. F. Izmaylov, J. L. Sonnenberg, D. Williams-Young, 
 F. Ding, F. Lipparini, F. Egidi, J. Goings, B. Peng, A. Petrone, 
 T. Henderson, D. Ranasinghe, V. G. Zakrzewski, J. Gao, N. Rega, 
 G. Zheng, W. Liang, M. Hada, M. Ehara, K. Toyota, R. Fukuda, 
 J. Hasegawa, M. Ishida, T. Nakajima, Y. Honda, O. Kitao, H. Nakai, 
 T. Vreven, K. Throssell, J. A. Montgomery, Jr., J. E. Peralta, 
 F. Ogliaro, M. J. Bearpark, J. J. Heyd, E. N. Brothers, K. N. Kudin, 
 V. N. Staroverov, T. A. Keith, R. Kobayashi, J. Normand, 
 K. Raghavachari, A. P. Rendell, J. C. Burant, S. S. Iyengar, 
 J. Tomasi, M. Cossi, J. M. Millam, M. Klene, C. Adamo, R. Cammi, 
 J. W. Ochterski, R. L. Martin, K. Morokuma, O. Farkas, 
 J. B. Foresman, and D. J. Fox, Gaussian, Inc., Wallingford CT, 2016.
 
 ******************************************
 Gaussian 16:  ES64L-G16RevA.03 25-Dec-2016
                11-Feb-2024 
 ******************************************
 %chk=345.chk
 %nproc=8
 Will use up to    8 processors via shared memory.
 %mem=30GB
 ----------------------------------------------------------------------
 #P UB3LYP/6-311++G(d,p) nosym opt freq SCRF=(PCM,Solvent=n,n-DiMethylF
 ormamide)
 ----------------------------------------------------------------------
 1/18=20,19=15,26=3,38=1/1,3;
 2/9=110,12=2,15=1,17=6,18=5,40=1/2;
 3/5=4,6=6,7=1111,11=2,25=1,30=1,70=2201,71=1,72=148,74=-5,116=2/1,2,3;
 4//1;
 5/5=2,38=5,53=148/2;
 6/7=2,8=2,9=2,10=2,28=1/1;
 7/30=1/1,2,3,16;
 1/18=20,19=15,26=3/3(2);
 2/9=110,15=1/2;
 99//99;
 2/9=110,15=1/2;
 3/5=4,6=6,7=1111,11=2,25=1,30=1,70=2205,71=1,72=148,74=-5,116=2/1,2,3;
 4/5=5,16=3,69=1/1;
 5/5=2,38=5,53=148/2;
 7/30=1/1,2,3,16;
 1/18=20,19=15,26=3/3(-5);
 2/9=110,15=1/2;
 6/7=2,8=2,9=2,10=2,19=2,28=1/1;
 99/9=1/99;
 Leave Link    1 at Sun Feb 11 15:02:20 2024, MaxMem=  4026531840 cpu:               0.7 elap:               0.1
 (Enter /sysapps/ubuntu-applications/gaussian/Gaussian/AVX2/g16/l101.exe)
 --------
 Oxidized
 --------
 Symbolic Z-matrix:
 Charge =  0 Multiplicity = 1
 O                     1.9344   -3.12059   0.50615 
 C                     1.47827  -1.9899    0.36881 
 C                     0.05276  -1.70797   0.28998 
 C                    -0.43511  -0.45074   0.15174 
 O                     0.38512   0.6321    0.0545 
 C                     1.74633   0.47059   0.10191 
 C                     2.51623   1.63069  -0.00731 
 C                     3.89729   1.52245   0.03955 
 C                     4.51191   0.27062   0.19453 
 C                     3.73577  -0.87047   0.30269 
 C                     2.33583  -0.78737   0.25829 
 C                    -1.86042  -0.08001   0.06765 
 C                    -2.85522  -0.93714   0.56215 
 C                    -4.19805  -0.59211   0.4621 
 C                    -4.57157   0.61469  -0.12924 
 C                    -3.59055   1.47704  -0.61473 
 C                    -2.24496   1.13704  -0.51449 
 H                    -0.62254  -2.55083   0.32867 
 H                     2.02213   2.58736  -0.12376 
 H                     4.50452   2.4165   -0.04414 
 H                     5.59261   0.20051   0.22977 
 H                     4.17729  -1.85248   0.42326 
 H                    -2.57938  -1.86641   1.04491 
 H                    -4.95399  -1.26252   0.85448 
 H                    -5.61924   0.88235  -0.20534 
 H                    -3.87257   2.4176   -1.07396 
 H                    -1.48685   1.809    -0.89421 
 
 ITRead=  0  0  0  0  0  0  0  0  0  0  0  0  0  0  0  0  0  0  0  0
 ITRead=  0  0  0  0  0  0  0
 MicOpt= -1 -1 -1 -1 -1 -1 -1 -1 -1 -1 -1 -1 -1 -1 -1 -1 -1 -1 -1 -1
 MicOpt= -1 -1 -1 -1 -1 -1 -1
 NAtoms=     27 NQM=       27 NQMF=       0 NMMI=      0 NMMIF=      0
                NMic=       0 NMicF=      0.
                    Isotopes and Nuclear Properties:
 (Nuclear quadrupole moments (NQMom) in fm**2, nuclear magnetic moments (NMagM)
  in nuclear magnetons)

  Atom         1           2           3           4           5           6           7           8           9          10
 IAtWgt=          16          12          12          12          16          12          12          12          12          12
 AtmWgt=  15.9949146  12.0000000  12.0000000  12.0000000  15.9949146  12.0000000  12.0000000  12.0000000  12.0000000  12.0000000
 NucSpn=           0           0           0           0           0           0           0           0           0           0
 AtZEff=  -0.0000000  -0.0000000  -0.0000000  -0.0000000  -0.0000000  -0.0000000  -0.0000000  -0.0000000  -0.0000000  -0.0000000
 NQMom=    0.0000000   0.0000000   0.0000000   0.0000000   0.0000000   0.0000000   0.0000000   0.0000000   0.0000000   0.0000000
 NMagM=    0.0000000   0.0000000   0.0000000   0.0000000   0.0000000   0.0000000   0.0000000   0.0000000   0.0000000   0.0000000
 AtZNuc=   8.0000000   6.0000000   6.0000000   6.0000000   8.0000000   6.0000000   6.0000000   6.0000000   6.0000000   6.0000000

  Atom        11          12          13          14          15          16          17          18          19          20
 IAtWgt=          12          12          12          12          12          12          12           1           1           1
 AtmWgt=  12.0000000  12.0000000  12.0000000  12.0000000  12.0000000  12.0000000  12.0000000   1.0078250   1.0078250   1.0078250
 NucSpn=           0           0           0           0           0           0           0           1           1           1
 AtZEff=  -0.0000000  -0.0000000  -0.0000000  -0.0000000  -0.0000000  -0.0000000  -0.0000000  -0.0000000  -0.0000000  -0.0000000
 NQMom=    0.0000000   0.0000000   0.0000000   0.0000000   0.0000000   0.0000000   0.0000000   0.0000000   0.0000000   0.0000000
 NMagM=    0.0000000   0.0000000   0.0000000   0.0000000   0.0000000   0.0000000   0.0000000   2.7928460   2.7928460   2.7928460
 AtZNuc=   6.0000000   6.0000000   6.0000000   6.0000000   6.0000000   6.0000000   6.0000000   1.0000000   1.0000000   1.0000000

  Atom        21          22          23          24          25          26          27
 IAtWgt=           1           1           1           1           1           1           1
 AtmWgt=   1.0078250   1.0078250   1.0078250   1.0078250   1.0078250   1.0078250   1.0078250
 NucSpn=           1           1           1           1           1           1           1
 AtZEff=  -0.0000000  -0.0000000  -0.0000000  -0.0000000  -0.0000000  -0.0000000  -0.0000000
 NQMom=    0.0000000   0.0000000   0.0000000   0.0000000   0.0000000   0.0000000   0.0000000
 NMagM=    2.7928460   2.7928460   2.7928460   2.7928460   2.7928460   2.7928460   2.7928460
 AtZNuc=   1.0000000   1.0000000   1.0000000   1.0000000   1.0000000   1.0000000   1.0000000
 Leave Link  101 at Sun Feb 11 15:02:21 2024, MaxMem=  4026531840 cpu:               3.0 elap:               0.5
 (Enter /sysapps/ubuntu-applications/gaussian/Gaussian/AVX2/g16/l103.exe)

 GradGradGradGradGradGradGradGradGradGradGradGradGradGradGradGradGradGrad
 Berny optimization.
 Initialization pass.
                           ----------------------------
                           !    Initial Parameters    !
                           ! (Angstroms and Degrees)  !
 --------------------------                            --------------------------
 ! Name  Definition              Value          Derivative Info.                !
 --------------------------------------------------------------------------------
 ! R1    R(1,2)                  1.2269         estimate D2E/DX2                !
 ! R2    R(2,3)                  1.4553         estimate D2E/DX2                !
 ! R3    R(2,11)                 1.4811         estimate D2E/DX2                !
 ! R4    R(3,4)                  1.3556         estimate D2E/DX2                !
 ! R5    R(3,18)                 1.0807         estimate D2E/DX2                !
 ! R6    R(4,5)                  1.3619         estimate D2E/DX2                !
 ! R7    R(4,12)                 1.4751         estimate D2E/DX2                !
 ! R8    R(5,6)                  1.3716         estimate D2E/DX2                !
 ! R9    R(6,7)                  1.3966         estimate D2E/DX2                !
 ! R10   R(6,11)                 1.398          estimate D2E/DX2                !
 ! R11   R(7,8)                  1.3861         estimate D2E/DX2                !
 ! R12   R(7,19)                 1.083          estimate D2E/DX2                !
 ! R13   R(8,9)                  1.4032         estimate D2E/DX2                !
 ! R14   R(8,20)                 1.084          estimate D2E/DX2                !
 ! R15   R(9,10)                 1.3843         estimate D2E/DX2                !
 ! R16   R(9,21)                 1.0835         estimate D2E/DX2                !
 ! R17   R(10,11)                1.4031         estimate D2E/DX2                !
 ! R18   R(10,22)                1.0834         estimate D2E/DX2                !
 ! R19   R(12,13)                1.4032         estimate D2E/DX2                !
 ! R20   R(12,17)                1.4028         estimate D2E/DX2                !
 ! R21   R(13,14)                1.39           estimate D2E/DX2                !
 ! R22   R(13,23)                1.0829         estimate D2E/DX2                !
 ! R23   R(14,15)                1.3948         estimate D2E/DX2                !
 ! R24   R(14,24)                1.0839         estimate D2E/DX2                !
 ! R25   R(15,16)                1.3935         estimate D2E/DX2                !
 ! R26   R(15,25)                1.084          estimate D2E/DX2                !
 ! R27   R(16,17)                1.3915         estimate D2E/DX2                !
 ! R28   R(16,26)                1.084          estimate D2E/DX2                !
 ! R29   R(17,27)                1.0819         estimate D2E/DX2                !
 ! A1    A(1,2,3)              123.2819         estimate D2E/DX2                !
 ! A2    A(1,2,11)             122.7732         estimate D2E/DX2                !
 ! A3    A(3,2,11)             113.9435         estimate D2E/DX2                !
 ! A4    A(2,3,4)              122.528          estimate D2E/DX2                !
 ! A5    A(2,3,18)             117.3265         estimate D2E/DX2                !
 ! A6    A(4,3,18)             120.1373         estimate D2E/DX2                !
 ! A7    A(3,4,5)              121.8644         estimate D2E/DX2                !
 ! A8    A(3,4,12)             125.917          estimate D2E/DX2                !
 ! A9    A(5,4,12)             112.2122         estimate D2E/DX2                !
 ! A10   A(4,5,6)              120.1078         estimate D2E/DX2                !
 ! A11   A(5,6,7)              116.5248         estimate D2E/DX2                !
 ! A12   A(5,6,11)             121.891          estimate D2E/DX2                !
 ! A13   A(7,6,11)             121.5834         estimate D2E/DX2                !
 ! A14   A(6,7,8)              118.8003         estimate D2E/DX2                !
 ! A15   A(6,7,19)             119.3842         estimate D2E/DX2                !
 ! A16   A(8,7,19)             121.8154         estimate D2E/DX2                !
 ! A17   A(7,8,9)              120.6527         estimate D2E/DX2                !
 ! A18   A(7,8,20)             119.4146         estimate D2E/DX2                !
 ! A19   A(9,8,20)             119.9328         estimate D2E/DX2                !
 ! A20   A(8,9,10)             119.8987         estimate D2E/DX2                !
 ! A21   A(8,9,21)             119.8802         estimate D2E/DX2                !
 ! A22   A(10,9,21)            120.2211         estimate D2E/DX2                !
 ! A23   A(9,10,11)            120.5394         estimate D2E/DX2                !
 ! A24   A(9,10,22)            121.8276         estimate D2E/DX2                !
 ! A25   A(11,10,22)           117.633          estimate D2E/DX2                !
 ! A26   A(2,11,6)             119.6546         estimate D2E/DX2                !
 ! A27   A(2,11,10)            121.8197         estimate D2E/DX2                !
 ! A28   A(6,11,10)            118.5256         estimate D2E/DX2                !
 ! A29   A(4,12,13)            120.7585         estimate D2E/DX2                !
 ! A30   A(4,12,17)            120.4339         estimate D2E/DX2                !
 ! A31   A(13,12,17)           118.8072         estimate D2E/DX2                !
 ! A32   A(12,13,14)           120.5243         estimate D2E/DX2                !
 ! A33   A(12,13,23)           120.0468         estimate D2E/DX2                !
 ! A34   A(14,13,23)           119.4167         estimate D2E/DX2                !
 ! A35   A(13,14,15)           120.2621         estimate D2E/DX2                !
 ! A36   A(13,14,24)           119.6141         estimate D2E/DX2                !
 ! A37   A(15,14,24)           120.1216         estimate D2E/DX2                !
 ! A38   A(14,15,16)           119.6437         estimate D2E/DX2                !
 ! A39   A(14,15,25)           120.1463         estimate D2E/DX2                !
 ! A40   A(16,15,25)           120.2091         estimate D2E/DX2                !
 ! A41   A(15,16,17)           120.297          estimate D2E/DX2                !
 ! A42   A(15,16,26)           120.0923         estimate D2E/DX2                !
 ! A43   A(17,16,26)           119.6107         estimate D2E/DX2                !
 ! A44   A(12,17,16)           120.4603         estimate D2E/DX2                !
 ! A45   A(12,17,27)           119.4996         estimate D2E/DX2                !
 ! A46   A(16,17,27)           120.0381         estimate D2E/DX2                !
 ! D1    D(1,2,3,4)            179.3116         estimate D2E/DX2                !
 ! D2    D(1,2,3,18)            -1.731          estimate D2E/DX2                !
 ! D3    D(11,2,3,4)            -1.1124         estimate D2E/DX2                !
 ! D4    D(11,2,3,18)          177.8449         estimate D2E/DX2                !
 ! D5    D(1,2,11,6)           179.9341         estimate D2E/DX2                !
 ! D6    D(1,2,11,10)            0.0894         estimate D2E/DX2                !
 ! D7    D(3,2,11,6)             0.3556         estimate D2E/DX2                !
 ! D8    D(3,2,11,10)         -179.489          estimate D2E/DX2                !
 ! D9    D(2,3,4,5)              1.1462         estimate D2E/DX2                !
 ! D10   D(2,3,4,12)          -179.8454         estimate D2E/DX2                !
 ! D11   D(18,3,4,5)          -177.7827         estimate D2E/DX2                !
 ! D12   D(18,3,4,12)            1.2257         estimate D2E/DX2                !
 ! D13   D(3,4,5,6)             -0.327          estimate D2E/DX2                !
 ! D14   D(12,4,5,6)          -179.4595         estimate D2E/DX2                !
 ! D15   D(3,4,12,13)           21.546          estimate D2E/DX2                !
 ! D16   D(3,4,12,17)         -158.2136         estimate D2E/DX2                !
 ! D17   D(5,4,12,13)         -159.3637         estimate D2E/DX2                !
 ! D18   D(5,4,12,17)           20.8768         estimate D2E/DX2                !
 ! D19   D(4,5,6,7)            179.8808         estimate D2E/DX2                !
 ! D20   D(4,5,6,11)            -0.4416         estimate D2E/DX2                !
 ! D21   D(5,6,7,8)            179.775          estimate D2E/DX2                !
 ! D22   D(5,6,7,19)            -0.0986         estimate D2E/DX2                !
 ! D23   D(11,6,7,8)             0.0963         estimate D2E/DX2                !
 ! D24   D(11,6,7,19)         -179.7773         estimate D2E/DX2                !
 ! D25   D(5,6,11,2)             0.3873         estimate D2E/DX2                !
 ! D26   D(5,6,11,10)         -179.763          estimate D2E/DX2                !
 ! D27   D(7,6,11,2)          -179.9513         estimate D2E/DX2                !
 ! D28   D(7,6,11,10)           -0.1016         estimate D2E/DX2                !
 ! D29   D(6,7,8,9)             -0.0307         estimate D2E/DX2                !
 ! D30   D(6,7,8,20)          -179.9922         estimate D2E/DX2                !
 ! D31   D(19,7,8,9)           179.8396         estimate D2E/DX2                !
 ! D32   D(19,7,8,20)           -0.1218         estimate D2E/DX2                !
 ! D33   D(7,8,9,10)            -0.027          estimate D2E/DX2                !
 ! D34   D(7,8,9,21)          -179.9875         estimate D2E/DX2                !
 ! D35   D(20,8,9,10)          179.9342         estimate D2E/DX2                !
 ! D36   D(20,8,9,21)           -0.0263         estimate D2E/DX2                !
 ! D37   D(8,9,10,11)            0.0213         estimate D2E/DX2                !
 ! D38   D(8,9,10,22)          179.9999         estimate D2E/DX2                !
 ! D39   D(21,9,10,11)         179.9817         estimate D2E/DX2                !
 ! D40   D(21,9,10,22)          -0.0397         estimate D2E/DX2                !
 ! D41   D(9,10,11,2)          179.8879         estimate D2E/DX2                !
 ! D42   D(9,10,11,6)            0.0416         estimate D2E/DX2                !
 ! D43   D(22,10,11,2)          -0.0916         estimate D2E/DX2                !
 ! D44   D(22,10,11,6)        -179.9379         estimate D2E/DX2                !
 ! D45   D(4,12,13,14)        -179.0193         estimate D2E/DX2                !
 ! D46   D(4,12,13,23)           2.2619         estimate D2E/DX2                !
 ! D47   D(17,12,13,14)          0.7442         estimate D2E/DX2                !
 ! D48   D(17,12,13,23)       -177.9747         estimate D2E/DX2                !
 ! D49   D(4,12,17,16)         178.8978         estimate D2E/DX2                !
 ! D50   D(4,12,17,27)          -0.5886         estimate D2E/DX2                !
 ! D51   D(13,12,17,16)         -0.8664         estimate D2E/DX2                !
 ! D52   D(13,12,17,27)        179.6472         estimate D2E/DX2                !
 ! D53   D(12,13,14,15)         -0.1747         estimate D2E/DX2                !
 ! D54   D(12,13,14,24)       -179.6292         estimate D2E/DX2                !
 ! D55   D(23,13,14,15)        178.5522         estimate D2E/DX2                !
 ! D56   D(23,13,14,24)         -0.9024         estimate D2E/DX2                !
 ! D57   D(13,14,15,16)         -0.2845         estimate D2E/DX2                !
 ! D58   D(13,14,15,25)       -179.9358         estimate D2E/DX2                !
 ! D59   D(24,14,15,16)        179.1672         estimate D2E/DX2                !
 ! D60   D(24,14,15,25)         -0.484          estimate D2E/DX2                !
 ! D61   D(14,15,16,17)          0.1619         estimate D2E/DX2                !
 ! D62   D(14,15,16,26)       -179.8855         estimate D2E/DX2                !
 ! D63   D(25,15,16,17)        179.8129         estimate D2E/DX2                !
 ! D64   D(25,15,16,26)         -0.2344         estimate D2E/DX2                !
 ! D65   D(15,16,17,12)          0.4206         estimate D2E/DX2                !
 ! D66   D(15,16,17,27)        179.9042         estimate D2E/DX2                !
 ! D67   D(26,16,17,12)       -179.5323         estimate D2E/DX2                !
 ! D68   D(26,16,17,27)         -0.0487         estimate D2E/DX2                !
 --------------------------------------------------------------------------------
 Trust Radius=3.00D-01 FncErr=1.00D-07 GrdErr=1.00D-06 EigMax=2.50D+02 EigMin=1.00D-04
 Number of steps in this run=    153 maximum allowed number of steps=    162.
 GradGradGradGradGradGradGradGradGradGradGradGradGradGradGradGradGradGrad

 Leave Link  103 at Sun Feb 11 15:02:21 2024, MaxMem=  4026531840 cpu:               0.3 elap:               0.1
 (Enter /sysapps/ubuntu-applications/gaussian/Gaussian/AVX2/g16/l202.exe)
                          Input orientation:                          
 ---------------------------------------------------------------------
 Center     Atomic      Atomic             Coordinates (Angstroms)
 Number     Number       Type             X           Y           Z
 ---------------------------------------------------------------------
      1          8           0        1.934400   -3.120587    0.506153
      2          6           0        1.478267   -1.989895    0.368808
      3          6           0        0.052755   -1.707972    0.289979
      4          6           0       -0.435113   -0.450740    0.151739
      5          8           0        0.385123    0.632098    0.054496
      6          6           0        1.746330    0.470594    0.101906
      7          6           0        2.516226    1.630689   -0.007305
      8          6           0        3.897294    1.522451    0.039550
      9          6           0        4.511905    0.270619    0.194525
     10          6           0        3.735766   -0.870469    0.302692
     11          6           0        2.335832   -0.787371    0.258290
     12          6           0       -1.860422   -0.080013    0.067645
     13          6           0       -2.855224   -0.937141    0.562147
     14          6           0       -4.198046   -0.592112    0.462103
     15          6           0       -4.571567    0.614690   -0.129238
     16          6           0       -3.590549    1.477037   -0.614728
     17          6           0       -2.244957    1.137041   -0.514488
     18          1           0       -0.622536   -2.550828    0.328666
     19          1           0        2.022132    2.587356   -0.123761
     20          1           0        4.504517    2.416499   -0.044135
     21          1           0        5.592607    0.200510    0.229770
     22          1           0        4.177290   -1.852476    0.423256
     23          1           0       -2.579378   -1.866406    1.044909
     24          1           0       -4.953992   -1.262520    0.854480
     25          1           0       -5.619241    0.882351   -0.205336
     26          1           0       -3.872572    2.417597   -1.073964
     27          1           0       -1.486851    1.808997   -0.894212
 ---------------------------------------------------------------------
                    Distance matrix (angstroms):
                    1          2          3          4          5
     1  O    0.000000
     2  C    1.226941   0.000000
     3  C    2.362795   1.455259   0.000000
     4  C    3.587239   2.465186   1.355639   0.000000
     5  O    4.084960   2.858077   2.375258   1.361904   0.000000
     6  C    3.618752   2.489398   2.765812   2.368551   1.371574
     7  C    4.814227   3.785162   4.159775   3.614975   2.354273
     8  C    5.062457   4.277461   5.027805   4.761913   3.623299
     9  C    4.270939   3.787249   4.879339   4.999518   4.144949
    10  C    2.889524   2.520672   3.777055   4.194662   3.680505
    11  C    2.380437   1.481113   2.461900   2.793351   2.421093
    12  C    4.882423   3.858133   2.521890   1.475133   2.355790
    13  C    5.264130   4.463722   3.020695   2.502390   3.635941
    14  C    6.633402   5.846626   4.398190   3.778356   4.761331
    15  C    7.528853   6.605483   5.191807   4.280694   4.960125
    16  C    7.274585   6.219313   4.923052   3.776317   4.119193
    17  C    6.052779   4.941694   3.744429   2.498088   2.737888
    18  H    2.625652   2.174771   1.080704   2.115845   3.349860
    19  H    5.743266   4.635692   4.743361   3.917139   2.556288
    20  H    6.129245   5.361438   6.077917   5.714838   4.490348
    21  H    4.948591   4.663153   5.859683   6.063301   5.228277
    22  H    2.577893   2.703067   4.129217   4.828338   4.548585
    23  H    4.715657   4.115440   2.742835   2.720245   4.001463
    24  H    7.143087   6.491449   5.058123   4.644685   5.721512
    25  H    8.578299   7.678155   6.255130   5.364682   6.015191
    26  H    8.178580   7.080894   5.855668   4.641749   4.752830
    27  H    6.161719   4.981839   4.017682   2.703068   2.406122
                    6          7          8          9         10
     6  C    0.000000
     7  C    1.396598   0.000000
     8  C    2.395191   1.386095   0.000000
     9  C    2.774342   2.423481   1.403156   0.000000
    10  C    2.407617   2.799851   2.412758   1.384259   0.000000
    11  C    1.398014   2.439282   2.796657   2.420476   1.403101
    12  C    3.648699   4.699699   5.976619   6.383227   5.656623
    13  C    4.834029   5.980845   7.205498   7.474518   6.596432
    14  C    6.049355   7.088204   8.377616   8.756663   7.940294
    15  C    6.323766   7.161280   8.519045   9.095750   8.450091
    16  C    5.478026   6.138833   7.516511   8.231652   7.747731
    17  C    4.093222   4.813500   6.179219   6.848983   6.361362
    18  H    3.846029   5.239255   6.091310   5.860123   4.671090
    19  H    2.146549   1.083006   2.162620   3.415779   3.882648
    20  H    3.378679   2.138260   1.083995   2.159123   3.393439
    21  H    3.857867   3.400844   2.158193   1.083547   2.144801
    22  H    3.377793   3.882905   3.408190   2.161439   1.083428
    23  H    5.006253   6.269131   7.378508   7.454953   6.436134
    24  H    6.961635   8.057139   9.314797   9.611933   8.716081
    25  H    7.383467   8.172212   9.541181  10.157471   9.531350
    26  H    6.061811   6.524854   7.900128   8.747459   8.401986
    27  H    3.638273   4.104025   5.472023   6.287848   5.990647
                   11         12         13         14         15
    11  C    0.000000
    12  C    4.259724   0.000000
    13  C    5.202098   1.403151   0.000000
    14  C    6.539972   2.425351   1.390045   0.000000
    15  C    7.058903   2.805652   2.414959   1.394838   0.000000
    16  C    6.404037   2.425567   2.784599   2.410393   1.393463
    17  C    5.028337   1.402842   2.415326   2.785365   2.415447
    18  H    3.444804   2.775864   2.764669   4.079050   5.081833
    19  H    3.410741   4.714416   6.056497   7.010197   6.882464
    20  H    3.880649   6.837947   8.110503   9.221856   9.253597
    21  H    3.403426   7.460068   8.530567   9.825432  10.178942
    22  H    2.133689   6.302543   7.093193   8.469727   9.106847
    23  H    5.093366   2.159431   1.082905   2.140928   3.391648
    24  H    7.329580   3.404058   2.143865   1.083910   2.153571
    25  H    8.141628   3.889651   3.396965   2.153906   1.083999
    26  H    7.112735   3.404420   3.868607   3.394670   2.152109
    27  H    4.762593   2.152460   3.396277   3.867233   3.395148
                   16         17         18         19         20
    16  C    0.000000
    17  C    1.391497   0.000000
    18  H    5.091443   4.116253   0.000000
    19  H    5.742477   4.523730   5.796542   0.000000
    20  H    8.169349   6.885757   7.148426   2.489532   0.000000
    21  H    9.309836   7.928330   6.797620   4.309328   2.483862
    22  H    8.514834   7.145756   4.851286   4.965485   4.306934
    23  H    3.867231   3.400625   2.193324   6.509660   8.349303
    24  H    3.394513   3.869217   4.549476   8.027752  10.188527
    25  H    2.153333   3.397975   6.085962   7.829705  10.240609
    26  H    1.084015   2.145220   6.100439   5.973210   8.440152
    27  H    2.147988   1.081869   4.609831   3.675922   6.081791
                   21         22         23         24         25
    21  H    0.000000
    22  H    2.501062   0.000000
    23  H    8.468644   6.785220   0.000000
    24  H   10.665902   9.160476   2.457587   0.000000
    25  H   11.240986  10.190507   4.284804   2.483191   0.000000
    26  H    9.808405   9.234472   4.951228   4.293207   2.482408
    27  H    7.346379   6.872016   4.296789   4.951081   4.290672
                   26         27
    26  H    0.000000
    27  H    2.468678   0.000000
 Symmetry turned off by external request.
 Stoichiometry    C15H10O2
 Framework group  C1[X(C15H10O2)]
 Deg. of freedom    75
 Full point group                 C1      NOp   1
 Rotational constants (GHZ):           1.1632683           0.2739756           0.2235527
 Leave Link  202 at Sun Feb 11 15:02:21 2024, MaxMem=  4026531840 cpu:               0.5 elap:               0.1
 (Enter /sysapps/ubuntu-applications/gaussian/Gaussian/AVX2/g16/l301.exe)
 Standard basis: 6-311++G(d,p) (5D, 7F)
 Ernie: Thresh=  0.10000D-02 Tol=  0.10000D-05 Strict=F.
   444 basis functions,   702 primitive gaussians,   461 cartesian basis functions
    58 alpha electrons       58 beta electrons
       nuclear repulsion energy      1064.1171125393 Hartrees.
 IExCor=  402 DFT=T Ex+Corr=B3LYP ExCW=0 ScaHFX=  0.200000
 ScaDFX=  0.800000  0.720000  1.000000  0.810000 ScalE2=  1.000000  1.000000
 IRadAn=      5 IRanWt=     -1 IRanGd=            0 ICorTp=0 IEmpDi=  4
 NAtoms=   27 NActive=   27 NUniq=   27 SFac= 1.00D+00 NAtFMM=   60 NAOKFM=F Big=F
 Integral buffers will be    131072 words long.
 Raffenetti 2 integral format.
 Two-electron integral symmetry is turned off.
 ------------------------------------------------------------------------------
 Polarizable Continuum Model (PCM)
 =================================
 Model                : PCM.
 Atomic radii         : UFF (Universal Force Field).
 Polarization charges : Total charges.
 Charge compensation  : None.
 Solution method      : On-the-fly selection.
 Cavity type          : Scaled VdW (van der Waals Surface) (Alpha=1.100).
 Cavity algorithm     : GePol (No added spheres)
                        Default sphere list used, NSphG=   27.
                        Lebedev-Laikov grids with approx.  5.0 points / Ang**2.
                        Smoothing algorithm: York/Karplus (Gamma=1.0000).
                        Polarization charges: spherical gaussians, with
                                              point-specific exponents (IZeta= 3).
                        Self-potential: point-specific (ISelfS= 7).
                        Self-field    : sphere-specific E.n sum rule (ISelfD= 2).
 1st derivatives      : Analytical E(r).r(x)/FMM algorithm (CHGder, D1EAlg=3).
                        Cavity 1st derivative terms included.
 Solvent              : n,n-DiMethylFormamide, Eps=  37.219000 Eps(inf)=   2.046330
 ------------------------------------------------------------------------------
 GePol: Number of generator spheres                  =      27
 GePol: Total number of spheres                      =      27
 GePol: Number of exposed spheres                    =      27 (100.00%)
 GePol: Number of points                             =    2229
 GePol: Average weight of points                     =       0.13
 GePol: Minimum weight of points                     =   0.12D-10
 GePol: Maximum weight of points                     =    0.20577
 GePol: Number of points with low weight             =     130
 GePol: Fraction of low-weight points (<1% of avg)   =       5.83%
 GePol: Cavity surface area                          =    283.097 Ang**2
 GePol: Cavity volume                                =    302.593 Ang**3
 Leave Link  301 at Sun Feb 11 15:02:21 2024, MaxMem=  4026531840 cpu:               1.0 elap:               0.3
 (Enter /sysapps/ubuntu-applications/gaussian/Gaussian/AVX2/g16/l302.exe)
 NPDir=0 NMtPBC=     1 NCelOv=     1 NCel=       1 NClECP=     1 NCelD=      1
         NCelK=      1 NCelE2=     1 NClLst=     1 CellRange=     0.0.
 One-electron integrals computed using PRISM.
 NBasis=   444 RedAO= T EigKep=  1.35D-06  NBF=   444
 NBsUse=   440 1.00D-06 EigRej=  8.44D-07 NBFU=   440
 Precomputing XC quadrature grid using
 IXCGrd= 4 IRadAn=           5 IRanWt=          -1 IRanGd=           0 AccXCQ= 0.00D+00.
 Generated NRdTot=       0 NPtTot=           0 NUsed=           0 NTot=          32
 NSgBfM=   460   460   460   460   460 MxSgAt=    27 MxSgA2=    27.
 Leave Link  302 at Sun Feb 11 15:02:22 2024, MaxMem=  4026531840 cpu:               4.6 elap:               0.6
 (Enter /sysapps/ubuntu-applications/gaussian/Gaussian/AVX2/g16/l303.exe)
 DipDrv:  MaxL=1.
 Leave Link  303 at Sun Feb 11 15:02:22 2024, MaxMem=  4026531840 cpu:               1.5 elap:               0.3
 (Enter /sysapps/ubuntu-applications/gaussian/Gaussian/AVX2/g16/l401.exe)
 ExpMin= 3.60D-02 ExpMax= 8.59D+03 ExpMxC= 1.30D+03 IAcc=3 IRadAn=         5 AccDes= 0.00D+00
 Harris functional with IExCor=  402 and IRadAn=       5 diagonalized for initial guess.
 HarFok:  IExCor=  402 AccDes= 0.00D+00 IRadAn=         5 IDoV= 1 UseB2=F ITyADJ=14
 ICtDFT=  3500011 ScaDFX=  1.000000  1.000000  1.000000  1.000000
 FoFCou: FMM=F IPFlag=           0 FMFlag=      100000 FMFlg1=           0
         NFxFlg=           0 DoJE=T BraDBF=F KetDBF=T FulRan=T
         wScrn=  0.000000 ICntrl=       500 IOpCl=  0 I1Cent=   200000004 NGrid=           0
         NMat0=    1 NMatS0=      1 NMatT0=    0 NMatD0=    1 NMtDS0=    0 NMtDT0=    0
 Symmetry not used in FoFCou.
 Harris En= -728.298575079066    
 JPrj=0 DoOrth=F DoCkMO=F.
 Initial guess <Sx>= 0.0000 <Sy>= 0.0000 <Sz>= 0.0000 <S**2>=-0.0000 S=-0.0000
 Leave Link  401 at Sun Feb 11 15:02:26 2024, MaxMem=  4026531840 cpu:              22.4 elap:               3.4
 (Enter /sysapps/ubuntu-applications/gaussian/Gaussian/AVX2/g16/l502.exe)
 Two-electron integral symmetry not used.
 UHF open shell SCF:
 Using DIIS extrapolation, IDIIS=  1040.
 NGot=  4026531840 LenX=  4026099850 LenY=  4025886868
 Requested convergence on RMS density matrix=1.00D-08 within 128 cycles.
 Requested convergence on MAX density matrix=1.00D-06.
 Requested convergence on             energy=1.00D-06.
 No special actions if energy rises.
 Fock matrices will be formed incrementally for  20 cycles.

 Cycle   1  Pass 1  IDiag  1:
 FoFJK:  IHMeth= 1 ICntrl=       0 DoSepK=F KAlg= 0 I1Cent=           0 FoldK=F
 IRaf= 850000000 NMat=       1 IRICut=       1 DoRegI=T DoRafI=F ISym2E= 0 IDoP0=0 IntGTp=1.
 FoFCou: FMM=F IPFlag=           0 FMFlag=      100000 FMFlg1=           0
         NFxFlg=           0 DoJE=F BraDBF=F KetDBF=F FulRan=T
         wScrn=  0.000000 ICntrl=         0 IOpCl=  1 I1Cent=           0 NGrid=           0
         NMat0=    1 NMatS0=      1 NMatT0=    0 NMatD0=    1 NMtDS0=    0 NMtDT0=    0
 Symmetry not used in FoFCou.
 Inv3:  Mode=1 IEnd=    14905323.
 Iteration    1 A*A^-1 deviation from unit magnitude is 3.44D-15 for    125.
 Iteration    1 A*A^-1 deviation from orthogonality  is 1.85D-15 for   1735    171.
 Iteration    1 A^-1*A deviation from unit magnitude is 3.11D-15 for   1111.
 Iteration    1 A^-1*A deviation from orthogonality  is 2.90D-13 for    799    748.
 E= -727.881108097732    
 DIIS: error= 3.37D-02 at cycle   1 NSaved=   1.
 NSaved= 1 IEnMin= 1 EnMin= -727.881108097732     IErMin= 1 ErrMin= 3.37D-02
 ErrMax= 3.37D-02  0.00D+00 EMaxC= 1.00D-01 BMatC= 1.77D+00 BMatP= 1.77D+00
 IDIUse=3 WtCom= 6.63D-01 WtEn= 3.37D-01
 Coeff-Com:  0.100D+01
 Coeff-En:   0.100D+01
 Coeff:      0.100D+01
 Gap=     0.166 Goal=   None    Shift=    0.000
 Gap=     0.166 Goal=   None    Shift=    0.000
 GapD=    0.166 DampG=1.000 DampE=0.500 DampFc=0.5000 IDamp=-1.
 Damping current iteration by 5.00D-01
 RMSDP=3.45D-02 MaxDP=5.10D+00              OVMax= 2.71D-01

 Cycle   2  Pass 1  IDiag  1:
 RMSU=  1.55D-02    CP:  1.12D+00
 E= -728.006922848149     Delta-E=       -0.125814750417 Rises=F Damp=T
 DIIS: error= 1.30D-02 at cycle   2 NSaved=   2.
 NSaved= 2 IEnMin= 2 EnMin= -728.006922848149     IErMin= 2 ErrMin= 1.30D-02
 ErrMax= 1.30D-02  0.00D+00 EMaxC= 1.00D-01 BMatC= 2.49D-01 BMatP= 1.77D+00
 IDIUse=3 WtCom= 8.70D-01 WtEn= 1.30D-01
 Coeff-Com:  0.154D+00 0.846D+00
 Coeff-En:   0.281D+00 0.719D+00
 Coeff:      0.171D+00 0.829D+00
 Gap=     0.225 Goal=   None    Shift=    0.000
 Gap=     0.225 Goal=   None    Shift=    0.000
 RMSDP=1.32D-02 MaxDP=2.45D+00 DE=-1.26D-01 OVMax= 2.30D-01

 Cycle   3  Pass 1  IDiag  1:
 RMSU=  7.19D-03    CP:  9.99D-01  4.79D-01
 E= -728.200693607549     Delta-E=       -0.193770759400 Rises=F Damp=F
 DIIS: error= 1.81D-02 at cycle   3 NSaved=   3.
 NSaved= 3 IEnMin= 3 EnMin= -728.200693607549     IErMin= 2 ErrMin= 1.30D-02
 ErrMax= 1.81D-02  0.00D+00 EMaxC= 1.00D-01 BMatC= 3.23D-01 BMatP= 2.49D-01
 IDIUse=2 WtCom= 0.00D+00 WtEn= 1.00D+00
 Coeff-En:   0.000D+00 0.000D+00 0.100D+01
 Coeff:      0.000D+00 0.000D+00 0.100D+01
 Gap=     0.174 Goal=   None    Shift=    0.000
 Gap=     0.174 Goal=   None    Shift=    0.000
 RMSDP=1.74D-02 MaxDP=2.17D+00 DE=-1.94D-01 OVMax= 3.87D-01

 Cycle   4  Pass 1  IDiag  1:
 RMSU=  8.88D-03    CP:  1.15D+00  9.48D-01 -2.71D-01
 E= -727.874827117369     Delta-E=        0.325866490180 Rises=F Damp=F
 DIIS: error= 4.40D-02 at cycle   4 NSaved=   4.
 NSaved= 4 IEnMin= 3 EnMin= -728.200693607549     IErMin= 2 ErrMin= 1.30D-02
 ErrMax= 4.40D-02  0.00D+00 EMaxC= 1.00D-01 BMatC= 1.84D+00 BMatP= 2.49D-01
 IDIUse=2 WtCom= 0.00D+00 WtEn= 1.00D+00
 Coeff-En:   0.000D+00 0.000D+00 0.797D+00 0.203D+00
 Coeff:      0.000D+00 0.000D+00 0.797D+00 0.203D+00
 Gap=     0.154 Goal=   None    Shift=    0.000
 Gap=     0.154 Goal=   None    Shift=    0.000
 RMSDP=1.16D-02 MaxDP=2.14D+00 DE= 3.26D-01 OVMax= 1.71D-01

 Cycle   5  Pass 1  IDiag  1:
 RMSU=  3.17D-03    CP:  1.04D+00  6.79D-01  6.58D-01  5.20D-01
 E= -728.240332195215     Delta-E=       -0.365505077846 Rises=F Damp=F
 DIIS: error= 1.22D-02 at cycle   5 NSaved=   5.
 NSaved= 5 IEnMin= 5 EnMin= -728.240332195215     IErMin= 5 ErrMin= 1.22D-02
 ErrMax= 1.22D-02  0.00D+00 EMaxC= 1.00D-01 BMatC= 1.38D-01 BMatP= 2.49D-01
 IDIUse=3 WtCom= 8.78D-01 WtEn= 1.22D-01
 Coeff-Com: -0.651D-03 0.298D-01 0.327D+00-0.692D-01 0.713D+00
 Coeff-En:   0.000D+00 0.000D+00 0.343D+00 0.000D+00 0.657D+00
 Coeff:     -0.571D-03 0.262D-01 0.329D+00-0.607D-01 0.706D+00
 Gap=     0.184 Goal=   None    Shift=    0.000
 Gap=     0.184 Goal=   None    Shift=    0.000
 RMSDP=3.88D-03 MaxDP=4.04D-01 DE=-3.66D-01 OVMax= 6.24D-02

 Cycle   6  Pass 1  IDiag  1:
 RMSU=  5.98D-04    CP:  1.00D+00  5.89D-01  8.08D-01  2.94D-01  7.18D-01
 E= -728.269332446762     Delta-E=       -0.029000251547 Rises=F Damp=F
 DIIS: error= 1.06D-03 at cycle   6 NSaved=   6.
 NSaved= 6 IEnMin= 6 EnMin= -728.269332446762     IErMin= 6 ErrMin= 1.06D-03
 ErrMax= 1.06D-03  0.00D+00 EMaxC= 1.00D-01 BMatC= 1.90D-03 BMatP= 1.38D-01
 IDIUse=3 WtCom= 9.89D-01 WtEn= 1.06D-02
 Coeff-Com: -0.357D-02 0.194D-01 0.160D+00-0.619D-01 0.450D+00 0.435D+00
 Coeff-En:   0.000D+00 0.000D+00 0.000D+00 0.000D+00 0.000D+00 0.100D+01
 Coeff:     -0.353D-02 0.192D-01 0.159D+00-0.613D-01 0.446D+00 0.441D+00
 Gap=     0.167 Goal=   None    Shift=    0.000
 Gap=     0.167 Goal=   None    Shift=    0.000
 RMSDP=3.53D-04 MaxDP=3.01D-02 DE=-2.90D-02 OVMax= 6.39D-03

 Cycle   7  Pass 1  IDiag  1:
 RMSU=  1.65D-04    CP:  1.00D+00  5.95D-01  8.12D-01  3.05D-01  7.70D-01
                    CP:  8.11D-01
 E= -728.269732602859     Delta-E=       -0.000400156097 Rises=F Damp=F
 DIIS: error= 3.40D-04 at cycle   7 NSaved=   7.
 NSaved= 7 IEnMin= 7 EnMin= -728.269732602859     IErMin= 7 ErrMin= 3.40D-04
 ErrMax= 3.40D-04  0.00D+00 EMaxC= 1.00D-01 BMatC= 1.07D-04 BMatP= 1.90D-03
 IDIUse=3 WtCom= 9.97D-01 WtEn= 3.40D-03
 Coeff-Com: -0.744D-03 0.419D-02 0.455D-01-0.196D-01 0.124D+00 0.177D+00
 Coeff-Com:  0.670D+00
 Coeff-En:   0.000D+00 0.000D+00 0.000D+00 0.000D+00 0.000D+00 0.000D+00
 Coeff-En:   0.100D+01
 Coeff:     -0.741D-03 0.418D-02 0.454D-01-0.196D-01 0.123D+00 0.176D+00
 Coeff:      0.671D+00
 Gap=     0.167 Goal=   None    Shift=    0.000
 Gap=     0.167 Goal=   None    Shift=    0.000
 RMSDP=1.42D-04 MaxDP=1.09D-02 DE=-4.00D-04 OVMax= 2.13D-03

 Cycle   8  Pass 1  IDiag  1:
 RMSU=  7.63D-05    CP:  1.01D+00  5.98D-01  8.19D-01  3.03D-01  7.76D-01
                    CP:  7.77D-01  9.19D-01
 E= -728.269750585340     Delta-E=       -0.000017982481 Rises=F Damp=F
 DIIS: error= 1.21D-04 at cycle   8 NSaved=   8.
 NSaved= 8 IEnMin= 8 EnMin= -728.269750585340     IErMin= 8 ErrMin= 1.21D-04
 ErrMax= 1.21D-04  0.00D+00 EMaxC= 1.00D-01 BMatC= 2.31D-05 BMatP= 1.07D-04
 IDIUse=3 WtCom= 9.99D-01 WtEn= 1.21D-03
 Coeff-Com:  0.376D-03-0.110D-02 0.699D-02-0.281D-02 0.114D-01 0.435D-01
 Coeff-Com:  0.421D+00 0.520D+00
 Coeff-En:   0.000D+00 0.000D+00 0.000D+00 0.000D+00 0.000D+00 0.000D+00
 Coeff-En:   0.668D-01 0.933D+00
 Coeff:      0.376D-03-0.110D-02 0.698D-02-0.280D-02 0.114D-01 0.435D-01
 Coeff:      0.421D+00 0.521D+00
 Gap=     0.167 Goal=   None    Shift=    0.000
 Gap=     0.167 Goal=   None    Shift=    0.000
 RMSDP=8.80D-05 MaxDP=1.01D-02 DE=-1.80D-05 OVMax= 8.14D-04

 Cycle   9  Pass 1  IDiag  1:
 RMSU=  1.44D-05    CP:  1.00D+00  5.95D-01  8.18D-01  3.00D-01  7.69D-01
                    CP:  7.99D-01  9.74D-01  7.63D-01
 E= -728.269756290700     Delta-E=       -0.000005705359 Rises=F Damp=F
 DIIS: error= 1.18D-05 at cycle   9 NSaved=   9.
 NSaved= 9 IEnMin= 9 EnMin= -728.269756290700     IErMin= 9 ErrMin= 1.18D-05
 ErrMax= 1.18D-05  0.00D+00 EMaxC= 1.00D-01 BMatC= 4.07D-07 BMatP= 2.31D-05
 IDIUse=1 WtCom= 1.00D+00 WtEn= 0.00D+00
 Coeff-Com:  0.213D-03-0.679D-03 0.124D-02-0.435D-03-0.180D-03 0.135D-01
 Coeff-Com:  0.163D+00 0.231D+00 0.592D+00
 Coeff:      0.213D-03-0.679D-03 0.124D-02-0.435D-03-0.180D-03 0.135D-01
 Coeff:      0.163D+00 0.231D+00 0.592D+00
 Gap=     0.167 Goal=   None    Shift=    0.000
 Gap=     0.167 Goal=   None    Shift=    0.000
 RMSDP=8.52D-06 MaxDP=5.84D-04 DE=-5.71D-06 OVMax= 1.40D-04

 Cycle  10  Pass 1  IDiag  1:
 RMSU=  6.44D-06    CP:  1.00D+00  5.95D-01  8.19D-01  3.00D-01  7.68D-01
                    CP:  8.00D-01  9.78D-01  7.77D-01  1.01D+00
 E= -728.269756366148     Delta-E=       -0.000000075448 Rises=F Damp=F
 DIIS: error= 6.71D-06 at cycle  10 NSaved=  10.
 NSaved=10 IEnMin=10 EnMin= -728.269756366148     IErMin=10 ErrMin= 6.71D-06
 ErrMax= 6.71D-06  0.00D+00 EMaxC= 1.00D-01 BMatC= 9.99D-08 BMatP= 4.07D-07
 IDIUse=1 WtCom= 1.00D+00 WtEn= 0.00D+00
 Coeff-Com:  0.496D-04-0.153D-03-0.343D-03 0.114D-03-0.147D-02 0.190D-02
 Coeff-Com:  0.258D-01 0.457D-01 0.346D+00 0.582D+00
 Coeff:      0.496D-04-0.153D-03-0.343D-03 0.114D-03-0.147D-02 0.190D-02
 Coeff:      0.258D-01 0.457D-01 0.346D+00 0.582D+00
 Gap=     0.167 Goal=   None    Shift=    0.000
 Gap=     0.167 Goal=   None    Shift=    0.000
 RMSDP=3.76D-06 MaxDP=3.74D-04 DE=-7.54D-08 OVMax= 4.72D-05

 Cycle  11  Pass 1  IDiag  1:
 RMSU=  2.15D-06    CP:  1.00D+00  5.95D-01  8.19D-01  3.00D-01  7.68D-01
                    CP:  7.99D-01  9.84D-01  7.84D-01  9.46D-01  8.02D-01
 E= -728.269756390943     Delta-E=       -0.000000024795 Rises=F Damp=F
 DIIS: error= 1.83D-06 at cycle  11 NSaved=  11.
 NSaved=11 IEnMin=11 EnMin= -728.269756390943     IErMin=11 ErrMin= 1.83D-06
 ErrMax= 1.83D-06  0.00D+00 EMaxC= 1.00D-01 BMatC= 4.63D-09 BMatP= 9.99D-08
 IDIUse=1 WtCom= 1.00D+00 WtEn= 0.00D+00
 Coeff-Com:  0.479D-05-0.155D-04-0.342D-03 0.112D-03-0.902D-03 0.997D-04
 Coeff-Com:  0.142D-02 0.600D-02 0.123D+00 0.255D+00 0.616D+00
 Coeff:      0.479D-05-0.155D-04-0.342D-03 0.112D-03-0.902D-03 0.997D-04
 Coeff:      0.142D-02 0.600D-02 0.123D+00 0.255D+00 0.616D+00
 Gap=     0.167 Goal=   None    Shift=    0.000
 Gap=     0.167 Goal=   None    Shift=    0.000
 RMSDP=9.35D-07 MaxDP=8.05D-05 DE=-2.48D-08 OVMax= 7.81D-06

 Cycle  12  Pass 1  IDiag  1:
 RMSU=  3.50D-07    CP:  1.00D+00  5.95D-01  8.19D-01  3.00D-01  7.68D-01
                    CP:  7.99D-01  9.83D-01  7.85D-01  9.65D-01  8.44D-01
                    CP:  8.32D-01
 E= -728.269756391805     Delta-E=       -0.000000000861 Rises=F Damp=F
 DIIS: error= 8.17D-07 at cycle  12 NSaved=  12.
 NSaved=12 IEnMin=12 EnMin= -728.269756391805     IErMin=12 ErrMin= 8.17D-07
 ErrMax= 8.17D-07  0.00D+00 EMaxC= 1.00D-01 BMatC= 7.71D-10 BMatP= 4.63D-09
 IDIUse=1 WtCom= 1.00D+00 WtEn= 0.00D+00
 Coeff-Com: -0.706D-05 0.146D-04-0.113D-03 0.346D-04-0.200D-03 0.174D-04
 Coeff-Com: -0.226D-02-0.296D-02 0.176D-01 0.501D-01 0.295D+00 0.643D+00
 Coeff:     -0.706D-05 0.146D-04-0.113D-03 0.346D-04-0.200D-03 0.174D-04
 Coeff:     -0.226D-02-0.296D-02 0.176D-01 0.501D-01 0.295D+00 0.643D+00
 Gap=     0.167 Goal=   None    Shift=    0.000
 Gap=     0.167 Goal=   None    Shift=    0.000
 RMSDP=4.58D-07 MaxDP=4.10D-05 DE=-8.61D-10 OVMax= 4.52D-06

 Cycle  13  Pass 1  IDiag  1:
 RMSU=  1.84D-07    CP:  1.00D+00  5.95D-01  8.19D-01  3.00D-01  7.68D-01
                    CP:  7.99D-01  9.83D-01  7.85D-01  9.68D-01  8.19D-01
                    CP:  8.33D-01  7.34D-01
 E= -728.269756391973     Delta-E=       -0.000000000169 Rises=F Damp=F
 DIIS: error= 1.66D-07 at cycle  13 NSaved=  13.
 NSaved=13 IEnMin=13 EnMin= -728.269756391973     IErMin=13 ErrMin= 1.66D-07
 ErrMax= 1.66D-07  0.00D+00 EMaxC= 1.00D-01 BMatC= 5.45D-11 BMatP= 7.71D-10
 IDIUse=1 WtCom= 1.00D+00 WtEn= 0.00D+00
 Coeff-Com: -0.416D-05 0.798D-05-0.180D-04 0.467D-05-0.171D-05 0.412D-04
 Coeff-Com: -0.966D-03-0.174D-02-0.281D-02-0.147D-02 0.682D-01 0.297D+00
 Coeff-Com:  0.641D+00
 Coeff:     -0.416D-05 0.798D-05-0.180D-04 0.467D-05-0.171D-05 0.412D-04
 Coeff:     -0.966D-03-0.174D-02-0.281D-02-0.147D-02 0.682D-01 0.297D+00
 Coeff:      0.641D+00
 Gap=     0.167 Goal=   None    Shift=    0.000
 Gap=     0.167 Goal=   None    Shift=    0.000
 RMSDP=7.77D-08 MaxDP=3.37D-06 DE=-1.69D-10 OVMax= 1.40D-06

 Cycle  14  Pass 1  IDiag  1:
 RMSU=  4.10D-08    CP:  1.00D+00  5.95D-01  8.19D-01  3.00D-01  7.68D-01
                    CP:  7.99D-01  9.83D-01  7.85D-01  9.68D-01  8.26D-01
                    CP:  8.41D-01  7.73D-01  9.07D-01
 E= -728.269756391974     Delta-E=       -0.000000000001 Rises=F Damp=F
 DIIS: error= 7.25D-08 at cycle  14 NSaved=  14.
 NSaved=14 IEnMin=14 EnMin= -728.269756391974     IErMin=14 ErrMin= 7.25D-08
 ErrMax= 7.25D-08  0.00D+00 EMaxC= 1.00D-01 BMatC= 8.79D-12 BMatP= 5.45D-11
 IDIUse=1 WtCom= 1.00D+00 WtEn= 0.00D+00
 Coeff-Com: -0.157D-05 0.312D-05-0.481D-06-0.254D-06 0.116D-04 0.113D-04
 Coeff-Com: -0.271D-03-0.601D-03-0.348D-02-0.681D-02-0.819D-04 0.928D-01
 Coeff-Com:  0.376D+00 0.543D+00
 Coeff:     -0.157D-05 0.312D-05-0.481D-06-0.254D-06 0.116D-04 0.113D-04
 Coeff:     -0.271D-03-0.601D-03-0.348D-02-0.681D-02-0.819D-04 0.928D-01
 Coeff:      0.376D+00 0.543D+00
 Gap=     0.167 Goal=   None    Shift=    0.000
 Gap=     0.167 Goal=   None    Shift=    0.000
 RMSDP=4.00D-08 MaxDP=4.16D-06 DE=-9.09D-13 OVMax= 5.88D-07

 Cycle  15  Pass 1  IDiag  1:
 RMSU=  1.18D-08    CP:  1.00D+00  5.95D-01  8.19D-01  3.00D-01  7.68D-01
                    CP:  7.99D-01  9.83D-01  7.85D-01  9.67D-01  8.26D-01
                    CP:  8.44D-01  7.83D-01  8.97D-01  8.68D-01
 E= -728.269756391980     Delta-E=       -0.000000000006 Rises=F Damp=F
 DIIS: error= 1.69D-08 at cycle  15 NSaved=  15.
 NSaved=15 IEnMin=15 EnMin= -728.269756391980     IErMin=15 ErrMin= 1.69D-08
 ErrMax= 1.69D-08  0.00D+00 EMaxC= 1.00D-01 BMatC= 5.41D-13 BMatP= 8.79D-12
 IDIUse=1 WtCom= 1.00D+00 WtEn= 0.00D+00
 Coeff-Com: -0.468D-06 0.105D-05 0.212D-06-0.172D-06 0.329D-05-0.409D-06
 Coeff-Com: -0.689D-04-0.168D-03-0.144D-02-0.318D-02-0.543D-02 0.262D-01
 Coeff-Com:  0.142D+00 0.271D+00 0.571D+00
 Coeff:     -0.468D-06 0.105D-05 0.212D-06-0.172D-06 0.329D-05-0.409D-06
 Coeff:     -0.689D-04-0.168D-03-0.144D-02-0.318D-02-0.543D-02 0.262D-01
 Coeff:      0.142D+00 0.271D+00 0.571D+00
 Gap=     0.167 Goal=   None    Shift=    0.000
 Gap=     0.167 Goal=   None    Shift=    0.000
 RMSDP=9.10D-09 MaxDP=6.99D-07 DE=-5.91D-12 OVMax= 1.60D-07

 Error on total polarization charges =  0.01840
 SCF Done:  E(UB3LYP) =  -728.269756392     A.U. after   15 cycles
            NFock= 15  Conv=0.91D-08     -V/T= 2.0042
 <Sx>= 0.0000 <Sy>= 0.0000 <Sz>= 0.0000 <S**2>=-0.0000 S=-0.0000
 <L.S>=  0.00000000000    
 KE= 7.252163827380D+02 PE=-3.823518900559D+03 EE= 1.305915648890D+03
 Annihilation of the first spin contaminant:
 S**2 before annihilation    -0.0000,   after     0.0000
 Leave Link  502 at Sun Feb 11 15:07:14 2024, MaxMem=  4026531840 cpu:            2111.5 elap:             287.9
 (Enter /sysapps/ubuntu-applications/gaussian/Gaussian/AVX2/g16/l601.exe)
 Copying SCF densities to generalized density rwf, IOpCl= 1 IROHF=0.

 **********************************************************************

            Population analysis using the SCF density.

 **********************************************************************

 Alpha  occ. eigenvalues --  -19.21264 -19.10880 -10.28065 -10.26878 -10.26711
 Alpha  occ. eigenvalues --  -10.20907 -10.20181 -10.19862 -10.19587 -10.19545
 Alpha  occ. eigenvalues --  -10.19465 -10.19286 -10.19086 -10.19078 -10.18941
 Alpha  occ. eigenvalues --  -10.18907 -10.18902  -1.13431  -1.04386  -0.89013
 Alpha  occ. eigenvalues --   -0.87779  -0.83001  -0.79623  -0.77313  -0.76406
 Alpha  occ. eigenvalues --   -0.75793  -0.68311  -0.66409  -0.62635  -0.61962
 Alpha  occ. eigenvalues --   -0.60739  -0.56721  -0.55070  -0.54464  -0.50785
 Alpha  occ. eigenvalues --   -0.48937  -0.48768  -0.47875  -0.46635  -0.45631
 Alpha  occ. eigenvalues --   -0.45040  -0.44382  -0.43986  -0.43116  -0.41251
 Alpha  occ. eigenvalues --   -0.40528  -0.39577  -0.38489  -0.37573  -0.37157
 Alpha  occ. eigenvalues --   -0.36648  -0.35691  -0.31057  -0.27938  -0.27419
 Alpha  occ. eigenvalues --   -0.26932  -0.26195  -0.25194
 Alpha virt. eigenvalues --   -0.08526  -0.05019  -0.02991  -0.02452  -0.00808
 Alpha virt. eigenvalues --    0.00016   0.00393   0.00852   0.01428   0.01875
 Alpha virt. eigenvalues --    0.03275   0.03389   0.03537   0.03762   0.04758
 Alpha virt. eigenvalues --    0.05377   0.05521   0.05695   0.06392   0.07245
 Alpha virt. eigenvalues --    0.07952   0.08178   0.08390   0.08835   0.09520
 Alpha virt. eigenvalues --    0.09924   0.10613   0.10832   0.11036   0.11331
 Alpha virt. eigenvalues --    0.11649   0.11795   0.12244   0.12561   0.12674
 Alpha virt. eigenvalues --    0.12879   0.12994   0.13166   0.13723   0.13850
 Alpha virt. eigenvalues --    0.14365   0.14697   0.14758   0.15388   0.15575
 Alpha virt. eigenvalues --    0.15909   0.16189   0.16525   0.17058   0.17167
 Alpha virt. eigenvalues --    0.17956   0.18463   0.19020   0.19310   0.19642
 Alpha virt. eigenvalues --    0.20094   0.20434   0.20629   0.20863   0.21270
 Alpha virt. eigenvalues --    0.21581   0.22089   0.22380   0.22476   0.23141
 Alpha virt. eigenvalues --    0.23773   0.24422   0.24689   0.25449   0.25768
 Alpha virt. eigenvalues --    0.26046   0.26533   0.26760   0.27360   0.27720
 Alpha virt. eigenvalues --    0.28238   0.28724   0.28852   0.29300   0.29568
 Alpha virt. eigenvalues --    0.29970   0.30232   0.30454   0.30957   0.31388
 Alpha virt. eigenvalues --    0.31549   0.31881   0.32099   0.32883   0.33777
 Alpha virt. eigenvalues --    0.34190   0.34909   0.35497   0.35868   0.36025
 Alpha virt. eigenvalues --    0.36605   0.36693   0.37708   0.38039   0.38316
 Alpha virt. eigenvalues --    0.39679   0.40596   0.41504   0.43345   0.45249
 Alpha virt. eigenvalues --    0.47219   0.49978   0.50397   0.51627   0.52956
 Alpha virt. eigenvalues --    0.53578   0.54020   0.54289   0.54403   0.54551
 Alpha virt. eigenvalues --    0.55481   0.56159   0.56314   0.56474   0.57004
 Alpha virt. eigenvalues --    0.58232   0.58510   0.59238   0.59739   0.60380
 Alpha virt. eigenvalues --    0.60533   0.61319   0.62662   0.63006   0.64263
 Alpha virt. eigenvalues --    0.64803   0.65483   0.66609   0.66619   0.67523
 Alpha virt. eigenvalues --    0.69693   0.70442   0.70547   0.70942   0.71586
 Alpha virt. eigenvalues --    0.72477   0.73503   0.73758   0.74763   0.75384
 Alpha virt. eigenvalues --    0.76118   0.77660   0.78414   0.79649   0.81483
 Alpha virt. eigenvalues --    0.82258   0.82799   0.83479   0.84397   0.84550
 Alpha virt. eigenvalues --    0.85384   0.85737   0.86143   0.86875   0.88176
 Alpha virt. eigenvalues --    0.88935   0.90189   0.90374   0.91076   0.91772
 Alpha virt. eigenvalues --    0.92253   0.92552   0.93988   0.95052   0.96089
 Alpha virt. eigenvalues --    0.98403   0.98697   0.99051   0.99733   1.02103
 Alpha virt. eigenvalues --    1.02500   1.02982   1.04345   1.04981   1.05572
 Alpha virt. eigenvalues --    1.06305   1.07822   1.07970   1.08538   1.09089
 Alpha virt. eigenvalues --    1.11195   1.12515   1.13392   1.14337   1.15407
 Alpha virt. eigenvalues --    1.16173   1.19270   1.21011   1.22147   1.26027
 Alpha virt. eigenvalues --    1.27866   1.31030   1.31680   1.33884   1.34255
 Alpha virt. eigenvalues --    1.34961   1.38049   1.47299   1.48498   1.49818
 Alpha virt. eigenvalues --    1.50101   1.50779   1.50907   1.51252   1.51757
 Alpha virt. eigenvalues --    1.52853   1.55425   1.55549   1.55928   1.56217
 Alpha virt. eigenvalues --    1.57386   1.58001   1.59889   1.61431   1.63122
 Alpha virt. eigenvalues --    1.63864   1.65163   1.65377   1.65934   1.67365
 Alpha virt. eigenvalues --    1.70320   1.70921   1.73342   1.73738   1.74674
 Alpha virt. eigenvalues --    1.75871   1.77182   1.77997   1.80162   1.81362
 Alpha virt. eigenvalues --    1.82760   1.83596   1.86149   1.87774   1.88592
 Alpha virt. eigenvalues --    1.89347   1.89861   1.91382   1.91620   1.92536
 Alpha virt. eigenvalues --    1.94070   1.94314   1.94960   1.95745   1.96636
 Alpha virt. eigenvalues --    1.97207   1.97547   1.98886   2.00409   2.00917
 Alpha virt. eigenvalues --    2.02642   2.02958   2.05735   2.06372   2.07493
 Alpha virt. eigenvalues --    2.09755   2.11054   2.13449   2.15526   2.23352
 Alpha virt. eigenvalues --    2.24930   2.27484   2.29166   2.31458   2.32550
 Alpha virt. eigenvalues --    2.33432   2.35213   2.39839   2.43372   2.44995
 Alpha virt. eigenvalues --    2.45138   2.46471   2.47364   2.47860   2.52215
 Alpha virt. eigenvalues --    2.58399   2.60232   2.62523   2.63724   2.65435
 Alpha virt. eigenvalues --    2.66415   2.67486   2.69575   2.70469   2.70873
 Alpha virt. eigenvalues --    2.72168   2.72306   2.72558   2.73079   2.73817
 Alpha virt. eigenvalues --    2.74641   2.76235   2.76522   2.76666   2.78737
 Alpha virt. eigenvalues --    2.79108   2.79637   2.80173   2.82044   2.83214
 Alpha virt. eigenvalues --    2.83686   2.84757   2.85807   2.87014   2.89162
 Alpha virt. eigenvalues --    2.90556   2.91980   2.93514   2.94208   2.94994
 Alpha virt. eigenvalues --    2.95268   3.01128   3.06813   3.07357   3.07621
 Alpha virt. eigenvalues --    3.10357   3.12192   3.18763   3.20711   3.21123
 Alpha virt. eigenvalues --    3.21785   3.23615   3.29398   3.33878   3.34974
 Alpha virt. eigenvalues --    3.35473   3.37371   3.40679   3.47040   3.48841
 Alpha virt. eigenvalues --    3.52731   3.53699   3.54580   3.57511   3.60751
 Alpha virt. eigenvalues --    3.61998   3.64144   3.73997   3.76187   3.81001
 Alpha virt. eigenvalues --    3.99296   4.02705   4.03447   4.05534   4.09131
 Alpha virt. eigenvalues --    4.14628   4.15760   4.17552   4.23613   4.26014
 Alpha virt. eigenvalues --    4.38504   4.59713   4.83223   4.83535   4.99057
 Alpha virt. eigenvalues --    5.06710   5.24022   5.40007   5.77027   5.93334
 Alpha virt. eigenvalues --   23.55385  23.65909  23.76617  23.91461  23.93164
 Alpha virt. eigenvalues --   23.94982  23.95213  23.95540  24.03698  24.05329
 Alpha virt. eigenvalues --   24.09112  24.09186  24.14495  24.17585  24.18074
 Alpha virt. eigenvalues --   49.95660  50.05606
  Beta  occ. eigenvalues --  -19.21264 -19.10880 -10.28065 -10.26878 -10.26711
  Beta  occ. eigenvalues --  -10.20907 -10.20181 -10.19862 -10.19587 -10.19545
  Beta  occ. eigenvalues --  -10.19465 -10.19286 -10.19086 -10.19078 -10.18941
  Beta  occ. eigenvalues --  -10.18907 -10.18902  -1.13431  -1.04386  -0.89013
  Beta  occ. eigenvalues --   -0.87779  -0.83001  -0.79623  -0.77313  -0.76406
  Beta  occ. eigenvalues --   -0.75793  -0.68311  -0.66409  -0.62635  -0.61962
  Beta  occ. eigenvalues --   -0.60739  -0.56721  -0.55070  -0.54464  -0.50785
  Beta  occ. eigenvalues --   -0.48937  -0.48768  -0.47875  -0.46635  -0.45631
  Beta  occ. eigenvalues --   -0.45040  -0.44382  -0.43986  -0.43116  -0.41251
  Beta  occ. eigenvalues --   -0.40528  -0.39577  -0.38489  -0.37573  -0.37157
  Beta  occ. eigenvalues --   -0.36648  -0.35691  -0.31057  -0.27938  -0.27419
  Beta  occ. eigenvalues --   -0.26932  -0.26195  -0.25194
  Beta virt. eigenvalues --   -0.08526  -0.05019  -0.02991  -0.02452  -0.00808
  Beta virt. eigenvalues --    0.00016   0.00393   0.00852   0.01428   0.01875
  Beta virt. eigenvalues --    0.03275   0.03389   0.03537   0.03762   0.04758
  Beta virt. eigenvalues --    0.05377   0.05521   0.05695   0.06392   0.07245
  Beta virt. eigenvalues --    0.07952   0.08178   0.08390   0.08835   0.09520
  Beta virt. eigenvalues --    0.09924   0.10613   0.10832   0.11036   0.11331
  Beta virt. eigenvalues --    0.11649   0.11795   0.12244   0.12561   0.12674
  Beta virt. eigenvalues --    0.12879   0.12994   0.13166   0.13723   0.13850
  Beta virt. eigenvalues --    0.14365   0.14697   0.14758   0.15388   0.15575
  Beta virt. eigenvalues --    0.15909   0.16189   0.16525   0.17058   0.17167
  Beta virt. eigenvalues --    0.17956   0.18463   0.19020   0.19310   0.19642
  Beta virt. eigenvalues --    0.20094   0.20434   0.20629   0.20863   0.21270
  Beta virt. eigenvalues --    0.21581   0.22089   0.22380   0.22476   0.23141
  Beta virt. eigenvalues --    0.23773   0.24422   0.24689   0.25449   0.25768
  Beta virt. eigenvalues --    0.26046   0.26533   0.26760   0.27360   0.27720
  Beta virt. eigenvalues --    0.28238   0.28724   0.28852   0.29300   0.29568
  Beta virt. eigenvalues --    0.29970   0.30232   0.30454   0.30957   0.31388
  Beta virt. eigenvalues --    0.31549   0.31881   0.32099   0.32883   0.33777
  Beta virt. eigenvalues --    0.34190   0.34909   0.35497   0.35868   0.36025
  Beta virt. eigenvalues --    0.36605   0.36693   0.37708   0.38039   0.38316
  Beta virt. eigenvalues --    0.39679   0.40596   0.41504   0.43345   0.45249
  Beta virt. eigenvalues --    0.47219   0.49978   0.50397   0.51627   0.52956
  Beta virt. eigenvalues --    0.53578   0.54020   0.54289   0.54403   0.54551
  Beta virt. eigenvalues --    0.55481   0.56159   0.56314   0.56474   0.57004
  Beta virt. eigenvalues --    0.58232   0.58510   0.59238   0.59739   0.60380
  Beta virt. eigenvalues --    0.60533   0.61319   0.62662   0.63006   0.64263
  Beta virt. eigenvalues --    0.64803   0.65483   0.66609   0.66619   0.67523
  Beta virt. eigenvalues --    0.69693   0.70442   0.70547   0.70942   0.71586
  Beta virt. eigenvalues --    0.72477   0.73503   0.73758   0.74763   0.75384
  Beta virt. eigenvalues --    0.76118   0.77660   0.78414   0.79649   0.81483
  Beta virt. eigenvalues --    0.82258   0.82799   0.83479   0.84397   0.84550
  Beta virt. eigenvalues --    0.85384   0.85737   0.86143   0.86875   0.88176
  Beta virt. eigenvalues --    0.88935   0.90189   0.90374   0.91076   0.91772
  Beta virt. eigenvalues --    0.92253   0.92552   0.93988   0.95052   0.96089
  Beta virt. eigenvalues --    0.98403   0.98697   0.99051   0.99733   1.02103
  Beta virt. eigenvalues --    1.02500   1.02982   1.04345   1.04981   1.05572
  Beta virt. eigenvalues --    1.06305   1.07822   1.07970   1.08538   1.09089
  Beta virt. eigenvalues --    1.11195   1.12515   1.13392   1.14337   1.15407
  Beta virt. eigenvalues --    1.16173   1.19270   1.21011   1.22147   1.26027
  Beta virt. eigenvalues --    1.27866   1.31030   1.31680   1.33884   1.34255
  Beta virt. eigenvalues --    1.34961   1.38049   1.47299   1.48498   1.49818
  Beta virt. eigenvalues --    1.50101   1.50779   1.50907   1.51252   1.51757
  Beta virt. eigenvalues --    1.52853   1.55425   1.55549   1.55928   1.56217
  Beta virt. eigenvalues --    1.57386   1.58001   1.59889   1.61431   1.63122
  Beta virt. eigenvalues --    1.63864   1.65163   1.65377   1.65934   1.67365
  Beta virt. eigenvalues --    1.70320   1.70921   1.73342   1.73738   1.74674
  Beta virt. eigenvalues --    1.75871   1.77182   1.77997   1.80162   1.81362
  Beta virt. eigenvalues --    1.82760   1.83596   1.86149   1.87774   1.88592
  Beta virt. eigenvalues --    1.89347   1.89861   1.91382   1.91620   1.92536
  Beta virt. eigenvalues --    1.94070   1.94314   1.94960   1.95745   1.96636
  Beta virt. eigenvalues --    1.97207   1.97547   1.98886   2.00409   2.00917
  Beta virt. eigenvalues --    2.02642   2.02958   2.05735   2.06372   2.07493
  Beta virt. eigenvalues --    2.09755   2.11054   2.13449   2.15526   2.23352
  Beta virt. eigenvalues --    2.24930   2.27484   2.29166   2.31458   2.32550
  Beta virt. eigenvalues --    2.33432   2.35213   2.39839   2.43372   2.44995
  Beta virt. eigenvalues --    2.45138   2.46471   2.47364   2.47860   2.52215
  Beta virt. eigenvalues --    2.58399   2.60232   2.62523   2.63724   2.65435
  Beta virt. eigenvalues --    2.66415   2.67486   2.69575   2.70469   2.70873
  Beta virt. eigenvalues --    2.72168   2.72306   2.72558   2.73079   2.73817
  Beta virt. eigenvalues --    2.74641   2.76235   2.76522   2.76666   2.78737
  Beta virt. eigenvalues --    2.79108   2.79637   2.80173   2.82044   2.83214
  Beta virt. eigenvalues --    2.83686   2.84757   2.85807   2.87014   2.89162
  Beta virt. eigenvalues --    2.90556   2.91980   2.93514   2.94208   2.94994
  Beta virt. eigenvalues --    2.95268   3.01128   3.06813   3.07357   3.07621
  Beta virt. eigenvalues --    3.10357   3.12192   3.18763   3.20711   3.21123
  Beta virt. eigenvalues --    3.21785   3.23615   3.29398   3.33878   3.34974
  Beta virt. eigenvalues --    3.35473   3.37371   3.40679   3.47040   3.48841
  Beta virt. eigenvalues --    3.52731   3.53699   3.54580   3.57511   3.60751
  Beta virt. eigenvalues --    3.61998   3.64144   3.73997   3.76187   3.81001
  Beta virt. eigenvalues --    3.99296   4.02705   4.03447   4.05534   4.09131
  Beta virt. eigenvalues --    4.14628   4.15760   4.17552   4.23613   4.26014
  Beta virt. eigenvalues --    4.38504   4.59713   4.83223   4.83535   4.99057
  Beta virt. eigenvalues --    5.06710   5.24022   5.40007   5.77027   5.93334
  Beta virt. eigenvalues --   23.55385  23.65909  23.76617  23.91461  23.93164
  Beta virt. eigenvalues --   23.94982  23.95213  23.95540  24.03698  24.05329
  Beta virt. eigenvalues --   24.09112  24.09186  24.14495  24.17585  24.18074
  Beta virt. eigenvalues --   49.95660  50.05606
          Condensed to atoms (all electrons):
               1          2          3          4          5          6
     1  O    8.319778   0.151154  -0.025148  -0.009458  -0.001551  -0.291666
     2  C    0.151154  13.602456  -1.362596  -0.721414  -0.226091   4.145405
     3  C   -0.025148  -1.362596  11.368719  -1.610495   0.049707  -5.065233
     4  C   -0.009458  -0.721414  -1.610495  11.109148   0.063060   1.619639
     5  O   -0.001551  -0.226091   0.049707   0.063060   8.338304  -0.283981
     6  C   -0.291666   4.145405  -5.065233   1.619639  -0.283981  20.375653
     7  C   -0.020052   0.675810  -0.771807  -1.241584  -0.386258  -0.086767
     8  C   -0.020380   0.688282  -0.124190  -0.150949  -0.065855   0.362588
     9  C    0.066963  -0.596620   0.097087   0.126566   0.078752   0.020529
    10  C    0.101869  -0.448874   0.861598  -1.900393   0.074101  -4.523666
    11  C    0.146871  -8.372131   2.484550   0.116074   0.490393  -9.112267
    12  C   -0.008629   0.117622  -0.087373  -2.238760  -0.172625   0.655669
    13  C    0.016429  -0.767098   0.164421   0.189927   0.038529   1.075470
    14  C    0.000405  -0.016472  -0.130541   0.079355  -0.018800  -0.017640
    15  C   -0.000192  -0.026127   0.003221  -0.011003   0.006963  -0.042459
    16  C    0.000017  -0.063156   0.068192  -0.272727   0.058970  -0.166791
    17  C   -0.009861   0.585989  -0.414487   0.752735  -0.065345  -1.233470
    18  H   -0.018974   0.074328   0.534527  -0.164360   0.010678  -0.066565
    19  H    0.000639  -0.031264  -0.000402  -0.005652  -0.005878  -0.121592
    20  H   -0.000362  -0.001140  -0.001504  -0.004935  -0.002885   0.057267
    21  H    0.002561  -0.010588   0.009168  -0.000431   0.002279  -0.023082
    22  H   -0.005748   0.037251  -0.031653   0.000163  -0.004414   0.089913
    23  H    0.000442  -0.036410  -0.009723   0.011024  -0.001424   0.018081
    24  H    0.000019   0.003508  -0.001247  -0.000135  -0.000117   0.002450
    25  H   -0.000004  -0.000572  -0.003831  -0.003764   0.000297   0.000793
    26  H    0.000003  -0.000091   0.000430  -0.002250   0.000198   0.001630
    27  H   -0.000032   0.020706  -0.015890   0.021082  -0.014502   0.007665
               7          8          9         10         11         12
     1  O   -0.020052  -0.020380   0.066963   0.101869   0.146871  -0.008629
     2  C    0.675810   0.688282  -0.596620  -0.448874  -8.372131   0.117622
     3  C   -0.771807  -0.124190   0.097087   0.861598   2.484550  -0.087373
     4  C   -1.241584  -0.150949   0.126566  -1.900393   0.116074  -2.238760
     5  O   -0.386258  -0.065855   0.078752   0.074101   0.490393  -0.172625
     6  C   -0.086767   0.362588   0.020529  -4.523666  -9.112267   0.655669
     7  C    9.111404   0.825563  -1.154821   2.358857  -3.798758   0.584871
     8  C    0.825563   6.339546  -0.163033  -0.206119  -1.285675   0.009129
     9  C   -1.154821  -0.163033   7.060924  -0.203458   0.573600  -0.054440
    10  C    2.358857  -0.206119  -0.203458  10.859705  -1.926843   0.423841
    11  C   -3.798758  -1.285675   0.573600  -1.926843  25.168135  -0.995780
    12  C    0.584871   0.009129  -0.054440   0.423841  -0.995780  12.511129
    13  C    0.102248   0.011717   0.003498  -0.172211  -0.145861  -3.020234
    14  C   -0.020399  -0.001084   0.000436  -0.003365   0.011297  -0.264395
    15  C   -0.008365  -0.000734   0.000082  -0.001191   0.006406  -0.186739
    16  C   -0.038470  -0.006785   0.005245   0.002935   0.149223  -0.935757
    17  C   -0.108923  -0.056768  -0.005298   0.163648   0.258601  -1.363511
    18  H   -0.015023   0.002726   0.005330   0.017551  -0.079929   0.055940
    19  H    0.429582  -0.070558   0.016224   0.048264   0.050073   0.006403
    20  H   -0.115729   0.432063  -0.004380  -0.033611   0.015560  -0.000555
    21  H   -0.009005  -0.075106   0.462656  -0.050047   0.018237   0.001184
    22  H    0.037942   0.021140  -0.104245   0.390848  -0.092632   0.004870
    23  H    0.006158  -0.001112  -0.000040  -0.003230   0.005909  -0.217853
    24  H    0.000380   0.000037  -0.000036   0.000422  -0.001447   0.037755
    25  H    0.000094  -0.000046  -0.000001   0.000075  -0.000141   0.021525
    26  H   -0.000013  -0.000025  -0.000096   0.000292   0.000787   0.019230
    27  H    0.026919   0.002895  -0.000166   0.002504  -0.046905  -0.030579
              13         14         15         16         17         18
     1  O    0.016429   0.000405  -0.000192   0.000017  -0.009861  -0.018974
     2  C   -0.767098  -0.016472  -0.026127  -0.063156   0.585989   0.074328
     3  C    0.164421  -0.130541   0.003221   0.068192  -0.414487   0.534527
     4  C    0.189927   0.079355  -0.011003  -0.272727   0.752735  -0.164360
     5  O    0.038529  -0.018800   0.006963   0.058970  -0.065345   0.010678
     6  C    1.075470  -0.017640  -0.042459  -0.166791  -1.233470  -0.066565
     7  C    0.102248  -0.020399  -0.008365  -0.038470  -0.108923  -0.015023
     8  C    0.011717  -0.001084  -0.000734  -0.006785  -0.056768   0.002726
     9  C    0.003498   0.000436   0.000082   0.005245  -0.005298   0.005330
    10  C   -0.172211  -0.003365  -0.001191   0.002935   0.163648   0.017551
    11  C   -0.145861   0.011297   0.006406   0.149223   0.258601  -0.079929
    12  C   -3.020234  -0.264395  -0.186739  -0.935757  -1.363511   0.055940
    13  C   19.278388  -1.549949  -0.506357   1.785900 -10.485888  -0.112002
    14  C   -1.549949   6.522957   0.384241  -0.636660   1.740551  -0.004445
    15  C   -0.506357   0.384241   6.283888   0.611040  -0.619274  -0.000622
    16  C    1.785900  -0.636660   0.611040   6.992538  -1.513264  -0.009248
    17  C  -10.485888   1.740551  -0.619274  -1.513264  18.173362   0.061609
    18  H   -0.112002  -0.004445  -0.000622  -0.009248   0.061609   0.503595
    19  H   -0.002432  -0.000548   0.000723   0.002128   0.010374  -0.000381
    20  H    0.000187   0.000011  -0.000016  -0.000082  -0.000775  -0.000015
    21  H    0.000334  -0.000011   0.000005   0.000057  -0.000421  -0.000040
    22  H    0.001151  -0.000042  -0.000032  -0.000232  -0.001522  -0.000972
    23  H    0.763028  -0.066062   0.015880   0.050145  -0.192463  -0.006530
    24  H   -0.141209   0.439580  -0.068936  -0.010625   0.063198   0.000423
    25  H   -0.026591  -0.059689   0.508066  -0.066954  -0.032595  -0.000186
    26  H    0.030468   0.001479  -0.081785   0.412577  -0.063049   0.000082
    27  H   -0.031984   0.022464  -0.008840  -0.107033   0.493412  -0.000494
              19         20         21         22         23         24
     1  O    0.000639  -0.000362   0.002561  -0.005748   0.000442   0.000019
     2  C   -0.031264  -0.001140  -0.010588   0.037251  -0.036410   0.003508
     3  C   -0.000402  -0.001504   0.009168  -0.031653  -0.009723  -0.001247
     4  C   -0.005652  -0.004935  -0.000431   0.000163   0.011024  -0.000135
     5  O   -0.005878  -0.002885   0.002279  -0.004414  -0.001424  -0.000117
     6  C   -0.121592   0.057267  -0.023082   0.089913   0.018081   0.002450
     7  C    0.429582  -0.115729  -0.009005   0.037942   0.006158   0.000380
     8  C   -0.070558   0.432063  -0.075106   0.021140  -0.001112   0.000037
     9  C    0.016224  -0.004380   0.462656  -0.104245  -0.000040  -0.000036
    10  C    0.048264  -0.033611  -0.050047   0.390848  -0.003230   0.000422
    11  C    0.050073   0.015560   0.018237  -0.092632   0.005909  -0.001447
    12  C    0.006403  -0.000555   0.001184   0.004870  -0.217853   0.037755
    13  C   -0.002432   0.000187   0.000334   0.001151   0.763028  -0.141209
    14  C   -0.000548   0.000011  -0.000011  -0.000042  -0.066062   0.439580
    15  C    0.000723  -0.000016   0.000005  -0.000032   0.015880  -0.068936
    16  C    0.002128  -0.000082   0.000057  -0.000232   0.050145  -0.010625
    17  C    0.010374  -0.000775  -0.000421  -0.001522  -0.192463   0.063198
    18  H   -0.000381  -0.000015  -0.000040  -0.000972  -0.006530   0.000423
    19  H    0.480196  -0.013142   0.001451   0.000646   0.000102  -0.000006
    20  H   -0.013142   0.475632  -0.010761   0.000166  -0.000013   0.000001
    21  H    0.001451  -0.010761   0.491635  -0.011737   0.000021  -0.000001
    22  H    0.000646   0.000166  -0.011737   0.482517   0.000114   0.000005
    23  H    0.000102  -0.000013   0.000021   0.000114   0.527686  -0.016041
    24  H   -0.000006   0.000001  -0.000001   0.000005  -0.016041   0.493338
    25  H    0.000024  -0.000000   0.000000   0.000000   0.000397  -0.014895
    26  H    0.000125   0.000004  -0.000001   0.000004   0.000601   0.000688
    27  H   -0.001851  -0.000035  -0.000045   0.000050  -0.001108   0.000689
              25         26         27
     1  O   -0.000004   0.000003  -0.000032
     2  C   -0.000572  -0.000091   0.020706
     3  C   -0.003831   0.000430  -0.015890
     4  C   -0.003764  -0.002250   0.021082
     5  O    0.000297   0.000198  -0.014502
     6  C    0.000793   0.001630   0.007665
     7  C    0.000094  -0.000013   0.026919
     8  C   -0.000046  -0.000025   0.002895
     9  C   -0.000001  -0.000096  -0.000166
    10  C    0.000075   0.000292   0.002504
    11  C   -0.000141   0.000787  -0.046905
    12  C    0.021525   0.019230  -0.030579
    13  C   -0.026591   0.030468  -0.031984
    14  C   -0.059689   0.001479   0.022464
    15  C    0.508066  -0.081785  -0.008840
    16  C   -0.066954   0.412577  -0.107033
    17  C   -0.032595  -0.063049   0.493412
    18  H   -0.000186   0.000082  -0.000494
    19  H    0.000024   0.000125  -0.001851
    20  H   -0.000000   0.000004  -0.000035
    21  H    0.000000  -0.000001  -0.000045
    22  H    0.000000   0.000004   0.000050
    23  H    0.000397   0.000601  -0.001108
    24  H   -0.014895   0.000688   0.000689
    25  H    0.506284  -0.015125   0.000081
    26  H   -0.015125   0.495001  -0.011900
    27  H    0.000081  -0.011900   0.495628
          Atomic-Atomic Spin Densities.
               1          2          3          4          5          6
     1  O   -0.000000   0.000000  -0.000000  -0.000000  -0.000000   0.000000
     2  C    0.000000  -0.000000   0.000000   0.000000   0.000000  -0.000000
     3  C   -0.000000   0.000000   0.000000  -0.000000  -0.000000  -0.000000
     4  C   -0.000000   0.000000  -0.000000   0.000000  -0.000000   0.000000
     5  O   -0.000000   0.000000  -0.000000  -0.000000   0.000000  -0.000000
     6  C    0.000000  -0.000000  -0.000000   0.000000  -0.000000  -0.000000
     7  C    0.000000  -0.000000   0.000000   0.000000   0.000000  -0.000000
     8  C    0.000000  -0.000000   0.000000   0.000000   0.000000  -0.000000
     9  C   -0.000000   0.000000  -0.000000  -0.000000  -0.000000   0.000000
    10  C    0.000000  -0.000000   0.000000  -0.000000   0.000000  -0.000000
    11  C   -0.000000   0.000000  -0.000000  -0.000000  -0.000000   0.000000
    12  C    0.000000  -0.000000   0.000000  -0.000000  -0.000000  -0.000000
    13  C   -0.000000   0.000000  -0.000000   0.000000  -0.000000   0.000000
    14  C   -0.000000   0.000000   0.000000  -0.000000  -0.000000  -0.000000
    15  C   -0.000000   0.000000  -0.000000   0.000000   0.000000   0.000000
    16  C   -0.000000   0.000000  -0.000000   0.000000   0.000000   0.000000
    17  C    0.000000  -0.000000   0.000000  -0.000000   0.000000  -0.000000
    18  H    0.000000  -0.000000   0.000000  -0.000000   0.000000  -0.000000
    19  H   -0.000000   0.000000  -0.000000  -0.000000  -0.000000   0.000000
    20  H    0.000000  -0.000000   0.000000   0.000000   0.000000  -0.000000
    21  H   -0.000000   0.000000  -0.000000  -0.000000  -0.000000   0.000000
    22  H    0.000000  -0.000000   0.000000   0.000000   0.000000  -0.000000
    23  H   -0.000000   0.000000  -0.000000   0.000000  -0.000000   0.000000
    24  H    0.000000  -0.000000   0.000000  -0.000000   0.000000  -0.000000
    25  H   -0.000000  -0.000000  -0.000000   0.000000  -0.000000  -0.000000
    26  H   -0.000000   0.000000  -0.000000  -0.000000  -0.000000   0.000000
    27  H    0.000000  -0.000000   0.000000   0.000000   0.000000  -0.000000
               7          8          9         10         11         12
     1  O    0.000000   0.000000  -0.000000   0.000000  -0.000000   0.000000
     2  C   -0.000000  -0.000000   0.000000  -0.000000   0.000000  -0.000000
     3  C    0.000000   0.000000  -0.000000   0.000000  -0.000000   0.000000
     4  C    0.000000   0.000000  -0.000000  -0.000000  -0.000000  -0.000000
     5  O    0.000000   0.000000  -0.000000   0.000000  -0.000000  -0.000000
     6  C   -0.000000  -0.000000   0.000000  -0.000000   0.000000  -0.000000
     7  C   -0.000000  -0.000000   0.000000  -0.000000   0.000000   0.000000
     8  C   -0.000000  -0.000000   0.000000   0.000000   0.000000   0.000000
     9  C    0.000000   0.000000   0.000000   0.000000  -0.000000  -0.000000
    10  C   -0.000000   0.000000   0.000000   0.000000   0.000000   0.000000
    11  C    0.000000   0.000000  -0.000000   0.000000  -0.000000   0.000000
    12  C    0.000000   0.000000  -0.000000   0.000000   0.000000  -0.000000
    13  C    0.000000   0.000000  -0.000000   0.000000  -0.000000   0.000000
    14  C   -0.000000   0.000000   0.000000   0.000000   0.000000   0.000000
    15  C   -0.000000  -0.000000   0.000000   0.000000   0.000000   0.000000
    16  C    0.000000   0.000000  -0.000000   0.000000  -0.000000   0.000000
    17  C   -0.000000  -0.000000   0.000000  -0.000000   0.000000  -0.000000
    18  H   -0.000000  -0.000000   0.000000   0.000000   0.000000  -0.000000
    19  H    0.000000   0.000000  -0.000000  -0.000000  -0.000000  -0.000000
    20  H    0.000000  -0.000000  -0.000000   0.000000   0.000000  -0.000000
    21  H    0.000000   0.000000  -0.000000  -0.000000  -0.000000   0.000000
    22  H   -0.000000  -0.000000   0.000000  -0.000000   0.000000  -0.000000
    23  H    0.000000   0.000000  -0.000000   0.000000  -0.000000   0.000000
    24  H   -0.000000  -0.000000   0.000000  -0.000000   0.000000  -0.000000
    25  H   -0.000000  -0.000000   0.000000  -0.000000   0.000000   0.000000
    26  H    0.000000   0.000000  -0.000000   0.000000  -0.000000   0.000000
    27  H   -0.000000  -0.000000   0.000000  -0.000000   0.000000   0.000000
              13         14         15         16         17         18
     1  O   -0.000000  -0.000000  -0.000000  -0.000000   0.000000   0.000000
     2  C    0.000000   0.000000   0.000000   0.000000  -0.000000  -0.000000
     3  C   -0.000000   0.000000  -0.000000  -0.000000   0.000000   0.000000
     4  C    0.000000  -0.000000   0.000000   0.000000  -0.000000  -0.000000
     5  O   -0.000000  -0.000000   0.000000   0.000000   0.000000   0.000000
     6  C    0.000000  -0.000000   0.000000   0.000000  -0.000000  -0.000000
     7  C    0.000000  -0.000000  -0.000000   0.000000  -0.000000  -0.000000
     8  C    0.000000   0.000000  -0.000000   0.000000  -0.000000  -0.000000
     9  C   -0.000000   0.000000   0.000000  -0.000000   0.000000   0.000000
    10  C    0.000000   0.000000   0.000000   0.000000  -0.000000   0.000000
    11  C   -0.000000   0.000000   0.000000  -0.000000   0.000000   0.000000
    12  C    0.000000   0.000000   0.000000   0.000000  -0.000000  -0.000000
[...]
 .00000025,0.00001440,-0.00002100,0.00000575,0.00001124,-0.00000363,-0.
 00000488,0.00000756,-0.00000297,-0.00000994,0.00000027,-0.00000206,-0.
 00000626,-0.00000183,0.00000479,-0.00001016,-0.00000897,0.00000158,-0.
 00002530,0.00000144,0.00000866,-0.00033538,0.00055895,-0.00057895,0.13
 848492,0.26157491,0.00001915,0.00002905,0.00010760,0.00002223,-0.00011
 791,-0.00088632,0.00001002,0.00001765,0.00012561,-0.00001133,-0.000016
 63,-0.00034535,-0.00004722,-0.00002137,0.00050078,-0.00045574,0.000800
 27,0.00792651,-0.00082812,-0.00081130,0.00440313,0.01198726,0.02048842
 ,-0.04110240,0.00214163,0.00264570,0.00378566,-0.00056201,0.00119675,0
 .00630228,-0.00007515,-0.00012481,-0.00096814,-0.00000254,-0.00001549,
 -0.00016825,0.00001641,-0.00001105,-0.00000553,0.00000385,0.00001509,0
 .00001495,-0.00000295,0.00000030,-0.00000479,-0.00000568,0.00000113,0.
 00000888,-0.00000295,0.00000154,0.00000835,-0.00000158,0.00000547,0.00
 007480,0.00017270,-0.00056687,-0.00455092,-0.01256924,-0.02306405,0.02
 843839,0.00003892,-0.00050575,0.00005582,-0.00024337,0.00129732,-0.000
 15512,-0.00031294,-0.00027222,0.00003343,0.00017471,-0.00007918,0.0000
 1815,-0.00030906,0.00000983,0.00001502,0.00082742,-0.00006515,0.000036
 86,0.00093950,0.00228790,-0.00037706,-0.00869133,-0.00163691,-0.000096
 74,-0.33766500,0.01786799,-0.00896049,-0.01253717,0.00314436,-0.000723
 56,0.00020194,-0.00319560,0.00018113,-0.00002705,-0.00000319,-0.000008
 83,-0.00001112,0.00003250,-0.00000317,-0.00000708,0.00000690,-0.000008
 12,-0.00001945,0.00000908,-0.00000166,-0.00001840,-0.00000558,0.000003
 21,-0.00001358,-0.00002340,0.00000735,-0.00010984,0.00001246,-0.000007
 05,-0.00048299,-0.00017396,0.00000327,0.00070529,0.00013007,0.00008190
 ,0.35669303,0.00015038,-0.00023716,0.00005481,-0.00099081,0.00107609,-
 0.00010991,-0.00029117,-0.00031603,-0.00004595,0.00004346,-0.00022571,
 0.00001998,0.00021192,0.00039750,-0.00014684,-0.00031149,-0.00151295,0
 .00014313,0.00178829,-0.00445441,0.00124505,0.02913327,0.00197076,0.00
 073023,0.01797761,-0.05918923,0.00296186,-0.02750419,0.00522017,-0.000
 86308,-0.00256200,-0.00391175,0.00126626,-0.00000926,0.00003542,0.0000
 0349,-0.00000332,0.00001000,0.00000295,0.00000233,0.00000551,-0.000005
 48,-0.00000755,0.00000666,-0.00000393,-0.00001192,-0.00000092,0.000002
 52,-0.00000530,-0.00001623,0.00000491,-0.00014351,0.00002401,0.0000072
 4,0.00132526,0.00005026,0.00004643,-0.00059891,0.00109463,-0.00052760,
 -0.01888254,0.05892178,-0.00002525,0.00002725,0.00021029,0.00011466,-0
 .00002618,0.00024348,0.00003257,-0.00003712,-0.00059775,0.00001436,0.0
 0000714,-0.00007074,-0.00001869,-0.00014824,-0.00098883,0.00006756,0.0
 0013713,-0.00016907,-0.00031654,0.00125974,0.00617174,-0.00353859,0.00
 003459,0.00246246,-0.00897804,0.00292961,-0.03699844,0.00272520,-0.000
 13210,0.00330930,0.00010322,0.00122657,0.00773724,-0.00001653,0.000007
 05,0.00009597,-0.00001828,0.00000751,-0.00000133,0.00001172,-0.0000084
 1,0.00000791,0.00000292,0.00001324,-0.00000496,-0.00001342,-0.00000478
 ,0.00000270,0.00001507,-0.00000688,0.00000039,0.00001426,0.00001112,0.
 00013146,-0.00016481,0.00001096,0.00018761,0.00016326,-0.00050927,-0.0
 0344507,0.00978078,-0.00415653,0.02633663,0.00204522,-0.00107628,0.000
 19553,-0.00032957,0.00254033,-0.00021917,0.00065709,-0.00054675,0.0000
 7429,0.00078236,0.00117795,-0.00010738,-0.00204399,0.00133808,-0.00021
 925,-0.00430147,-0.00213016,0.00002016,-0.00063277,-0.00035129,0.00005
 023,-0.00153832,-0.00319063,0.00014362,0.01166766,-0.01733431,0.002096
 64,-0.10874957,0.10755266,-0.01355320,-0.00982587,0.02883696,-0.003522
 22,-0.00003276,-0.00010521,0.00001199,-0.00000464,0.00001122,-0.000017
 51,-0.00002082,0.00000218,0.00001065,-0.00000866,-0.00001360,0.0000099
 0,0.00001700,-0.00000750,0.00000201,-0.00001845,0.00002365,-0.00001267
 ,0.00001242,-0.00004250,0.00000365,0.00011252,0.00008271,0.00000918,0.
 00039156,-0.00084589,0.00010754,0.00086625,0.00069051,0.00004695,0.110
 95701,-0.00113933,0.00084387,-0.00013247,-0.00072527,-0.00253782,-0.00
 015671,0.00033212,-0.00000143,0.00000515,0.00000009,0.00004020,-0.0000
 2869,-0.00022663,0.00020932,0.00003444,-0.00049822,0.00092530,0.000522
 02,-0.00057671,0.00029654,-0.00017919,-0.00361859,-0.00206532,0.001014
 89,0.01222032,-0.01629741,0.00262299,0.10764999,-0.28489137,0.02984577
 ,0.00225936,0.00279371,0.00017345,0.00001727,-0.00002802,0.00001697,-0
 .00000078,-0.00002565,0.00000056,0.00000481,-0.00000877,0.00000807,0.0
 0001583,-0.00000623,0.00000242,0.00001465,0.00000476,-0.00000136,0.000
 01897,0.00001764,-0.00000634,0.00007027,0.00002462,0.00001627,0.000098
 62,-0.00006000,-0.00006942,0.00061797,-0.00079913,0.00008169,0.0000445
 6,0.00104666,-0.00063644,-0.11658231,0.30051997,0.00024173,-0.00019518
 ,0.00009784,0.00016356,0.00000515,-0.00368280,-0.00000941,0.00000103,-
 0.00001180,0.00000533,0.00001385,-0.00015278,-0.00005139,0.00007490,0.
 00047340,-0.00018058,0.00053747,0.00595050,0.00007644,-0.00019365,-0.0
 0126284,0.00019659,0.00102373,0.00772184,-0.00117155,0.00196534,0.0044
 4333,-0.01359349,0.02987040,-0.04204343,-0.00061830,0.00067773,0.00357
 399,0.00003514,-0.00000695,0.00003464,-0.00001936,-0.00000478,0.000006
 89,0.00000323,-0.00000829,-0.00000134,0.00000331,0.00000324,-0.0000007
 4,-0.00000276,0.00000713,0.00000538,-0.00000021,0.00000474,-0.00000659
 ,-0.00001637,0.00000786,0.00016198,0.00000661,-0.00006864,-0.00067939,
 -0.00005440,0.00004558,-0.00021312,0.00012442,-0.00062428,-0.00461466,
 0.01485921,-0.03313391,0.03020683,0.00021571,-0.00036783,0.00007762,-0
 .00049982,0.00058685,-0.00028140,-0.00068001,-0.00046118,0.00033490,0.
 00034017,-0.00039618,0.00006639,0.00058272,0.00035184,-0.00012427,-0.0
 0019682,0.00006249,0.00000777,0.00007823,0.00000278,0.00000443,-0.0000
 0358,0.00003226,-0.00000586,0.00002609,-0.00001208,-0.00000037,0.00000
 712,0.00006592,0.00000637,0.00010754,-0.00004168,0.00003445,0.00968409
 ,-0.01868815,0.00942562,-0.07556861,0.05970451,-0.03027854,-0.00360356
 ,0.02760938,-0.01377963,-0.00534586,0.00077610,0.00039517,-0.00086255,
 -0.00023825,0.00009064,-0.00319177,-0.00245206,0.00179640,-0.00212404,
 0.00068902,0.00102082,-0.00000157,0.00000574,0.00000035,0.00000763,0.0
 0000446,-0.00000032,0.00001091,0.00000549,-0.00000239,0.00000045,-0.00
 000729,0.00000119,0.07960470,0.00002020,-0.00005379,-0.00002956,-0.000
 11480,0.00030302,-0.00021675,0.00063566,0.00025620,-0.00045600,0.00209
 994,-0.00160320,-0.00136827,-0.00053445,0.00000907,-0.00009571,0.00012
 267,-0.00004069,0.00003974,-0.00003153,0.00001372,0.00000801,-0.000001
 86,0.00000337,-0.00000667,-0.00000542,-0.00000567,-0.00000138,0.000010
 89,0.00004095,0.00000978,0.00002823,-0.00001248,0.00007498,0.00564521,
 -0.01212435,0.00769638,0.05978813,-0.26112639,0.11592877,0.00007723,-0
 .00255987,0.00358475,0.00145598,0.00302187,0.00242065,-0.00038218,0.00
 011769,-0.00062949,-0.00321983,0.00069699,0.00312074,0.00111074,0.0005
 5771,0.00003049,0.00000387,0.00000452,0.00000344,-0.00000421,0.0000000
 9,-0.00000182,0.00000183,0.00000244,-0.00000326,-0.00000529,-0.0000000
 7,0.00000402,-0.06707797,0.27390798,0.00004746,0.00002360,-0.00006638,
 -0.00021127,-0.00048425,-0.00000508,0.00042926,0.00086138,0.00018591,0
 .00015108,-0.00154617,-0.00261291,-0.00056638,-0.00040518,0.00004219,0
 .00021154,-0.00001834,0.00010606,-0.00006808,-0.00001600,0.00001170,0.
 00003399,-0.00002146,-0.00000718,-0.00002630,0.00004443,-0.00000764,-0
 .00004562,-0.00006031,0.00004018,-0.00009589,0.00008139,0.00000284,-0.
 00494547,0.00889086,-0.00111838,-0.02976924,0.11686259,-0.09805650,0.0
 0068779,0.00175712,0.00361967,0.00018312,0.00248938,0.00630469,-0.0000
 0421,-0.00062550,-0.00082543,0.00239069,0.00276879,0.00470812,0.000673
 47,-0.00061690,0.00038455,0.00000073,-0.00000088,0.00000508,-0.0000037
 3,-0.00000265,-0.00000016,-0.00000479,-0.00000412,-0.00000488,-0.00000
 267,0.00000350,0.00000123,0.03150869,-0.12811590,0.09128533,-0.0001943
 7,0.00023975,-0.00002680,0.00043959,-0.00016182,0.00002219,-0.00045326
 ,0.00019090,-0.00007704,0.00037653,-0.00127612,0.00057157,-0.00089092,
 0.00000428,-0.00000640,0.00015091,-0.00010853,-0.00001448,-0.00007388,
 0.00002713,-0.00000995,-0.00002058,-0.00001973,0.00000375,-0.00002122,
 -0.00001996,0.00000091,0.00002028,-0.00000391,0.00000438,-0.00006590,-
 0.00001833,-0.00000082,-0.00425079,0.00293183,-0.00061211,-0.01684889,
 -0.01979503,0.01149048,-0.19453392,-0.11992146,0.07088995,0.00977298,0
 .00717328,-0.00403598,0.00064107,0.00215753,-0.00065094,-0.00024314,0.
 00068879,-0.00042266,0.00001994,-0.00002571,0.00000036,0.00000463,-0.0
 0000293,0.00000006,-0.00001087,-0.00000268,0.00000149,-0.00000737,-0.0
 0000215,-0.00000035,-0.00000444,0.00000470,-0.00000025,0.00120567,-0.0
 0002569,-0.00029405,0.20397646,-0.00005875,0.00006077,-0.00000620,0.00
 015983,-0.00003750,-0.00000297,-0.00016089,0.00006085,-0.00000066,0.00
 039603,0.00030036,0.00006878,0.00018249,0.00000327,-0.00006582,0.00002
 260,0.00002968,-0.00001827,0.00001784,0.00000235,0.00000461,-0.0000155
 9,0.00000962,0.00000060,-0.00000537,-0.00001636,0.00000153,0.00001605,
 -0.00000331,0.00000176,-0.00002242,-0.00001983,-0.00000099,0.00218253,
 0.00200195,0.00258496,0.00782661,0.00842683,-0.00306664,-0.12045615,-0
 .16104999,0.07081373,-0.02042097,-0.01204509,0.00926137,0.00285085,-0.
 00216320,0.00463333,0.00070611,-0.00049605,-0.00034677,0.00001238,-0.0
 0000985,0.00000271,0.00000025,-0.00000076,0.00000020,0.00000035,-0.000
 00078,-0.00000091,-0.00000157,-0.00000088,-0.00000014,0.00000089,0.000
 00153,0.00000035,-0.00049901,-0.00029516,-0.00207967,0.12829853,0.1659
 2904,0.00002749,-0.00003860,-0.00000134,-0.00006813,0.00004951,0.00001
 636,0.00012034,-0.00002853,-0.00002817,-0.00011397,-0.00002786,0.00052
 473,0.00003725,-0.00001401,-0.00014665,0.00001566,-0.00003027,-0.00006
 693,-0.00000094,-0.00000088,-0.00000196,0.00000136,0.00000181,0.000009
 90,0.00000023,0.00000409,-0.00000180,-0.00000061,0.00000049,0.00000378
 ,0.00001584,-0.00000142,-0.00001230,-0.00068906,0.00256128,0.00625625,
 -0.00247777,-0.00123253,0.00422094,0.07097027,0.07119448,-0.07846720,0
 .01004933,0.00707219,-0.00068903,-0.00082508,0.00465999,0.00487912,-0.
 00055896,-0.00025704,-0.00092576,0.00001311,0.00002065,-0.00000737,0.0
 0000010,0.00000002,-0.00000116,0.00000092,0.00000054,-0.00000044,0.000
 00122,0.00000054,-0.00000028,0.00000025,-0.00000062,0.00000004,-0.0000
 8127,-0.00220247,-0.00327447,-0.07665078,-0.07963842,0.07151828,-0.000
 10021,0.00012536,-0.00001683,0.00022356,-0.00009385,0.00001848,-0.0002
 5460,0.00011797,-0.00001383,0.00029438,-0.00015564,-0.00002826,-0.0002
 6828,0.00003452,-0.00003406,0.00013043,0.00002296,-0.00000950,-0.00002
 584,0.00000078,0.00000227,-0.00000696,-0.00000530,0.00000028,-0.000012
 74,-0.00000886,-0.00000023,0.00001057,-0.00000167,0.00000397,-0.000050
 26,-0.00000480,0.00000063,0.00034368,-0.00038291,0.00011155,0.00165466
 ,0.00130946,-0.00034642,-0.00349985,-0.00039373,0.00061888,-0.31913054
 ,0.06701382,-0.01812884,-0.01598712,0.00763821,-0.00270715,-0.00092367
 ,-0.00325230,0.00210319,0.00001424,-0.00002488,-0.00000676,0.00000237,
 -0.00000021,0.00000001,-0.00000435,-0.00000199,-0.00000009,-0.00000399
 ,-0.00000122,-0.00000006,-0.00000288,0.00000263,-0.00000005,-0.0003036
 5,-0.00007515,0.00006355,0.00068109,0.00009124,-0.00029911,0.33707939,
 0.00005488,-0.00006993,-0.00000530,-0.00014871,0.00007170,-0.00001219,
 0.00017907,-0.00002670,0.00000097,-0.00004581,-0.00021714,-0.00047384,
 -0.00003530,0.00007607,-0.00002725,0.00005003,0.00001600,-0.00001092,0
 .00000137,-0.00000315,0.00001232,0.00000608,0.00000274,-0.00000018,-0.
 00000075,0.00000500,-0.00000542,-0.00000571,0.00000930,0.00001504,0.00
 000569,0.00000760,0.00000367,-0.00041405,-0.00096207,0.00003283,0.0007
 9496,-0.00282515,0.00509949,0.02717210,-0.00204960,0.00149040,0.067052
 18,-0.07204247,0.01320251,-0.02002196,0.00882885,-0.00126972,-0.002700
 27,-0.00070450,0.00418115,-0.00002477,0.00004466,0.00004744,0.00000087
 ,0.00000212,-0.00000167,0.00000017,0.00000049,-0.00000042,0.00000137,0
 .00000088,-0.00000100,-0.00000169,-0.00000101,-0.00000028,0.00127574,-
 0.00025915,0.00000652,-0.00058773,0.00016061,-0.00206119,-0.07220655,0
 .06973878,0.00003662,-0.00004520,-0.00002011,-0.00009688,-0.00000913,0
 .00000475,0.00017026,0.00008670,0.00003087,0.00010683,-0.00051105,-0.0
 0088136,-0.00016058,-0.00004306,0.00002955,0.00002686,-0.00004618,0.00
 000012,-0.00000863,0.00000815,0.00001961,-0.00000009,0.00000054,-0.000
 00250,-0.00000556,0.00000099,-0.00000420,-0.00000335,-0.00000260,0.000
 02117,-0.00000842,0.00001051,0.00000854,0.00008238,0.00026463,-0.00098
 736,-0.00010279,0.00495364,0.00475606,-0.01317398,0.00319778,0.0031885
 6,-0.01804254,0.01321967,-0.04419031,0.01096182,-0.00279150,0.00491988
 ,0.00186137,0.00405372,0.00523717,-0.00000214,-0.00004058,0.00006230,0
 .00000126,-0.00000009,-0.00000282,-0.00000106,0.00000027,-0.00000085,0
 .,-0.00000018,-0.00000233,-0.00000066,-0.00000040,-0.00000114,-0.00066
 847,0.00012354,-0.00011467,0.00001088,-0.00214029,-0.00288094,0.019035
 12,-0.01809343,0.03382426,-0.00020141,0.00019506,-0.00004850,0.0003807
 1,0.00000004,0.00009776,-0.00076798,0.00003329,-0.00000020,0.00048673,
 0.00132507,-0.00061123,-0.00011664,-0.00009425,0.00001779,0.00012519,0
 .00000529,0.00000704,-0.00003411,0.00001075,-0.00000267,-0.00001534,-0
 .00000909,-0.00000002,-0.00001544,-0.00001581,0.00000279,0.00001741,-0
 .00000848,-0.00000194,-0.00005062,-0.00002185,-0.00000683,-0.00520741,
 0.00074951,0.00019946,-0.00099018,-0.00041387,0.00019847,-0.00276479,-
 0.00261561,0.00183343,0.00967119,-0.02057882,0.01001931,-0.07733713,0.
 06299119,-0.02962144,-0.00424289,0.02736029,-0.01343220,0.00002579,-0.
 00000405,-0.00002361,0.00000102,-0.00000320,-0.00000003,-0.00000629,-0
 .00000242,0.00000020,-0.00000546,-0.00000226,0.00000013,-0.00000194,0.
 00000416,0.00000013,0.00013071,0.00004879,-0.00008072,0.00031120,-0.00
 099687,0.00049720,0.00094399,0.00052329,-0.00052868,0.07840958,0.00015
 792,-0.00017430,0.00003250,-0.00038402,0.00009213,-0.00004438,0.000434
 28,-0.00012260,-0.00002907,-0.00058756,0.00000546,0.00021296,0.0001671
 4,0.00001428,0.00002450,-0.00006999,-0.00000453,-0.00000848,0.00001602
 ,-0.00001300,0.00000103,0.00002284,0.00000007,-0.00000047,0.00001452,0
 .00002563,-0.00000082,-0.00002393,0.00000307,-0.00000271,0.00005511,0.
 00002700,-0.00000065,0.00133719,0.00296922,0.00221073,-0.00047618,0.00
 009119,-0.00059397,-0.00329694,0.00079260,0.00347963,0.00714029,-0.012
 09495,0.00755135,0.06332946,-0.26450867,0.11093844,-0.00015306,-0.0025
 3524,0.00303013,-0.00002349,0.00000893,0.00000246,-0.00000189,0.000002
 73,0.00000039,0.00000525,0.00000224,0.00000005,0.00000516,0.00000179,0
 .00000014,0.00000094,-0.00000370,-0.00000003,0.00004597,-0.00027857,-0
 .00038415,0.00039484,-0.00069197,0.00036784,-0.00016856,-0.00005245,-0
 .00201262,-0.06797182,0.27669117,-0.00003722,0.00004038,0.00002264,0.0
 0006237,-0.00002836,-0.00005516,-0.00012417,0.00000396,-0.00014861,0.0
 0024737,0.00020018,0.00030202,-0.00019534,-0.00000595,0.00002015,0.000
 06439,0.00001989,0.00000573,-0.00001148,0.00000191,0.00000066,-0.00000
 521,-0.00000164,-0.00000450,-0.00000642,-0.00000422,0.00000425,0.00000
 411,-0.00000154,-0.00000505,-0.00002924,-0.00000622,-0.00000089,0.0000
 9479,0.00234617,0.00627292,0.00018719,-0.00062608,-0.00075261,0.002039
 99,0.00346666,0.00544092,-0.00396813,0.00879514,-0.00057841,-0.0296252
 9,0.11098477,-0.09208004,0.00054713,0.00157947,0.00264865,-0.00001360,
 -0.00001708,-0.00000420,0.00000044,0.00000061,0.00000237,-0.00000206,-
 0.00000107,-0.00000005,-0.00000155,-0.00000077,0.00000042,-0.00000196,
 0.00000139,0.00000034,-0.00009290,-0.00039150,-0.00082720,-0.00019733,
 0.00041247,-0.00013086,-0.00019578,-0.00202306,-0.00299587,0.03153570,
 -0.12271034,0.08617710,0.00015448,-0.00022705,0.00003833,-0.00028093,0
 .00015225,-0.00004841,0.00042622,-0.00020638,0.00003039,-0.00042969,-0
 .00015871,-0.00027856,-0.00234503,0.00207910,-0.00126800,-0.00062770,0
 .00001141,0.00004038,0.00013274,0.00003579,-0.00001769,-0.00004611,0.0
 0003724,-0.00000116,0.00002970,-0.00003949,0.00000183,0.00002827,0.000
 00194,-0.00000436,0.00003248,-0.00005703,0.00001804,0.00986075,0.00537
 990,-0.00310610,0.00025678,0.00224141,-0.00086145,-0.00030378,0.000669
 30,-0.00034181,-0.00423672,0.00265986,-0.00079844,-0.01586380,-0.01961
 540,0.01096936,-0.19500877,-0.12324968,0.07185248,0.00000252,-0.000032
 39,0.00000577,-0.00003215,-0.00002031,-0.00001151,0.00000911,0.0000037
 8,0.00000052,0.00000723,-0.00000091,0.00000031,0.00000662,-0.00000118,
 0.00000123,0.00038011,0.00042901,-0.00026296,0.00001921,-0.00012701,0.
 00001512,-0.00080341,-0.00092449,0.00051046,0.00125411,0.00003049,-0.0
 0027580,0.20737775,0.00001891,0.00009404,-0.00004265,-0.00014624,-0.00
 017205,0.00016295,0.00032830,-0.00005176,0.00007660,-0.00242403,-0.001
 46477,-0.00127912,-0.00051933,0.00100786,-0.00037865,0.00110538,0.0004
 4531,-0.00023874,-0.00011781,-0.00009246,0.00004229,0.00007757,-0.0000
 4667,0.00001079,-0.00003380,0.00006412,-0.00000604,-0.00003920,0.00004
 899,0.00002125,-0.00016134,0.00011153,-0.00001481,-0.01909234,-0.01211
 477,0.00884579,0.00293941,-0.00235865,0.00412022,0.00071673,-0.0003715
 0,-0.00042304,0.00231692,0.00199801,0.00267136,0.00749997,0.00913041,-
 0.00280654,-0.12211438,-0.16516504,0.07090544,-0.00003566,0.00007908,-
 0.00006878,-0.00000035,0.00001291,-0.00001297,-0.00001202,-0.00000489,
 -0.00000289,-0.00000628,0.00000070,-0.00000169,-0.00002467,0.00000181,
 -0.00000652,-0.00097688,-0.00057623,0.00059193,-0.00013978,-0.00015613
 ,-0.00039959,0.00042068,0.00024853,-0.00018380,-0.00050832,-0.00024752
 ,-0.00203515,0.13092856,0.16957914,0.00012043,-0.00022215,-0.00004411,
 -0.00021250,0.00018793,0.00027610,0.00032083,-0.00030933,0.00018450,0.
 00036713,-0.00086360,-0.00280634,-0.00038328,-0.00006490,0.00011552,-0
 .00051927,-0.00048298,0.00006062,0.00005768,0.00010957,0.00004401,-0.0
 0006244,0.00003856,-0.00001714,0.00000731,-0.00005363,0.00001292,0.000
 04250,-0.00002672,0.00002070,0.00008310,-0.00004984,-0.00007834,0.0100
 5721,0.00718781,-0.00069941,-0.00129468,0.00427970,0.00423157,-0.00023
 327,-0.00048028,-0.00091090,-0.00049411,0.00281761,0.00624385,-0.00280
 109,-0.00126849,0.00515009,0.07076484,0.07094419,-0.07755747,0.0000421
 3,-0.00006180,-0.00014430,-0.00000598,-0.00001616,0.00000372,0.0000048
 0,0.00000297,-0.00000555,0.00000559,-0.00000071,0.00000073,0.00001489,
 -0.00000404,-0.00000758,0.00054459,0.00047350,0.00022332,0.00000393,-0
 .00041864,-0.00079275,-0.00017098,-0.00010648,-0.00001841,-0.00005135,
 -0.00206447,-0.00331472,-0.07620798,-0.07954763,0.06982935\\0.00000880
 ,-0.00003278,0.00000626,0.00000183,0.00003841,-0.00000948,0.00000546,0
 .00000697,-0.00000519,-0.00003174,-0.00004032,0.00002011,0.00004074,0.
 00002749,-0.00000092,-0.00003896,-0.00000833,-0.00000286,0.00001390,0.
 00000394,0.00000038,-0.00001070,0.00001156,-0.00000038,0.00000616,-0.0
 0001640,0.00000219,0.00000085,0.00000261,0.00000101,-0.00000573,-0.000
 00265,0.00000261,-0.00000222,0.00001279,-0.00001060,0.00000441,-0.0000
 0464,0.00000515,-0.00000306,-0.00000099,0.00000049,0.00000133,-0.00000
 023,-0.00000194,-0.00000502,0.00000162,-0.00000065,0.00001171,-0.00000
 874,-0.00000119,-0.00000395,0.00000055,-0.00000243,0.00000158,0.000001
 11,-0.00000062,-0.00000100,0.00000069,0.00000037,-0.00000044,0.0000010
 7,0.00000060,0.00000568,0.00000360,0.00000020,0.00000066,0.00000067,-0
 .00000011,-0.00000044,0.00000012,-0.00000030,0.00000012,-0.00000018,-0
 .00000025,0.00000045,-0.00000029,-0.00000101,-0.00000043,0.00000235,-0
 .00000146\\\@


 Change starts when someone sees the next step.
                            -- William Drayton
 Job cpu time:       0 days  5 hours 49 minutes 38.2 seconds.
 Elapsed time:       0 days  0 hours 44 minutes  8.6 seconds.
 File lengths (MBytes):  RWF=   1053 Int=      0 D2E=      0 Chk=     32 Scr=      1
 Normal termination of Gaussian 16 at Sun Feb 11 16:13:52 2024.
