
Running Job 1 of 1 035-SM12.in
qchem 035-SM12.in_488461.0 /expanse/lustre/scratch/selhajj/temp_project/qcscratch/28444806/qchem488461/ 0
/cm/shared/apps/spack/cpu/opt/spack/linux-centos8-zen2/gcc-10.2.0/qchem-5.4-akfmr7b3t57bfs6qan3padb2wnb2i7cl/exe/qcprog.exe_s 035-SM12.in_488461.0 /expanse/lustre/scratch/selhajj/temp_project/qcscratch/28444806/qchem488461/
                  Welcome to Q-Chem
     A Quantum Leap Into The Future Of Chemistry


 Q-Chem 5.4, Q-Chem, Inc., Pleasanton, CA (2021)

 License issued to: University of California, San Diego (site)

 E. Epifanovsky,  A. T. B. Gilbert,  Xintian Feng,  Joonho Lee,  Yuezhi Mao,  
 N. Mardirossian,  P. Pokhilko,  A. White,  M. Wormit,  M. P. Coons,  
 A. L. Dempwolff,  Zhengting Gan,  D. Hait,  P. R. Horn,  L. D. Jacobson,  
 I. Kaliman,  J. Kussmann,  A. W. Lange,  Ka Un Lao,  D. S. Levine,  Jie Liu,  
 S. C. McKenzie,  A. F. Morrison,  K. Nanda,  F. Plasser,  D. R. Rehn,  
 M. L. Vidal,  Zhi-Qiang You,  Ying Zhu,  B. Alam,  B. Albrecht,  
 A. Aldossary,  E. Alguire,  J. H. Andersen,  D. Barton,  K. Begam,  A. Behn,  
 Y. A. Bernard,  E. J. Berquist,  H. Burton,  A. Carreras,  K. Carter-Fenk,  
 R. Chakraborty,  A. D. Chien,  K. D. Closser,  V. Cofer-Shabica,  
 S. Dasgupta,  Jia Deng,  M. de Wergifosse,  M. Diedenhofen,  Hainam Do,  
 S. Ehlert,  Po-Tung Fang,  S. Fatehi,  Qingguo Feng,  J. Gayvert,  
 Qinghui Ge,  G. Gidofalvi,  M. Goldey,  J. Gomes,  C. Gonzalez-Espinoza,  
 S. Gulania,  A. Gunina,  M. W. D. Hanson-Heine,  P. H. P. Harbach,  
 A. W. Hauser,  M. F. Herbst,  M. Hernandez Vera,  M. Hodecker,  
 Z. C. Holden,  S. Houck,  Xunkun Huang,  Kerwin Hui,  B. C. Huynh,  
 M. Ivanov,  Hyunjun Ji,  Hanjie Jiang,  B. Kaduk,  S. Kaehler,  
 K. Khistyaev,  Jaehoon Kim,  P. Klunzinger,  Z. Koczor-Benda,  
 Joong Hoon Koh,  D. Kosenkov,  L. Koulias,  T. Kowalczyk,  C. M. Krauter,  
 K. Kue,  A. Kunitsa,  T. Kus,  A. Landau,  K. V. Lawler,  D. Lefrancois,  
 S. Lehtola,  Rain Li,  Yi-Pei Li,  Jiashu Liang,  M. Liebenthal,  
 Hung-Hsuan Lin,  You-Sheng Lin,  Fenglai Liu,  Kuan-Yu Liu,  
 M. Loipersberger,  A. Luenser,  A. Manjanath,  P. Manohar,  E. Mansoor,  
 S. F. Manzer,  Shan-Ping Mao,  A. V. Marenich,  T. Markovich,  S. Mason,  
 S. A. Maurer,  P. F. McLaughlin,  M. F. S. J. Menger,  J.-M. Mewes,  
 S. A. Mewes,  P. Morgante,  J. W. Mullinax,  T. S. Nguyen-Beck,  
 K. J. Oosterbaan,  G. Paran,  Alexander C. Paul,  Suranjan K. Paul,  
 F. Pavosevic,  Zheng Pei,  S. Prager,  E. I. Proynov,  E. Ramos,  B. Rana,  
 A. E. Rask,  A. Rettig,  R. M. Richard,  F. Rob,  E. Rossomme,  T. Scheele,  
 M. Scheurer,  M. Schneider,  N. Sergueev,  S. M. Sharada,  W. Skomorowski,  
 D. W. Small,  C. J. Stein,  Yu-Chuan Su,  E. J. Sundstrom,  Zhen Tao,  
 J. Thirman,  T. Tsuchimochi,  N. M. Tubman,  S. P. Veccham,  O. Vydrov,  
 J. Wenzel,  J. Witte,  A. Yamada,  Kun Yao,  S. Yeganeh,  S. R. Yost,  
 A. Zech,  Igor Ying Zhang,  Xing Zhang,  Yu Zhang,  D. Zuev,  
 A. Aspuru-Guzik,  A. T. Bell,  N. A. Besley,  K. B. Bravaya,  B. R. Brooks,  
 D. Casanova,  Jeng-Da Chai,  S. Coriani,  C. J. Cramer,  
 A. E. DePrince, III,  R. A. DiStasio Jr.,  A. Dreuw,  B. D. Dunietz,  
 T. R. Furlani,  W. A. Goddard III,  S. Grimme,  S. Hammes-Schiffer,  
 T. Head-Gordon,  W. J. Hehre,  Chao-Ping Hsu,  T.-C. Jagau,  Yousung Jung,  
 A. Klamt,  Jing Kong,  D. S. Lambrecht,  WanZhen Liang,  N. J. Mayhall,  
 C. W. McCurdy,  J. B. Neaton,  C. Ochsenfeld,  J. A. Parkhill,  R. Peverati,  
 V. A. Rassolov,  Yihan Shao,  L. V. Slipchenko,  T. Stauch,  R. P. Steele,  
 J. E. Subotnik,  A. J. W. Thom,  A. Tkatchenko,  D. G. Truhlar,  
 T. Van Voorhis,  T. A. Wesolowski,  K. B. Whaley,  H. L. Woodcock III,  
 P. M. Zimmerman,  S. Faraji,  P. M. W. Gill,  M. Head-Gordon,  
 J. M. Herbert,  A. I. Krylov

 Contributors to earlier versions of Q-Chem not listed above: 
 R. D. Adamson,  B. Austin,  R. Baer,  J. Baker,  G. J. O. Beran,  
 K. Brandhorst,  S. T. Brown,  E. F. C. Byrd,  A. K. Chakraborty,  
 G. K. L. Chan,  Chun-Min Chang,  Yunqing Chen,  C.-L. Cheng,  
 Siu Hung Chien,  D. M. Chipman,  D. L. Crittenden,  H. Dachsel,  
 R. J. Doerksen,  A. D. Dutoi,  R. G. Edgar,  J. Fosso-Tande,  
 L. Fusti-Molnar,  D. Ghosh,  A. Ghysels,  A. Golubeva-Zadorozhnaya,  
 J. Gonthier,  M. S. Gordon,  S. R. Gwaltney,  G. Hawkins,  J. E. Herr,  
 A. Heyden,  S. Hirata,  E. G. Hohenstein,  G. Kedziora,  F. J. Keil,  
 C. Kelley,  Jihan Kim,  R. A. King,  R. Z. Khaliullin,  P. P. Korambath,  
 W. Kurlancheek,  A. Laurent,  A. M. Lee,  M. S. Lee,  S. V. Levchenko,  
 Ching Yeh Lin,  D. Liotard,  E. Livshits,  R. C. Lochan,  I. Lotan,  
 L. A. Martinez-Martinez,  P. E. Maslen,  N. Nair,  D. P. O'Neill,  
 D. Neuhauser,  E. Neuscamman,  C. M. Oana,  R. Olivares-Amaya,  R. Olson,  
 T. M. Perrine,  B. Peters,  P. A. Pieniazek,  A. Prociuk,  Y. M. Rhee,  
 J. Ritchie,  M. A. Rohrdanz,  E. Rosta,  N. J. Russ,  H. F. Schaefer III,  
 M. W. Schmidt,  N. E. Schultz,  S. Sharma,  N. Shenvi,  C. D. Sherrill,  
 A. C. Simmonett,  A. Sodt,  T. Stein,  D. Stuck,  K. S. Thanthiriwatte,  
 V. Vanovschi,  L. Vogt,  Tao Wang,  A. Warshel,  M. A. Watson,  
 C. F. Williams,  Q. Wu,  X. Xu,  Jun Yang,  W. Zhang,  Yan Zhao

 Please cite Q-Chem as follows:
 Y. Shao et al., Mol. Phys. 113, 184-215 (2015)
 DOI: 10.1080/00268976.2014.952696

 Q-Chem 5.4.0 for Intel X86 EM64T Linux

 Parts of Q-Chem use Armadillo 9.800.1 (Horizon Scraper).
 http://arma.sourceforge.net/

 Q-Chem begins on Sat Feb  3 10:27:15 2024  

 Host: 
0

     Scratch files written to /expanse/lustre/scratch/selhajj/temp_project/qcscratch/28444806/qchem488461//
 May1621 |scratch|qcdevops|jenkins|workspace|build_RNUM    
 Processing $rem in /cm/shared/apps/spack/cpu/opt/spack/linux-centos8-zen2/gcc-10.2.0/qchem-5.4-akfmr7b3t57bfs6qan3padb2wnb2i7cl/config/preferences:
 Processing $rem in /home/selhajj/.qchemrc:
 Symmetry turned off for PCM/SM12/SMD calculation
 Method-specific promolecule density matrix will be built for SM12 calculation

 Checking the input file for inconsistencies... 	...done.

--------------------------------------------------------------
User input:
--------------------------------------------------------------
$molecule
0 1
C                  2.4581160000     -4.7919990000      2.0547570000
C                  2.4724640000     -3.9176210000      0.8524100000
C                  2.1099880000     -2.6257130000      0.8064320000
C                  1.6471230000     -2.0179820000      2.1005710000
C                  1.6502640000     -2.8891970000      3.3095270000
C                  2.0035300000     -4.1808550000      3.3441030000
O                  2.8007800000     -5.9535540000      1.9941880000
O                  1.2707900000     -0.8679310000      2.1773970000
C                  2.0005700000     -5.0668490000      4.5476250000
C                  2.1390810000     -1.7790770000     -0.4495320000
C                  0.7250800000     -1.3170690000     -0.8602740000
C                  3.1223800000     -0.5971210000     -0.3192750000
N                  2.9422550000     -4.6166740000     -0.3701860000
N                  1.2132570000     -2.1954590000      4.5447820000
H                  1.6330710000     -4.5552960000      5.4352070000
H                  3.0114730000     -5.4376940000      4.7365830000
H                  1.3772970000     -5.9444310000      4.3585840000
H                  2.5125770000     -2.4194500000     -1.2523250000
H                  0.7838930000     -0.8117730000     -1.8274350000
H                  0.3060180000     -0.6202930000     -0.1344290000
H                  0.0459290000     -2.1662290000     -0.9684150000
H                  3.1952540000     -0.0880020000     -1.2834490000
H                  4.1232770000     -0.9414640000     -0.0477480000
H                  2.7841060000      0.1244440000      0.4243630000
O                  4.1394420000     -4.5825870000     -0.5920650000
O                  2.0912570000     -5.1673070000     -1.0455900000
O                  0.0559720000     -2.3588400000      4.8902810000
O                  2.0543750000     -1.5211890000      5.1109550000
$end

$rem
BASIS  =  6-311++G(d,p)
GUI  =  2
JOB_TYPE  =  SP
METHOD  =  B3LYP
SCF_CONVERGENCE  = 8
SOLVENT_METHOD = sm12
$end

$smx
solvent dimethylformamide
charges CM5
$end





--------------------------------------------------------------
 ----------------------------------------------------------------
             Standard Nuclear Orientation (Angstroms)
    I     Atom           X                Y                Z
 ----------------------------------------------------------------
    1      C       2.4581160000    -4.7919990000     2.0547570000
    2      C       2.4724640000    -3.9176210000     0.8524100000
    3      C       2.1099880000    -2.6257130000     0.8064320000
    4      C       1.6471230000    -2.0179820000     2.1005710000
    5      C       1.6502640000    -2.8891970000     3.3095270000
    6      C       2.0035300000    -4.1808550000     3.3441030000
    7      O       2.8007800000    -5.9535540000     1.9941880000
    8      O       1.2707900000    -0.8679310000     2.1773970000
    9      C       2.0005700000    -5.0668490000     4.5476250000
   10      C       2.1390810000    -1.7790770000    -0.4495320000
   11      C       0.7250800000    -1.3170690000    -0.8602740000
   12      C       3.1223800000    -0.5971210000    -0.3192750000
   13      N       2.9422550000    -4.6166740000    -0.3701860000
   14      N       1.2132570000    -2.1954590000     4.5447820000
   15      H       1.6330710000    -4.5552960000     5.4352070000
   16      H       3.0114730000    -5.4376940000     4.7365830000
   17      H       1.3772970000    -5.9444310000     4.3585840000
   18      H       2.5125770000    -2.4194500000    -1.2523250000
   19      H       0.7838930000    -0.8117730000    -1.8274350000
   20      H       0.3060180000    -0.6202930000    -0.1344290000
   21      H       0.0459290000    -2.1662290000    -0.9684150000
   22      H       3.1952540000    -0.0880020000    -1.2834490000
   23      H       4.1232770000    -0.9414640000    -0.0477480000
   24      H       2.7841060000     0.1244440000     0.4243630000
   25      O       4.1394420000    -4.5825870000    -0.5920650000
   26      O       2.0912570000    -5.1673070000    -1.0455900000
   27      O       0.0559720000    -2.3588400000     4.8902810000
   28      O       2.0543750000    -1.5211890000     5.1109550000
 ----------------------------------------------------------------
 Nuclear Repulsion Energy =        1375.98625246 hartrees
 There are       66 alpha and       66 beta electrons
 Requested basis set is 6-311++G(d,p)
 There are 158 shells and 466 basis functions

 Total QAlloc Memory Limit   8000 MB
 Mega-Array Size       188 MB
 MEM_STATIC part       192 MB
 A cutoff of  1.0D-11 yielded   9811 shell pairs
 There are     87586 function pairs (     93952 Cartesian)
 Smallest overlap matrix eigenvalue = 4.09E-07

 Q-Chem warning in module stvman/mkSTV.C, line 323:

 Overlap eigenvalue is smaller than square root of threshold
 Use THRESH >= 12 to get rid of this warning

 Linear dependence detected in AO basis
 Tighter screening thresholds may be required for diffuse basis sets
 Use S2THRESH > 14 and THRESH = 14 in case of SCF convergence issues
 Number of orthogonalized atomic orbitals = 463
 Maximum deviation from orthogonality = 8.807E-11

 Scale SEOQF with 1.000000e-01/1.000000e-02/1.000000e-02

 Standard Electronic Orientation quadrupole field applied
 Nucleus-field energy     =     0.0000000250 hartrees
 ================ Generating on-the-fly Promolecule Density  ================
Attempting to make child job directory: /expanse/lustre/scratch/selhajj/temp_project/qcscratch/28444806/qchem488461//Frg1/
Attempting to make child job directory: /expanse/lustre/scratch/selhajj/temp_project/qcscratch/28444806/qchem488461//Frg2/
Attempting to make child job directory: /expanse/lustre/scratch/selhajj/temp_project/qcscratch/28444806/qchem488461//Frg3/
Attempting to make child job directory: /expanse/lustre/scratch/selhajj/temp_project/qcscratch/28444806/qchem488461//Frg4/
Creating input file /expanse/lustre/scratch/selhajj/temp_project/qcscratch/28444806/qchem488461/Frg1.input
using default PutDataFrgm: nothing
calling putenv with: QCSCRATCH=/expanse/lustre/scratch/selhajj/temp_project/qcscratch/28444806/qchem488461/ 
Spawning Job For Fragment 0
Done Job For Fragment 0
calling putenv with: QCSCRATCH=/expanse/lustre/scratch/selhajj/temp_project/qcscratch/28444806 
calling putenv with: QCTHREADS=8 
Creating input file /expanse/lustre/scratch/selhajj/temp_project/qcscratch/28444806/qchem488461/Frg2.input
using default PutDataFrgm: nothing
calling putenv with: QCSCRATCH=/expanse/lustre/scratch/selhajj/temp_project/qcscratch/28444806/qchem488461/ 
Spawning Job For Fragment 1
Done Job For Fragment 1
calling putenv with: QCSCRATCH=/expanse/lustre/scratch/selhajj/temp_project/qcscratch/28444806 
calling putenv with: QCTHREADS=8 
Creating input file /expanse/lustre/scratch/selhajj/temp_project/qcscratch/28444806/qchem488461/Frg3.input
using default PutDataFrgm: nothing
calling putenv with: QCSCRATCH=/expanse/lustre/scratch/selhajj/temp_project/qcscratch/28444806/qchem488461/ 
Spawning Job For Fragment 2
Done Job For Fragment 2
calling putenv with: QCSCRATCH=/expanse/lustre/scratch/selhajj/temp_project/qcscratch/28444806 
calling putenv with: QCTHREADS=8 
Creating input file /expanse/lustre/scratch/selhajj/temp_project/qcscratch/28444806/qchem488461/Frg4.input
using default PutDataFrgm: nothing
calling putenv with: QCSCRATCH=/expanse/lustre/scratch/selhajj/temp_project/qcscratch/28444806/qchem488461/ 
Spawning Job For Fragment 3
Done Job For Fragment 3
calling putenv with: QCSCRATCH=/expanse/lustre/scratch/selhajj/temp_project/qcscratch/28444806 
calling putenv with: QCTHREADS=8 
 Time for running child jobs:  CPU 0.01 s  wall 22.50 s
 ============= Method Specific Promolecule Density Constructed =============
 Guess from superposition of atomic densities
 Warning:  Energy on first SCF cycle will be non-variational
 SAD guess density has 132.000000 electrons

 -----------------------------------------------------------------------
  General SCF calculation program by
  Eric Jon Sundstrom, Paul Horn, Yuezhi Mao, Dmitri Zuev, Alec White,
  David Stuck, Shaama M.S., Shane Yost, Joonho Lee, David Small,
  Daniel Levine, Susi Lehtola, Hugh Burton, Evgeny Epifanovsky,
  Bang C. Huynh
 -----------------------------------------------------------------------
 Exchange:     0.2000 Hartree-Fock + 0.0800 Slater + 0.7200 B88
 Correlation:  0.1900 VWN1RPA + 0.8100 LYP
 Using SG-1 standard quadrature grid
 using 8 threads for integral computing
 -------------------------------------------------------
 OpenMP Integral computing Module                
 Release: version 1.0, May 2013, Q-Chem Inc. Pittsburgh 
 -------------------------------------------------------
 
 SM12 calculation using CM5 charges
 Citation of the SM12 model:
 Marenich, A.V.; Cramer, C.J.; Truhlar, D.G.
 J. Chem. Theory Comput. 2013, 9, 609-612.
 iSolventCode=          91
 Solvent: dimethylformamide                                               
 
Hirshfeld: reading atomic densities from disk.
warning:  vdwdata pointer should have been initialzed before dftman

 Charges (in A.U.) from CM5PAC (Nov. 11, 2011)
 -----------------------------------------------
 Center     Atomic      CM5         Hirshfeld
 Number     Number      Charge      Charge
 -----------------------------------------------
    1          6        0.049210    0.009167
    2          6        0.067772    0.009825
    3          6        0.001535    0.000815
    4          6        0.048830    0.008780
    5          6        0.068199    0.009776
    6          6       -0.002059    0.000901
    7          8       -0.058035   -0.013903
    8          8       -0.064565   -0.015994
    9          6       -0.143339   -0.002816
   10          6       -0.070734   -0.006232
   11          6       -0.151832   -0.004534
   12          6       -0.151731   -0.004431
   13          7       -0.176425   -0.009660
   14          7       -0.174271   -0.009342
   15          1        0.065004    0.005615
   16          1        0.058309    0.004175
   17          1        0.058631    0.004245
   18          1        0.075744    0.006351
   19          1        0.054535    0.002698
   20          1        0.061110    0.004826
   21          1        0.056389    0.003995
   22          1        0.054558    0.002722
   23          1        0.056271    0.003921
   24          1        0.061070    0.004802
   25          8        0.038705   -0.003926
   26          8        0.038688   -0.003925
   27          8        0.038180   -0.004328
   28          8        0.040329   -0.003444
 -----------------------------------------------

 Dipole moment (in Debye)
 -----------------------------------------------
                 X        Y        Z     Total
 -----------------------------------------------
 CM5          0.0141   0.1002  -0.1544   0.1846
 Hirshfeld   -0.0019   0.0438  -0.0338   0.0553
 -----------------------------------------------

 A restricted SCF calculation will be
 performed using DIIS
 SCF converges when DIIS error is below 1.0e-08
 ---------------------------------------
  Cycle       Energy         DIIS error
 ---------------------------------------
Hirshfeld: reading atomic densities from disk.

 Charges (in A.U.) from CM5PAC (Nov. 11, 2011)
 -----------------------------------------------
 Center     Atomic      CM5         Hirshfeld
 Number     Number      Charge      Charge
 -----------------------------------------------
    1          6        0.408591    0.368548
    2          6        0.184609    0.126662
    3          6       -0.014071   -0.014792
    4          6        0.413478    0.373429
    5          6        0.166613    0.108191
    6          6       -0.016515   -0.013555
    7          8       -0.493658   -0.449526
    8          8       -0.484147   -0.435576
    9          6       -0.413002   -0.272479
   10          6       -0.145386   -0.080883
   11          6       -0.439928   -0.292630
   12          6       -0.439746   -0.292447
   13          7        0.584429    0.751195
   14          7        0.584675    0.749603
   15          1        0.156776    0.097386
   16          1        0.161458    0.107324
   17          1        0.160704    0.106318
   18          1        0.155118    0.085725
   19          1        0.152919    0.101082
   20          1        0.140637    0.084353
   21          1        0.151124    0.098730
   22          1        0.152958    0.101121
   23          1        0.151280    0.098930
   24          1        0.140779    0.084511
   25          8       -0.353276   -0.395907
   26          8       -0.353216   -0.395830
   27          8       -0.355643   -0.398150
   28          8       -0.357595   -0.401367
 -----------------------------------------------

 Dipole moment (in Debye)
 -----------------------------------------------
                 X        Y        Z     Total
 -----------------------------------------------
 CM5          0.1338  -0.4471   0.0229   0.4672
 Hirshfeld    0.1179  -0.5035   0.1435   0.5367
 -----------------------------------------------

    1    -952.0188012411      3.06e-02  
Hirshfeld: reading atomic densities from disk.

 Charges (in A.U.) from CM5PAC (Nov. 11, 2011)
 -----------------------------------------------
 Center     Atomic      CM5         Hirshfeld
 Number     Number      Charge      Charge
 -----------------------------------------------
    1          6       -0.257296   -0.297339
    2          6       -0.297191   -0.355138
    3          6        0.090218    0.089497
    4          6       -0.245102   -0.285151
    5          6       -0.244216   -0.302639
    6          6        0.098097    0.101057
    7          8        0.377765    0.421897
    8          8        0.413770    0.462341
    9          6        0.049569    0.190092
   10          6        0.077248    0.141750
   11          6        0.046723    0.194021
   12          6        0.046520    0.193819
   13          7       -0.828295   -0.661530
   14          7       -0.815732   -0.650804
   15          1        0.052307   -0.007082
   16          1        0.081975    0.027841
   17          1        0.084287    0.029902
   18          1        0.040018   -0.029375
   19          1        0.030168   -0.021669
   20          1        0.028663   -0.027621
   21          1        0.004309   -0.048084
   22          1        0.030097   -0.021739
   23          1        0.004411   -0.047940
   24          1        0.029144   -0.027124
   25          8        0.275921    0.233290
   26          8        0.277864    0.235250
   27          8        0.267305    0.224797
   28          8        0.281252    0.237480
 -----------------------------------------------

 Dipole moment (in Debye)
 -----------------------------------------------
                 X        Y        Z     Total
 -----------------------------------------------
 CM5         -0.4487   1.8442  -0.5961   1.9894
 Hirshfeld   -0.4646   1.7878  -0.4755   1.9074
 -----------------------------------------------

    2    -947.3930723968      5.21e-03  
Hirshfeld: reading atomic densities from disk.

 Charges (in A.U.) from CM5PAC (Nov. 11, 2011)
 -----------------------------------------------
 Center     Atomic      CM5         Hirshfeld
 Number     Number      Charge      Charge
 -----------------------------------------------
    1          6        0.233578    0.193535
    2          6        0.201267    0.143320
    3          6        0.056668    0.055947
    4          6        0.235191    0.195141
    5          6        0.183471    0.125049
    6          6        0.057496    0.060456
    7          8       -0.356034   -0.311902
    8          8       -0.361135   -0.312564
    9          6       -0.145017   -0.004494
   10          6       -0.072514   -0.008012
   11          6       -0.160849   -0.013551
   12          6       -0.160526   -0.013227
   13          7        0.065792    0.232557
   14          7        0.059815    0.224743
   15          1        0.086392    0.027003
   16          1        0.096418    0.042284
   17          1        0.097019    0.042633
   18          1        0.086137    0.016743
   19          1        0.074947    0.023111
   20          1        0.068263    0.011979
   21          1        0.069044    0.016650
   22          1        0.074956    0.023120
   23          1        0.069204    0.016854
   24          1        0.068446    0.012178
   25          8       -0.157387   -0.200018
   26          8       -0.158551   -0.201165
   27          8       -0.152334   -0.194842
   28          8       -0.159863   -0.203635
 -----------------------------------------------

 Dipole moment (in Debye)
 -----------------------------------------------
                 X        Y        Z     Total
 -----------------------------------------------
 CM5          0.0163  -0.0386  -0.1952   0.1996
 Hirshfeld    0.0003  -0.0950  -0.0746   0.1208
 -----------------------------------------------

    3    -945.9307819648      1.03e-02  
Hirshfeld: reading atomic densities from disk.

 Charges (in A.U.) from CM5PAC (Nov. 11, 2011)
 -----------------------------------------------
 Center     Atomic      CM5         Hirshfeld
 Number     Number      Charge      Charge
 -----------------------------------------------
    1          6        0.152784    0.112741
    2          6        0.044624   -0.013323
    3          6        0.024176    0.023455
    4          6        0.155551    0.115501
    5          6        0.050510   -0.007912
    6          6        0.014009    0.016969
    7          8       -0.177586   -0.133454
    8          8       -0.152609   -0.104038
    9          6       -0.214723   -0.074200
   10          6       -0.069267   -0.004765
   11          6       -0.239829   -0.092531
   12          6       -0.239710   -0.092411
   13          7        0.105181    0.271946
   14          7        0.111878    0.276806
   15          1        0.110658    0.051269
   16          1        0.123986    0.069852
   17          1        0.124269    0.069884
   18          1        0.103982    0.034589
   19          1        0.100418    0.048581
   20          1        0.092592    0.036308
   21          1        0.092269    0.039876
   22          1        0.100455    0.048619
   23          1        0.092434    0.040083
   24          1        0.092832    0.036564
   25          8       -0.148343   -0.190974
   26          8       -0.146534   -0.189148
   27          8       -0.158315   -0.200823
   28          8       -0.145805   -0.189578
 -----------------------------------------------

 Dipole moment (in Debye)
 -----------------------------------------------
                 X        Y        Z     Total
 -----------------------------------------------
 CM5         -0.0586   0.3861  -0.1184   0.4081
 Hirshfeld   -0.0745   0.3297   0.0022   0.3380
 -----------------------------------------------

    4    -947.9183031927      1.29e-03  
Hirshfeld: reading atomic densities from disk.

 Charges (in A.U.) from CM5PAC (Nov. 11, 2011)
 -----------------------------------------------
 Center     Atomic      CM5         Hirshfeld
 Number     Number      Charge      Charge
 -----------------------------------------------
    1          6        0.205731    0.165688
    2          6        0.073041    0.015094
    3          6        0.044945    0.044224
    4          6        0.213283    0.173234
    5          6        0.071808    0.013386
    6          6        0.045322    0.048282
    7          8       -0.262186   -0.218055
    8          8       -0.256458   -0.207887
    9          6       -0.212289   -0.071766
   10          6       -0.066050   -0.001548
   11          6       -0.233096   -0.085798
   12          6       -0.232971   -0.085672
   13          7        0.064877    0.231642
   14          7        0.064964    0.229892
   15          1        0.109334    0.049945
   16          1        0.122740    0.068606
   17          1        0.123145    0.068759
   18          1        0.102290    0.032897
   19          1        0.098264    0.046427
   20          1        0.091193    0.034909
   21          1        0.090464    0.038071
   22          1        0.098297    0.046461
   23          1        0.090611    0.038260
   24          1        0.091383    0.035115
   25          8       -0.133527   -0.176158
   26          8       -0.134636   -0.177249
   27          8       -0.130975   -0.173482
   28          8       -0.139607   -0.183380
 -----------------------------------------------

 Dipole moment (in Debye)
 -----------------------------------------------
                 X        Y        Z     Total
 -----------------------------------------------
 CM5         -0.0654   0.1552  -0.1607   0.2328
 Hirshfeld   -0.0813   0.0988  -0.0401   0.1341
 -----------------------------------------------

    5    -947.9526853666      7.75e-04  
Hirshfeld: reading atomic densities from disk.

 Charges (in A.U.) from CM5PAC (Nov. 11, 2011)
 -----------------------------------------------
 Center     Atomic      CM5         Hirshfeld
 Number     Number      Charge      Charge
 -----------------------------------------------
    1          6        0.191147    0.151104
    2          6        0.091637    0.033690
    3          6        0.034475    0.033755
    4          6        0.195225    0.155176
    5          6        0.089815    0.031392
    6          6        0.032981    0.035941
    7          8       -0.250613   -0.206481
    8          8       -0.238001   -0.189430
    9          6       -0.203706   -0.063182
   10          6       -0.068437   -0.003935
   11          6       -0.223466   -0.076168
   12          6       -0.223312   -0.076012
   13          7        0.084801    0.251566
   14          7        0.086081    0.251009
   15          1        0.107248    0.047858
   16          1        0.119534    0.065400
   17          1        0.119829    0.065443
   18          1        0.101225    0.031832
   19          1        0.095412    0.043575
   20          1        0.088434    0.032150
   21          1        0.087617    0.035223
   22          1        0.095434    0.043598
   23          1        0.087767    0.035416
   24          1        0.088641    0.032373
   25          8       -0.147257   -0.189888
   26          8       -0.146124   -0.188738
   27          8       -0.152606   -0.195114
   28          8       -0.143887   -0.187659
 -----------------------------------------------

 Dipole moment (in Debye)
 -----------------------------------------------
                 X        Y        Z     Total
 -----------------------------------------------
 CM5         -0.0188   0.2580  -0.1499   0.2990
 Hirshfeld   -0.0347   0.2016  -0.0293   0.2066
 -----------------------------------------------

    6    -947.9621552331      2.81e-04  
Hirshfeld: reading atomic densities from disk.

 Charges (in A.U.) from CM5PAC (Nov. 11, 2011)
 -----------------------------------------------
 Center     Atomic      CM5         Hirshfeld
 Number     Number      Charge      Charge
 -----------------------------------------------
    1          6        0.193598    0.153555
    2          6        0.088074    0.030127
    3          6        0.038976    0.038256
    4          6        0.198654    0.158605
    5          6        0.085971    0.027549
    6          6        0.036028    0.038987
    7          8       -0.251721   -0.207589
    8          8       -0.241713   -0.193142
    9          6       -0.203499   -0.062976
   10          6       -0.069359   -0.004857
   11          6       -0.224752   -0.077454
   12          6       -0.224590   -0.077291
   13          7        0.085947    0.252712
   14          7        0.087307    0.252235
   15          1        0.106847    0.047457
   16          1        0.119318    0.065184
   17          1        0.119711    0.065325
   18          1        0.101220    0.031827
   19          1        0.095601    0.043764
   20          1        0.088525    0.032241
   21          1        0.088115    0.035721
   22          1        0.095632    0.043796
   23          1        0.088255    0.035904
   24          1        0.088712    0.032444
   25          8       -0.146399   -0.189030
   26          8       -0.147355   -0.189969
   27          8       -0.144552   -0.187060
   28          8       -0.152655   -0.196428
 -----------------------------------------------

 Dipole moment (in Debye)
 -----------------------------------------------
                 X        Y        Z     Total
 -----------------------------------------------
 CM5         -0.0781   0.1882  -0.1567   0.2570
 Hirshfeld   -0.0940   0.1318  -0.0361   0.1658
 -----------------------------------------------

    7    -947.9636998703      5.09e-05  
Hirshfeld: reading atomic densities from disk.

 Charges (in A.U.) from CM5PAC (Nov. 11, 2011)
 -----------------------------------------------
 Center     Atomic      CM5         Hirshfeld
 Number     Number      Charge      Charge
 -----------------------------------------------
    1          6        0.194257    0.154214
    2          6        0.088464    0.030517
    3          6        0.038318    0.037597
    4          6        0.198925    0.158876
    5          6        0.086517    0.028094
    6          6        0.035528    0.038488
    7          8       -0.252651   -0.208519
    8          8       -0.241697   -0.193126
    9          6       -0.204010   -0.063486
   10          6       -0.069262   -0.004759
   11          6       -0.225064   -0.077766
   12          6       -0.224904   -0.077604
   13          7        0.085693    0.252459
   14          7        0.086970    0.251898
   15          1        0.106972    0.047583
   16          1        0.119483    0.065349
   17          1        0.119816    0.065430
   18          1        0.101256    0.031863
   19          1        0.095722    0.043885
   20          1        0.088585    0.032301
   21          1        0.088195    0.035802
   22          1        0.095745    0.043909
   23          1        0.088347    0.035996
   24          1        0.088788    0.032520
   25          8       -0.146915   -0.189546
   26          8       -0.146454   -0.189068
   27          8       -0.150200   -0.192708
   28          8       -0.146531   -0.190304
 -----------------------------------------------

 Dipole moment (in Debye)
 -----------------------------------------------
                 X        Y        Z     Total
 -----------------------------------------------
 CM5         -0.0310   0.2199  -0.1514   0.2687
 Hirshfeld   -0.0469   0.1634  -0.0308   0.1728
 -----------------------------------------------

    8    -947.9636602766      3.52e-05  
Hirshfeld: reading atomic densities from disk.

 Charges (in A.U.) from CM5PAC (Nov. 11, 2011)
 -----------------------------------------------
 Center     Atomic      CM5         Hirshfeld
 Number     Number      Charge      Charge
 -----------------------------------------------
    1          6        0.194085    0.154042
    2          6        0.089080    0.031133
    3          6        0.037416    0.036695
    4          6        0.198629    0.158579
    5          6        0.087174    0.028752
    6          6        0.035074    0.038033
    7          8       -0.252655   -0.208523
    8          8       -0.241419   -0.192848
    9          6       -0.204293   -0.063770
   10          6       -0.069030   -0.004528
   11          6       -0.225053   -0.077755
   12          6       -0.224898   -0.077598
   13          7        0.085641    0.252406
   14          7        0.086869    0.251797
   15          1        0.107105    0.047715
   16          1        0.119576    0.065442
   17          1        0.119923    0.065537
   18          1        0.101270    0.031877
   19          1        0.095767    0.043930
   20          1        0.088612    0.032328
   21          1        0.088177    0.035784
   22          1        0.095792    0.043956
   23          1        0.088326    0.035975
   24          1        0.088812    0.032544
   25          8       -0.146780   -0.189411
   26          8       -0.146611   -0.189225
   27          8       -0.148759   -0.191267
   28          8       -0.147934   -0.191707
 -----------------------------------------------

 Dipole moment (in Debye)
 -----------------------------------------------
                 X        Y        Z     Total
 -----------------------------------------------
 CM5         -0.0445   0.2188  -0.1529   0.2706
 Hirshfeld   -0.0604   0.1624  -0.0323   0.1763
 -----------------------------------------------

    9    -947.9636980224      1.05e-05  
Hirshfeld: reading atomic densities from disk.

 Charges (in A.U.) from CM5PAC (Nov. 11, 2011)
 -----------------------------------------------
 Center     Atomic      CM5         Hirshfeld
 Number     Number      Charge      Charge
 -----------------------------------------------
    1          6        0.193949    0.153906
    2          6        0.088766    0.030819
    3          6        0.037926    0.037205
    4          6        0.198731    0.158682
    5          6        0.086818    0.028395
    6          6        0.035444    0.038404
    7          8       -0.252494   -0.208362
    8          8       -0.241708   -0.193137
    9          6       -0.204103   -0.063580
   10          6       -0.069043   -0.004541
   11          6       -0.224964   -0.077666
   12          6       -0.224806   -0.077507
   13          7        0.085718    0.252483
   14          7        0.086988    0.251916
   15          1        0.107067    0.047677
   16          1        0.119553    0.065419
   17          1        0.119896    0.065510
   18          1        0.101253    0.031860
   19          1        0.095736    0.043899
   20          1        0.088605    0.032321
   21          1        0.088157    0.035763
   22          1        0.095761    0.043924
   23          1        0.088305    0.035955
   24          1        0.088805    0.032537
   25          8       -0.146862   -0.189493
   26          8       -0.146708   -0.189322
   27          8       -0.149093   -0.191601
   28          8       -0.147799   -0.191572
 -----------------------------------------------

 Dipole moment (in Debye)
 -----------------------------------------------
                 X        Y        Z     Total
 -----------------------------------------------
 CM5         -0.0411   0.2162  -0.1529   0.2679
 Hirshfeld   -0.0570   0.1597  -0.0323   0.1726
 -----------------------------------------------

   10    -947.9637030262      3.12e-06  
Hirshfeld: reading atomic densities from disk.

 Charges (in A.U.) from CM5PAC (Nov. 11, 2011)
 -----------------------------------------------
 Center     Atomic      CM5         Hirshfeld
 Number     Number      Charge      Charge
 -----------------------------------------------
    1          6        0.194068    0.154025
    2          6        0.088885    0.030938
    3          6        0.037826    0.037106
    4          6        0.198694    0.158645
    5          6        0.086928    0.028505
    6          6        0.035324    0.038284
    7          8       -0.252666   -0.208534
    8          8       -0.241588   -0.193017
    9          6       -0.204120   -0.063597
   10          6       -0.069111   -0.004609
   11          6       -0.224979   -0.077681
   12          6       -0.224821   -0.077522
   13          7        0.085714    0.252480
   14          7        0.086977    0.251905
   15          1        0.107070    0.047680
   16          1        0.119551    0.065417
   17          1        0.119894    0.065509
   18          1        0.101266    0.031873
   19          1        0.095741    0.043904
   20          1        0.088610    0.032326
   21          1        0.088167    0.035773
   22          1        0.095766    0.043930
   23          1        0.088315    0.035964
   24          1        0.088811    0.032542
   25          8       -0.146888   -0.189519
   26          8       -0.146667   -0.189281
   27          8       -0.149049   -0.191556
   28          8       -0.147823   -0.191596
 -----------------------------------------------

 Dipole moment (in Debye)
 -----------------------------------------------
                 X        Y        Z     Total
 -----------------------------------------------
 CM5         -0.0425   0.2183  -0.1528   0.2698
 Hirshfeld   -0.0584   0.1619  -0.0322   0.1751
 -----------------------------------------------

   11    -947.9636921993      1.71e-06  
Hirshfeld: reading atomic densities from disk.

 Charges (in A.U.) from CM5PAC (Nov. 11, 2011)
 -----------------------------------------------
 Center     Atomic      CM5         Hirshfeld
 Number     Number      Charge      Charge
 -----------------------------------------------
    1          6        0.194041    0.153998
    2          6        0.088906    0.030959
    3          6        0.037789    0.037068
    4          6        0.198718    0.158669
    5          6        0.086955    0.028533
    6          6        0.035317    0.038276
    7          8       -0.252609   -0.208477
    8          8       -0.241644   -0.193073
    9          6       -0.204136   -0.063612
   10          6       -0.069092   -0.004590
   11          6       -0.224984   -0.077685
   12          6       -0.224826   -0.077526
   13          7        0.085722    0.252488
   14          7        0.086976    0.251904
   15          1        0.107072    0.047683
   16          1        0.119553    0.065419
   17          1        0.119896    0.065510
   18          1        0.101265    0.031872
   19          1        0.095743    0.043906
   20          1        0.088608    0.032324
   21          1        0.088167    0.035774
   22          1        0.095768    0.043932
   23          1        0.088316    0.035965
   24          1        0.088809    0.032540
   25          8       -0.146860   -0.189491
   26          8       -0.146701   -0.189315
   27          8       -0.149057   -0.191565
   28          8       -0.147818   -0.191590
 -----------------------------------------------

 Dipole moment (in Debye)
 -----------------------------------------------
                 X        Y        Z     Total
 -----------------------------------------------
 CM5         -0.0418   0.2174  -0.1528   0.2690
 Hirshfeld   -0.0577   0.1609  -0.0322   0.1740
 -----------------------------------------------

   12    -947.9636936414      4.53e-07  
Hirshfeld: reading atomic densities from disk.

 Charges (in A.U.) from CM5PAC (Nov. 11, 2011)
 -----------------------------------------------
 Center     Atomic      CM5         Hirshfeld
 Number     Number      Charge      Charge
 -----------------------------------------------
    1          6        0.194045    0.154002
    2          6        0.088899    0.030952
    3          6        0.037796    0.037075
    4          6        0.198710    0.158661
    5          6        0.086957    0.028534
    6          6        0.035324    0.038283
    7          8       -0.252629   -0.208497
    8          8       -0.241627   -0.193056
    9          6       -0.204139   -0.063616
   10          6       -0.069079   -0.004576
   11          6       -0.224982   -0.077684
   12          6       -0.224825   -0.077526
   13          7        0.085725    0.252491
   14          7        0.086982    0.251910
   15          1        0.107073    0.047683
   16          1        0.119553    0.065419
   17          1        0.119897    0.065511
   18          1        0.101264    0.031870
   19          1        0.095742    0.043905
   20          1        0.088606    0.032322
   21          1        0.088166    0.035773
   22          1        0.095767    0.043931
   23          1        0.088315    0.035964
   24          1        0.088807    0.032539
   25          8       -0.146891   -0.189522
   26          8       -0.146678   -0.189292
   27          8       -0.149058   -0.191565
   28          8       -0.147826   -0.191598
 -----------------------------------------------

 Dipole moment (in Debye)
 -----------------------------------------------
                 X        Y        Z     Total
 -----------------------------------------------
 CM5         -0.0422   0.2177  -0.1529   0.2694
 Hirshfeld   -0.0581   0.1613  -0.0323   0.1745
 -----------------------------------------------

   13    -947.9636938186      1.99e-07  
Hirshfeld: reading atomic densities from disk.

 Charges (in A.U.) from CM5PAC (Nov. 11, 2011)
 -----------------------------------------------
 Center     Atomic      CM5         Hirshfeld
 Number     Number      Charge      Charge
 -----------------------------------------------
    1          6        0.194047    0.154004
    2          6        0.088904    0.030957
    3          6        0.037793    0.037072
    4          6        0.198707    0.158658
    5          6        0.086956    0.028533
    6          6        0.035321    0.038281
    7          8       -0.252631   -0.208499
    8          8       -0.241624   -0.193053
    9          6       -0.204137   -0.063614
   10          6       -0.069085   -0.004583
   11          6       -0.224982   -0.077684
   12          6       -0.224825   -0.077526
   13          7        0.085726    0.252491
   14          7        0.086982    0.251910
   15          1        0.107073    0.047683
   16          1        0.119554    0.065420
   17          1        0.119897    0.065511
   18          1        0.101265    0.031872
   19          1        0.095743    0.043906
   20          1        0.088607    0.032323
   21          1        0.088167    0.035773
   22          1        0.095768    0.043932
   23          1        0.088315    0.035965
   24          1        0.088807    0.032539
   25          8       -0.146873   -0.189504
   26          8       -0.146697   -0.189310
   27          8       -0.149060   -0.191567
   28          8       -0.147824   -0.191596
 -----------------------------------------------

 Dipole moment (in Debye)
 -----------------------------------------------
                 X        Y        Z     Total
 -----------------------------------------------
 CM5         -0.0420   0.2178  -0.1528   0.2693
 Hirshfeld   -0.0579   0.1613  -0.0323   0.1744
 -----------------------------------------------

   14    -947.9636934826      1.16e-07  
Hirshfeld: reading atomic densities from disk.

 Charges (in A.U.) from CM5PAC (Nov. 11, 2011)
 -----------------------------------------------
 Center     Atomic      CM5         Hirshfeld
 Number     Number      Charge      Charge
 -----------------------------------------------
    1          6        0.194046    0.154003
    2          6        0.088906    0.030959
    3          6        0.037791    0.037070
    4          6        0.198708    0.158659
    5          6        0.086957    0.028535
    6          6        0.035318    0.038278
    7          8       -0.252628   -0.208496
    8          8       -0.241626   -0.193055
    9          6       -0.204136   -0.063613
   10          6       -0.069088   -0.004586
   11          6       -0.224982   -0.077684
   12          6       -0.224825   -0.077526
   13          7        0.085726    0.252491
   14          7        0.086982    0.251910
   15          1        0.107073    0.047683
   16          1        0.119554    0.065420
   17          1        0.119897    0.065511
   18          1        0.101265    0.031872
   19          1        0.095743    0.043906
   20          1        0.088607    0.032323
   21          1        0.088167    0.035774
   22          1        0.095768    0.043932
   23          1        0.088316    0.035965
   24          1        0.088808    0.032540
   25          8       -0.146879   -0.189510
   26          8       -0.146690   -0.189304
   27          8       -0.149059   -0.191566
   28          8       -0.147824   -0.191597
 -----------------------------------------------

 Dipole moment (in Debye)
 -----------------------------------------------
                 X        Y        Z     Total
 -----------------------------------------------
 CM5         -0.0420   0.2177  -0.1529   0.2693
 Hirshfeld   -0.0580   0.1613  -0.0323   0.1744
 -----------------------------------------------

   15    -947.9636934861      5.05e-08  
Hirshfeld: reading atomic densities from disk.

 Charges (in A.U.) from CM5PAC (Nov. 11, 2011)
 -----------------------------------------------
 Center     Atomic      CM5         Hirshfeld
 Number     Number      Charge      Charge
 -----------------------------------------------
    1          6        0.194046    0.154003
    2          6        0.088905    0.030958
    3          6        0.037791    0.037071
    4          6        0.198709    0.158659
    5          6        0.086958    0.028536
    6          6        0.035317    0.038277
    7          8       -0.252629   -0.208497
    8          8       -0.241626   -0.193055
    9          6       -0.204137   -0.063614
   10          6       -0.069087   -0.004585
   11          6       -0.224982   -0.077684
   12          6       -0.224825   -0.077526
   13          7        0.085726    0.252491
   14          7        0.086982    0.251910
   15          1        0.107073    0.047683
   16          1        0.119554    0.065420
   17          1        0.119897    0.065511
   18          1        0.101265    0.031872
   19          1        0.095743    0.043906
   20          1        0.088607    0.032323
   21          1        0.088167    0.035773
   22          1        0.095768    0.043932
   23          1        0.088316    0.035965
   24          1        0.088808    0.032540
   25          8       -0.146878   -0.189509
   26          8       -0.146691   -0.189305
   27          8       -0.149059   -0.191567
   28          8       -0.147824   -0.191597
 -----------------------------------------------

 Dipole moment (in Debye)
 -----------------------------------------------
                 X        Y        Z     Total
 -----------------------------------------------
 CM5         -0.0420   0.2177  -0.1529   0.2693
 Hirshfeld   -0.0580   0.1613  -0.0323   0.1744
 -----------------------------------------------

   16    -947.9636935194      1.12e-08  
   17    -947.9636935232      4.66e-09  Convergence criterion met
 ---------------------------------------
 SCF time:   CPU 5371.73s  wall 798.00s 
(1)  E-EN(liq) elect-nuc energy of solute               -947.963693523 a.u.
(2)  G-P(liq) polarization free energy of solvation            -4.9044 kcal/mol
(3)  G-ENP(liq) elect-nuc-pol free energy of system     -947.971509160 a.u.
(4)  G-CDS(liq) cavity-dispersion-solvent structure 
     free energy                                               -6.6600 kcal/mol
(5)  G-P-CDS(liq) = G-P(liq) + G-CDS(liq) = (2) + (4)         -11.5643 kcal/mol
(6)  G-S(liq) free energy of system = (1) + (5)         -947.982122486 a.u.
 SCF   energy in the final basis set =     -947.9821224857
 Total energy in the final basis set =     -947.9821224857
 
 --------------------------------------------------------------
 
                    Orbital Energies (a.u.)
 --------------------------------------------------------------
 
 Alpha MOs
 -- Occupied --
-19.1976 -19.1976 -19.1970 -19.1967 -19.1712 -19.1704 -14.5872 -14.5868
-10.3249 -10.3233 -10.2818 -10.2806 -10.2600 -10.2580 -10.2127 -10.1949
-10.1698 -10.1697  -1.2755  -1.2749  -1.1078  -1.1059  -1.1041  -1.1033
 -0.9236  -0.8871  -0.8209  -0.7970  -0.7721  -0.7236  -0.6977  -0.6794
 -0.6542  -0.6187  -0.6139  -0.5977  -0.5903  -0.5673  -0.5573  -0.5532
 -0.5519  -0.5303  -0.4949  -0.4926  -0.4904  -0.4730  -0.4593  -0.4512
 -0.4434  -0.4349  -0.4237  -0.4172  -0.3940  -0.3769  -0.3680  -0.3634
 -0.3605  -0.3558  -0.3539  -0.3532  -0.3527  -0.3480  -0.3214  -0.3204
 -0.3044  -0.3040
 -- Virtual --
 -0.1630  -0.1117  -0.1092  -0.0561  -0.0333  -0.0032   0.0116   0.0248
  0.0294   0.0316   0.0475   0.0477   0.0520   0.0566   0.0604   0.0614
  0.0669   0.0699   0.0798   0.0837   0.0875   0.0889   0.0893   0.1040
  0.1047   0.1060   0.1078   0.1186   0.1215   0.1233   0.1252   0.1305
  0.1321   0.1371   0.1413   0.1459   0.1466   0.1487   0.1506   0.1513
  0.1574   0.1578   0.1652   0.1662   0.1717   0.1750   0.1785   0.1799
  0.1846   0.1889   0.1925   0.1928   0.1997   0.2019   0.2066   0.2078
  0.2086   0.2180   0.2209   0.2250   0.2305   0.2353   0.2413   0.2437
  0.2471   0.2527   0.2552   0.2599   0.2668   0.2726   0.2749   0.2802
  0.2821   0.2855   0.2967   0.3053   0.3125   0.3165   0.3202   0.3213
  0.3272   0.3320   0.3333   0.3353   0.3427   0.3459   0.3476   0.3556
  0.3562   0.3642   0.3675   0.3700   0.3735   0.3758   0.3813   0.3838
  0.3892   0.3905   0.3927   0.4046   0.4119   0.4200   0.4262   0.4298
  0.4400   0.4470   0.4555   0.4588   0.4675   0.4818   0.4863   0.4927
  0.4957   0.5103   0.5204   0.5396   0.5474   0.5576   0.5631   0.5664
  0.5760   0.5839   0.5955   0.6148   0.6215   0.6285   0.6340   0.6464
  0.6520   0.6539   0.6596   0.6663   0.6749   0.6810   0.6930   0.7020
  0.7072   0.7244   0.7253   0.7368   0.7494   0.7536   0.7688   0.7749
  0.7825   0.7883   0.7912   0.8011   0.8112   0.8135   0.8309   0.8487
  0.8544   0.8766   0.8844   0.8917   0.9061   0.9153   0.9329   0.9555
  0.9605   0.9640   0.9694   0.9903   1.0028   1.0051   1.0245   1.0340
  1.0538   1.0670   1.0793   1.0885   1.0916   1.1054   1.1264   1.1373
  1.1546   1.1575   1.1682   1.1776   1.1893   1.1946   1.2025   1.2085
  1.2142   1.2234   1.2268   1.2281   1.2520   1.2574   1.2635   1.2903
  1.3074   1.3182   1.3304   1.3533   1.3639   1.3662   1.4036   1.4105
  1.4487   1.4571   1.4606   1.4741   1.4745   1.4930   1.5026   1.5132
  1.5173   1.5561   1.5577   1.5660   1.5814   1.5875   1.6140   1.6200
  1.6285   1.6375   1.6458   1.6466   1.6535   1.6612   1.6759   1.6792
  1.6826   1.6927   1.7000   1.7250   1.7486   1.7498   1.7535   1.7636
  1.7721   1.8021   1.8059   1.8187   1.8346   1.8391   1.8674   1.8769
  1.8930   1.9070   1.9292   1.9416   1.9599   1.9783   2.0190   2.0386
  2.0532   2.0719   2.1075   2.1258   2.1407   2.1488   2.1580   2.1689
  2.2037   2.2291   2.2401   2.2505   2.2558   2.2911   2.3248   2.3306
  2.3368   2.3483   2.3785   2.3838   2.4044   2.4403   2.4764   2.4904
  2.5062   2.5083   2.5189   2.5195   2.5258   2.5368   2.5659   2.5704
  2.5991   2.6102   2.6163   2.6539   2.6576   2.6737   2.7190   2.7240
  2.7366   2.7492   2.7577   2.7590   2.7683   2.7749   2.7909   2.7955
  2.7980   2.8300   2.8384   2.8433   2.8504   2.8569   2.8677   2.8809
  2.9003   2.9183   2.9234   2.9391   2.9579   2.9812   3.0081   3.0331
  3.0481   3.0799   3.1060   3.1322   3.1351   3.1372   3.1898   3.2449
  3.2559   3.2770   3.2905   3.3233   3.3324   3.3455   3.3655   3.3708
  3.3748   3.4312   3.4703   3.5077   3.5369   3.5441   3.5489   3.5867
  3.5895   3.6008   3.7372   3.7777   3.7821   3.7896   3.7904   3.8183
  3.8214   3.8336   3.8607   3.9000   3.9219   3.9448   4.0189   4.0935
  4.1629   4.2219   4.2747   4.3499   4.4746   4.4790   4.6386   4.7109
  4.7180   4.9848   4.9882   5.0251   5.0304   5.0360   5.0449   5.0542
  5.0720   5.1561   5.1646   5.2397   5.2867   5.6214   5.6817   5.7225
  5.7810   6.2185   6.2206  23.5097  23.6711  23.8029  23.8500  23.8825
 23.9599  23.9658  24.0041  24.1234  24.1616  35.3784  35.3942  49.8763
 49.8882  49.9427  49.9460  49.9874  50.0290
 --------------------------------------------------------------
 
          Ground-State Mulliken Net Atomic Charges

     Atom                 Charge (a.u.)
  ----------------------------------------
      1 C                    -0.873878
      2 C                    -0.249553
      3 C                     1.425833
      4 C                    -0.989090
      5 C                    -0.364910
      6 C                     1.070087
      7 O                    -0.231349
      8 O                    -0.208774
      9 C                     0.150948
     10 C                    -0.037271
     11 C                    -0.544404
     12 C                    -0.552509
     13 N                    -0.369604
     14 N                    -0.368460
     15 H                     0.197981
     16 H                     0.262284
     17 H                     0.259627
     18 H                     0.200837
     19 H                     0.197589
     20 H                     0.171469
     21 H                     0.157487
     22 H                     0.197924
     23 H                     0.158652
     24 H                     0.169816
     25 O                     0.043592
     26 O                     0.045225
     27 O                     0.042401
     28 O                     0.038050
  ----------------------------------------
  Sum of atomic charges =     0.000000

 -----------------------------------------------------------------
                    Cartesian Multipole Moments
 -----------------------------------------------------------------
    Charge (ESU x 10^10)
                 0.0000
    Dipole Moment (Debye)
         X      -0.0461      Y       0.2824      Z      -0.2545
       Tot       0.3830
    Quadrupole Moments (Debye-Ang)
        XX    -111.1721     XY       7.5405     YY    -116.8619
        XZ       7.1822     YZ     -22.1792     ZZ    -111.9889
    Octopole Moments (Debye-Ang^2)
       XXX    -681.9277    XXY     375.5620    XYY    -287.7082
       YYY    1088.3467    XXZ    -165.1650    XYZ     -59.3319
       YYZ     -53.6168    XZZ    -195.5943    YZZ     256.2184
       ZZZ    -594.9006
    Hexadecapole Moments (Debye-Ang^3)
      XXXX   -3483.1151   XXXY    2421.5940   XXYY   -2192.3271
      XYYY    2713.0188   YYYY   -8733.8079   XXXZ    -790.5884
      XXYZ     440.4193   XYYZ     -16.8899   YYYZ    1114.0925
      XXZZ   -1338.1950   XYZZ     522.1606   YYZZ   -1649.6779
      XZZZ    -782.1498   YZZZ    1374.6587   ZZZZ   -5165.5215
 -----------------------------------------------------------------
 Total job time:  825.26s(wall), 5378.04s(cpu) 
 Sat Feb  3 10:41:01 2024

        *************************************************************
        *                                                           *
        *  Thank you very much for using Q-Chem.  Have a nice day.  *
        *                                                           *
        *************************************************************


