
Running Job 1 of 1 079-an-COSMO.in
qchem 079-an-COSMO.in_438431.0 /expanse/lustre/scratch/selhajj/temp_project/qcscratch/28869402/qchem438431/ 0
/cm/shared/apps/spack/cpu/opt/spack/linux-centos8-zen2/gcc-10.2.0/qchem-5.4-akfmr7b3t57bfs6qan3padb2wnb2i7cl/exe/qcprog.exe_s 079-an-COSMO.in_438431.0 /expanse/lustre/scratch/selhajj/temp_project/qcscratch/28869402/qchem438431/
                  Welcome to Q-Chem
     A Quantum Leap Into The Future Of Chemistry


 Q-Chem 5.4, Q-Chem, Inc., Pleasanton, CA (2021)

 License issued to: University of California, San Diego (site)

 E. Epifanovsky,  A. T. B. Gilbert,  Xintian Feng,  Joonho Lee,  Yuezhi Mao,  
 N. Mardirossian,  P. Pokhilko,  A. White,  M. Wormit,  M. P. Coons,  
 A. L. Dempwolff,  Zhengting Gan,  D. Hait,  P. R. Horn,  L. D. Jacobson,  
 I. Kaliman,  J. Kussmann,  A. W. Lange,  Ka Un Lao,  D. S. Levine,  Jie Liu,  
 S. C. McKenzie,  A. F. Morrison,  K. Nanda,  F. Plasser,  D. R. Rehn,  
 M. L. Vidal,  Zhi-Qiang You,  Ying Zhu,  B. Alam,  B. Albrecht,  
 A. Aldossary,  E. Alguire,  J. H. Andersen,  D. Barton,  K. Begam,  A. Behn,  
 Y. A. Bernard,  E. J. Berquist,  H. Burton,  A. Carreras,  K. Carter-Fenk,  
 R. Chakraborty,  A. D. Chien,  K. D. Closser,  V. Cofer-Shabica,  
 S. Dasgupta,  Jia Deng,  M. de Wergifosse,  M. Diedenhofen,  Hainam Do,  
 S. Ehlert,  Po-Tung Fang,  S. Fatehi,  Qingguo Feng,  J. Gayvert,  
 Qinghui Ge,  G. Gidofalvi,  M. Goldey,  J. Gomes,  C. Gonzalez-Espinoza,  
 S. Gulania,  A. Gunina,  M. W. D. Hanson-Heine,  P. H. P. Harbach,  
 A. W. Hauser,  M. F. Herbst,  M. Hernandez Vera,  M. Hodecker,  
 Z. C. Holden,  S. Houck,  Xunkun Huang,  Kerwin Hui,  B. C. Huynh,  
 M. Ivanov,  Hyunjun Ji,  Hanjie Jiang,  B. Kaduk,  S. Kaehler,  
 K. Khistyaev,  Jaehoon Kim,  P. Klunzinger,  Z. Koczor-Benda,  
 Joong Hoon Koh,  D. Kosenkov,  L. Koulias,  T. Kowalczyk,  C. M. Krauter,  
 K. Kue,  A. Kunitsa,  T. Kus,  A. Landau,  K. V. Lawler,  D. Lefrancois,  
 S. Lehtola,  Rain Li,  Yi-Pei Li,  Jiashu Liang,  M. Liebenthal,  
 Hung-Hsuan Lin,  You-Sheng Lin,  Fenglai Liu,  Kuan-Yu Liu,  
 M. Loipersberger,  A. Luenser,  A. Manjanath,  P. Manohar,  E. Mansoor,  
 S. F. Manzer,  Shan-Ping Mao,  A. V. Marenich,  T. Markovich,  S. Mason,  
 S. A. Maurer,  P. F. McLaughlin,  M. F. S. J. Menger,  J.-M. Mewes,  
 S. A. Mewes,  P. Morgante,  J. W. Mullinax,  T. S. Nguyen-Beck,  
 K. J. Oosterbaan,  G. Paran,  Alexander C. Paul,  Suranjan K. Paul,  
 F. Pavosevic,  Zheng Pei,  S. Prager,  E. I. Proynov,  E. Ramos,  B. Rana,  
 A. E. Rask,  A. Rettig,  R. M. Richard,  F. Rob,  E. Rossomme,  T. Scheele,  
 M. Scheurer,  M. Schneider,  N. Sergueev,  S. M. Sharada,  W. Skomorowski,  
 D. W. Small,  C. J. Stein,  Yu-Chuan Su,  E. J. Sundstrom,  Zhen Tao,  
 J. Thirman,  T. Tsuchimochi,  N. M. Tubman,  S. P. Veccham,  O. Vydrov,  
 J. Wenzel,  J. Witte,  A. Yamada,  Kun Yao,  S. Yeganeh,  S. R. Yost,  
 A. Zech,  Igor Ying Zhang,  Xing Zhang,  Yu Zhang,  D. Zuev,  
 A. Aspuru-Guzik,  A. T. Bell,  N. A. Besley,  K. B. Bravaya,  B. R. Brooks,  
 D. Casanova,  Jeng-Da Chai,  S. Coriani,  C. J. Cramer,  
 A. E. DePrince, III,  R. A. DiStasio Jr.,  A. Dreuw,  B. D. Dunietz,  
 T. R. Furlani,  W. A. Goddard III,  S. Grimme,  S. Hammes-Schiffer,  
 T. Head-Gordon,  W. J. Hehre,  Chao-Ping Hsu,  T.-C. Jagau,  Yousung Jung,  
 A. Klamt,  Jing Kong,  D. S. Lambrecht,  WanZhen Liang,  N. J. Mayhall,  
 C. W. McCurdy,  J. B. Neaton,  C. Ochsenfeld,  J. A. Parkhill,  R. Peverati,  
 V. A. Rassolov,  Yihan Shao,  L. V. Slipchenko,  T. Stauch,  R. P. Steele,  
 J. E. Subotnik,  A. J. W. Thom,  A. Tkatchenko,  D. G. Truhlar,  
 T. Van Voorhis,  T. A. Wesolowski,  K. B. Whaley,  H. L. Woodcock III,  
 P. M. Zimmerman,  S. Faraji,  P. M. W. Gill,  M. Head-Gordon,  
 J. M. Herbert,  A. I. Krylov

 Contributors to earlier versions of Q-Chem not listed above: 
 R. D. Adamson,  B. Austin,  R. Baer,  J. Baker,  G. J. O. Beran,  
 K. Brandhorst,  S. T. Brown,  E. F. C. Byrd,  A. K. Chakraborty,  
 G. K. L. Chan,  Chun-Min Chang,  Yunqing Chen,  C.-L. Cheng,  
 Siu Hung Chien,  D. M. Chipman,  D. L. Crittenden,  H. Dachsel,  
 R. J. Doerksen,  A. D. Dutoi,  R. G. Edgar,  J. Fosso-Tande,  
 L. Fusti-Molnar,  D. Ghosh,  A. Ghysels,  A. Golubeva-Zadorozhnaya,  
 J. Gonthier,  M. S. Gordon,  S. R. Gwaltney,  G. Hawkins,  J. E. Herr,  
 A. Heyden,  S. Hirata,  E. G. Hohenstein,  G. Kedziora,  F. J. Keil,  
 C. Kelley,  Jihan Kim,  R. A. King,  R. Z. Khaliullin,  P. P. Korambath,  
 W. Kurlancheek,  A. Laurent,  A. M. Lee,  M. S. Lee,  S. V. Levchenko,  
 Ching Yeh Lin,  D. Liotard,  E. Livshits,  R. C. Lochan,  I. Lotan,  
 L. A. Martinez-Martinez,  P. E. Maslen,  N. Nair,  D. P. O'Neill,  
 D. Neuhauser,  E. Neuscamman,  C. M. Oana,  R. Olivares-Amaya,  R. Olson,  
 T. M. Perrine,  B. Peters,  P. A. Pieniazek,  A. Prociuk,  Y. M. Rhee,  
 J. Ritchie,  M. A. Rohrdanz,  E. Rosta,  N. J. Russ,  H. F. Schaefer III,  
 M. W. Schmidt,  N. E. Schultz,  S. Sharma,  N. Shenvi,  C. D. Sherrill,  
 A. C. Simmonett,  A. Sodt,  T. Stein,  D. Stuck,  K. S. Thanthiriwatte,  
 V. Vanovschi,  L. Vogt,  Tao Wang,  A. Warshel,  M. A. Watson,  
 C. F. Williams,  Q. Wu,  X. Xu,  Jun Yang,  W. Zhang,  Yan Zhao

 Please cite Q-Chem as follows:
 Y. Shao et al., Mol. Phys. 113, 184-215 (2015)
 DOI: 10.1080/00268976.2014.952696

 Q-Chem 5.4.0 for Intel X86 EM64T Linux

 Parts of Q-Chem use Armadillo 9.800.1 (Horizon Scraper).
 http://arma.sourceforge.net/

 Q-Chem begins on Thu Feb 22 03:57:25 2024  

 Host: 
0

     Scratch files written to /expanse/lustre/scratch/selhajj/temp_project/qcscratch/28869402/qchem438431//
 May1621 |scratch|qcdevops|jenkins|workspace|build_RNUM    
 Processing $rem in /cm/shared/apps/spack/cpu/opt/spack/linux-centos8-zen2/gcc-10.2.0/qchem-5.4-akfmr7b3t57bfs6qan3padb2wnb2i7cl/config/preferences:
 Processing $rem in /home/selhajj/.qchemrc:

 Checking the input file for inconsistencies... 
 Q-Chem warning in module libgen/CheckREMs.C, line 172:

 Found a $solvent section, which is only used for PCM and Kirkwood-Onsager solvation models

	...done.

--------------------------------------------------------------
User input:
--------------------------------------------------------------
$molecule
-2 1
C                  1.3292440000      1.0456640000     -2.9831660000
C                  0.0212250000      1.4078550000     -3.4708720000
C                 -1.1112250000      0.7098810000     -3.1274280000
C                 -1.1126770000     -0.4575150000     -2.2760330000
C                  0.1776900000     -0.8804630000     -1.8254750000
O                  2.3433960000      1.7945440000     -3.1878070000
O                 -2.2200520000     -1.0669990000     -1.9945940000
H                 -0.0320960000      2.2992690000     -4.0945980000
C                  1.3727270000     -0.1815700000     -2.1924380000
C                  2.6788180000     -0.6189060000     -1.7028270000
C                  3.8939960000     -0.5539220000     -2.6121240000
C                  5.1713480000     -0.5681450000     -2.0324870000
C                  3.8065940000     -0.6476000000     -4.0087520000
C                  6.3216540000     -0.6593830000     -2.8163370000
C                  6.2205100000     -0.7582790000     -4.2041690000
C                  4.9504080000     -0.7540480000     -4.7938510000
O                  2.8734560000     -1.1275300000     -0.5799540000
C                  0.2122480000     -2.1641820000     -1.0296720000
H                  5.2354890000     -0.5189890000     -0.9514170000
H                  2.8244640000     -0.6330370000     -4.4662690000
H                  7.3026000000     -0.6659470000     -2.3442210000
H                  7.1152620000     -0.8509310000     -4.8167340000
H                  4.8560500000     -0.8292840000     -5.8743270000
H                 -2.0865450000      1.0262180000     -3.4987130000
H                  0.3122430000     -1.9849850000      0.0493740000
H                  1.0586410000     -2.8008070000     -1.3085880000
H                 -0.7310560000     -2.6917090000     -1.1974010000
$end
$rem
MAX_SCF_CYCLES=200
BASIS  =  6-311++G(d,p)
GUI  =  2
JOB_TYPE  =  SP
METHOD  =  B3LYP
SOLVENT_METHOD = COSMO
$end
$solvent
dielectric 37.219
opticaldielectric 1.43
$end





--------------------------------------------------------------
 ----------------------------------------------------------------
             Standard Nuclear Orientation (Angstroms)
    I     Atom           X                Y                Z
 ----------------------------------------------------------------
    1      C       0.7905238043     1.3000474096    -0.6602852795
    2      C       2.0036495470     2.0385996142    -0.4096466135
    3      C       3.1532663351     1.4346155784     0.0388497783
    4      C       3.2636079761     0.0232018383     0.3276835573
    5      C       2.0590892657    -0.7278504021     0.1488268399
    6      O      -0.2163408413     1.8504701907    -1.2210542337
    7      O       4.3807547958    -0.4782739928     0.7489471584
    8      H       1.9776007846     3.1029564555    -0.6397816778
    9      C       0.8437838705    -0.1128020037    -0.2938637565
   10      C      -0.3698010752    -0.9036351167    -0.4904597266
   11      C      -1.7236565947    -0.3283591403    -0.1112047864
   12      C      -2.8778734953    -0.8937221580    -0.6733057400
   13      C      -1.8883339679     0.6304115991     0.8990548236
   14      C      -4.1513110033    -0.5088305396    -0.2535862574
   15      C      -4.3011020424     0.4414645601     0.7566563155
   16      C      -3.1561524712     1.0065526847     1.3316934828
   17      O      -0.3806491728    -2.0847495786    -0.8932959776
   18      C       2.1200019582    -2.1818501830     0.5545427778
   19      H      -2.7477853872    -1.6513773097    -1.4376868494
   20      H      -1.0028474766     1.0761684297     1.3364650943
   21      H      -5.0327614608    -0.9596136029    -0.7063901656
   22      H      -5.2929132234     0.7281742299     1.1009084909
   23      H      -3.2573501052     1.7492386958     2.1192014524
   24      H       4.0581368564     2.0223155863     0.1969282127
   25      H       2.2191275244    -2.8533958640    -0.3089682849
   26      H       1.2153365061    -2.5020119027     1.0823150101
   27      H       2.9991850879    -2.3190901184     1.1905006491
 ----------------------------------------------------------------
 Molecular Point Group                 C1    NOp =  1
 Largest Abelian Subgroup              C1    NOp =  1
 Nuclear Repulsion Energy =        1102.59495300 hartrees
 There are       60 alpha and       60 beta electrons
 Requested basis set is 6-311++G(d,p)
 There are 152 shells and 444 basis functions

 Total QAlloc Memory Limit   8000 MB
 Mega-Array Size       188 MB
 MEM_STATIC part       192 MB
 A cutoff of  1.0D-08 yielded   8210 shell pairs
 There are     72313 function pairs (     77356 Cartesian)
 Smallest overlap matrix eigenvalue = 4.42E-07

 Q-Chem warning in module stvman/mkSTV.C, line 323:

 Overlap eigenvalue is smaller than square root of threshold
 Use THRESH >= 12 to get rid of this warning

 Linear dependence detected in AO basis
 Tighter screening thresholds may be required for diffuse basis sets
 Use S2THRESH > 14 and THRESH = 14 in case of SCF convergence issues
 Number of orthogonalized atomic orbitals = 441
 Maximum deviation from orthogonality = 1.173E-10

 Scale SEOQF with 1.000000e-02/1.000000e-01/1.000000e-01

 Standard Electronic Orientation quadrupole field applied
 Nucleus-field energy     =     0.0000000106 hartrees
 Guess from superposition of atomic densities
 Warning:  Energy on first SCF cycle will be non-variational
 SAD guess density has 118.000000 electrons

 -----------------------------------------------------------------------
  General SCF calculation program by
  Eric Jon Sundstrom, Paul Horn, Yuezhi Mao, Dmitri Zuev, Alec White,
  David Stuck, Shaama M.S., Shane Yost, Joonho Lee, David Small,
  Daniel Levine, Susi Lehtola, Hugh Burton, Evgeny Epifanovsky,
  Bang C. Huynh
 -----------------------------------------------------------------------
 Exchange:     0.2000 Hartree-Fock + 0.0800 Slater + 0.7200 B88
 Correlation:  0.1900 VWN1RPA + 0.8100 LYP
 Using SG-1 standard quadrature grid
 using 8 threads for integral computing
 -------------------------------------------------------
 OpenMP Integral computing Module                
 Release: version 1.0, May 2013, Q-Chem Inc. Pittsburgh 
 -------------------------------------------------------
 A restricted SCF calculation will be
 performed using DIIS
 SCF converges when DIIS error is below 1.0e-05
 ---------------------------------------
  Cycle       Energy         DIIS error
 ---------------------------------------
    1    -768.9661757409      3.06e-02  
    2    -764.8554362260      4.55e-03  
    3    -754.3069560984      1.34e-02  
    4    -764.8592147230      4.39e-03  
    5    -765.2758224801      1.54e-03  
    6    -765.3124996518      1.48e-03  
    7    -765.3582898936      4.20e-04  
    8    -765.3605078489      2.98e-04  
    9    -765.3620300959      1.69e-04  
   10    -765.3627662954      8.27e-05  
   11    -765.3629181445      5.66e-05  
   12    -765.3630233371      2.27e-05  
   13    -765.3630436976      5.09e-06  Convergence criterion met
 ---------------------------------------
 SCF time:   CPU 338.75s  wall 43.00s 
 SCF   energy in the final basis set =     -765.3630436976
 Total energy in the final basis set =     -765.3630436976
 Exchange:     0.2000 Hartree-Fock + 0.0800 Slater + 0.7200 B88
 Correlation:  0.1900 VWN1RPA + 0.8100 LYP
 Using SG-1 standard quadrature grid
 in get_qchem_info
 IBasis=      401111
 IBasis=      401111
 USING 1082 GRID
 MICHARGE=          -2
 Set epsilon to    37.2190017700195     
==== cosmo data ====
outfile: 079-an-COSMO.out.cosmo.0
phsran:    0.00000D+00
ampran:    0.10000D-04
volume:   1794.1036604
area:    874.5592273
routf:      0.8500000
rsolv [a.u]:      2.4566438
disex:     10.0000000
disex2:   4513.4190389
fepsi:      0.9731320
eps :    37.2190018
lcavity:     1
nppa:  1082
nspa:    92
nsph:    32
maxnps:  1884
natoms:    27
Atom   Radius [a.u.] nuc. charge
    1      3.7794520    6
    2      3.7794520    6
    3      3.7794520    6
    4      3.7794520    6
    5      3.7794520    6
    6      3.2503287    8
    7      3.2503287    8
    8      2.4566438    1
    9      3.7794520    6
   10      3.7794520    6
   11      3.7794520    6
   12      3.7794520    6
   13      3.7794520    6
   14      3.7794520    6
   15      3.7794520    6
   16      3.7794520    6
   17      3.2503287    8
   18      3.7794520    6
   19      2.4566438    1
   20      2.4566438    1
   21      2.4566438    1
   22      2.4566438    1
   23      2.4566438    1
   24      2.4566438    1
   25      2.4566438    1
   26      2.4566438    1
   27      2.4566438    1
=== end cosmo data ===
 number of segments:         1059
 f_epsilon=  0.973132003749614     
Ediel:   -0.2504196
 A restricted SCF calculation will be
 performed using Roothaan-Hall, DIIS
 SCF converges when DIIS error is below 1.0e-05
 ---------------------------------------
  Cycle       Energy         DIIS error
 ---------------------------------------
 number of segments:         1059
 f_epsilon=  0.973132003749614     
Ediel:   -0.3073016
    1    -765.6134653006      4.13e-04  Roothaan Step
 ---------------------------------------
  Cycle       Energy         DIIS error
 ---------------------------------------
 number of segments:         1059
 f_epsilon=  0.973132003749614     
Ediel:   -0.2890390
    1    -765.6381790612      4.96e-04  
 number of segments:         1059
 f_epsilon=  0.973132003749614     
Ediel:   -0.3005179
    2    -765.6262962898      9.36e-04  
 number of segments:         1059
 f_epsilon=  0.973132003749614     
Ediel:   -0.3014814
    3    -765.6441265039      1.29e-04  
 number of segments:         1059
 f_epsilon=  0.973132003749614     
Ediel:   -0.3016744
    4    -765.6444893242      3.17e-05  
 number of segments:         1059
 f_epsilon=  0.973132003749614     
Ediel:   -0.3018515
    5    -765.6445097348      1.91e-05  
    6    -765.6445201129      5.24e-06  Convergence criterion met
 ---------------------------------------
 SCF time:   CPU 201.49s  wall 26.00s 
before final oc correction, ETot:      -765.6445201129
 number of outlayer segments:          467
SCF energy after oc correction:      -765.6588030730
 SCF   energy in the final basis set =     -765.6588030730
 Total energy in the final basis set =     -765.6445201129
 
 --------------------------------------------------------------
 
                    Orbital Energies (a.u.)
 --------------------------------------------------------------
 
 Alpha MOs
 -- Occupied --
-19.0825 -19.0317 -19.0207 -10.2339 -10.1896 -10.1724 -10.1717 -10.1707
-10.1687 -10.1677 -10.1668 -10.1657 -10.1372 -10.1361 -10.1354 -10.1319
-10.1304  -1.0080  -0.9535  -0.9357  -0.8500  -0.7895  -0.7519  -0.7400
 -0.7325  -0.6874  -0.6325  -0.6193  -0.5988  -0.5773  -0.5301  -0.5265
 -0.4908  -0.4543  -0.4512  -0.4430  -0.4301  -0.4232  -0.4139  -0.4116
 -0.3920  -0.3812  -0.3764  -0.3673  -0.3643  -0.3554  -0.3514  -0.3435
 -0.3322  -0.3274  -0.3206  -0.3177  -0.2546  -0.2530  -0.2360  -0.2344
 -0.2177  -0.2051  -0.1996  -0.1269
 -- Virtual --
 -0.0486  -0.0067   0.0003   0.0037   0.0107   0.0164   0.0230   0.0281
  0.0369   0.0409   0.0447   0.0465   0.0504   0.0556   0.0627   0.0665
  0.0723   0.0798   0.0837   0.0874   0.0924   0.0952   0.1015   0.1064
  0.1099   0.1139   0.1195   0.1259   0.1300   0.1310   0.1320   0.1345
  0.1405   0.1414   0.1437   0.1453   0.1466   0.1504   0.1517   0.1542
  0.1601   0.1641   0.1675   0.1715   0.1779   0.1810   0.1829   0.1901
  0.1911   0.1957   0.2000   0.2021   0.2127   0.2163   0.2211   0.2240
  0.2253   0.2297   0.2337   0.2367   0.2427   0.2454   0.2462   0.2589
  0.2639   0.2666   0.2699   0.2729   0.2753   0.2778   0.2861   0.2929
  0.2946   0.2990   0.3056   0.3102   0.3137   0.3176   0.3243   0.3277
  0.3295   0.3341   0.3356   0.3401   0.3416   0.3479   0.3515   0.3583
  0.3620   0.3673   0.3704   0.3809   0.3841   0.3901   0.3951   0.4026
  0.4082   0.4128   0.4217   0.4231   0.4408   0.4501   0.4608   0.4832
  0.5019   0.5122   0.5203   0.5287   0.5475   0.5519   0.5575   0.5630
  0.5694   0.5710   0.5816   0.5865   0.5969   0.6030   0.6075   0.6209
  0.6267   0.6392   0.6423   0.6487   0.6558   0.6630   0.6699   0.6778
  0.6828   0.6965   0.7071   0.7128   0.7194   0.7231   0.7250   0.7313
  0.7383   0.7402   0.7454   0.7513   0.7619   0.7734   0.7827   0.7940
  0.7945   0.8076   0.8143   0.8218   0.8308   0.8368   0.8563   0.8665
  0.8727   0.8870   0.8899   0.8987   0.9127   0.9152   0.9268   0.9315
  0.9381   0.9453   0.9585   0.9690   0.9871   1.0002   1.0135   1.0149
  1.0274   1.0381   1.0491   1.0691   1.0799   1.0824   1.0872   1.1141
  1.1165   1.1283   1.1438   1.1513   1.1738   1.1893   1.1954   1.2155
  1.2344   1.2420   1.2526   1.2703   1.2831   1.2934   1.3081   1.3178
  1.3284   1.3416   1.3524   1.3577   1.3924   1.4108   1.4285   1.4508
  1.5039   1.5165   1.5216   1.5309   1.5415   1.5537   1.5562   1.5657
  1.5768   1.5797   1.5921   1.5956   1.6109   1.6186   1.6361   1.6400
  1.6570   1.6615   1.6699   1.6831   1.7202   1.7255   1.7328   1.7430
  1.7574   1.7752   1.7856   1.7986   1.8046   1.8197   1.8332   1.8451
  1.8578   1.8642   1.8732   1.8963   1.9150   1.9211   1.9246   1.9467
  1.9509   1.9687   1.9792   1.9868   1.9931   2.0028   2.0167   2.0240
  2.0340   2.0483   2.0620   2.0700   2.1061   2.1101   2.1346   2.1514
  2.1645   2.1888   2.1960   2.2125   2.2392   2.2894   2.3140   2.3217
  2.3502   2.3737   2.3767   2.4192   2.4520   2.4615   2.4682   2.4752
  2.4842   2.5238   2.5472   2.5992   2.6171   2.6385   2.6461   2.6542
  2.6814   2.6853   2.6976   2.7182   2.7246   2.7298   2.7446   2.7536
  2.7574   2.7694   2.7749   2.7850   2.7936   2.8147   2.8238   2.8358
  2.8411   2.8455   2.8586   2.8773   2.8890   2.9073   2.9296   2.9441
  2.9483   2.9722   2.9726   2.9850   3.0075   3.0180   3.0219   3.0656
  3.0887   3.1092   3.1430   3.1583   3.1853   3.2161   3.2283   3.2435
  3.2754   3.3054   3.3458   3.3552   3.3634   3.3762   3.3940   3.4053
  3.4645   3.4920   3.5124   3.5350   3.5464   3.5621   3.6102   3.6242
  3.6508   3.6670   3.7848   3.7967   3.8326   3.8914   3.9751   4.0131
  4.0481   4.0971   4.1624   4.1743   4.2070   4.2584   4.2942   4.3585
  4.4826   4.8246   4.8547   5.1399   5.1403   5.1818   5.2850   5.2914
  5.3264   5.7486   5.7922   5.8614  23.6165  23.6985  23.8844  23.9011
 23.9627  23.9710  23.9758  23.9871  23.9943  24.0673  24.0770  24.1113
 24.1951  24.1974  50.0292  50.0766  50.1140
 --------------------------------------------------------------
 
          Ground-State Mulliken Net Atomic Charges

     Atom                 Charge (a.u.)
  ----------------------------------------
      1 C                    -0.738172
      2 C                    -0.209208
      3 C                    -0.057602
      4 C                    -0.473661
      5 C                     0.832289
      6 O                    -0.610444
      7 O                    -0.766226
      8 H                     0.168174
      9 C                     0.976913
     10 C                    -1.410035
     11 C                     1.331999
     12 C                     0.673213
     13 C                    -1.086783
     14 C                    -0.532548
     15 C                    -0.308669
     16 C                    -0.519620
     17 O                    -0.370150
     18 C                    -0.531184
     19 H                     0.213206
     20 H                     0.178535
     21 H                     0.206416
     22 H                     0.193055
     23 H                     0.210959
     24 H                     0.165197
     25 H                     0.161498
     26 H                     0.155979
     27 H                     0.146866
  ----------------------------------------
  Sum of atomic charges =    -2.000000

 -----------------------------------------------------------------
                    Cartesian Multipole Moments
 -----------------------------------------------------------------
    Charge (ESU x 10^10)
                -9.6064
    Dipole Moment (Debye)
         X     -17.1348      Y       0.1169      Z       3.2391
       Tot      17.4387
    Quadrupole Moments (Debye-Ang)
        XX    -183.2399     XY       8.3019     YY    -131.1462
        XZ     -14.6512     YZ       8.8766     ZZ    -116.1160
    Octopole Moments (Debye-Ang^2)
       XXX    -409.3504    XXY      37.7510    XYY      -4.8330
       YYY      -0.5175    XXZ     -56.0068    XYZ      -6.2043
       YYZ      25.7855    XZZ     -20.6634    YZZ      -7.0090
       ZZZ       5.6048
    Hexadecapole Moments (Debye-Ang^3)
      XXXX   -5917.4316   XXXY     183.4912   XXYY    -988.6776
      XYYY      11.6050   YYYY   -1319.4407   XXXZ    -282.2175
      XXYZ      85.9655   XYYZ     -19.8788   YYYZ      26.2483
      XXZZ    -899.1092   XYZZ      -8.9828   YYZZ    -306.8549
      XZZZ     -15.0397   YZZZ      36.2978   ZZZZ    -486.8985
 -----------------------------------------------------------------
 Total job time:  71.75s(wall), 548.31s(cpu) 
 Thu Feb 22 03:58:37 2024

        *************************************************************
        *                                                           *
        *  Thank you very much for using Q-Chem.  Have a nice day.  *
        *                                                           *
        *************************************************************


