 Entering Gaussian System, Link 0=g16
 Input=021.com
 Output=021.log
 Initial command:
 /sysapps/ubuntu-applications/gaussian/Gaussian/AVX2/g16/l1.exe "/scratch/selhajj1/4406298/Gau-153751.inp" -scrdir="/scratch/selhajj1/4406298/"
 Entering Link 1 = /sysapps/ubuntu-applications/gaussian/Gaussian/AVX2/g16/l1.exe PID=    153756.
  
 Copyright (c) 1988,1990,1992,1993,1995,1998,2003,2009,2016,
            Gaussian, Inc.  All Rights Reserved.
  
 This is part of the Gaussian(R) 16 program.  It is based on
 the Gaussian(R) 09 system (copyright 2009, Gaussian, Inc.),
 the Gaussian(R) 03 system (copyright 2003, Gaussian, Inc.),
 the Gaussian(R) 98 system (copyright 1998, Gaussian, Inc.),
 the Gaussian(R) 94 system (copyright 1995, Gaussian, Inc.),
 the Gaussian 92(TM) system (copyright 1992, Gaussian, Inc.),
 the Gaussian 90(TM) system (copyright 1990, Gaussian, Inc.),
 the Gaussian 88(TM) system (copyright 1988, Gaussian, Inc.),
 the Gaussian 86(TM) system (copyright 1986, Carnegie Mellon
 University), and the Gaussian 82(TM) system (copyright 1983,
 Carnegie Mellon University). Gaussian is a federally registered
 trademark of Gaussian, Inc.
  
 This software contains proprietary and confidential information,
 including trade secrets, belonging to Gaussian, Inc.
  
 This software is provided under written license and may be
 used, copied, transmitted, or stored only in accord with that
 written license.
  
 The following legend is applicable only to US Government
 contracts under FAR:
  
                    RESTRICTED RIGHTS LEGEND
  
 Use, reproduction and disclosure by the US Government is
 subject to restrictions as set forth in subparagraphs (a)
 and (c) of the Commercial Computer Software - Restricted
 Rights clause in FAR 52.227-19.
  
 Gaussian, Inc.
 340 Quinnipiac St., Bldg. 40, Wallingford CT 06492
  
  
 ---------------------------------------------------------------
 Warning -- This program may not be used in any manner that
 competes with the business of Gaussian, Inc. or will provide
 assistance to any competitor of Gaussian, Inc.  The licensee
 of this program is prohibited from giving any competitor of
 Gaussian, Inc. access to this program.  By using this program,
 the user acknowledges that Gaussian, Inc. is engaged in the
 business of creating and licensing software in the field of
 computational chemistry and represents and warrants to the
 licensee that it is not a competitor of Gaussian, Inc. and that
 it will not use this program in any manner prohibited above.
 ---------------------------------------------------------------
  

 Cite this work as:
 Gaussian 16, Revision A.03,
 M. J. Frisch, G. W. Trucks, H. B. Schlegel, G. E. Scuseria, 
 M. A. Robb, J. R. Cheeseman, G. Scalmani, V. Barone, 
 G. A. Petersson, H. Nakatsuji, X. Li, M. Caricato, A. V. Marenich, 
 J. Bloino, B. G. Janesko, R. Gomperts, B. Mennucci, H. P. Hratchian, 
 J. V. Ortiz, A. F. Izmaylov, J. L. Sonnenberg, D. Williams-Young, 
 F. Ding, F. Lipparini, F. Egidi, J. Goings, B. Peng, A. Petrone, 
 T. Henderson, D. Ranasinghe, V. G. Zakrzewski, J. Gao, N. Rega, 
 G. Zheng, W. Liang, M. Hada, M. Ehara, K. Toyota, R. Fukuda, 
 J. Hasegawa, M. Ishida, T. Nakajima, Y. Honda, O. Kitao, H. Nakai, 
 T. Vreven, K. Throssell, J. A. Montgomery, Jr., J. E. Peralta, 
 F. Ogliaro, M. J. Bearpark, J. J. Heyd, E. N. Brothers, K. N. Kudin, 
 V. N. Staroverov, T. A. Keith, R. Kobayashi, J. Normand, 
 K. Raghavachari, A. P. Rendell, J. C. Burant, S. S. Iyengar, 
 J. Tomasi, M. Cossi, J. M. Millam, M. Klene, C. Adamo, R. Cammi, 
 J. W. Ochterski, R. L. Martin, K. Morokuma, O. Farkas, 
 J. B. Foresman, and D. J. Fox, Gaussian, Inc., Wallingford CT, 2016.
 
 ******************************************
 Gaussian 16:  ES64L-G16RevA.03 25-Dec-2016
                10-Feb-2024 
 ******************************************
 %chk=021.chk
 %nproc=8
 Will use up to    8 processors via shared memory.
 %mem=30GB
 ----------------------------------------------------------------------
 #P UB3LYP/6-311++G(d,p) nosym opt freq SCRF=(PCM,Solvent=n,n-DiMethylF
 ormamide)
 ----------------------------------------------------------------------
 1/18=20,19=15,26=3,38=1/1,3;
 2/9=110,12=2,15=1,17=6,18=5,40=1/2;
 3/5=4,6=6,7=1111,11=2,25=1,30=1,70=2201,71=1,72=148,74=-5,116=2/1,2,3;
 4//1;
 5/5=2,38=5,53=148/2;
 6/7=2,8=2,9=2,10=2,28=1/1;
 7/30=1/1,2,3,16;
 1/18=20,19=15,26=3/3(2);
 2/9=110,15=1/2;
 99//99;
 2/9=110,15=1/2;
 3/5=4,6=6,7=1111,11=2,25=1,30=1,70=2205,71=1,72=148,74=-5,116=2/1,2,3;
 4/5=5,16=3,69=1/1;
 5/5=2,38=5,53=148/2;
 7/30=1/1,2,3,16;
 1/18=20,19=15,26=3/3(-5);
 2/9=110,15=1/2;
 6/7=2,8=2,9=2,10=2,19=2,28=1/1;
 99/9=1/99;
 Leave Link    1 at Sat Feb 10 10:01:30 2024, MaxMem=  4026531840 cpu:               0.7 elap:               0.1
 (Enter /sysapps/ubuntu-applications/gaussian/Gaussian/AVX2/g16/l101.exe)
 --------
 Oxidized
 --------
 Symbolic Z-matrix:
 Charge =  0 Multiplicity = 1
 Br                   -1.60357   2.54795   1.34498 
 C                    -0.77477   1.0562    0.50491 
 C                    -1.47712   0.05181  -0.05722 
 C                    -0.72626  -1.04001  -0.77505 
 O                    -1.32692  -1.94612  -1.3106 
 C                     0.76928  -0.97001  -0.80806 
 C                     1.47341   0.0063   -0.20051 
 C                     0.7218    1.11038   0.4975 
 O                     1.32252   2.01579   1.03417 
 C                     2.9547    0.09392  -0.15848 
 C                     3.61713   1.19249  -0.71901 
 C                     5.00581   1.27103  -0.67694 
 C                     5.74617   0.26876  -0.0524 
 C                     5.09169  -0.8176    0.52547 
 C                     3.70416  -0.90864   0.46771 
 Br                    1.59146  -2.35898  -1.8143 
 C                    -2.95581  -0.07698  -0.03314 
 C                    -3.68667  -0.09138  -1.22708 
 C                    -5.07255  -0.21375  -1.20025 
 C                    -5.74099  -0.34967   0.01524 
 C                    -5.01752  -0.35628   1.20646 
 C                    -3.63323  -0.21442   1.18386 
 H                     3.04726   1.9831   -1.19139 
 H                     5.50842   2.12078  -1.12439 
 H                     6.82739   0.33637  -0.01215 
 H                     5.66038  -1.5962    1.02084 
 H                     3.20002  -1.7561    0.91669 
 H                    -3.17231  -0.00288  -2.17607 
 H                    -5.6289   -0.21229  -2.1305 
 H                    -6.81983  -0.45459   0.03372 
 H                    -5.5298   -0.47067   2.15487 
 H                    -3.07533  -0.21833   2.11265 
 
 ITRead=  0  0  0  0  0  0  0  0  0  0  0  0  0  0  0  0  0  0  0  0
 ITRead=  0  0  0  0  0  0  0  0  0  0  0  0
 MicOpt= -1 -1 -1 -1 -1 -1 -1 -1 -1 -1 -1 -1 -1 -1 -1 -1 -1 -1 -1 -1
 MicOpt= -1 -1 -1 -1 -1 -1 -1 -1 -1 -1 -1 -1
 NAtoms=     32 NQM=       32 NQMF=       0 NMMI=      0 NMMIF=      0
                NMic=       0 NMicF=      0.
                    Isotopes and Nuclear Properties:
 (Nuclear quadrupole moments (NQMom) in fm**2, nuclear magnetic moments (NMagM)
  in nuclear magnetons)

  Atom         1           2           3           4           5           6           7           8           9          10
 IAtWgt=          79          12          12          12          16          12          12          12          16          12
 AtmWgt=  78.9183361  12.0000000  12.0000000  12.0000000  15.9949146  12.0000000  12.0000000  12.0000000  15.9949146  12.0000000
 NucSpn=           3           0           0           0           0           0           0           0           0           0
 AtZEff=  -0.0000000  -0.0000000  -0.0000000  -0.0000000  -0.0000000  -0.0000000  -0.0000000  -0.0000000  -0.0000000  -0.0000000
 NQMom=   31.3000000   0.0000000   0.0000000   0.0000000   0.0000000   0.0000000   0.0000000   0.0000000   0.0000000   0.0000000
 NMagM=    2.1063990   0.0000000   0.0000000   0.0000000   0.0000000   0.0000000   0.0000000   0.0000000   0.0000000   0.0000000
 AtZNuc=  35.0000000   6.0000000   6.0000000   6.0000000   8.0000000   6.0000000   6.0000000   6.0000000   8.0000000   6.0000000

  Atom        11          12          13          14          15          16          17          18          19          20
 IAtWgt=          12          12          12          12          12          79          12          12          12          12
 AtmWgt=  12.0000000  12.0000000  12.0000000  12.0000000  12.0000000  78.9183361  12.0000000  12.0000000  12.0000000  12.0000000
 NucSpn=           0           0           0           0           0           3           0           0           0           0
 AtZEff=  -0.0000000  -0.0000000  -0.0000000  -0.0000000  -0.0000000  -0.0000000  -0.0000000  -0.0000000  -0.0000000  -0.0000000
 NQMom=    0.0000000   0.0000000   0.0000000   0.0000000   0.0000000  31.3000000   0.0000000   0.0000000   0.0000000   0.0000000
 NMagM=    0.0000000   0.0000000   0.0000000   0.0000000   0.0000000   2.1063990   0.0000000   0.0000000   0.0000000   0.0000000
 AtZNuc=   6.0000000   6.0000000   6.0000000   6.0000000   6.0000000  35.0000000   6.0000000   6.0000000   6.0000000   6.0000000

  Atom        21          22          23          24          25          26          27          28          29          30
 IAtWgt=          12          12           1           1           1           1           1           1           1           1
 AtmWgt=  12.0000000  12.0000000   1.0078250   1.0078250   1.0078250   1.0078250   1.0078250   1.0078250   1.0078250   1.0078250
 NucSpn=           0           0           1           1           1           1           1           1           1           1
 AtZEff=  -0.0000000  -0.0000000  -0.0000000  -0.0000000  -0.0000000  -0.0000000  -0.0000000  -0.0000000  -0.0000000  -0.0000000
 NQMom=    0.0000000   0.0000000   0.0000000   0.0000000   0.0000000   0.0000000   0.0000000   0.0000000   0.0000000   0.0000000
 NMagM=    0.0000000   0.0000000   2.7928460   2.7928460   2.7928460   2.7928460   2.7928460   2.7928460   2.7928460   2.7928460
 AtZNuc=   6.0000000   6.0000000   1.0000000   1.0000000   1.0000000   1.0000000   1.0000000   1.0000000   1.0000000   1.0000000

  Atom        31          32
 IAtWgt=           1           1
 AtmWgt=   1.0078250   1.0078250
 NucSpn=           1           1
 AtZEff=  -0.0000000  -0.0000000
 NQMom=    0.0000000   0.0000000
 NMagM=    2.7928460   2.7928460
 AtZNuc=   1.0000000   1.0000000
 Leave Link  101 at Sat Feb 10 10:01:31 2024, MaxMem=  4026531840 cpu:               6.4 elap:               0.8
 (Enter /sysapps/ubuntu-applications/gaussian/Gaussian/AVX2/g16/l103.exe)

 GradGradGradGradGradGradGradGradGradGradGradGradGradGradGradGradGradGrad
 Berny optimization.
 Initialization pass.
                           ----------------------------
                           !    Initial Parameters    !
                           ! (Angstroms and Degrees)  !
 --------------------------                            --------------------------
 ! Name  Definition              Value          Derivative Info.                !
 --------------------------------------------------------------------------------
 ! R1    R(1,2)                  1.9021         estimate D2E/DX2                !
 ! R2    R(2,3)                  1.3484         estimate D2E/DX2                !
 ! R3    R(2,8)                  1.4976         estimate D2E/DX2                !
 ! R4    R(3,4)                  1.507          estimate D2E/DX2                !
 ! R5    R(3,17)                 1.4845         estimate D2E/DX2                !
 ! R6    R(4,5)                  1.2119         estimate D2E/DX2                !
 ! R7    R(4,6)                  1.4975         estimate D2E/DX2                !
 ! R8    R(6,7)                  1.3484         estimate D2E/DX2                !
 ! R9    R(6,16)                 1.902          estimate D2E/DX2                !
 ! R10   R(7,8)                  1.507          estimate D2E/DX2                !
 ! R11   R(7,10)                 1.4845         estimate D2E/DX2                !
 ! R12   R(8,9)                  1.2119         estimate D2E/DX2                !
 ! R13   R(10,11)                1.4            estimate D2E/DX2                !
 ! R14   R(10,15)                1.3996         estimate D2E/DX2                !
 ! R15   R(11,12)                1.3915         estimate D2E/DX2                !
 ! R16   R(11,23)                1.083          estimate D2E/DX2                !
 ! R17   R(12,13)                1.3938         estimate D2E/DX2                !
 ! R18   R(12,24)                1.0839         estimate D2E/DX2                !
 ! R19   R(13,14)                1.3937         estimate D2E/DX2                !
 ! R20   R(13,25)                1.0841         estimate D2E/DX2                !
 ! R21   R(14,15)                1.3917         estimate D2E/DX2                !
 ! R22   R(14,26)                1.084          estimate D2E/DX2                !
 ! R23   R(15,27)                1.0835         estimate D2E/DX2                !
 ! R24   R(17,18)                1.4            estimate D2E/DX2                !
 ! R25   R(17,22)                1.3996         estimate D2E/DX2                !
 ! R26   R(18,19)                1.3915         estimate D2E/DX2                !
 ! R27   R(18,28)                1.083          estimate D2E/DX2                !
 ! R28   R(19,20)                1.3938         estimate D2E/DX2                !
 ! R29   R(19,29)                1.0839         estimate D2E/DX2                !
 ! R30   R(20,21)                1.3937         estimate D2E/DX2                !
 ! R31   R(20,30)                1.0841         estimate D2E/DX2                !
 ! R32   R(21,22)                1.3917         estimate D2E/DX2                !
 ! R33   R(21,31)                1.084          estimate D2E/DX2                !
 ! R34   R(22,32)                1.0835         estimate D2E/DX2                !
 ! A1    A(1,2,3)              122.7756         estimate D2E/DX2                !
 ! A2    A(1,2,8)              114.1579         estimate D2E/DX2                !
 ! A3    A(3,2,8)              123.0543         estimate D2E/DX2                !
 ! A4    A(2,3,4)              118.6014         estimate D2E/DX2                !
 ! A5    A(2,3,17)             125.2203         estimate D2E/DX2                !
 ! A6    A(4,3,17)             116.1782         estimate D2E/DX2                !
 ! A7    A(3,4,5)              120.3471         estimate D2E/DX2                !
 ! A8    A(3,4,6)              118.3075         estimate D2E/DX2                !
 ! A9    A(5,4,6)              121.3454         estimate D2E/DX2                !
 ! A10   A(4,6,7)              123.0539         estimate D2E/DX2                !
 ! A11   A(4,6,16)             114.1553         estimate D2E/DX2                !
 ! A12   A(7,6,16)             122.7786         estimate D2E/DX2                !
 ! A13   A(6,7,8)              118.6017         estimate D2E/DX2                !
 ! A14   A(6,7,10)             125.2106         estimate D2E/DX2                !
 ! A15   A(8,7,10)             116.1877         estimate D2E/DX2                !
 ! A16   A(2,8,7)              118.3066         estimate D2E/DX2                !
 ! A17   A(2,8,9)              121.3457         estimate D2E/DX2                !
 ! A18   A(7,8,9)              120.3476         estimate D2E/DX2                !
 ! A19   A(7,10,11)            120.4739         estimate D2E/DX2                !
 ! A20   A(7,10,15)            120.3123         estimate D2E/DX2                !
 ! A21   A(11,10,15)           119.2003         estimate D2E/DX2                !
 ! A22   A(10,11,12)           120.2912         estimate D2E/DX2                !
 ! A23   A(10,11,23)           119.901          estimate D2E/DX2                !
 ! A24   A(12,11,23)           119.8073         estimate D2E/DX2                !
 ! A25   A(11,12,13)           120.2015         estimate D2E/DX2                !
 ! A26   A(11,12,24)           119.637          estimate D2E/DX2                !
 ! A27   A(13,12,24)           120.159          estimate D2E/DX2                !
 ! A28   A(12,13,14)           119.792          estimate D2E/DX2                !
 ! A29   A(12,13,25)           120.1032         estimate D2E/DX2                !
 ! A30   A(14,13,25)           120.1042         estimate D2E/DX2                !
 ! A31   A(13,14,15)           120.1298         estimate D2E/DX2                !
 ! A32   A(13,14,26)           120.1981         estimate D2E/DX2                !
 ! A33   A(15,14,26)           119.672          estimate D2E/DX2                !
 ! A34   A(10,15,14)           120.3696         estimate D2E/DX2                !
 ! A35   A(10,15,27)           119.7704         estimate D2E/DX2                !
 ! A36   A(14,15,27)           119.8582         estimate D2E/DX2                !
 ! A37   A(3,17,18)            120.4696         estimate D2E/DX2                !
 ! A38   A(3,17,22)            120.3146         estimate D2E/DX2                !
 ! A39   A(18,17,22)           119.2017         estimate D2E/DX2                !
 ! A40   A(17,18,19)           120.2916         estimate D2E/DX2                !
 ! A41   A(17,18,28)           119.901          estimate D2E/DX2                !
 ! A42   A(19,18,28)           119.8069         estimate D2E/DX2                !
 ! A43   A(18,19,20)           120.2001         estimate D2E/DX2                !
 ! A44   A(18,19,29)           119.6383         estimate D2E/DX2                !
 ! A45   A(20,19,29)           120.1591         estimate D2E/DX2                !
 ! A46   A(19,20,21)           119.7931         estimate D2E/DX2                !
 ! A47   A(19,20,30)           120.1033         estimate D2E/DX2                !
 ! A48   A(21,20,30)           120.103          estimate D2E/DX2                !
 ! A49   A(20,21,22)           120.1299         estimate D2E/DX2                !
 ! A50   A(20,21,31)           120.1979         estimate D2E/DX2                !
 ! A51   A(22,21,31)           119.6721         estimate D2E/DX2                !
 ! A52   A(17,22,21)           120.3682         estimate D2E/DX2                !
 ! A53   A(17,22,32)           119.7702         estimate D2E/DX2                !
 ! A54   A(21,22,32)           119.8598         estimate D2E/DX2                !
 ! D1    D(1,2,3,4)            176.124          estimate D2E/DX2                !
 ! D2    D(1,2,3,17)            -3.8057         estimate D2E/DX2                !
 ! D3    D(8,2,3,4)             -2.5348         estimate D2E/DX2                !
 ! D4    D(8,2,3,17)           177.5355         estimate D2E/DX2                !
 ! D5    D(1,2,8,7)           -177.2437         estimate D2E/DX2                !
 ! D6    D(1,2,8,9)              2.6304         estimate D2E/DX2                !
 ! D7    D(3,2,8,7)              1.5204         estimate D2E/DX2                !
 ! D8    D(3,2,8,9)           -178.6056         estimate D2E/DX2                !
 ! D9    D(2,3,4,5)           -178.7807         estimate D2E/DX2                !
 ! D10   D(2,3,4,6)              1.1043         estimate D2E/DX2                !
 ! D11   D(17,3,4,5)             1.1553         estimate D2E/DX2                !
 ! D12   D(17,3,4,6)          -178.9597         estimate D2E/DX2                !
 ! D13   D(2,3,17,18)          119.125          estimate D2E/DX2                !
 ! D14   D(2,3,17,22)          -62.2528         estimate D2E/DX2                !
 ! D15   D(4,3,17,18)          -60.8063         estimate D2E/DX2                !
 ! D16   D(4,3,17,22)          117.816          estimate D2E/DX2                !
 ! D17   D(3,4,6,7)              1.5524         estimate D2E/DX2                !
 ! D18   D(3,4,6,16)          -177.2027         estimate D2E/DX2                !
 ! D19   D(5,4,6,7)           -178.5638         estimate D2E/DX2                !
 ! D20   D(5,4,6,16)             2.6811         estimate D2E/DX2                !
 ! D21   D(4,6,7,8)             -2.5668         estimate D2E/DX2                !
 ! D22   D(4,6,7,10)           177.5322         estimate D2E/DX2                !
 ! D23   D(16,6,7,8)           176.0821         estimate D2E/DX2                !
 ! D24   D(16,6,7,10)           -3.8189         estimate D2E/DX2                !
 ! D25   D(6,7,8,2)              1.1348         estimate D2E/DX2                !
 ! D26   D(6,7,8,9)           -178.7405         estimate D2E/DX2                !
 ! D27   D(10,7,8,2)          -178.9554         estimate D2E/DX2                !
 ! D28   D(10,7,8,9)             1.1693         estimate D2E/DX2                !
 ! D29   D(6,7,10,11)          119.1002         estimate D2E/DX2                !
 ! D30   D(6,7,10,15)          -62.2475         estimate D2E/DX2                !
 ! D31   D(8,7,10,11)          -60.8029         estimate D2E/DX2                !
 ! D32   D(8,7,10,15)          117.8494         estimate D2E/DX2                !
 ! D33   D(7,10,11,12)         179.9707         estimate D2E/DX2                !
 ! D34   D(7,10,11,23)          -0.291          estimate D2E/DX2                !
 ! D35   D(15,10,11,12)          1.3035         estimate D2E/DX2                !
 ! D36   D(15,10,11,23)       -178.9581         estimate D2E/DX2                !
 ! D37   D(7,10,15,14)        -179.0275         estimate D2E/DX2                !
 ! D38   D(7,10,15,27)           0.4833         estimate D2E/DX2                !
 ! D39   D(11,10,15,14)         -0.3581         estimate D2E/DX2                !
 ! D40   D(11,10,15,27)        179.1526         estimate D2E/DX2                !
 ! D41   D(10,11,12,13)         -1.2833         estimate D2E/DX2                !
 ! D42   D(10,11,12,24)        179.2922         estimate D2E/DX2                !
 ! D43   D(23,11,12,13)        178.9781         estimate D2E/DX2                !
 ! D44   D(23,11,12,24)         -0.4464         estimate D2E/DX2                !
 ! D45   D(11,12,13,14)          0.3041         estimate D2E/DX2                !
 ! D46   D(11,12,13,25)       -179.4071         estimate D2E/DX2                !
 ! D47   D(24,12,13,14)        179.7256         estimate D2E/DX2                !
 ! D48   D(24,12,13,25)          0.0144         estimate D2E/DX2                !
 ! D49   D(12,13,14,15)          0.6414         estimate D2E/DX2                !
 ! D50   D(12,13,14,26)       -179.4364         estimate D2E/DX2                !
 ! D51   D(25,13,14,15)       -179.6473         estimate D2E/DX2                !
 ! D52   D(25,13,14,26)          0.2748         estimate D2E/DX2                !
 ! D53   D(13,14,15,10)         -0.6117         estimate D2E/DX2                !
 ! D54   D(13,14,15,27)        179.878          estimate D2E/DX2                !
 ! D55   D(26,14,15,10)        179.4658         estimate D2E/DX2                !
 ! D56   D(26,14,15,27)         -0.0445         estimate D2E/DX2                !
 ! D57   D(3,17,18,19)         179.9293         estimate D2E/DX2                !
 ! D58   D(3,17,18,28)          -0.3211         estimate D2E/DX2                !
 ! D59   D(22,17,18,19)          1.2919         estimate D2E/DX2                !
 ! D60   D(22,17,18,28)       -178.9586         estimate D2E/DX2                !
 ! D61   D(3,17,22,21)        -178.9898         estimate D2E/DX2                !
 ! D62   D(3,17,22,32)           0.5146         estimate D2E/DX2                !
 ! D63   D(18,17,22,21)         -0.3502         estimate D2E/DX2                !
 ! D64   D(18,17,22,32)        179.1542         estimate D2E/DX2                !
 ! D65   D(17,18,19,20)         -1.2782         estimate D2E/DX2                !
 ! D66   D(17,18,19,29)        179.3015         estimate D2E/DX2                !
 ! D67   D(28,18,19,20)        178.9721         estimate D2E/DX2                !
 ! D68   D(28,18,19,29)         -0.4483         estimate D2E/DX2                !
 ! D69   D(18,19,20,21)          0.3095         estimate D2E/DX2                !
 ! D70   D(18,19,20,30)       -179.4032         estimate D2E/DX2                !
 ! D71   D(29,19,20,21)        179.7268         estimate D2E/DX2                !
 ! D72   D(29,19,20,30)          0.0141         estimate D2E/DX2                !
 ! D73   D(19,20,21,22)          0.6323         estimate D2E/DX2                !
 ! D74   D(19,20,21,31)       -179.4413         estimate D2E/DX2                !
 ! D75   D(30,20,21,22)       -179.655          estimate D2E/DX2                !
 ! D76   D(30,20,21,31)          0.2714         estimate D2E/DX2                !
 ! D77   D(20,21,22,17)         -0.6092         estimate D2E/DX2                !
 ! D78   D(20,21,22,32)        179.8869         estimate D2E/DX2                !
 ! D79   D(31,21,22,17)        179.4641         estimate D2E/DX2                !
 ! D80   D(31,21,22,32)         -0.0399         estimate D2E/DX2                !
 --------------------------------------------------------------------------------
 Trust Radius=3.00D-01 FncErr=1.00D-07 GrdErr=1.00D-06 EigMax=2.50D+02 EigMin=1.00D-04
 Number of steps in this run=    178 maximum allowed number of steps=    192.
 GradGradGradGradGradGradGradGradGradGradGradGradGradGradGradGradGradGrad

 Leave Link  103 at Sat Feb 10 10:01:31 2024, MaxMem=  4026531840 cpu:               0.5 elap:               0.1
 (Enter /sysapps/ubuntu-applications/gaussian/Gaussian/AVX2/g16/l202.exe)
                          Input orientation:                          
 ---------------------------------------------------------------------
 Center     Atomic      Atomic             Coordinates (Angstroms)
 Number     Number       Type             X           Y           Z
 ---------------------------------------------------------------------
      1         35           0       -1.603574    2.547951    1.344981
      2          6           0       -0.774768    1.056201    0.504910
      3          6           0       -1.477122    0.051812   -0.057218
      4          6           0       -0.726262   -1.040013   -0.775053
      5          8           0       -1.326922   -1.946116   -1.310601
      6          6           0        0.769275   -0.970010   -0.808062
      7          6           0        1.473411    0.006301   -0.200505
      8          6           0        0.721802    1.110383    0.497501
      9          8           0        1.322515    2.015790    1.034166
     10          6           0        2.954703    0.093918   -0.158477
     11          6           0        3.617132    1.192488   -0.719006
     12          6           0        5.005813    1.271028   -0.676935
     13          6           0        5.746166    0.268762   -0.052395
     14          6           0        5.091687   -0.817598    0.525468
     15          6           0        3.704155   -0.908635    0.467708
     16         35           0        1.591456   -2.358984   -1.814301
     17          6           0       -2.955812   -0.076977   -0.033136
     18          6           0       -3.686673   -0.091382   -1.227081
     19          6           0       -5.072549   -0.213750   -1.200249
     20          6           0       -5.740990   -0.349665    0.015244
     21          6           0       -5.017515   -0.356278    1.206456
     22          6           0       -3.633230   -0.214416    1.183857
     23          1           0        3.047260    1.983101   -1.191394
     24          1           0        5.508418    2.120776   -1.124391
     25          1           0        6.827394    0.336374   -0.012145
     26          1           0        5.660376   -1.596199    1.020836
     27          1           0        3.200023   -1.756103    0.916692
     28          1           0       -3.172308   -0.002879   -2.176070
     29          1           0       -5.628900   -0.212289   -2.130500
     30          1           0       -6.819832   -0.454594    0.033724
     31          1           0       -5.529800   -0.470667    2.154871
     32          1           0       -3.075326   -0.218331    2.112653
 ---------------------------------------------------------------------
                    Distance matrix (angstroms):
                    1          2          3          4          5
     1  Br   0.000000
     2  C    1.902093   0.000000
     3  C    2.865809   1.348364   0.000000
     4  C    4.258839   2.456577   1.507037   0.000000
     5  O    5.227360   3.551741   2.363312   1.211869   0.000000
     6  C    4.758367   2.865920   2.579571   1.497538   2.366299
     7  C    4.279760   2.579575   2.954361   2.502686   3.589723
     8  C    2.862202   1.497569   2.502709   2.887990   4.099840
     9  O    2.990284   2.366330   3.589749   4.099841   5.311699
    10  C    5.390784   3.908328   4.433182   3.900701   4.880721
    11  C    5.775214   4.561286   5.262179   4.883879   5.885957
    12  C    7.028704   5.904069   6.625631   6.181199   7.131275
    13  C    7.820872   6.591906   7.226547   6.642850   7.517802
    14  C    7.538239   6.158477   6.651665   5.965681   6.770764
    15  C    6.394496   4.891085   5.295624   4.603293   5.436036
    16  Br   6.653367   4.758282   4.279655   2.862086   2.990168
    17  C    3.258527   2.516056   1.484483   2.539443   2.789064
    18  C    4.233306   3.577140   2.504236   3.141379   3.002572
    19  C    5.112629   4.794921   3.782081   4.444515   4.128316
    20  C    5.223274   5.184553   4.283340   5.123343   4.877552
    21  C    4.484276   4.526386   3.781242   4.775848   4.741691
    22  C    3.431637   3.200975   2.501988   3.601306   3.813156
    23  H    5.327524   4.283047   5.048392   4.853043   5.881022
    24  H    7.540604   6.577718   7.363236   6.998847   7.955888
    25  H    8.821229   7.653650   8.309512   7.715840   8.566716
    26  H    8.369230   6.979433   7.404189   6.657605   7.374305
    27  H    6.463966   4.886469   5.108106   4.334801   5.048779
    28  H    4.622279   3.749334   2.714071   3.003604   2.816142
    29  H    5.991756   5.667191   4.648173   5.153467   4.710139
    30  H    6.159872   6.248785   5.367427   6.174822   5.848411
    31  H    5.018289   5.259660   4.646560   5.655315   5.643636
    32  H    3.226095   3.082505   2.708426   3.812100   4.214359
                    6          7          8          9         10
     6  C    0.000000
     7  C    1.348375   0.000000
     8  C    2.456580   1.507025   0.000000
     9  O    3.551743   2.363309   1.211869   0.000000
    10  C    2.515949   1.484476   2.539558   2.789270   0.000000
    11  C    3.576957   2.504281   3.141587   3.002783   1.399950
    12  C    4.794549   3.782114   4.444981   4.129070   2.421041
    13  C    5.184113   4.283370   5.123958   4.878669   2.798944
    14  C    4.526011   3.781239   4.776378   4.742733   2.421847
    15  C    3.200762   2.501966   3.601632   3.813836   1.399607
    16  Br   1.902038   2.865806   4.258783   5.227307   3.258362
    17  C    3.908234   4.433166   3.900800   4.880870   5.914313
    18  C    4.561035   5.262116   4.883961   5.886032   6.729348
    19  C    5.903613   6.625519   6.181439   7.131641   8.100415
    20  C    6.591374   7.226399   6.643191   7.518423   8.708732
    21  C    6.158075   6.651550   5.966026   6.771438   8.100739
    22  C    4.890881   5.295560   4.603529   5.436509   6.730363
    23  H    3.749270   2.714148   3.003624   2.815836   2.155109
    24  H    5.666789   4.648209   5.153942   4.710857   3.400383
    25  H    6.248274   5.367454   6.175523   5.849692   3.883031
    26  H    5.259263   4.646542   5.655880   5.644792   3.401168
    27  H    3.082410   2.708392   3.812354   4.214975   2.153775
    28  H    4.282857   5.048331   4.852981   5.880823   6.451381
    29  H    6.577205   7.363116   6.999090   7.956231   8.812541
    30  H    7.653026   8.309342   7.716248   8.567467   9.791800
    31  H    6.979016   7.404070   6.658012   7.375139   8.812328
    32  H    4.886364   5.108049   4.335018   5.049301   6.451107
                   11         12         13         14         15
    11  C    0.000000
    12  C    1.391536   0.000000
    13  C    2.414627   1.393811   0.000000
    14  C    2.786301   2.411536   1.393717   0.000000
    15  C    2.414660   2.784861   2.413831   1.391714   0.000000
    16  Br   4.232728   5.111597   5.222162   4.483526   3.431410
    17  C    6.729454   8.100560   8.708865   8.100790   6.730354
    18  C    7.433171   8.815789   9.512520   8.981003   7.626569
    19  C    8.815875  10.200579  10.890132  10.327363   8.960774
    20  C    9.512718  10.890341  11.503990  10.854777   9.472483
    21  C    8.981270  10.327749  10.855055  10.142609   8.770312
    22  C    7.626796   8.961147   9.472848   8.770489   7.404865
    23  H    1.083039   2.146543   3.394167   3.869265   3.397980
    24  H    2.145465   1.083928   2.153057   3.395547   3.868782
    25  H    3.396817   2.152599   1.084087   2.152524   3.396311
    26  H    3.870229   3.395861   2.153431   1.083982   2.146042
    27  H    3.397599   3.868339   3.394415   2.147613   1.083484
    28  H    7.046164   8.411415   9.171857   8.732450   7.422648
    29  H    9.458056  10.835599  11.573334  11.061264   9.712955
    30  H   10.592908  11.971996  12.587095  11.927190  10.542713
    31  H    9.730962  11.047704  11.513739  10.751340   9.397035
    32  H    7.402547   8.677834   9.096341   8.341366   7.010259
                   16         17         18         19         20
    16  Br   0.000000
    17  C    5.390524   0.000000
    18  C    5.774556   1.399954   0.000000
    19  C    7.027663   2.421040   1.391527   0.000000
    20  C    7.819806   2.798913   2.414601   1.393811   0.000000
    21  C    7.537526   2.421821   2.786290   2.411550   1.393717
    22  C    6.394174   1.399592   2.414667   2.784888   2.413835
    23  H    4.621805   6.451539   7.046319   8.411750   9.172301
    24  H    5.990561   8.812726   9.458006  10.835711  11.573721
    25  H    6.158552   9.791957  10.592670  11.971753  12.587123
    26  H    5.017564   8.812354   9.730618  11.047174  11.513306
    27  H    3.226341   6.451042   7.402273   8.677312   9.095735
    28  H    5.326871   2.155117   1.083044   2.146534   3.394149
    29  H    7.539352   3.400389   2.145467   1.083926   2.153057
    30  H    8.819958   3.883003   3.396798   2.152601   1.084090
    31  H    8.368534   3.401144   3.870216   3.395867   2.153427
    32  H    6.463917   2.153758   3.397600   3.868364   3.394427
                   21         22         23         24         25
    21  C    0.000000
    22  C    1.391719   0.000000
    23  H    8.732867   7.422927   0.000000
    24  H   11.061822   9.713437   2.465916   0.000000
    25  H   11.927557  10.543171   4.288560   2.482112   0.000000
    26  H   10.751242   9.397181   4.953153   4.294298   2.482704
    27  H    8.340947   7.010101   4.295231   4.952262   4.289408
    28  H    3.869259   3.397986   6.602782   8.998386  10.236782
    29  H    3.395556   3.868807   8.998745  11.423454  12.647044
    30  H    2.152513   3.396310  10.237323  12.647510  13.670205
    31  H    1.083980   2.146045   9.528086  11.803025  12.571695
    32  H    2.147631   1.083482   7.297197   9.467341  10.143290
                   26         27         28         29         30
    26  H    0.000000
    27  H    2.467742   0.000000
    28  H    9.527601   7.296956   0.000000
    29  H   11.802283   9.466711   2.465922   0.000000
    30  H   12.571127  10.142537   4.288551   2.482115   0.000000
    31  H   11.303667   8.910401   4.953145   4.294297   2.482681
    32  H    8.910840   6.570774   4.295226   4.952285   4.289416
                   31         32
    31  H    0.000000
    32  H    2.467772   0.000000
 Symmetry turned off by external request.
 Stoichiometry    C18H10Br2O2
 Framework group  C1[X(C18H10Br2O2)]
 Deg. of freedom    90
 Full point group                 C1      NOp   1
 Rotational constants (GHZ):           0.3079729           0.1283513           0.0953887
 Leave Link  202 at Sat Feb 10 10:01:31 2024, MaxMem=  4026531840 cpu:               0.7 elap:               0.2
 (Enter /sysapps/ubuntu-applications/gaussian/Gaussian/AVX2/g16/l301.exe)
 Standard basis: 6-311++G(d,p) (5D, 7F)
 Ernie: Thresh=  0.10000D-02 Tol=  0.10000D-05 Strict=F.
   606 basis functions,   998 primitive gaussians,   632 cartesian basis functions
   102 alpha electrons      102 beta electrons
       nuclear repulsion energy      2555.9686165125 Hartrees.
 IExCor=  402 DFT=T Ex+Corr=B3LYP ExCW=0 ScaHFX=  0.200000
 ScaDFX=  0.800000  0.720000  1.000000  0.810000 ScalE2=  1.000000  1.000000
 IRadAn=      5 IRanWt=     -1 IRanGd=            0 ICorTp=0 IEmpDi=  4
 NAtoms=   32 NActive=   32 NUniq=   32 SFac= 1.00D+00 NAtFMM=   60 NAOKFM=F Big=F
 Integral buffers will be    131072 words long.
 Raffenetti 2 integral format.
 Two-electron integral symmetry is turned off.
 ------------------------------------------------------------------------------
 Polarizable Continuum Model (PCM)
 =================================
 Model                : PCM.
 Atomic radii         : UFF (Universal Force Field).
 Polarization charges : Total charges.
 Charge compensation  : None.
 Solution method      : On-the-fly selection.
 Cavity type          : Scaled VdW (van der Waals Surface) (Alpha=1.100).
 Cavity algorithm     : GePol (No added spheres)
                        Default sphere list used, NSphG=   32.
                        Lebedev-Laikov grids with approx.  5.0 points / Ang**2.
                        Smoothing algorithm: York/Karplus (Gamma=1.0000).
                        Polarization charges: spherical gaussians, with
                                              point-specific exponents (IZeta= 3).
                        Self-potential: point-specific (ISelfS= 7).
                        Self-field    : sphere-specific E.n sum rule (ISelfD= 2).
 1st derivatives      : Analytical E(r).r(x)/FMM algorithm (CHGder, D1EAlg=3).
                        Cavity 1st derivative terms included.
 Solvent              : n,n-DiMethylFormamide, Eps=  37.219000 Eps(inf)=   2.046330
 ------------------------------------------------------------------------------
 GePol: Number of generator spheres                  =      32
 GePol: Total number of spheres                      =      32
 GePol: Number of exposed spheres                    =      32 (100.00%)
 GePol: Number of points                             =    2870
 GePol: Average weight of points                     =       0.13
 GePol: Minimum weight of points                     =   0.52D-11
 GePol: Maximum weight of points                     =    0.20577
 GePol: Number of points with low weight             =     179
 GePol: Fraction of low-weight points (<1% of avg)   =       6.24%
 GePol: Cavity surface area                          =    375.847 Ang**2
 GePol: Cavity volume                                =    418.191 Ang**3
 Leave Link  301 at Sat Feb 10 10:01:32 2024, MaxMem=  4026531840 cpu:               1.3 elap:               0.2
 (Enter /sysapps/ubuntu-applications/gaussian/Gaussian/AVX2/g16/l302.exe)
 NPDir=0 NMtPBC=     1 NCelOv=     1 NCel=       1 NClECP=     1 NCelD=      1
         NCelK=      1 NCelE2=     1 NClLst=     1 CellRange=     0.0.
 One-electron integrals computed using PRISM.
 NBasis=   606 RedAO= T EigKep=  1.40D-06  NBF=   606
 NBsUse=   601 1.00D-06 EigRej=  7.99D-07 NBFU=   601
 Precomputing XC quadrature grid using
 IXCGrd= 4 IRadAn=           5 IRanWt=          -1 IRanGd=           0 AccXCQ= 0.00D+00.
 Generated NRdTot=       0 NPtTot=           0 NUsed=           0 NTot=          32
 NSgBfM=   611   611   611   611   611 MxSgAt=    32 MxSgA2=    32.
 Leave Link  302 at Sat Feb 10 10:01:33 2024, MaxMem=  4026531840 cpu:               5.0 elap:               0.7
 (Enter /sysapps/ubuntu-applications/gaussian/Gaussian/AVX2/g16/l303.exe)
 DipDrv:  MaxL=1.
 Leave Link  303 at Sat Feb 10 10:01:33 2024, MaxMem=  4026531840 cpu:               0.9 elap:               0.1
 (Enter /sysapps/ubuntu-applications/gaussian/Gaussian/AVX2/g16/l401.exe)
 ExpMin= 3.50D-02 ExpMax= 4.40D+05 ExpMxC= 1.51D+04 IAcc=3 IRadAn=         5 AccDes= 0.00D+00
 Harris functional with IExCor=  402 and IRadAn=       5 diagonalized for initial guess.
 HarFok:  IExCor=  402 AccDes= 0.00D+00 IRadAn=         5 IDoV= 1 UseB2=F ITyADJ=14
 ICtDFT=  3500011 ScaDFX=  1.000000  1.000000  1.000000  1.000000
 FoFCou: FMM=F IPFlag=           0 FMFlag=      100000 FMFlg1=           0
         NFxFlg=           0 DoJE=T BraDBF=F KetDBF=T FulRan=T
         wScrn=  0.000000 ICntrl=       500 IOpCl=  0 I1Cent=   200000004 NGrid=           0
         NMat0=    1 NMatS0=      1 NMatT0=    0 NMatD0=    1 NMtDS0=    0 NMtDT0=    0
 Symmetry not used in FoFCou.
 Harris En= -5991.02146410470    
 JPrj=0 DoOrth=F DoCkMO=F.
 Initial guess <Sx>= 0.0000 <Sy>= 0.0000 <Sz>= 0.0000 <S**2>=-0.0000 S=-0.0000
 Leave Link  401 at Sat Feb 10 10:01:36 2024, MaxMem=  4026531840 cpu:              23.7 elap:               3.0
 (Enter /sysapps/ubuntu-applications/gaussian/Gaussian/AVX2/g16/l502.exe)
 Two-electron integral symmetry not used.
 UHF open shell SCF:
 Using DIIS extrapolation, IDIIS=  1040.
 NGot=  4026531840 LenX=  4025723676 LenY=  4025323620
 Requested convergence on RMS density matrix=1.00D-08 within 128 cycles.
 Requested convergence on MAX density matrix=1.00D-06.
 Requested convergence on             energy=1.00D-06.
 No special actions if energy rises.
 Fock matrices will be formed incrementally for  20 cycles.

 Cycle   1  Pass 1  IDiag  1:
 FoFJK:  IHMeth= 1 ICntrl=       0 DoSepK=F KAlg= 0 I1Cent=           0 FoldK=F
 IRaf= 780000000 NMat=       1 IRICut=       1 DoRegI=T DoRafI=F ISym2E= 0 IDoP0=0 IntGTp=1.
 FoFCou: FMM=F IPFlag=           0 FMFlag=      100000 FMFlg1=           0
         NFxFlg=           0 DoJE=F BraDBF=F KetDBF=F FulRan=T
         wScrn=  0.000000 ICntrl=         0 IOpCl=  1 I1Cent=           0 NGrid=           0
         NMat0=    1 NMatS0=      1 NMatT0=    0 NMatD0=    1 NMtDS0=    0 NMtDT0=    0
 Symmetry not used in FoFCou.
 Inv3:  Mode=1 IEnd=    24710700.
 Iteration    1 A*A^-1 deviation from unit magnitude is 3.11D-15 for    957.
 Iteration    1 A*A^-1 deviation from orthogonality  is 3.03D-15 for   2306   1452.
 Iteration    1 A^-1*A deviation from unit magnitude is 3.11D-15 for    957.
 Iteration    1 A^-1*A deviation from orthogonality  is 3.81D-15 for   1543    445.
 E= -5990.36671082742    
 DIIS: error= 9.47D-02 at cycle   1 NSaved=   1.
 NSaved= 1 IEnMin= 1 EnMin= -5990.36671082742     IErMin= 1 ErrMin= 9.47D-02
 ErrMax= 9.47D-02  0.00D+00 EMaxC= 1.00D-01 BMatC= 1.15D+01 BMatP= 1.15D+01
 IDIUse=3 WtCom= 5.28D-02 WtEn= 9.47D-01
 Coeff-Com:  0.100D+01
 Coeff-En:   0.100D+01
 Coeff:      0.100D+01
 Gap=     0.135 Goal=   None    Shift=    0.000
 Gap=     0.135 Goal=   None    Shift=    0.000
 GapD=    0.135 DampG=1.000 DampE=0.500 DampFc=0.5000 IDamp=-1.
 Damping current iteration by 5.00D-01
 RMSDP=5.01D-02 MaxDP=4.51D+00              OVMax= 2.30D-01

 Cycle   2  Pass 1  IDiag  1:
 RMSU=  2.48D-02    CP:  9.60D-01
 E= -5990.53245085291     Delta-E=       -0.165740025493 Rises=F Damp=T
 DIIS: error= 4.71D-02 at cycle   2 NSaved=   2.
 NSaved= 2 IEnMin= 2 EnMin= -5990.53245085291     IErMin= 2 ErrMin= 4.71D-02
 ErrMax= 4.71D-02  0.00D+00 EMaxC= 1.00D-01 BMatC= 1.81D+00 BMatP= 1.15D+01
 IDIUse=3 WtCom= 5.29D-01 WtEn= 4.71D-01
 Coeff-Com: -0.228D+00 0.123D+01
 Coeff-En:   0.272D+00 0.728D+00
 Coeff:      0.721D-02 0.993D+00
 Gap=     0.109 Goal=   None    Shift=    0.000
 Gap=     0.109 Goal=   None    Shift=    0.000
 RMSDP=2.76D-02 MaxDP=2.00D+00 DE=-1.66D-01 OVMax= 3.07D-01

 Cycle   3  Pass 1  IDiag  1:
 RMSU=  1.42D-02    CP:  8.29D-01  1.50D-01
 E= -5990.66838863781     Delta-E=       -0.135937784901 Rises=F Damp=F
 DIIS: error= 3.46D-02 at cycle   3 NSaved=   3.
 NSaved= 3 IEnMin= 3 EnMin= -5990.66838863781     IErMin= 3 ErrMin= 3.46D-02
 ErrMax= 3.46D-02  0.00D+00 EMaxC= 1.00D-01 BMatC= 1.04D+00 BMatP= 1.81D+00
 IDIUse=3 WtCom= 6.54D-01 WtEn= 3.46D-01
 Coeff-Com: -0.196D+00 0.616D+00 0.580D+00
 Coeff-En:   0.000D+00 0.272D+00 0.728D+00
 Coeff:     -0.128D+00 0.497D+00 0.631D+00
 Gap=     0.122 Goal=   None    Shift=    0.000
 Gap=     0.122 Goal=   None    Shift=    0.000
 RMSDP=3.34D-02 MaxDP=3.22D+00 DE=-1.36D-01 OVMax= 2.48D-01

 Cycle   4  Pass 1  IDiag  1:
 RMSU=  1.18D-02    CP:  9.38D-01  1.35D+00  1.09D+00
 E= -5990.73883661151     Delta-E=       -0.070447973700 Rises=F Damp=F
 DIIS: error= 2.48D-02 at cycle   4 NSaved=   4.
 NSaved= 4 IEnMin= 4 EnMin= -5990.73883661151     IErMin= 4 ErrMin= 2.48D-02
 ErrMax= 2.48D-02  0.00D+00 EMaxC= 1.00D-01 BMatC= 6.60D-01 BMatP= 1.04D+00
 IDIUse=3 WtCom= 7.52D-01 WtEn= 2.48D-01
 Coeff-Com: -0.715D-01 0.187D+00 0.461D+00 0.424D+00
 Coeff-En:   0.000D+00 0.000D+00 0.419D+00 0.581D+00
 Coeff:     -0.537D-01 0.141D+00 0.450D+00 0.463D+00
 Gap=     0.131 Goal=   None    Shift=    0.000
 Gap=     0.131 Goal=   None    Shift=    0.000
 RMSDP=1.85D-02 MaxDP=1.71D+00 DE=-7.04D-02 OVMax= 9.55D-02

 Cycle   5  Pass 1  IDiag  1:
 RMSU=  3.69D-03    CP:  8.14D-01  8.59D-01  8.28D-01  3.50D-01
 E= -5990.86384044706     Delta-E=       -0.125003835544 Rises=F Damp=F
 DIIS: error= 1.84D-03 at cycle   5 NSaved=   5.
 NSaved= 5 IEnMin= 5 EnMin= -5990.86384044706     IErMin= 5 ErrMin= 1.84D-03
 ErrMax= 1.84D-03  0.00D+00 EMaxC= 1.00D-01 BMatC= 8.23D-03 BMatP= 6.60D-01
 IDIUse=3 WtCom= 9.82D-01 WtEn= 1.84D-02
 Coeff-Com:  0.418D-02-0.575D-02 0.969D-01 0.174D+00 0.731D+00
 Coeff-En:   0.000D+00 0.000D+00 0.000D+00 0.000D+00 0.100D+01
 Coeff:      0.411D-02-0.564D-02 0.951D-01 0.171D+00 0.736D+00
 Gap=     0.112 Goal=   None    Shift=    0.000
 Gap=     0.112 Goal=   None    Shift=    0.000
 RMSDP=3.32D-03 MaxDP=2.82D-01 DE=-1.25D-01 OVMax= 9.58D-03

 Cycle   6  Pass 1  IDiag  1:
 RMSU=  4.20D-04    CP:  8.37D-01  8.96D-01  9.37D-01  4.89D-01  6.99D-01
 E= -5990.86563141377     Delta-E=       -0.001790966716 Rises=F Damp=F
 DIIS: error= 3.16D-04 at cycle   6 NSaved=   6.
 NSaved= 6 IEnMin= 6 EnMin= -5990.86563141377     IErMin= 6 ErrMin= 3.16D-04
 ErrMax= 3.16D-04  0.00D+00 EMaxC= 1.00D-01 BMatC= 3.78D-04 BMatP= 8.23D-03
 IDIUse=3 WtCom= 9.97D-01 WtEn= 3.16D-03
 Coeff-Com:  0.381D-02-0.805D-02 0.105D-01 0.346D-01 0.294D+00 0.665D+00
 Coeff-En:   0.000D+00 0.000D+00 0.000D+00 0.000D+00 0.000D+00 0.100D+01
 Coeff:      0.380D-02-0.803D-02 0.104D-01 0.345D-01 0.294D+00 0.666D+00
 Gap=     0.112 Goal=   None    Shift=    0.000
 Gap=     0.112 Goal=   None    Shift=    0.000
 RMSDP=4.57D-04 MaxDP=4.63D-02 DE=-1.79D-03 OVMax= 2.51D-03

 Cycle   7  Pass 1  IDiag  1:
 RMSU=  1.41D-04    CP:  8.35D-01  8.83D-01  9.30D-01  4.71D-01  7.22D-01
                    CP:  8.25D-01
 E= -5990.86570581419     Delta-E=       -0.000074400419 Rises=F Damp=F
 DIIS: error= 1.84D-04 at cycle   7 NSaved=   7.
 NSaved= 7 IEnMin= 7 EnMin= -5990.86570581419     IErMin= 7 ErrMin= 1.84D-04
 ErrMax= 1.84D-04  0.00D+00 EMaxC= 1.00D-01 BMatC= 9.36D-05 BMatP= 3.78D-04
 IDIUse=3 WtCom= 9.98D-01 WtEn= 1.84D-03
 Coeff-Com:  0.195D-02-0.421D-02-0.128D-02 0.630D-02 0.120D+00 0.409D+00
 Coeff-Com:  0.469D+00
 Coeff-En:   0.000D+00 0.000D+00 0.000D+00 0.000D+00 0.000D+00 0.147D+00
 Coeff-En:   0.853D+00
 Coeff:      0.194D-02-0.420D-02-0.128D-02 0.629D-02 0.119D+00 0.408D+00
 Coeff:      0.470D+00
 Gap=     0.112 Goal=   None    Shift=    0.000
 Gap=     0.112 Goal=   None    Shift=    0.000
 RMSDP=2.30D-04 MaxDP=1.46D-02 DE=-7.44D-05 OVMax= 1.52D-03

 Cycle   8  Pass 1  IDiag  1:
 RMSU=  3.03D-05    CP:  8.34D-01  8.90D-01  9.26D-01  4.72D-01  7.45D-01
                    CP:  8.48D-01  6.25D-01
 E= -5990.86572800669     Delta-E=       -0.000022192502 Rises=F Damp=F
 DIIS: error= 3.14D-05 at cycle   8 NSaved=   8.
 NSaved= 8 IEnMin= 8 EnMin= -5990.86572800669     IErMin= 8 ErrMin= 3.14D-05
 ErrMax= 3.14D-05  0.00D+00 EMaxC= 1.00D-01 BMatC= 2.86D-06 BMatP= 9.36D-05
 IDIUse=1 WtCom= 1.00D+00 WtEn= 0.00D+00
 Coeff-Com:  0.905D-03-0.196D-02-0.910D-03 0.161D-02 0.492D-01 0.180D+00
 Coeff-Com:  0.234D+00 0.537D+00
 Coeff:      0.905D-03-0.196D-02-0.910D-03 0.161D-02 0.492D-01 0.180D+00
 Coeff:      0.234D+00 0.537D+00
 Gap=     0.112 Goal=   None    Shift=    0.000
 Gap=     0.112 Goal=   None    Shift=    0.000
 RMSDP=1.55D-05 MaxDP=1.16D-03 DE=-2.22D-05 OVMax= 2.39D-04

 Cycle   9  Pass 1  IDiag  1:
 RMSU=  1.03D-05    CP:  8.34D-01  8.90D-01  9.26D-01  4.73D-01  7.45D-01
                    CP:  8.52D-01  6.35D-01  8.94D-01
 E= -5990.86572853347     Delta-E=       -0.000000526778 Rises=F Damp=F
 DIIS: error= 1.57D-05 at cycle   9 NSaved=   9.
 NSaved= 9 IEnMin= 9 EnMin= -5990.86572853347     IErMin= 9 ErrMin= 1.57D-05
 ErrMax= 1.57D-05  0.00D+00 EMaxC= 1.00D-01 BMatC= 5.60D-07 BMatP= 2.86D-06
 IDIUse=1 WtCom= 1.00D+00 WtEn= 0.00D+00
 Coeff-Com:  0.162D-03-0.360D-03-0.168D-03-0.370D-03 0.618D-02 0.302D-01
 Coeff-Com:  0.536D-01 0.324D+00 0.587D+00
 Coeff:      0.162D-03-0.360D-03-0.168D-03-0.370D-03 0.618D-02 0.302D-01
 Coeff:      0.536D-01 0.324D+00 0.587D+00
 Gap=     0.112 Goal=   None    Shift=    0.000
 Gap=     0.112 Goal=   None    Shift=    0.000
 RMSDP=1.33D-05 MaxDP=1.17D-03 DE=-5.27D-07 OVMax= 1.39D-04

 Cycle  10  Pass 1  IDiag  1:
 RMSU=  3.74D-06    CP:  8.34D-01  8.90D-01  9.26D-01  4.72D-01  7.45D-01
                    CP:  8.54D-01  6.40D-01  9.51D-01  7.58D-01
 E= -5990.86572867124     Delta-E=       -0.000000137765 Rises=F Damp=F
 DIIS: error= 3.42D-06 at cycle  10 NSaved=  10.
 NSaved=10 IEnMin=10 EnMin= -5990.86572867124     IErMin=10 ErrMin= 3.42D-06
 ErrMax= 3.42D-06  0.00D+00 EMaxC= 1.00D-01 BMatC= 2.74D-08 BMatP= 5.60D-07
 IDIUse=1 WtCom= 1.00D+00 WtEn= 0.00D+00
 Coeff-Com:  0.304D-04-0.683D-04-0.321D-04-0.259D-03 0.423D-03 0.495D-02
 Coeff-Com:  0.148D-01 0.122D+00 0.305D+00 0.554D+00
 Coeff:      0.304D-04-0.683D-04-0.321D-04-0.259D-03 0.423D-03 0.495D-02
 Coeff:      0.148D-01 0.122D+00 0.305D+00 0.554D+00
 Gap=     0.112 Goal=   None    Shift=    0.000
 Gap=     0.112 Goal=   None    Shift=    0.000
 RMSDP=3.09D-06 MaxDP=2.16D-04 DE=-1.38D-07 OVMax= 3.36D-05

 Cycle  11  Pass 1  IDiag  1:
 RMSU=  1.33D-06    CP:  8.34D-01  8.89D-01  9.26D-01  4.72D-01  7.45D-01
                    CP:  8.54D-01  6.41D-01  9.47D-01  7.76D-01  8.54D-01
 E= -5990.86572867741     Delta-E=       -0.000000006173 Rises=F Damp=F
 DIIS: error= 1.28D-06 at cycle  11 NSaved=  11.
 NSaved=11 IEnMin=11 EnMin= -5990.86572867741     IErMin=11 ErrMin= 1.28D-06
 ErrMax= 1.28D-06  0.00D+00 EMaxC= 1.00D-01 BMatC= 4.80D-09 BMatP= 2.74D-08
 IDIUse=1 WtCom= 1.00D+00 WtEn= 0.00D+00
 Coeff-Com: -0.113D-04 0.239D-04-0.202D-05-0.790D-04-0.806D-03-0.236D-02
 Coeff-Com: -0.442D-04 0.437D-02 0.744D-01 0.311D+00 0.614D+00
 Coeff:     -0.113D-04 0.239D-04-0.202D-05-0.790D-04-0.806D-03-0.236D-02
 Coeff:     -0.442D-04 0.437D-02 0.744D-01 0.311D+00 0.614D+00
 Gap=     0.112 Goal=   None    Shift=    0.000
 Gap=     0.112 Goal=   None    Shift=    0.000
 RMSDP=7.29D-07 MaxDP=7.41D-05 DE=-6.17D-09 OVMax= 1.30D-05

 Cycle  12  Pass 1  IDiag  1:
 RMSU=  3.63D-07    CP:  8.34D-01  8.90D-01  9.26D-01  4.72D-01  7.45D-01
                    CP:  8.54D-01  6.41D-01  9.51D-01  7.75D-01  9.08D-01
                    CP:  1.03D+00
 E= -5990.86572867864     Delta-E=       -0.000000001226 Rises=F Damp=F
 DIIS: error= 4.57D-07 at cycle  12 NSaved=  12.
 NSaved=12 IEnMin=12 EnMin= -5990.86572867864     IErMin=12 ErrMin= 4.57D-07
 ErrMax= 4.57D-07  0.00D+00 EMaxC= 1.00D-01 BMatC= 5.02D-10 BMatP= 4.80D-09
 IDIUse=1 WtCom= 1.00D+00 WtEn= 0.00D+00
 Coeff-Com: -0.753D-05 0.159D-04-0.187D-05-0.882D-05-0.387D-03-0.143D-02
 Coeff-Com: -0.900D-03-0.125D-01 0.916D-02 0.935D-01 0.286D+00 0.626D+00
 Coeff:     -0.753D-05 0.159D-04-0.187D-05-0.882D-05-0.387D-03-0.143D-02
 Coeff:     -0.900D-03-0.125D-01 0.916D-02 0.935D-01 0.286D+00 0.626D+00
 Gap=     0.112 Goal=   None    Shift=    0.000
 Gap=     0.112 Goal=   None    Shift=    0.000
 RMSDP=2.59D-07 MaxDP=1.80D-05 DE=-1.23D-09 OVMax= 4.12D-06

 Cycle  13  Pass 1  IDiag  1:
 RMSU=  1.61D-07    CP:  8.34D-01  8.89D-01  9.26D-01  4.72D-01  7.45D-01
                    CP:  8.54D-01  6.42D-01  9.51D-01  7.77D-01  9.16D-01
                    CP:  1.08D+00  1.04D+00
 E= -5990.86572867869     Delta-E=       -0.000000000050 Rises=F Damp=F
 DIIS: error= 1.76D-07 at cycle  13 NSaved=  13.
 NSaved=13 IEnMin=13 EnMin= -5990.86572867869     IErMin=13 ErrMin= 1.76D-07
 ErrMax= 1.76D-07  0.00D+00 EMaxC= 1.00D-01 BMatC= 8.61D-11 BMatP= 5.02D-10
 IDIUse=1 WtCom= 1.00D+00 WtEn= 0.00D+00
 Coeff-Com: -0.292D-05 0.622D-05 0.276D-06 0.411D-05-0.140D-03-0.575D-03
 Coeff-Com: -0.465D-03-0.794D-02-0.159D-02 0.122D-01 0.736D-01 0.347D+00
 Coeff-Com:  0.578D+00
 Coeff:     -0.292D-05 0.622D-05 0.276D-06 0.411D-05-0.140D-03-0.575D-03
 Coeff:     -0.465D-03-0.794D-02-0.159D-02 0.122D-01 0.736D-01 0.347D+00
 Coeff:      0.578D+00
 Gap=     0.112 Goal=   None    Shift=    0.000
 Gap=     0.112 Goal=   None    Shift=    0.000
 RMSDP=1.81D-07 MaxDP=1.52D-05 DE=-5.00D-11 OVMax= 1.63D-06

 Cycle  14  Pass 1  IDiag  1:
 RMSU=  6.74D-08    CP:  8.34D-01  8.90D-01  9.26D-01  4.72D-01  7.45D-01
                    CP:  8.54D-01  6.42D-01  9.50D-01  7.80D-01  9.30D-01
                    CP:  1.09D+00  1.10D+00  7.27D-01
 E= -5990.86572867874     Delta-E=       -0.000000000051 Rises=F Damp=F
 DIIS: error= 1.18D-07 at cycle  14 NSaved=  14.
 NSaved=14 IEnMin=14 EnMin= -5990.86572867874     IErMin=14 ErrMin= 1.18D-07
 ErrMax= 1.18D-07  0.00D+00 EMaxC= 1.00D-01 BMatC= 1.51D-11 BMatP= 8.61D-11
 IDIUse=1 WtCom= 1.00D+00 WtEn= 0.00D+00
 Coeff-Com: -0.104D-05 0.226D-05 0.856D-06 0.312D-05-0.483D-04-0.211D-03
 Coeff-Com: -0.195D-03-0.368D-02-0.169D-02-0.475D-02 0.831D-02 0.133D+00
 Coeff-Com:  0.354D+00 0.515D+00
 Coeff:     -0.104D-05 0.226D-05 0.856D-06 0.312D-05-0.483D-04-0.211D-03
 Coeff:     -0.195D-03-0.368D-02-0.169D-02-0.475D-02 0.831D-02 0.133D+00
 Coeff:      0.354D+00 0.515D+00
 Gap=     0.112 Goal=   None    Shift=    0.000
 Gap=     0.112 Goal=   None    Shift=    0.000
 RMSDP=4.91D-08 MaxDP=4.97D-06 DE=-5.09D-11 OVMax= 6.61D-07

 Cycle  15  Pass 1  IDiag  1:
 RMSU=  2.97D-08    CP:  8.34D-01  8.90D-01  9.26D-01  4.72D-01  7.45D-01
                    CP:  8.54D-01  6.42D-01  9.50D-01  7.80D-01  9.32D-01
                    CP:  1.10D+00  1.10D+00  8.42D-01  8.09D-01
 E= -5990.86572867871     Delta-E=        0.000000000025 Rises=F Damp=F
 DIIS: error= 4.65D-08 at cycle  15 NSaved=  15.
 NSaved=15 IEnMin=14 EnMin= -5990.86572867874     IErMin=15 ErrMin= 4.65D-08
 ErrMax= 4.65D-08  0.00D+00 EMaxC= 1.00D-01 BMatC= 3.14D-12 BMatP= 1.51D-11
 IDIUse=1 WtCom= 1.00D+00 WtEn= 0.00D+00
 Coeff-Com:  0.101D-06-0.186D-06 0.583D-06 0.100D-05 0.722D-05 0.188D-04
 Coeff-Com:  0.400D-05-0.521D-03-0.708D-03-0.751D-02-0.157D-01-0.567D-02
 Coeff-Com:  0.852D-01 0.352D+00 0.593D+00
 Coeff:      0.101D-06-0.186D-06 0.583D-06 0.100D-05 0.722D-05 0.188D-04
 Coeff:      0.400D-05-0.521D-03-0.708D-03-0.751D-02-0.157D-01-0.567D-02
 Coeff:      0.852D-01 0.352D+00 0.593D+00
 Gap=     0.112 Goal=   None    Shift=    0.000
 Gap=     0.112 Goal=   None    Shift=    0.000
 RMSDP=3.57D-08 MaxDP=2.83D-06 DE= 2.55D-11 OVMax= 4.09D-07

 Cycle  16  Pass 1  IDiag  1:
 RMSU=  7.86D-09    CP:  8.34D-01  8.89D-01  9.26D-01  4.72D-01  7.45D-01
                    CP:  8.54D-01  6.42D-01  9.50D-01  7.80D-01  9.32D-01
                    CP:  1.10D+00  1.12D+00  8.43D-01  8.96D-01  6.89D-01
 E= -5990.86572867868     Delta-E=        0.000000000027 Rises=F Damp=F
 DIIS: error= 6.83D-09 at cycle  16 NSaved=  16.
 NSaved=16 IEnMin=14 EnMin= -5990.86572867874     IErMin=16 ErrMin= 6.83D-09
 ErrMax= 6.83D-09  0.00D+00 EMaxC= 1.00D-01 BMatC= 9.99D-14 BMatP= 3.14D-12
 IDIUse=1 WtCom= 1.00D+00 WtEn= 0.00D+00
 Coeff-Com:  0.149D-06-0.307D-06 0.167D-06 0.264D-06 0.771D-05 0.258D-04
 Coeff-Com:  0.255D-04-0.265D-04-0.783D-04-0.273D-02-0.623D-02-0.761D-02
 Coeff-Com:  0.185D-01 0.119D+00 0.249D+00 0.631D+00
 Coeff:      0.149D-06-0.307D-06 0.167D-06 0.264D-06 0.771D-05 0.258D-04
 Coeff:      0.255D-04-0.265D-04-0.783D-04-0.273D-02-0.623D-02-0.761D-02
 Coeff:      0.185D-01 0.119D+00 0.249D+00 0.631D+00
 Gap=     0.112 Goal=   None    Shift=    0.000
 Gap=     0.112 Goal=   None    Shift=    0.000
 RMSDP=9.31D-09 MaxDP=1.01D-06 DE= 2.73D-11 OVMax= 7.01D-08

 Cycle  17  Pass 1  IDiag  1:
 RMSU=  1.41D-09    CP:  8.34D-01  8.89D-01  9.26D-01  4.72D-01  7.45D-01
                    CP:  8.54D-01  6.42D-01  9.50D-01  7.80D-01  9.32D-01
                    CP:  1.10D+00  1.12D+00  8.55D-01  9.02D-01  7.12D-01
                    CP:  9.54D-01
 E= -5990.86572867871     Delta-E=       -0.000000000022 Rises=F Damp=F
 DIIS: error= 1.60D-09 at cycle  17 NSaved=  17.
 NSaved=17 IEnMin=14 EnMin= -5990.86572867874     IErMin=17 ErrMin= 1.60D-09
 ErrMax= 1.60D-09  0.00D+00 EMaxC= 1.00D-01 BMatC= 1.32D-14 BMatP= 9.99D-14
 IDIUse=1 WtCom= 1.00D+00 WtEn= 0.00D+00
 Coeff-Com:  0.555D-07-0.115D-06 0.424D-07 0.196D-07 0.263D-05 0.933D-05
 Coeff-Com:  0.938D-05 0.477D-04 0.206D-04-0.512D-03-0.121D-02-0.373D-02
 Coeff-Com: -0.362D-02 0.112D-01 0.431D-01 0.287D+00 0.668D+00
 Coeff:      0.555D-07-0.115D-06 0.424D-07 0.196D-07 0.263D-05 0.933D-05
 Coeff:      0.938D-05 0.477D-04 0.206D-04-0.512D-03-0.121D-02-0.373D-02
 Coeff:     -0.362D-02 0.112D-01 0.431D-01 0.287D+00 0.668D+00
 Gap=     0.112 Goal=   None    Shift=    0.000
 Gap=     0.112 Goal=   None    Shift=    0.000
 RMSDP=3.05D-09 MaxDP=2.55D-07 DE=-2.18D-11 OVMax= 2.91D-08

 Error on total polarization charges =  0.02187
 SCF Done:  E(UB3LYP) =  -5990.86572868     A.U. after   17 cycles
            NFock= 17  Conv=0.30D-08     -V/T= 2.0016
 <Sx>= 0.0000 <Sy>= 0.0000 <Sz>= 0.0000 <S**2>=-0.0000 S=-0.0000
 <L.S>=  0.00000000000    
 KE= 5.981162539612D+03 PE=-1.937771650018D+04 EE= 4.849719615379D+03
 Annihilation of the first spin contaminant:
 S**2 before annihilation    -0.0000,   after     0.0000
 Leave Link  502 at Sat Feb 10 10:08:54 2024, MaxMem=  4026531840 cpu:            3466.0 elap:             438.2
 (Enter /sysapps/ubuntu-applications/gaussian/Gaussian/AVX2/g16/l601.exe)
 Copying SCF densities to generalized density rwf, IOpCl= 1 IROHF=0.

 **********************************************************************

            Population analysis using the SCF density.

 **********************************************************************

 Alpha  occ. eigenvalues -- -482.85175-482.85175 -62.50446 -62.50445 -56.32494
 Alpha  occ. eigenvalues --  -56.32493 -56.32107 -56.32106 -56.32059 -56.32058
 Alpha  occ. eigenvalues --  -19.15628 -19.15627 -10.30932 -10.30931 -10.27146
 Alpha  occ. eigenvalues --  -10.27145 -10.24167 -10.24166 -10.20819 -10.20816
 Alpha  occ. eigenvalues --  -10.19189 -10.19187 -10.19161 -10.19159 -10.18816
 Alpha  occ. eigenvalues --  -10.18814 -10.18699 -10.18697 -10.18683 -10.18681
 Alpha  occ. eigenvalues --   -8.71418  -8.71417  -6.54592  -6.54591  -6.53304
 Alpha  occ. eigenvalues --   -6.53303  -6.53162  -6.53161  -2.65683  -2.65682
 Alpha  occ. eigenvalues --   -2.65338  -2.65337  -2.65230  -2.65229  -2.64204
 Alpha  occ. eigenvalues --   -2.64203  -2.64202  -2.64201  -1.09413  -1.09222
 Alpha  occ. eigenvalues --   -0.90579  -0.88817  -0.87020  -0.85578  -0.80804
 Alpha  occ. eigenvalues --   -0.79836  -0.77231  -0.76361  -0.76354  -0.73906
 Alpha  occ. eigenvalues --   -0.70685  -0.66425  -0.62734  -0.62414  -0.61636
 Alpha  occ. eigenvalues --   -0.60517  -0.59345  -0.55644  -0.54036  -0.53599
 Alpha  occ. eigenvalues --   -0.50206  -0.48858  -0.48481  -0.47796  -0.47203
 Alpha  occ. eigenvalues --   -0.46861  -0.45747  -0.44490  -0.44314  -0.44281
 Alpha  occ. eigenvalues --   -0.43953  -0.43572  -0.43466  -0.42082  -0.38741
 Alpha  occ. eigenvalues --   -0.38507  -0.37230  -0.36910  -0.36636  -0.36308
 Alpha  occ. eigenvalues --   -0.35789  -0.35209  -0.31541  -0.31418  -0.31010
 Alpha  occ. eigenvalues --   -0.30256  -0.29377  -0.28895  -0.27019  -0.26996
 Alpha  occ. eigenvalues --   -0.26519  -0.26007
 Alpha virt. eigenvalues --   -0.14795  -0.06138  -0.03510  -0.03394  -0.02838
 Alpha virt. eigenvalues --   -0.02742  -0.02525  -0.02056  -0.00966  -0.00384
 Alpha virt. eigenvalues --   -0.00130   0.00987   0.01147   0.01298   0.02305
 Alpha virt. eigenvalues --    0.02755   0.03105   0.03876   0.03954   0.04087
 Alpha virt. eigenvalues --    0.04432   0.04778   0.05344   0.05659   0.05990
 Alpha virt. eigenvalues --    0.06336   0.06965   0.07494   0.07878   0.08089
 Alpha virt. eigenvalues --    0.08330   0.08856   0.09093   0.09358   0.09927
 Alpha virt. eigenvalues --    0.10226   0.10515   0.10604   0.11223   0.11260
 Alpha virt. eigenvalues --    0.11527   0.11941   0.12027   0.12106   0.12327
 Alpha virt. eigenvalues --    0.12549   0.12700   0.12800   0.12997   0.13268
 Alpha virt. eigenvalues --    0.13346   0.13365   0.13989   0.14269   0.14672
 Alpha virt. eigenvalues --    0.14807   0.14977   0.15602   0.16106   0.16324
 Alpha virt. eigenvalues --    0.16465   0.16900   0.17143   0.17284   0.17582
 Alpha virt. eigenvalues --    0.18226   0.18530   0.18800   0.18966   0.19281
 Alpha virt. eigenvalues --    0.19576   0.19661   0.20175   0.20203   0.20964
 Alpha virt. eigenvalues --    0.21022   0.21430   0.21743   0.21954   0.22734
 Alpha virt. eigenvalues --    0.22839   0.23071   0.23426   0.23573   0.23705
 Alpha virt. eigenvalues --    0.24300   0.24645   0.24879   0.25747   0.25986
 Alpha virt. eigenvalues --    0.26154   0.26429   0.26965   0.27119   0.27316
 Alpha virt. eigenvalues --    0.27929   0.28178   0.28594   0.28858   0.29100
 Alpha virt. eigenvalues --    0.29418   0.29525   0.29950   0.30188   0.30241
 Alpha virt. eigenvalues --    0.30750   0.30829   0.31213   0.31412   0.31917
 Alpha virt. eigenvalues --    0.32347   0.33059   0.33107   0.33610   0.33919
 Alpha virt. eigenvalues --    0.34586   0.35416   0.35431   0.36199   0.36337
 Alpha virt. eigenvalues --    0.36465   0.36501   0.36955   0.37711   0.38747
 Alpha virt. eigenvalues --    0.39078   0.39770   0.40502   0.41684   0.43003
 Alpha virt. eigenvalues --    0.43076   0.43664   0.43839   0.44710   0.44917
 Alpha virt. eigenvalues --    0.46446   0.48721   0.49321   0.51757   0.52776
 Alpha virt. eigenvalues --    0.53777   0.53890   0.54214   0.54329   0.54511
 Alpha virt. eigenvalues --    0.55423   0.55818   0.55894   0.56342   0.56415
 Alpha virt. eigenvalues --    0.56654   0.57207   0.57565   0.58519   0.58576
 Alpha virt. eigenvalues --    0.58845   0.59877   0.59896   0.60572   0.61392
 Alpha virt. eigenvalues --    0.61422   0.61883   0.62407   0.62708   0.63232
 Alpha virt. eigenvalues --    0.63747   0.64481   0.65199   0.66610   0.66814
 Alpha virt. eigenvalues --    0.67748   0.68080   0.68407   0.68862   0.69137
 Alpha virt. eigenvalues --    0.69484   0.70283   0.70775   0.71061   0.71425
 Alpha virt. eigenvalues --    0.71862   0.72005   0.72590   0.73460   0.73535
 Alpha virt. eigenvalues --    0.73998   0.74611   0.75458   0.76341   0.76696
 Alpha virt. eigenvalues --    0.76767   0.77827   0.77936   0.78854   0.79333
 Alpha virt. eigenvalues --    0.80025   0.81804   0.81895   0.83906   0.84214
 Alpha virt. eigenvalues --    0.84375   0.85406   0.85653   0.85712   0.86474
 Alpha virt. eigenvalues --    0.87323   0.88053   0.88324   0.88701   0.89290
 Alpha virt. eigenvalues --    0.89703   0.91128   0.91960   0.92414   0.92599
 Alpha virt. eigenvalues --    0.93156   0.93739   0.94945   0.95035   0.96731
 Alpha virt. eigenvalues --    0.97153   0.98027   0.99003   0.99118   0.99555
 Alpha virt. eigenvalues --    1.01054   1.01689   1.02549   1.03286   1.04339
 Alpha virt. eigenvalues --    1.05103   1.06420   1.06691   1.07179   1.08174
 Alpha virt. eigenvalues --    1.08804   1.09091   1.09222   1.12215   1.13200
 Alpha virt. eigenvalues --    1.14195   1.15164   1.15420   1.17169   1.17646
 Alpha virt. eigenvalues --    1.19641   1.22921   1.23718   1.24064   1.24940
 Alpha virt. eigenvalues --    1.25167   1.26971   1.28576   1.29947   1.30737
 Alpha virt. eigenvalues --    1.32319   1.32767   1.37032   1.37373   1.38731
 Alpha virt. eigenvalues --    1.42725   1.43860   1.46638   1.47464   1.50429
 Alpha virt. eigenvalues --    1.50628   1.51397   1.52419   1.52722   1.53419
 Alpha virt. eigenvalues --    1.54256   1.55337   1.55617   1.56463   1.56482
 Alpha virt. eigenvalues --    1.57147   1.58514   1.60919   1.61669   1.62971
 Alpha virt. eigenvalues --    1.63721   1.64864   1.64942   1.65210   1.67372
 Alpha virt. eigenvalues --    1.68059   1.68874   1.69835   1.72010   1.73075
 Alpha virt. eigenvalues --    1.73109   1.73953   1.75019   1.76233   1.77084
 Alpha virt. eigenvalues --    1.77839   1.78494   1.79892   1.81498   1.82892
 Alpha virt. eigenvalues --    1.82939   1.84231   1.84857   1.85858   1.87567
 Alpha virt. eigenvalues --    1.89713   1.90075   1.90450   1.91090   1.91518
 Alpha virt. eigenvalues --    1.93102   1.93594   1.94558   1.94987   1.96340
 Alpha virt. eigenvalues --    1.96382   1.96678   1.97594   1.97848   2.00580
 Alpha virt. eigenvalues --    2.01221   2.01383   2.02570   2.03155   2.05035
 Alpha virt. eigenvalues --    2.06391   2.07095   2.07518   2.08902   2.09996
 Alpha virt. eigenvalues --    2.10616   2.12820   2.16063   2.18028   2.18217
 Alpha virt. eigenvalues --    2.21540   2.23230   2.24104   2.26327   2.28431
 Alpha virt. eigenvalues --    2.29691   2.32612   2.34498   2.35618   2.37568
 Alpha virt. eigenvalues --    2.39258   2.39936   2.41934   2.43321   2.44176
 Alpha virt. eigenvalues --    2.45421   2.45572   2.46389   2.47467   2.48081
 Alpha virt. eigenvalues --    2.51056   2.61017   2.62963   2.63241   2.64267
 Alpha virt. eigenvalues --    2.64978   2.65916   2.67143   2.68475   2.68821
 Alpha virt. eigenvalues --    2.70032   2.70807   2.70930   2.72784   2.73094
 Alpha virt. eigenvalues --    2.73549   2.75235   2.75338   2.76337   2.77509
 Alpha virt. eigenvalues --    2.78286   2.78440   2.79950   2.79986   2.80480
 Alpha virt. eigenvalues --    2.81229   2.84229   2.84648   2.85787   2.86116
 Alpha virt. eigenvalues --    2.86331   2.86965   2.89815   2.91025   2.92000
 Alpha virt. eigenvalues --    2.93030   2.93332   2.93816   2.95125   2.96853
 Alpha virt. eigenvalues --    2.98147   2.98682   3.01855   3.02925   3.08859
 Alpha virt. eigenvalues --    3.09080   3.09636   3.10906   3.13888   3.18275
 Alpha virt. eigenvalues --    3.19099   3.20660   3.21894   3.22839   3.31911
 Alpha virt. eigenvalues --    3.33254   3.33906   3.35296   3.35359   3.36815
 Alpha virt. eigenvalues --    3.39925   3.46626   3.48872   3.49093   3.50048
 Alpha virt. eigenvalues --    3.53949   3.54641   3.55370   3.58428   3.62921
 Alpha virt. eigenvalues --    3.63447   3.70680   3.72936   3.78396   3.89567
 Alpha virt. eigenvalues --    3.98903   3.99264   4.00123   4.03865   4.04231
 Alpha virt. eigenvalues --    4.13419   4.14179   4.14689   4.14713   4.15033
 Alpha virt. eigenvalues --    4.16363   4.16627   4.19999   4.21845   4.23837
 Alpha virt. eigenvalues --    4.24118   4.28802   4.37895   4.40990   4.46062
 Alpha virt. eigenvalues --    4.57915   4.59736   4.70480   4.84131   4.84699
 Alpha virt. eigenvalues --    5.05885   5.05922   5.22933   5.25452   5.69394
 Alpha virt. eigenvalues --    5.78170   6.78525   6.81355   7.57624   7.58162
 Alpha virt. eigenvalues --    7.68954   7.72318   7.76858   7.77508  23.47275
 Alpha virt. eigenvalues --   23.62941  23.67568  23.70170  23.82738  23.87064
 Alpha virt. eigenvalues --   23.95331  23.95845  23.96497  23.96515  24.04236
 Alpha virt. eigenvalues --   24.05277  24.09223  24.09300  24.12402  24.15525
 Alpha virt. eigenvalues --   24.18829  24.19213  48.03615  48.05587  49.99650
 Alpha virt. eigenvalues --   50.02791 289.77383 289.77863 289.88525 289.92096
 Alpha virt. eigenvalues --  289.99040 289.993671020.856261020.88049
  Beta  occ. eigenvalues -- -482.85175-482.85175 -62.50446 -62.50445 -56.32494
  Beta  occ. eigenvalues --  -56.32493 -56.32107 -56.32106 -56.32059 -56.32058
  Beta  occ. eigenvalues --  -19.15628 -19.15627 -10.30932 -10.30931 -10.27146
  Beta  occ. eigenvalues --  -10.27145 -10.24167 -10.24166 -10.20819 -10.20816
  Beta  occ. eigenvalues --  -10.19189 -10.19187 -10.19161 -10.19159 -10.18816
  Beta  occ. eigenvalues --  -10.18814 -10.18699 -10.18697 -10.18683 -10.18681
  Beta  occ. eigenvalues --   -8.71418  -8.71417  -6.54592  -6.54591  -6.53304
  Beta  occ. eigenvalues --   -6.53303  -6.53162  -6.53161  -2.65683  -2.65682
  Beta  occ. eigenvalues --   -2.65338  -2.65337  -2.65230  -2.65229  -2.64204
  Beta  occ. eigenvalues --   -2.64203  -2.64202  -2.64201  -1.09413  -1.09222
  Beta  occ. eigenvalues --   -0.90579  -0.88817  -0.87020  -0.85578  -0.80804
  Beta  occ. eigenvalues --   -0.79836  -0.77231  -0.76361  -0.76354  -0.73906
  Beta  occ. eigenvalues --   -0.70685  -0.66425  -0.62734  -0.62414  -0.61636
  Beta  occ. eigenvalues --   -0.60517  -0.59345  -0.55644  -0.54036  -0.53599
  Beta  occ. eigenvalues --   -0.50206  -0.48858  -0.48481  -0.47796  -0.47203
  Beta  occ. eigenvalues --   -0.46861  -0.45747  -0.44490  -0.44314  -0.44281
  Beta  occ. eigenvalues --   -0.43953  -0.43572  -0.43466  -0.42082  -0.38741
  Beta  occ. eigenvalues --   -0.38507  -0.37230  -0.36910  -0.36636  -0.36308
  Beta  occ. eigenvalues --   -0.35789  -0.35209  -0.31541  -0.31418  -0.31010
  Beta  occ. eigenvalues --   -0.30256  -0.29377  -0.28895  -0.27019  -0.26996
  Beta  occ. eigenvalues --   -0.26519  -0.26007
  Beta virt. eigenvalues --   -0.14795  -0.06138  -0.03510  -0.03394  -0.02838
  Beta virt. eigenvalues --   -0.02742  -0.02525  -0.02056  -0.00966  -0.00384
  Beta virt. eigenvalues --   -0.00130   0.00987   0.01147   0.01298   0.02305
  Beta virt. eigenvalues --    0.02755   0.03105   0.03876   0.03954   0.04087
  Beta virt. eigenvalues --    0.04432   0.04778   0.05344   0.05659   0.05990
  Beta virt. eigenvalues --    0.06336   0.06965   0.07494   0.07878   0.08089
  Beta virt. eigenvalues --    0.08330   0.08856   0.09093   0.09358   0.09927
  Beta virt. eigenvalues --    0.10226   0.10515   0.10604   0.11223   0.11260
  Beta virt. eigenvalues --    0.11527   0.11941   0.12027   0.12106   0.12327
  Beta virt. eigenvalues --    0.12549   0.12700   0.12800   0.12997   0.13268
  Beta virt. eigenvalues --    0.13346   0.13365   0.13989   0.14269   0.14672
  Beta virt. eigenvalues --    0.14807   0.14977   0.15602   0.16106   0.16324
  Beta virt. eigenvalues --    0.16465   0.16900   0.17143   0.17284   0.17582
  Beta virt. eigenvalues --    0.18226   0.18530   0.18800   0.18966   0.19281
  Beta virt. eigenvalues --    0.19576   0.19661   0.20175   0.20203   0.20964
  Beta virt. eigenvalues --    0.21022   0.21430   0.21743   0.21954   0.22734
  Beta virt. eigenvalues --    0.22839   0.23071   0.23426   0.23573   0.23705
  Beta virt. eigenvalues --    0.24300   0.24645   0.24879   0.25747   0.25986
  Beta virt. eigenvalues --    0.26154   0.26429   0.26965   0.27119   0.27316
  Beta virt. eigenvalues --    0.27929   0.28178   0.28594   0.28858   0.29100
  Beta virt. eigenvalues --    0.29418   0.29525   0.29950   0.30188   0.30241
  Beta virt. eigenvalues --    0.30750   0.30829   0.31213   0.31412   0.31917
  Beta virt. eigenvalues --    0.32347   0.33059   0.33107   0.33610   0.33919
  Beta virt. eigenvalues --    0.34586   0.35416   0.35431   0.36199   0.36337
  Beta virt. eigenvalues --    0.36465   0.36501   0.36955   0.37711   0.38747
  Beta virt. eigenvalues --    0.39078   0.39770   0.40502   0.41684   0.43003
  Beta virt. eigenvalues --    0.43076   0.43664   0.43839   0.44710   0.44917
  Beta virt. eigenvalues --    0.46446   0.48721   0.49321   0.51757   0.52776
  Beta virt. eigenvalues --    0.53777   0.53890   0.54214   0.54329   0.54511
  Beta virt. eigenvalues --    0.55423   0.55818   0.55894   0.56342   0.56415
  Beta virt. eigenvalues --    0.56654   0.57207   0.57565   0.58519   0.58576
  Beta virt. eigenvalues --    0.58845   0.59877   0.59896   0.60572   0.61392
  Beta virt. eigenvalues --    0.61422   0.61883   0.62407   0.62708   0.63232
  Beta virt. eigenvalues --    0.63747   0.64481   0.65199   0.66610   0.66814
  Beta virt. eigenvalues --    0.67748   0.68080   0.68407   0.68862   0.69137
  Beta virt. eigenvalues --    0.69484   0.70283   0.70775   0.71061   0.71425
  Beta virt. eigenvalues --    0.71862   0.72005   0.72590   0.73460   0.73535
  Beta virt. eigenvalues --    0.73998   0.74611   0.75458   0.76341   0.76696
  Beta virt. eigenvalues --    0.76767   0.77827   0.77936   0.78854   0.79333
  Beta virt. eigenvalues --    0.80025   0.81804   0.81895   0.83906   0.84214
  Beta virt. eigenvalues --    0.84375   0.85406   0.85653   0.85712   0.86474
  Beta virt. eigenvalues --    0.87323   0.88053   0.88324   0.88701   0.89290
  Beta virt. eigenvalues --    0.89703   0.91128   0.91960   0.92414   0.92599
  Beta virt. eigenvalues --    0.93156   0.93739   0.94945   0.95035   0.96731
  Beta virt. eigenvalues --    0.97153   0.98027   0.99003   0.99118   0.99555
  Beta virt. eigenvalues --    1.01054   1.01689   1.02549   1.03286   1.04339
  Beta virt. eigenvalues --    1.05103   1.06420   1.06691   1.07179   1.08174
  Beta virt. eigenvalues --    1.08804   1.09091   1.09222   1.12215   1.13200
  Beta virt. eigenvalues --    1.14195   1.15164   1.15420   1.17169   1.17646
  Beta virt. eigenvalues --    1.19641   1.22921   1.23718   1.24064   1.24940
  Beta virt. eigenvalues --    1.25167   1.26971   1.28576   1.29947   1.30737
  Beta virt. eigenvalues --    1.32319   1.32767   1.37032   1.37373   1.38731
  Beta virt. eigenvalues --    1.42725   1.43860   1.46638   1.47464   1.50429
  Beta virt. eigenvalues --    1.50628   1.51397   1.52419   1.52722   1.53419
  Beta virt. eigenvalues --    1.54256   1.55337   1.55617   1.56463   1.56482
  Beta virt. eigenvalues --    1.57147   1.58514   1.60919   1.61669   1.62971
  Beta virt. eigenvalues --    1.63721   1.64864   1.64942   1.65210   1.67372
  Beta virt. eigenvalues --    1.68059   1.68874   1.69835   1.72010   1.73075
  Beta virt. eigenvalues --    1.73109   1.73953   1.75019   1.76233   1.77084
  Beta virt. eigenvalues --    1.77839   1.78494   1.79892   1.81498   1.82892
  Beta virt. eigenvalues --    1.82939   1.84231   1.84857   1.85858   1.87567
  Beta virt. eigenvalues --    1.89713   1.90075   1.90450   1.91090   1.91518
  Beta virt. eigenvalues --    1.93102   1.93594   1.94558   1.94987   1.96340
  Beta virt. eigenvalues --    1.96382   1.96678   1.97594   1.97848   2.00580
  Beta virt. eigenvalues --    2.01221   2.01383   2.02570   2.03155   2.05035
  Beta virt. eigenvalues --    2.06391   2.07095   2.07518   2.08902   2.09996
  Beta virt. eigenvalues --    2.10616   2.12820   2.16063   2.18028   2.18217
  Beta virt. eigenvalues --    2.21540   2.23230   2.24104   2.26327   2.28431
  Beta virt. eigenvalues --    2.29691   2.32612   2.34498   2.35618   2.37568
  Beta virt. eigenvalues --    2.39258   2.39936   2.41934   2.43321   2.44176
  Beta virt. eigenvalues --    2.45421   2.45572   2.46389   2.47467   2.48081
  Beta virt. eigenvalues --    2.51056   2.61017   2.62963   2.63241   2.64267
  Beta virt. eigenvalues --    2.64978   2.65916   2.67143   2.68475   2.68821
  Beta virt. eigenvalues --    2.70032   2.70807   2.70930   2.72784   2.73094
  Beta virt. eigenvalues --    2.73549   2.75235   2.75338   2.76337   2.77509
  Beta virt. eigenvalues --    2.78286   2.78440   2.79950   2.79986   2.80480
  Beta virt. eigenvalues --    2.81229   2.84229   2.84648   2.85787   2.86116
  Beta virt. eigenvalues --    2.86331   2.86965   2.89815   2.91025   2.92000
  Beta virt. eigenvalues --    2.93030   2.93332   2.93816   2.95125   2.96853
  Beta virt. eigenvalues --    2.98147   2.98682   3.01855   3.02925   3.08859
  Beta virt. eigenvalues --    3.09080   3.09636   3.10906   3.13888   3.18275
  Beta virt. eigenvalues --    3.19099   3.20660   3.21894   3.22839   3.31911
  Beta virt. eigenvalues --    3.33254   3.33906   3.35296   3.35359   3.36815
  Beta virt. eigenvalues --    3.39925   3.46626   3.48872   3.49093   3.50048
  Beta virt. eigenvalues --    3.53949   3.54641   3.55370   3.58428   3.62921
  Beta virt. eigenvalues --    3.63447   3.70680   3.72936   3.78396   3.89567
  Beta virt. eigenvalues --    3.98903   3.99264   4.00123   4.03865   4.04231
  Beta virt. eigenvalues --    4.13419   4.14179   4.14689   4.14713   4.15033
  Beta virt. eigenvalues --    4.16363   4.16627   4.19999   4.21845   4.23837
  Beta virt. eigenvalues --    4.24118   4.28802   4.37895   4.40990   4.46062
  Beta virt. eigenvalues --    4.57915   4.59736   4.70480   4.84131   4.84699
  Beta virt. eigenvalues --    5.05885   5.05922   5.22933   5.25452   5.69394
  Beta virt. eigenvalues --    5.78170   6.78525   6.81355   7.57624   7.58162
  Beta virt. eigenvalues --    7.68954   7.72318   7.76858   7.77508  23.47275
  Beta virt. eigenvalues --   23.62941  23.67568  23.70170  23.82738  23.87064
  Beta virt. eigenvalues --   23.95331  23.95845  23.96497  23.96515  24.04236
  Beta virt. eigenvalues --   24.05277  24.09223  24.09300  24.12402  24.15525
  Beta virt. eigenvalues --   24.18829  24.19213  48.03615  48.05587  49.99650
  Beta virt. eigenvalues --   50.02791 289.77383 289.77863 289.88525 289.92096
  Beta virt. eigenvalues --  289.99040 289.993671020.856261020.88049
          Condensed to atoms (all electrons):
               1          2          3          4          5          6
     1  Br  34.997628   0.117064  -0.163781   0.161527   0.001933   0.047950
     2  C    0.117064  21.273645   1.476068  -5.399125  -0.082947   1.035056
     3  C   -0.163781   1.476068  20.284744  -3.982039   0.105055  -0.959404
     4  C    0.161527  -5.399125  -3.982039  18.119110   0.580686  -1.109579
     5  O    0.001933  -0.082947   0.105055   0.580686   8.039242  -0.334739
     6  C    0.047950   1.035056  -0.959404  -1.109579  -0.334739  21.300024
     7  C   -0.245316  -0.957922  -0.096983  -5.756360   0.033968   1.461819
     8  C    0.158143  -1.108734  -5.748814   2.147963  -0.108243  -5.397541
     9  O   -0.067633  -0.334847   0.033948  -0.108218   0.000882  -0.083439
    10  C   -0.053788  -2.993624  -0.264879   0.517094   0.049804  -4.800128
    11  C    0.037129  -0.402761  -0.352031   1.050401   0.016181  -0.195747
    12  C    0.003238   0.168329  -0.068962  -0.115958   0.000461   0.270484
    13  C   -0.000980  -0.066073   0.015807  -0.000204   0.000124  -0.578407
    14  C    0.000111   0.085234   0.085718   0.133316  -0.003039   1.252672
    15  C   -0.050138  -0.354887   0.639291  -1.102740  -0.023103  -1.872253
    16  Br   0.004541   0.047741  -0.245793   0.157967  -0.067735   0.117391
    17  C    0.186416  -4.797697  -3.344284   0.695661   0.043299  -3.000897
    18  C    0.087975  -0.198696  -2.360268   1.103138   0.073721  -0.400408
    19  C    0.034140   0.271382   0.791301   0.001040   0.003825   0.168602
    20  C    0.012027  -0.577726  -0.920128   0.305288  -0.006279  -0.066255
    21  C   -0.070947   1.249446   0.630130  -0.442418   0.018174   0.085313
    22  C   -0.163260  -1.868103  -0.570443   0.122619  -0.167194  -0.358492
    23  H   -0.004050  -0.042596   0.019198   0.010802   0.000190  -0.018802
    24  H    0.000084  -0.003036  -0.001008   0.001902  -0.000004   0.016205
    25  H   -0.000049  -0.002558   0.000766   0.001142  -0.000001  -0.009957
    26  H    0.000041  -0.000263  -0.001185   0.002894  -0.000056   0.021964
    27  H   -0.000587  -0.040278   0.000073   0.008608   0.001162  -0.056828
    28  H   -0.004522  -0.018848  -0.048300  -0.031266  -0.009877  -0.042811
    29  H   -0.000079   0.016206   0.023783  -0.012004  -0.000299  -0.003041
    30  H    0.000049  -0.009926  -0.020911   0.001572  -0.000463  -0.002565
    31  H   -0.000836   0.021950   0.013427  -0.005867   0.000049  -0.000277
    32  H    0.002057  -0.056798  -0.018107  -0.012822  -0.003102  -0.040240
[...]
 00007193,0.00019153,0.00011757,0.00004396,0.00034455,-0.00027704,-0.00
 026823,0.00111688,0.00076499,-0.00009020,0.00005355,0.00021024,0.00012
 531,-0.00001331,-0.00009877,-0.00008401,0.00989772,0.01313738,-0.00968
 168,-0.00149196,0.00228529,-0.00245193,-0.00072063,0.00043902,-0.00031
 662,-0.00539788,0.00030527,-0.00126610,-0.00929507,-0.02354209,0.01721
 582,-0.11556346,-0.09189882,0.06553579,-0.00021647,-0.00002857,-0.0003
 6542,-0.00001560,-0.00001621,-0.00000965,0.00000743,0.00000736,-0.0000
 0959,0.00000258,-0.00000373,0.00000140,0.00000518,0.00000221,-0.000001
 13,0.00000389,-0.00000076,-0.00000068,0.00000844,0.00000517,0.00001133
 ,0.00050892,0.00067190,-0.00047222,0.00009546,-0.00004681,0.00014207,-
 0.00059019,-0.00112271,0.00083806,0.00123110,0.00050537,0.00006327,0.1
 2021910,0.00004248,-0.00002333,-0.00001144,-0.00002630,-0.00010877,-0.
 00004448,-0.00002496,0.00003536,0.00000547,0.00009899,-0.00016106,0.00
 015848,-0.00003239,0.00003719,-0.00003350,0.00005850,0.00035542,-0.000
 12123,-0.00136796,-0.00134467,-0.00213118,0.00045665,-0.00012291,0.000
 13165,0.00003049,0.00007031,-0.00001786,-0.00942736,-0.01004278,0.0093
 3643,0.00283502,0.00097251,0.00443420,0.00045458,-0.00012051,-0.000669
 28,-0.00031515,0.00385425,0.00270597,0.00100826,0.00240401,0.00134640,
 -0.09183442,-0.19505615,0.11583568,-0.00011761,0.00025189,-0.00007241,
 0.00000429,0.00000965,0.00000400,-0.00000197,-0.00000413,0.00000026,0.
 00000014,-0.00000049,-0.00000151,0.00000060,0.00000264,0.00000086,-0.0
 0000003,-0.00000105,-0.00000096,-0.00000126,-0.00000243,0.00000175,-0.
 00056163,-0.00041558,0.00056713,-0.00004030,-0.00041981,-0.00047638,0.
 00010005,-0.00005222,0.00004831,-0.00002744,-0.00113049,-0.00239109,0.
 09868797,0.20101283,0.00004323,-0.00003321,-0.00002103,0.00004159,0.00
 000382,-0.00004447,0.00002162,-0.00001605,-0.00003043,-0.00002643,-0.0
 0019493,0.00004103,0.00000564,-0.00000373,-0.00006783,-0.00101404,0.00
 032399,0.00013137,0.00089390,-0.00218806,-0.00211795,0.00019836,0.0003
 2238,0.00035978,-0.00011518,-0.00012051,-0.00009992,0.00886488,0.01135
 773,-0.00489884,-0.00277344,0.00444272,0.00305006,-0.00050022,-0.00062
 747,-0.00064133,-0.00081238,0.00268899,0.00527443,-0.00162192,-0.00074
 382,0.00427560,0.06479092,0.11582507,-0.12231674,0.00011953,-0.0002033
 2,-0.00014618,-0.00000469,-0.00000115,-0.00000098,0.00000508,-0.000002
 94,-0.00000929,0.00000133,0.00000239,0.00000211,0.00000271,0.00000007,
 -0.00000026,0.00000128,-0.00000103,-0.00000128,0.00000459,0.00000034,0
 .00000889,0.00042577,0.00066767,-0.00012065,0.00011309,-0.00049571,-0.
 00066691,-0.00013927,-0.00003888,0.00008019,0.00043738,-0.00236056,-0.
 00235790,-0.06896462,-0.12860427,0.12031763,-0.00007721,0.00020243,0.0
 0006003,0.00046494,-0.00035947,-0.00011817,0.00087906,0.00053598,-0.00
 024949,-0.00014685,0.00027612,-0.00029713,-0.00005424,0.00013623,-0.00
 006341,0.00002311,0.00003889,0.00004342,0.00001576,-0.00006507,-0.0000
 5347,-0.00045386,0.00001424,0.00004268,0.00018100,0.00009355,0.0000529
 0,-0.00001183,-0.00000747,-0.00000610,0.00000674,-0.00000983,0.0000023
 0,0.00000153,0.00000043,0.00000127,0.00000665,0.00000038,0.00000087,0.
 00000412,-0.00000070,0.00000056,0.00000770,0.00001250,-0.00000461,0.00
 004346,-0.00004465,-0.00003415,0.01050868,0.00344151,-0.01507855,-0.12
 359321,-0.02871351,0.11432021,-0.01020126,-0.00655551,0.02814230,-0.00
 536369,-0.00066244,-0.00140381,-0.00068624,0.00013017,-0.00059656,-0.0
 0126073,0.00010379,-0.00322517,-0.00000237,-0.00000236,-0.00000008,0.0
 0000253,0.00000143,-0.00000040,0.00000161,-0.00000022,0.00000022,0.000
 00298,-0.00000104,0.00000051,-0.00000256,0.00000017,-0.00000158,0.1284
 9001,-0.00000664,-0.00004802,0.00003813,-0.00038642,0.00009555,0.00001
 527,0.00047700,-0.00344737,-0.00089469,0.00101961,0.00049650,0.0002850
 6,-0.00048699,-0.00012412,-0.00017449,0.00001519,-0.00010386,-0.000080
 22,0.00001984,-0.00001335,-0.00000027,-0.00000283,0.00000275,-0.000070
 23,-0.00007512,-0.00007084,-0.00002245,-0.00000744,-0.00000285,-0.0000
 0821,-0.00000026,0.00000969,0.00000187,0.00000021,-0.00000185,-0.00000
 079,-0.00000276,0.00000056,-0.00000141,-0.00000159,-0.00000011,-0.0000
 0026,0.00000088,-0.00000667,0.00000184,0.00002883,-0.00002416,-0.00002
 125,-0.00273735,0.00242629,0.00272166,-0.02788425,-0.04940557,0.051858
 47,-0.00088063,0.00348404,0.00204613,-0.00079178,0.00722878,0.00083822
 ,0.00032084,-0.00101447,-0.00016890,-0.00002221,0.00642356,0.00152172,
 -0.00000056,-0.00000086,-0.00000187,-0.00000148,-0.00000024,0.00000030
 ,-0.00000014,0.00000018,0.00000023,-0.00000127,0.00000033,0.00000023,0
 .00000001,0.00000043,0.00000020,0.03110410,0.03882471,-0.00003760,0.00
 005162,0.00006518,-0.00048704,-0.00027433,-0.00010465,0.00142054,-0.00
 035115,0.00030545,-0.00075508,-0.00030771,-0.00012223,0.00041410,0.000
 00097,0.00050947,0.00002442,0.00014979,-0.00003499,0.00000292,-0.00000
 226,0.00000412,0.00007293,-0.00001210,-0.00015543,-0.00006032,-0.00002
 927,0.00001187,0.00000226,0.00000022,0.00001042,0.00000340,-0.00000948
 ,0.00000124,0.00000150,0.00000162,0.00000124,0.00000199,0.00000027,-0.
 00000032,0.00000257,-0.00000291,-0.00000110,0.00000627,0.00001240,-0.0
 0000021,-0.00000642,0.00000855,0.00000663,0.01373698,0.00495730,-0.017
 28761,0.11425654,0.05165469,-0.26062195,-0.00245158,-0.00007984,0.0040
 6406,-0.00062791,0.00097761,0.00184379,-0.00061808,-0.00028767,0.00023
 072,-0.00397069,0.00132577,-0.00252613,-0.00000162,-0.00000023,0.00000
 011,0.00000124,0.00000056,-0.00000007,0.00000096,-0.00000007,0.0000002
 3,0.00000176,-0.00000059,0.00000001,-0.00000169,0.00000006,0.00000019,
 -0.12197999,-0.05700600,0.27412682,0.00007961,-0.00012776,-0.00012427,
 -0.00072511,0.00026922,0.00024807,-0.00002457,0.00004385,-0.00137099,0
 .00001269,-0.00018826,-0.00006954,-0.00003022,0.00011792,0.00005450,-0
 .00003688,-0.00004648,-0.00002441,-0.00002624,0.00010269,0.00003850,0.
 00052222,-0.00017661,0.00009311,-0.00023942,-0.00008600,-0.00010416,0.
 00001567,0.00000957,0.00000829,-0.00001004,0.00001118,-0.00000605,-0.0
 0000182,-0.00000222,0.00000141,-0.00000537,0.00000032,-0.00000062,-0.0
 0000372,0.00000117,-0.00000120,-0.00000822,-0.00001274,0.00000568,-0.0
 0005398,0.00005602,0.00005031,-0.00506189,-0.00087431,0.00088616,-0.01
 168448,0.00425671,-0.02769257,-0.12997063,0.01641802,-0.12057112,0.011
 53745,-0.00227747,0.01480721,-0.00075980,-0.00124639,0.00293379,-0.000
 65328,-0.00011436,0.00078283,0.00000207,0.00000034,-0.00000163,-0.0000
 0302,-0.00000136,0.00000037,-0.00000155,-0.00000028,-0.00000005,-0.000
 00299,0.00000069,-0.00000073,0.00000247,-0.00000014,0.00000160,0.00124
 461,0.00033665,0.00038049,0.13462901,0.00001198,-0.00011536,-0.0000797
 9,-0.00007097,0.00003239,0.00001401,0.00018019,0.00035652,-0.00007372,
 0.00002225,0.00000308,0.00009740,-0.00003907,-0.00000569,-0.00000871,-
 0.00002033,-0.00000524,-0.00001339,-0.00000340,0.00000952,0.00001140,0
 .00012056,0.00001647,0.00001537,-0.00002453,-0.00003062,-0.00001725,0.
 00000423,0.00000340,0.00000518,-0.00000176,0.00000015,-0.00000264,-0.0
 0000024,0.00000028,0.00000174,0.00000015,-0.00000229,-0.00000270,-0.00
 000078,0.00000249,0.00000219,-0.00000215,-0.00000337,-0.00000103,-0.00
 000222,0.00000751,0.00000723,-0.00130133,0.00688759,0.00124134,-0.0017
 1658,0.00384461,-0.00214758,0.01639693,-0.04280087,0.03433857,0.003689
 02,0.00283707,0.00527253,-0.00140711,0.00680834,0.00210924,0.00001082,
 -0.00107880,-0.00032994,0.00000036,0.00000021,0.00000002,-0.00000040,-
 0.00000009,0.00000009,-0.00000045,0.00000045,0.00000064,-0.00000020,-0
 .00000026,-0.00000033,0.00000066,0.00000008,-0.00000006,0.00045705,-0.
 00403910,-0.00087958,-0.01695924,0.03207439,0.00001182,-0.00005277,-0.
 00002094,-0.00014420,0.00011056,-0.00001889,0.00034103,0.00001434,0.00
 011423,-0.00000289,-0.00004132,0.00002366,-0.00006771,0.00003758,0.000
 00057,-0.00001363,-0.00001178,-0.00000359,-0.00000637,0.00001898,0.000
 02276,0.00016079,0.00003440,-0.00005166,-0.00007259,-0.00005178,-0.000
 00644,0.00000403,0.00000518,-0.00000012,-0.00000279,0.00000529,-0.0000
 0126,-0.00000074,-0.00000073,-0.00000004,-0.00000262,-0.00000065,-0.00
 000078,-0.00000139,0.00000095,0.00000033,-0.00000420,-0.00000581,0.000
 00230,-0.00002309,0.00002000,0.00001554,0.00065291,0.00100315,0.002121
 42,0.00246332,0.00017504,0.00368754,-0.12080260,0.03438100,-0.26018573
 ,-0.01549027,0.00289129,-0.01742188,0.00364221,0.00225787,-0.00247150,
 0.00075379,-0.00020246,-0.00000098,0.00000113,0.00000039,-0.00000030,-
 0.00000117,-0.00000063,0.00000027,-0.00000077,0.00000014,0.00000005,-0
 .00000129,0.00000033,-0.00000034,0.00000141,-0.00000023,0.00000031,-0.
 00026841,-0.00093701,0.00055800,0.12957206,-0.03861032,0.27372155,0.00
 001539,-0.00006126,-0.00002356,-0.00020048,0.00009583,0.00002994,0.000
 18849,0.00006638,0.00001468,0.00003182,-0.00005980,0.00001121,-0.00006
 919,0.00004957,0.00000221,-0.00002314,-0.00002219,-0.00001444,-0.00001
 018,0.00003770,0.00002282,0.00022487,-0.00000691,-0.00000857,-0.000102
 74,-0.00005189,-0.00003121,0.00000719,0.00000388,0.00000311,-0.0000041
 7,0.00000508,-0.00000231,-0.00000117,-0.00000022,0.00000055,-0.0000036
 0,0.00000029,-0.00000029,-0.00000226,-0.00000011,-0.00000126,-0.000003
 56,-0.00000648,0.00000282,-0.00002733,0.00002760,0.00002248,0.00046800
 ,0.00014434,-0.00001689,0.00080741,-0.00107419,0.00271690,-0.01045487,
 -0.00065036,-0.00262056,-0.33498009,-0.02399735,-0.00070528,-0.0111918
 2,-0.00172897,0.00258373,0.00067321,0.00006152,-0.00306242,0.00000127,
 0.00000089,-0.00000034,-0.00000154,-0.00000093,0.00000001,-0.00000093,
 0.,0.00000017,-0.00000177,0.00000049,-0.00000024,0.00000164,-0.0000003
 2,0.00000069,-0.00063314,-0.00000561,-0.00018142,0.00078877,0.00035849
 ,0.00018907,0.35436610,-0.00000448,0.00003691,0.00001020,-0.00018362,0
 .00001201,0.00004244,0.00006479,-0.00105462,-0.00029436,0.00014050,0.0
 0005837,-0.00005776,-0.00002311,0.00000253,0.00000413,0.00000729,-0.00
 002215,-0.00000528,-0.00000101,0.00000423,0.00000949,0.00003726,-0.000
 00066,-0.00007010,-0.00003357,-0.00002839,0.00000717,0.00000163,-0.000
 00127,-0.00000609,-0.00000026,0.00000075,0.00000146,0.00000080,-0.0000
 0243,-0.00000336,-0.00000066,0.00000588,0.00000643,-0.00000008,-0.0000
 0446,-0.00000398,0.00000004,0.00000231,0.00000242,0.00001164,-0.000009
 26,-0.00000737,0.00015075,-0.00099925,0.00031499,-0.00082944,0.0068079
 7,0.00237300,-0.00662888,0.00328667,-0.00032273,-0.02403253,-0.0407348
 5,0.00403842,0.00428077,0.00409926,0.00014204,-0.00013425,0.00701413,0
 .00196386,0.00000017,0.00000028,0.00000012,-0.00000020,0.00000039,0.00
 000065,0.00000008,-0.00000121,-0.00000145,0.00000014,0.00000094,0.0000
 0090,0.00000002,-0.00000041,0.00000003,-0.00032669,0.00001695,-0.00005
 198,0.00050293,-0.00384864,-0.00098921,0.02652071,0.02918048,-0.000017
 35,0.00000970,0.00001560,-0.00000018,-0.00001520,-0.00000490,-0.000009
 13,-0.00020813,0.00011269,-0.00002354,-0.00002910,-0.00005970,0.000043
 32,0.00000440,0.00003190,-0.00000204,0.00000018,-0.00000064,-0.0000026
 6,-0.00000094,0.00001068,0.00000845,0.00001245,-0.00003577,-0.00000673
 ,-0.00000382,0.00000962,0.00000110,-0.00000007,-0.00000613,0.00000038,
 0.00000072,0.00000169,-0.00000010,-0.00000076,-0.00000106,-0.00000002,
 0.00000082,0.00000191,0.00000059,-0.00000108,-0.00000022,-0.00000055,0
 .00000226,0.00000102,0.00000137,0.00000037,-0.00000275,0.00000394,-0.0
 0000178,-0.00106449,0.00212003,0.00239936,-0.00394992,0.02765617,0.002
 14922,0.00427857,-0.00073484,0.00403317,-0.05815823,-0.02767272,-0.002
 34345,0.00421060,-0.00245012,0.00207414,-0.00395094,-0.00000036,-0.000
 00021,0.00000016,-0.00000014,0.00000019,0.00000007,-0.00000005,0.,-0.0
 0000048,0.00000021,0.00000025,0.00000017,0.00000032,-0.00000025,-0.000
 00003,0.00134819,0.00007838,0.00003590,-0.00055315,-0.00102553,0.00093
 526,0.00090641,-0.00604735,0.05661700,0.00010035,-0.00015754,-0.000039
 84,-0.00057032,0.00032965,0.00010623,-0.00000483,-0.00030583,0.0011833
 0,-0.00019629,-0.00021454,-0.00013031,-0.00001069,0.00009571,0.0000709
 8,-0.00004379,-0.00000385,-0.00002320,-0.00002150,0.00008075,0.0000698
 8,0.00052100,0.00002256,-0.00016011,-0.00022369,-0.00013081,-0.0000380
 4,0.00001596,0.00001045,0.00000249,-0.00000831,0.00001135,-0.00000303,
 -0.00000213,-0.00000168,0.,-0.00000567,-0.00000009,-0.00000088,-0.0000
 0356,0.00000169,-0.00000210,-0.00001010,-0.00001451,0.00000732,-0.0000
 6700,0.00006906,0.00004321,-0.00508769,-0.00092965,-0.00098722,-0.0006
 6745,0.00019630,-0.00071914,-0.00095948,-0.00004960,-0.00324486,0.0115
 9358,0.00374046,-0.01538609,-0.12301170,-0.03001436,0.11364125,-0.0108
 7125,-0.00681820,0.02760252,0.00000232,0.00000105,-0.00000155,-0.00000
 286,-0.00000130,0.00000054,-0.00000172,0.00000018,0.00000012,-0.000003
 52,0.00000081,-0.00000056,0.00000262,0.00000038,0.00000187,0.00009436,
 0.00007292,0.00012361,0.00038954,0.00016611,-0.00077938,0.00079885,0.0
 0026096,0.00072024,0.12702110,-0.00002012,-0.00009178,-0.00005504,0.00
 018489,0.00005336,0.00018342,-0.00013902,0.00022327,0.00000972,-0.0000
 7040,0.00009477,-0.00003326,-0.00004724,-0.00003743,0.00001306,-0.0000
 1115,0.00002673,-0.00002340,-0.00000668,-0.00000151,-0.00000569,-0.000
 10177,-0.00003755,0.00006600,0.00003713,0.00004674,-0.00000489,-0.0000
 0150,-0.00000290,0.00000301,-0.00000195,0.00000065,-0.00000229,-0.0000
 0077,0.00000085,0.00000282,-0.00000111,-0.00000393,-0.00000414,-0.0000
 0008,0.00000235,0.00000209,-0.00000007,-0.00000149,-0.00000145,-0.0000
 1198,0.00000122,0.00000614,-0.00066764,0.00686803,0.00089100,0.0001379
 7,-0.00108351,-0.00038702,0.00010733,0.00703253,0.00168314,-0.00238732
 ,0.00286177,0.00278985,-0.02988739,-0.05072899,0.05439016,-0.00091955,
 0.00303087,0.00237164,0.00000011,-0.00000002,0.00000035,-0.00000043,-0
 .00000037,-0.00000025,-0.00000001,0.00000079,0.00000098,-0.00000023,-0
 .00000002,-0.00000017,0.00000031,0.,0.00000022,0.00005082,-0.00102712,
 -0.00016381,-0.00012230,0.00004488,0.00015478,0.00040085,-0.00388130,-
 0.00095416,0.03307586,0.04060925,-0.00000523,0.00001901,0.00001789,0.0
 0017924,-0.00005622,-0.00002315,-0.00030234,0.00002444,0.00008221,-0.0
 0001315,0.00010876,-0.00002727,0.00002656,-0.00004850,-0.00000662,0.00
 001278,0.00001278,0.00000766,0.00000527,-0.00002789,-0.00001704,-0.000
 16750,0.00000267,0.00001132,0.00008294,0.00004262,0.00002443,-0.000004
 43,-0.00000190,-0.00000383,0.00000365,-0.00000455,0.00000204,0.0000006
 0,0.00000123,0.00000042,0.00000236,-0.00000089,-0.00000058,0.00000152,
 -0.00000043,0.00000033,0.00000282,0.00000594,-0.00000179,0.00001835,-0
 .00001606,-0.00001475,-0.00084650,0.00088512,0.00212627,-0.00069629,-0
 .00032714,0.00000577,-0.00396845,0.00168834,-0.00247029,0.01489672,0.0
 0546924,-0.01741254,0.11382326,0.05432849,-0.25916167,-0.00251492,-0.0
 0024133,0.00376506,-0.00000108,-0.00000053,0.00000037,0.00000108,0.000
 00044,-0.00000035,0.00000064,0.00000033,0.00000027,0.00000122,-0.00000
 042,0.00000025,-0.00000119,0.00000007,-0.00000045,0.00014258,-0.000196
 15,-0.00006823,0.00074705,0.00026293,-0.00095263,-0.00002739,-0.001039
 82,0.00093309,-0.12182399,-0.05998265,0.27264948,-0.00017815,-0.000340
 95,0.00023803,0.00054499,-0.00023206,-0.00020579,0.00096344,0.00034514
 ,0.00073881,0.00007834,0.00015863,0.00009336,-0.00000473,-0.00009693,-
 0.00003597,0.00004421,0.00004256,0.00004476,0.00002899,-0.00008428,-0.
 00005177,-0.00046334,0.00003971,-0.00003282,0.00017589,0.00009431,0.00
 007185,-0.00001412,-0.00001500,-0.00000808,0.00000678,-0.00000324,0.00
 000969,0.00000191,-0.00000069,-0.00000382,0.00000455,0.00000031,0.0000
 0206,0.00000353,-0.00000082,-0.00000021,0.00000762,0.00001154,-0.00000
 108,0.00003264,-0.00003732,-0.00003458,0.00992762,-0.00229016,0.014319
 10,-0.00101653,-0.00130090,0.00300871,-0.00063311,-0.00008111,0.000593
 16,-0.00523802,-0.00135270,0.00123372,-0.01095192,0.00426671,-0.027939
 02,-0.13016150,0.01644295,-0.12130008,-0.00000177,-0.00000151,0.000000
 43,0.00000198,0.00000135,-0.00000012,0.00000130,0.00000025,-0.00000023
 ,0.00000240,-0.00000075,0.00000051,-0.00000274,0.00000063,-0.00000128,
 0.00050838,-0.00010076,0.00072494,0.00007914,0.00013196,-0.00010746,-0
 .00066105,0.00021833,-0.00133704,0.00123386,0.00040344,0.00042381,0.13
 567943,0.00006952,-0.00027280,0.00011940,-0.00075397,0.00028034,0.0004
 5397,0.00024846,-0.00366216,-0.00103010,0.00037980,0.00043424,0.000005
 19,-0.00008298,-0.00011259,-0.00001602,0.00002318,-0.00007764,-0.00001
 851,0.00000769,-0.00001610,0.00001490,0.00003042,-0.00000596,-0.000276
 86,-0.00001249,-0.00006703,0.00004448,-0.00000166,0.00000252,0.0000028
 5,0.00000352,-0.00000805,-0.00000065,0.00000103,0.00000177,0.00000101,
 0.00000240,0.00000088,0.00000100,0.00000096,-0.00000204,-0.00000053,0.
 00000253,0.00000690,-0.00000452,0.00005533,-0.00003452,-0.00002690,0.0
 0422138,0.00242569,0.00532167,-0.00133534,0.00610717,0.00196705,-0.000
 23599,-0.00106903,-0.00011830,-0.00121823,0.00708589,0.00111296,-0.001
 58511,0.00424538,-0.00247347,0.01574004,-0.04269097,0.03435490,-0.0000
 0105,0.00000033,0.00000018,0.00000116,0.00000006,-0.00000015,0.0000003
 3,-0.00000019,-0.00000012,0.00000173,-0.00000011,0.00000017,-0.0000005
 1,0.00000022,0.00000007,0.00014913,0.00032027,0.00031755,0.00010864,-0
 .00099912,-0.00020658,-0.00010702,0.00005882,-0.00013379,0.00050572,-0
 .00400011,-0.00090795,-0.01621863,0.03204797,-0.00015414,0.00021499,0.
 00024250,0.00044293,-0.00006610,0.00010105,-0.00156440,-0.00103727,0.0
 0038422,0.00029130,-0.00014257,-0.00021799,0.00008309,0.00007987,0.000
 08501,-0.00004484,-0.00006194,-0.00007822,-0.00003297,0.00003356,0.000
 02953,0.00009506,0.00008739,-0.00010598,-0.00003456,0.00001466,0.00003
 113,0.00000559,0.00000826,0.00000656,-0.00000455,0.00000250,-0.0000040
 0,-0.00000041,-0.00000271,-0.00000017,-0.00000073,0.00000176,0.0000016
 1,-0.00000068,-0.00000048,-0.00000038,-0.00000275,-0.00000352,-0.00000
 131,0.00001741,-0.00000220,-0.00000542,-0.01406465,0.00274854,-0.01746
 667,0.00365658,0.00197720,-0.00257171,0.00068539,-0.00016728,0.0002243
 7,0.00046831,0.00110750,0.00189147,0.00238703,0.00029553,0.00403642,-0
 .12087310,0.03439401,-0.26009211,0.00000088,0.00000012,0.00000030,-0.0
 0000083,-0.00000030,0.00000030,-0.00000060,-0.00000036,-0.00000017,-0.
 00000059,0.00000022,-0.00000016,0.00000162,-0.00000063,0.00000087,-0.0
 0077699,0.00017650,-0.00085257,-0.00009095,-0.00018730,-0.00006670,0.0
 0018939,-0.00001690,0.00003933,-0.00023330,-0.00095017,0.00053432,0.12
 955643,-0.03850289,0.27385459\\-0.00000246,0.00000418,0.00000211,-0.00
 002752,-0.00002553,-0.00001520,0.00000546,0.00001306,0.00000192,-0.000
 01324,-0.00000750,-0.00000742,0.00000064,0.00000216,0.00000483,0.00002
 353,0.00001844,0.00002404,0.00000842,-0.00000589,-0.00000825,0.0000157
 6,0.00001724,-0.00000031,-0.00000481,-0.00000542,-0.00000636,-0.000026
 83,-0.00001782,0.00001082,0.00000274,0.00001913,-0.00000410,-0.0000032
 1,0.00000951,-0.00000393,0.00001303,-0.00000119,0.00000289,0.00000343,
 -0.00000460,0.00000574,-0.00000134,-0.00000390,-0.00000067,-0.00000092
 ,-0.00000940,-0.00000256,0.00001381,0.00000039,0.00001660,0.00000143,0
 .00000035,-0.00001789,-0.00000056,-0.00000338,-0.00001003,-0.00001185,
 -0.00000152,-0.00000062,-0.00000363,0.00000036,0.00000554,0.00000508,0
 .00000025,0.00000193,0.00000298,-0.00000166,-0.00000337,-0.00000056,-0
 .00000087,-0.00000046,-0.00000097,0.00000155,0.00000230,-0.00000183,0.
 00000302,0.00000319,0.00000175,0.00000352,0.00000557,0.00000077,-0.000
 00046,-0.00000063,0.00000114,-0.00000254,-0.00000174,0.00000089,-0.000
 00167,-0.00000191,0.00000058,0.00000119,-0.00000193,-0.00000172,-0.000
 00098,-0.00000009\\\@


 NATURE REVEALS EVERY SECRET ONCE.
                    - RALPH WALDO EMERSON
 Job cpu time:       0 days  9 hours 57 minutes  8.3 seconds.
 Elapsed time:       0 days  1 hours 14 minutes 53.5 seconds.
 File lengths (MBytes):  RWF=   2605 Int=      0 D2E=      0 Chk=     53 Scr=      1
 Normal termination of Gaussian 16 at Sat Feb 10 12:33:31 2024.
