 Entering Gaussian System, Link 0=g16
 Input=286.com
 Output=286.log
 Initial command:
 /sysapps/ubuntu-applications/gaussian/Gaussian/AVX2/g16/l1.exe "/scratch/selhajj1/4233000/Gau-3742256.inp" -scrdir="/scratch/selhajj1/4233000/"
 Entering Link 1 = /sysapps/ubuntu-applications/gaussian/Gaussian/AVX2/g16/l1.exe PID=   3742272.
  
 Copyright (c) 1988,1990,1992,1993,1995,1998,2003,2009,2016,
            Gaussian, Inc.  All Rights Reserved.
  
 This is part of the Gaussian(R) 16 program.  It is based on
 the Gaussian(R) 09 system (copyright 2009, Gaussian, Inc.),
 the Gaussian(R) 03 system (copyright 2003, Gaussian, Inc.),
 the Gaussian(R) 98 system (copyright 1998, Gaussian, Inc.),
 the Gaussian(R) 94 system (copyright 1995, Gaussian, Inc.),
 the Gaussian 92(TM) system (copyright 1992, Gaussian, Inc.),
 the Gaussian 90(TM) system (copyright 1990, Gaussian, Inc.),
 the Gaussian 88(TM) system (copyright 1988, Gaussian, Inc.),
 the Gaussian 86(TM) system (copyright 1986, Carnegie Mellon
 University), and the Gaussian 82(TM) system (copyright 1983,
 Carnegie Mellon University). Gaussian is a federally registered
 trademark of Gaussian, Inc.
  
 This software contains proprietary and confidential information,
 including trade secrets, belonging to Gaussian, Inc.
  
 This software is provided under written license and may be
 used, copied, transmitted, or stored only in accord with that
 written license.
  
 The following legend is applicable only to US Government
 contracts under FAR:
  
                    RESTRICTED RIGHTS LEGEND
  
 Use, reproduction and disclosure by the US Government is
 subject to restrictions as set forth in subparagraphs (a)
 and (c) of the Commercial Computer Software - Restricted
 Rights clause in FAR 52.227-19.
  
 Gaussian, Inc.
 340 Quinnipiac St., Bldg. 40, Wallingford CT 06492
  
  
 ---------------------------------------------------------------
 Warning -- This program may not be used in any manner that
 competes with the business of Gaussian, Inc. or will provide
 assistance to any competitor of Gaussian, Inc.  The licensee
 of this program is prohibited from giving any competitor of
 Gaussian, Inc. access to this program.  By using this program,
 the user acknowledges that Gaussian, Inc. is engaged in the
 business of creating and licensing software in the field of
 computational chemistry and represents and warrants to the
 licensee that it is not a competitor of Gaussian, Inc. and that
 it will not use this program in any manner prohibited above.
 ---------------------------------------------------------------
  

 Cite this work as:
 Gaussian 16, Revision A.03,
 M. J. Frisch, G. W. Trucks, H. B. Schlegel, G. E. Scuseria, 
 M. A. Robb, J. R. Cheeseman, G. Scalmani, V. Barone, 
 G. A. Petersson, H. Nakatsuji, X. Li, M. Caricato, A. V. Marenich, 
 J. Bloino, B. G. Janesko, R. Gomperts, B. Mennucci, H. P. Hratchian, 
 J. V. Ortiz, A. F. Izmaylov, J. L. Sonnenberg, D. Williams-Young, 
 F. Ding, F. Lipparini, F. Egidi, J. Goings, B. Peng, A. Petrone, 
 T. Henderson, D. Ranasinghe, V. G. Zakrzewski, J. Gao, N. Rega, 
 G. Zheng, W. Liang, M. Hada, M. Ehara, K. Toyota, R. Fukuda, 
 J. Hasegawa, M. Ishida, T. Nakajima, Y. Honda, O. Kitao, H. Nakai, 
 T. Vreven, K. Throssell, J. A. Montgomery, Jr., J. E. Peralta, 
 F. Ogliaro, M. J. Bearpark, J. J. Heyd, E. N. Brothers, K. N. Kudin, 
 V. N. Staroverov, T. A. Keith, R. Kobayashi, J. Normand, 
 K. Raghavachari, A. P. Rendell, J. C. Burant, S. S. Iyengar, 
 J. Tomasi, M. Cossi, J. M. Millam, M. Klene, C. Adamo, R. Cammi, 
 J. W. Ochterski, R. L. Martin, K. Morokuma, O. Farkas, 
 J. B. Foresman, and D. J. Fox, Gaussian, Inc., Wallingford CT, 2016.
 
 ******************************************
 Gaussian 16:  ES64L-G16RevA.03 25-Dec-2016
                26-Dec-2023 
 ******************************************
 %chk=286.chk
 %nproc=8
 Will use up to    8 processors via shared memory.
 %mem=30GB
 --------------------------------------
 #P UB3LYP/6-311++G(d,p) nosym opt freq
 --------------------------------------
 1/18=20,19=15,26=3,38=1/1,3;
 2/9=110,12=2,15=1,17=6,18=5,40=1/2;
 3/5=4,6=6,7=1111,11=2,25=1,30=1,71=1,74=-5,116=2/1,2,3;
 4//1;
 5/5=2,38=5/2;
 6/7=2,8=2,9=2,10=2,28=1/1;
 7/30=1/1,2,3,16;
 1/18=20,19=15,26=3/3(2);
 2/9=110,15=1/2;
 99//99;
 2/9=110,15=1/2;
 3/5=4,6=6,7=1111,11=2,25=1,30=1,71=1,74=-5,116=2/1,2,3;
 4/5=5,16=3,69=1/1;
 5/5=2,38=5/2;
 7/30=1/1,2,3,16;
 1/18=20,19=15,26=3/3(-5);
 2/9=110,15=1/2;
 6/7=2,8=2,9=2,10=2,19=2,28=1/1;
 99/9=1/99;
 Leave Link    1 at Tue Dec 26 20:02:23 2023, MaxMem=  4026531840 cpu:               0.4 elap:               0.1
 (Enter /sysapps/ubuntu-applications/gaussian/Gaussian/AVX2/g16/l101.exe)
 --------
 Oxidized
 --------
 Symbolic Z-matrix:
 Charge =  0 Multiplicity = 1
 C                    -0.23764   3.99759   0.08603 
 C                    -1.32116   3.49894   0.81277 
 C                    -1.40117   2.13632   1.10239 
 C                     0.77852   3.13132  -0.35808 
 C                     0.69854   1.75904  -0.06678 
 C                    -0.39796   1.26774   0.66624 
 C                     1.9348    3.64064  -1.12924 
 C                     3.00665   2.71204  -1.59362 
 C                     2.93862   1.37636  -1.31565 
 C                     1.77239   0.85127  -0.53718 
 O                     2.01453   4.8328   -1.3887 
 O                     1.70344  -0.34374  -0.28417 
 H                    -0.19457   5.05818  -0.128 
 H                    -2.09976   4.17002   1.15186 
 H                    -2.24176   1.75218   1.66578 
 H                    -0.47979   0.21409   0.90203 
 O                     4.04237   3.22721  -2.29396 
 C                     3.97601   0.32694  -1.73684 
 C                     5.2049    0.78935  -2.53526 
 C                     6.12636  -0.39435  -2.85833 
 C                     7.35581   0.0683   -3.64941 
 C                     8.28137  -1.11182  -3.96809 
 H                     4.11989   4.16744  -2.50706 
 H                     3.44591  -0.4369   -2.34727 
 H                     4.34438  -0.16355  -0.80902 
 H                     5.77937   1.52713  -1.93339 
 H                     4.87362   1.24905  -3.49207 
 H                     5.56553  -1.14564  -3.45725 
 H                     6.45982  -0.86989  -1.90944 
 H                     7.91497   0.82043  -3.04999 
 H                     7.02443   0.54252  -4.59966 
 H                     7.72447  -1.86401  -4.56953 
 H                     8.61102  -1.58635  -3.01739 
 C                     9.51299  -0.64554  -4.75335 
 H                     10.06823   0.10736  -4.15118 
 H                     9.18443  -0.17152  -5.70471 
 C                     10.44162  -1.8236   -5.06911 
 C                     11.66998  -1.36138  -5.84762 
 H                     9.89499  -2.57862  -5.67532 
 H                     10.77593  -2.30028  -4.12178 
 H                     11.36503  -0.89924  -6.81069 
 H                     12.32428  -2.23246  -6.06212 
 H                     12.24682  -0.62074  -5.25356 
 
 ITRead=  0  0  0  0  0  0  0  0  0  0  0  0  0  0  0  0  0  0  0  0
 ITRead=  0  0  0  0  0  0  0  0  0  0  0  0  0  0  0  0  0  0  0  0
 ITRead=  0  0  0
 MicOpt= -1 -1 -1 -1 -1 -1 -1 -1 -1 -1 -1 -1 -1 -1 -1 -1 -1 -1 -1 -1
 MicOpt= -1 -1 -1 -1 -1 -1 -1 -1 -1 -1 -1 -1 -1 -1 -1 -1 -1 -1 -1 -1
 MicOpt= -1 -1 -1
 NAtoms=     43 NQM=       43 NQMF=       0 NMMI=      0 NMMIF=      0
                NMic=       0 NMicF=      0.
                    Isotopes and Nuclear Properties:
 (Nuclear quadrupole moments (NQMom) in fm**2, nuclear magnetic moments (NMagM)
  in nuclear magnetons)

  Atom         1           2           3           4           5           6           7           8           9          10
 IAtWgt=          12          12          12          12          12          12          12          12          12          12
 AtmWgt=  12.0000000  12.0000000  12.0000000  12.0000000  12.0000000  12.0000000  12.0000000  12.0000000  12.0000000  12.0000000
 NucSpn=           0           0           0           0           0           0           0           0           0           0
 AtZEff=  -0.0000000  -0.0000000  -0.0000000  -0.0000000  -0.0000000  -0.0000000  -0.0000000  -0.0000000  -0.0000000  -0.0000000
 NQMom=    0.0000000   0.0000000   0.0000000   0.0000000   0.0000000   0.0000000   0.0000000   0.0000000   0.0000000   0.0000000
 NMagM=    0.0000000   0.0000000   0.0000000   0.0000000   0.0000000   0.0000000   0.0000000   0.0000000   0.0000000   0.0000000
 AtZNuc=   6.0000000   6.0000000   6.0000000   6.0000000   6.0000000   6.0000000   6.0000000   6.0000000   6.0000000   6.0000000

  Atom        11          12          13          14          15          16          17          18          19          20
 IAtWgt=          16          16           1           1           1           1          16          12          12          12
 AtmWgt=  15.9949146  15.9949146   1.0078250   1.0078250   1.0078250   1.0078250  15.9949146  12.0000000  12.0000000  12.0000000
 NucSpn=           0           0           1           1           1           1           0           0           0           0
 AtZEff=  -0.0000000  -0.0000000  -0.0000000  -0.0000000  -0.0000000  -0.0000000  -0.0000000  -0.0000000  -0.0000000  -0.0000000
 NQMom=    0.0000000   0.0000000   0.0000000   0.0000000   0.0000000   0.0000000   0.0000000   0.0000000   0.0000000   0.0000000
 NMagM=    0.0000000   0.0000000   2.7928460   2.7928460   2.7928460   2.7928460   0.0000000   0.0000000   0.0000000   0.0000000
 AtZNuc=   8.0000000   8.0000000   1.0000000   1.0000000   1.0000000   1.0000000   8.0000000   6.0000000   6.0000000   6.0000000

  Atom        21          22          23          24          25          26          27          28          29          30
 IAtWgt=          12          12           1           1           1           1           1           1           1           1
 AtmWgt=  12.0000000  12.0000000   1.0078250   1.0078250   1.0078250   1.0078250   1.0078250   1.0078250   1.0078250   1.0078250
 NucSpn=           0           0           1           1           1           1           1           1           1           1
 AtZEff=  -0.0000000  -0.0000000  -0.0000000  -0.0000000  -0.0000000  -0.0000000  -0.0000000  -0.0000000  -0.0000000  -0.0000000
 NQMom=    0.0000000   0.0000000   0.0000000   0.0000000   0.0000000   0.0000000   0.0000000   0.0000000   0.0000000   0.0000000
 NMagM=    0.0000000   0.0000000   2.7928460   2.7928460   2.7928460   2.7928460   2.7928460   2.7928460   2.7928460   2.7928460
 AtZNuc=   6.0000000   6.0000000   1.0000000   1.0000000   1.0000000   1.0000000   1.0000000   1.0000000   1.0000000   1.0000000

  Atom        31          32          33          34          35          36          37          38          39          40
 IAtWgt=           1           1           1          12           1           1          12          12           1           1
 AtmWgt=   1.0078250   1.0078250   1.0078250  12.0000000   1.0078250   1.0078250  12.0000000  12.0000000   1.0078250   1.0078250
 NucSpn=           1           1           1           0           1           1           0           0           1           1
 AtZEff=  -0.0000000  -0.0000000  -0.0000000  -0.0000000  -0.0000000  -0.0000000  -0.0000000  -0.0000000  -0.0000000  -0.0000000
 NQMom=    0.0000000   0.0000000   0.0000000   0.0000000   0.0000000   0.0000000   0.0000000   0.0000000   0.0000000   0.0000000
 NMagM=    2.7928460   2.7928460   2.7928460   0.0000000   2.7928460   2.7928460   0.0000000   0.0000000   2.7928460   2.7928460
 AtZNuc=   1.0000000   1.0000000   1.0000000   6.0000000   1.0000000   1.0000000   6.0000000   6.0000000   1.0000000   1.0000000

  Atom        41          42          43
 IAtWgt=           1           1           1
 AtmWgt=   1.0078250   1.0078250   1.0078250
 NucSpn=           1           1           1
 AtZEff=  -0.0000000  -0.0000000  -0.0000000
 NQMom=    0.0000000   0.0000000   0.0000000
 NMagM=    2.7928460   2.7928460   2.7928460
 AtZNuc=   1.0000000   1.0000000   1.0000000
 Leave Link  101 at Tue Dec 26 20:02:24 2023, MaxMem=  4026531840 cpu:               4.2 elap:               0.8
 (Enter /sysapps/ubuntu-applications/gaussian/Gaussian/AVX2/g16/l103.exe)

 GradGradGradGradGradGradGradGradGradGradGradGradGradGradGradGradGradGrad
 Berny optimization.
 Initialization pass.
                           ----------------------------
                           !    Initial Parameters    !
                           ! (Angstroms and Degrees)  !
 --------------------------                            --------------------------
 ! Name  Definition              Value          Derivative Info.                !
 --------------------------------------------------------------------------------
 ! R1    R(1,2)                  1.3967         estimate D2E/DX2                !
 ! R2    R(1,4)                  1.4072         estimate D2E/DX2                !
 ! R3    R(1,13)                 1.0828         estimate D2E/DX2                !
 ! R4    R(2,3)                  1.3954         estimate D2E/DX2                !
 ! R5    R(2,14)                 1.0824         estimate D2E/DX2                !
 ! R6    R(3,6)                  1.3968         estimate D2E/DX2                !
 ! R7    R(3,15)                 1.0824         estimate D2E/DX2                !
 ! R8    R(4,5)                  1.4051         estimate D2E/DX2                !
 ! R9    R(4,7)                  1.4802         estimate D2E/DX2                !
 ! R10   R(5,6)                  1.4075         estimate D2E/DX2                !
 ! R11   R(5,10)                 1.4827         estimate D2E/DX2                !
 ! R12   R(6,16)                 1.0828         estimate D2E/DX2                !
 ! R13   R(7,8)                  1.4922         estimate D2E/DX2                !
 ! R14   R(7,11)                 1.2227         estimate D2E/DX2                !
 ! R15   R(8,9)                  1.366          estimate D2E/DX2                !
 ! R16   R(8,17)                 1.3523         estimate D2E/DX2                !
 ! R17   R(9,10)                 1.4973         estimate D2E/DX2                !
 ! R18   R(9,18)                 1.5346         estimate D2E/DX2                !
 ! R19   R(10,12)                1.2234         estimate D2E/DX2                !
 ! R20   R(17,23)                0.9672         estimate D2E/DX2                !
 ! R21   R(18,19)                1.5367         estimate D2E/DX2                !
 ! R22   R(18,24)                1.1122         estimate D2E/DX2                !
 ! R23   R(18,25)                1.1123         estimate D2E/DX2                !
 ! R24   R(19,20)                1.5345         estimate D2E/DX2                !
 ! R25   R(19,26)                1.112          estimate D2E/DX2                !
 ! R26   R(19,27)                1.112          estimate D2E/DX2                !
 ! R27   R(20,21)                1.5334         estimate D2E/DX2                !
 ! R28   R(20,28)                1.1125         estimate D2E/DX2                !
 ! R29   R(20,29)                1.1125         estimate D2E/DX2                !
 ! R30   R(21,22)                1.5333         estimate D2E/DX2                !
 ! R31   R(21,30)                1.1125         estimate D2E/DX2                !
 ! R32   R(21,31)                1.1125         estimate D2E/DX2                !
 ! R33   R(22,32)                1.1125         estimate D2E/DX2                !
 ! R34   R(22,33)                1.1125         estimate D2E/DX2                !
 ! R35   R(22,34)                1.5333         estimate D2E/DX2                !
 ! R36   R(34,35)                1.1125         estimate D2E/DX2                !
 ! R37   R(34,36)                1.1125         estimate D2E/DX2                !
 ! R38   R(34,37)                1.5329         estimate D2E/DX2                !
 ! R39   R(37,38)                1.526          estimate D2E/DX2                !
 ! R40   R(37,39)                1.1119         estimate D2E/DX2                !
 ! R41   R(37,40)                1.1119         estimate D2E/DX2                !
 ! R42   R(38,41)                1.1109         estimate D2E/DX2                !
 ! R43   R(38,42)                1.1104         estimate D2E/DX2                !
 ! R44   R(38,43)                1.1109         estimate D2E/DX2                !
 ! A1    A(2,1,4)              120.3061         estimate D2E/DX2                !
 ! A2    A(2,1,13)             118.9068         estimate D2E/DX2                !
 ! A3    A(4,1,13)             120.7871         estimate D2E/DX2                !
 ! A4    A(1,2,3)              120.0742         estimate D2E/DX2                !
 ! A5    A(1,2,14)             119.9797         estimate D2E/DX2                !
 ! A6    A(3,2,14)             119.9462         estimate D2E/DX2                !
 ! A7    A(2,3,6)              120.0827         estimate D2E/DX2                !
 ! A8    A(2,3,15)             119.9432         estimate D2E/DX2                !
 ! A9    A(6,3,15)             119.9741         estimate D2E/DX2                !
 ! A10   A(1,4,5)              119.6481         estimate D2E/DX2                !
 ! A11   A(1,4,7)              121.1097         estimate D2E/DX2                !
 ! A12   A(5,4,7)              119.2422         estimate D2E/DX2                !
 ! A13   A(4,5,6)              119.552          estimate D2E/DX2                !
 ! A14   A(4,5,10)             119.4012         estimate D2E/DX2                !
 ! A15   A(6,5,10)             121.0469         estimate D2E/DX2                !
 ! A16   A(3,6,5)              120.337          estimate D2E/DX2                !
 ! A17   A(3,6,16)             118.8694         estimate D2E/DX2                !
 ! A18   A(5,6,16)             120.7936         estimate D2E/DX2                !
 ! A19   A(4,7,8)              120.6033         estimate D2E/DX2                !
 ! A20   A(4,7,11)             119.801          estimate D2E/DX2                !
 ! A21   A(8,7,11)             119.5957         estimate D2E/DX2                !
 ! A22   A(7,8,9)              120.6222         estimate D2E/DX2                !
 ! A23   A(7,8,17)             118.31           estimate D2E/DX2                !
 ! A24   A(9,8,17)             121.0678         estimate D2E/DX2                !
 ! A25   A(8,9,10)             119.1769         estimate D2E/DX2                !
 ! A26   A(8,9,18)             125.3917         estimate D2E/DX2                !
 ! A27   A(10,9,18)            115.4314         estimate D2E/DX2                !
 ! A28   A(5,10,9)             120.9542         estimate D2E/DX2                !
 ! A29   A(5,10,12)            119.4443         estimate D2E/DX2                !
 ! A30   A(9,10,12)            119.6015         estimate D2E/DX2                !
 ! A31   A(8,17,23)            123.0828         estimate D2E/DX2                !
 ! A32   A(9,18,19)            118.5178         estimate D2E/DX2                !
 ! A33   A(9,18,24)            107.3428         estimate D2E/DX2                !
 ! A34   A(9,18,25)            107.2479         estimate D2E/DX2                !
 ! A35   A(19,18,24)           107.616          estimate D2E/DX2                !
 ! A36   A(19,18,25)           107.533          estimate D2E/DX2                !
 ! A37   A(24,18,25)           108.229          estimate D2E/DX2                !
 ! A38   A(18,19,20)           110.9459         estimate D2E/DX2                !
 ! A39   A(18,19,26)           109.3631         estimate D2E/DX2                !
 ! A40   A(18,19,27)           109.4638         estimate D2E/DX2                !
 ! A41   A(20,19,26)           108.3927         estimate D2E/DX2                !
 ! A42   A(20,19,27)           108.4597         estimate D2E/DX2                !
 ! A43   A(26,19,27)           110.2021         estimate D2E/DX2                !
 ! A44   A(19,20,21)           110.937          estimate D2E/DX2                !
 ! A45   A(19,20,28)           109.3636         estimate D2E/DX2                !
 ! A46   A(19,20,29)           109.2776         estimate D2E/DX2                !
 ! A47   A(21,20,28)           109.2809         estimate D2E/DX2                !
 ! A48   A(21,20,29)           109.1873         estimate D2E/DX2                !
 ! A49   A(28,20,29)           108.7603         estimate D2E/DX2                !
 ! A50   A(20,21,22)           111.0384         estimate D2E/DX2                !
 ! A51   A(20,21,30)           109.2077         estimate D2E/DX2                !
 ! A52   A(20,21,31)           109.2952         estimate D2E/DX2                !
 ! A53   A(22,21,30)           109.2044         estimate D2E/DX2                !
 ! A54   A(22,21,31)           109.2908         estimate D2E/DX2                !
 ! A55   A(30,21,31)           108.7687         estimate D2E/DX2                !
 ! A56   A(21,22,32)           109.3042         estimate D2E/DX2                !
 ! A57   A(21,22,33)           109.2417         estimate D2E/DX2                !
 ! A58   A(21,22,34)           110.9328         estimate D2E/DX2                !
 ! A59   A(32,22,33)           108.7793         estimate D2E/DX2                !
 ! A60   A(32,22,34)           109.3196         estimate D2E/DX2                !
 ! A61   A(33,22,34)           109.2296         estimate D2E/DX2                !
 ! A62   A(22,34,35)           109.2374         estimate D2E/DX2                !
 ! A63   A(22,34,36)           109.2869         estimate D2E/DX2                !
 ! A64   A(22,34,37)           111.0014         estimate D2E/DX2                !
 ! A65   A(35,34,36)           108.7774         estimate D2E/DX2                !
 ! A66   A(35,34,37)           109.2221         estimate D2E/DX2                !
 ! A67   A(36,34,37)           109.2808         estimate D2E/DX2                !
 ! A68   A(34,37,38)           111.0969         estimate D2E/DX2                !
 ! A69   A(34,37,39)           109.653          estimate D2E/DX2                !
 ! A70   A(34,37,40)           109.6389         estimate D2E/DX2                !
 ! A71   A(38,37,39)           108.8606         estimate D2E/DX2                !
 ! A72   A(38,37,40)           108.813          estimate D2E/DX2                !
 ! A73   A(39,37,40)           108.7353         estimate D2E/DX2                !
 ! A74   A(37,38,41)           110.3238         estimate D2E/DX2                !
 ! A75   A(37,38,42)           109.589          estimate D2E/DX2                !
 ! A76   A(37,38,43)           110.3099         estimate D2E/DX2                !
 ! A77   A(41,38,42)           108.702          estimate D2E/DX2                !
 ! A78   A(41,38,43)           109.1943         estimate D2E/DX2                !
 ! A79   A(42,38,43)           108.6835         estimate D2E/DX2                !
 ! D1    D(4,1,2,3)             -0.002          estimate D2E/DX2                !
 ! D2    D(4,1,2,14)           179.9943         estimate D2E/DX2                !
 ! D3    D(13,1,2,3)          -179.9956         estimate D2E/DX2                !
 ! D4    D(13,1,2,14)            0.0007         estimate D2E/DX2                !
 ! D5    D(2,1,4,5)              0.0028         estimate D2E/DX2                !
 ! D6    D(2,1,4,7)           -179.9877         estimate D2E/DX2                !
 ! D7    D(13,1,4,5)           179.9963         estimate D2E/DX2                !
 ! D8    D(13,1,4,7)             0.0058         estimate D2E/DX2                !
 ! D9    D(1,2,3,6)             -0.0011         estimate D2E/DX2                !
 ! D10   D(1,2,3,15)           179.9963         estimate D2E/DX2                !
 ! D11   D(14,2,3,6)          -179.9974         estimate D2E/DX2                !
 ! D12   D(14,2,3,15)            0.0            estimate D2E/DX2                !
 ! D13   D(2,3,6,5)              0.0033         estimate D2E/DX2                !
 ! D14   D(2,3,6,16)           179.9956         estimate D2E/DX2                !
 ! D15   D(15,3,6,5)          -179.9941         estimate D2E/DX2                !
 ! D16   D(15,3,6,16)           -0.0018         estimate D2E/DX2                !
 ! D17   D(1,4,5,6)             -0.0006         estimate D2E/DX2                !
 ! D18   D(1,4,5,10)          -179.989          estimate D2E/DX2                !
 ! D19   D(7,4,5,6)            179.99           estimate D2E/DX2                !
 ! D20   D(7,4,5,10)             0.0016         estimate D2E/DX2                !
 ! D21   D(1,4,7,8)            179.9457         estimate D2E/DX2                !
 ! D22   D(1,4,7,11)            -0.0262         estimate D2E/DX2                !
 ! D23   D(5,4,7,8)             -0.0448         estimate D2E/DX2                !
 ! D24   D(5,4,7,11)           179.9833         estimate D2E/DX2                !
 ! D25   D(4,5,6,3)             -0.0024         estimate D2E/DX2                !
 ! D26   D(4,5,6,16)          -179.9945         estimate D2E/DX2                !
 ! D27   D(10,5,6,3)           179.9858         estimate D2E/DX2                !
 ! D28   D(10,5,6,16)           -0.0063         estimate D2E/DX2                !
 ! D29   D(4,5,10,9)             0.0498         estimate D2E/DX2                !
 ! D30   D(4,5,10,12)         -179.9886         estimate D2E/DX2                !
 ! D31   D(6,5,10,9)          -179.9385         estimate D2E/DX2                !
 ! D32   D(6,5,10,12)            0.0232         estimate D2E/DX2                !
 ! D33   D(4,7,8,9)              0.0366         estimate D2E/DX2                !
 ! D34   D(4,7,8,17)          -179.9608         estimate D2E/DX2                !
 ! D35   D(11,7,8,9)          -179.9914         estimate D2E/DX2                !
 ! D36   D(11,7,8,17)            0.0112         estimate D2E/DX2                !
 ! D37   D(7,8,9,10)             0.0146         estimate D2E/DX2                !
 ! D38   D(7,8,9,18)          -179.9449         estimate D2E/DX2                !
 ! D39   D(17,8,9,10)         -179.9881         estimate D2E/DX2                !
 ! D40   D(17,8,9,18)            0.0525         estimate D2E/DX2                !
 ! D41   D(7,8,17,23)           -0.0037         estimate D2E/DX2                !
 ! D42   D(9,8,17,23)          179.9989         estimate D2E/DX2                !
 ! D43   D(8,9,10,5)            -0.0583         estimate D2E/DX2                !
 ! D44   D(8,9,10,12)          179.9801         estimate D2E/DX2                !
 ! D45   D(18,9,10,5)          179.9051         estimate D2E/DX2                !
 ! D46   D(18,9,10,12)          -0.0565         estimate D2E/DX2                !
 ! D47   D(8,9,18,19)            0.164          estimate D2E/DX2                !
 ! D48   D(8,9,18,24)         -121.8761         estimate D2E/DX2                !
 ! D49   D(8,9,18,25)          122.0137         estimate D2E/DX2                !
 ! D50   D(10,9,18,19)        -179.7969         estimate D2E/DX2                !
 ! D51   D(10,9,18,24)          58.1631         estimate D2E/DX2                !
 ! D52   D(10,9,18,25)         -57.9471         estimate D2E/DX2                !
 ! D53   D(9,18,19,20)         179.7651         estimate D2E/DX2                !
 ! D54   D(9,18,19,26)          60.2514         estimate D2E/DX2                !
 ! D55   D(9,18,19,27)         -60.5738         estimate D2E/DX2                !
 ! D56   D(24,18,19,20)        -58.3327         estimate D2E/DX2                !
 ! D57   D(24,18,19,26)       -177.8463         estimate D2E/DX2                !
 ! D58   D(24,18,19,27)         61.3284         estimate D2E/DX2                !
 ! D59   D(25,18,19,20)         58.0595         estimate D2E/DX2                !
 ! D60   D(25,18,19,26)        -61.4541         estimate D2E/DX2                !
 ! D61   D(25,18,19,27)        177.7206         estimate D2E/DX2                !
 ! D62   D(18,19,20,21)       -179.7366         estimate D2E/DX2                !
 ! D63   D(18,19,20,28)         59.6527         estimate D2E/DX2                !
 ! D64   D(18,19,20,29)        -59.2982         estimate D2E/DX2                !
 ! D65   D(26,19,20,21)        -59.6437         estimate D2E/DX2                !
 ! D66   D(26,19,20,28)        179.7456         estimate D2E/DX2                !
 ! D67   D(26,19,20,29)         60.7947         estimate D2E/DX2                !
 ! D68   D(27,19,20,21)         60.0038         estimate D2E/DX2                !
 ! D69   D(27,19,20,28)        -60.6069         estimate D2E/DX2                !
 ! D70   D(27,19,20,29)       -179.5578         estimate D2E/DX2                !
 ! D71   D(19,20,21,22)        179.7468         estimate D2E/DX2                !
 ! D72   D(19,20,21,30)         59.2687         estimate D2E/DX2                !
 ! D73   D(19,20,21,31)        -59.6104         estimate D2E/DX2                !
 ! D74   D(28,20,21,22)        -59.5936         estimate D2E/DX2                !
 ! D75   D(28,20,21,30)        179.9284         estimate D2E/DX2                !
 ! D76   D(28,20,21,31)         61.0492         estimate D2E/DX2                !
 ! D77   D(29,20,21,22)         59.2548         estimate D2E/DX2                !
 ! D78   D(29,20,21,30)        -61.2233         estimate D2E/DX2                !
 ! D79   D(29,20,21,31)        179.8976         estimate D2E/DX2                !
 ! D80   D(20,21,22,32)         59.6471         estimate D2E/DX2                !
 ! D81   D(20,21,22,33)        -59.2704         estimate D2E/DX2                !
 ! D82   D(20,21,22,34)       -179.7353         estimate D2E/DX2                !
 ! D83   D(30,21,22,32)       -179.8729         estimate D2E/DX2                !
 ! D84   D(30,21,22,33)         61.2096         estimate D2E/DX2                !
 ! D85   D(30,21,22,34)        -59.2553         estimate D2E/DX2                !
 ! D86   D(31,21,22,32)        -60.9983         estimate D2E/DX2                !
 ! D87   D(31,21,22,33)       -179.9158         estimate D2E/DX2                !
 ! D88   D(31,21,22,34)         59.6193         estimate D2E/DX2                !
 ! D89   D(21,22,34,35)         59.3307         estimate D2E/DX2                !
 ! D90   D(21,22,34,36)        -59.5717         estimate D2E/DX2                !
 ! D91   D(21,22,34,37)        179.8269         estimate D2E/DX2                !
 ! D92   D(32,22,34,35)        179.9392         estimate D2E/DX2                !
 ! D93   D(32,22,34,36)         61.0368         estimate D2E/DX2                !
 ! D94   D(32,22,34,37)        -59.5646         estimate D2E/DX2                !
 ! D95   D(33,22,34,35)        -61.1414         estimate D2E/DX2                !
 ! D96   D(33,22,34,36)        179.9562         estimate D2E/DX2                !
 ! D97   D(33,22,34,37)         59.3548         estimate D2E/DX2                !
 ! D98   D(22,34,37,38)       -179.8562         estimate D2E/DX2                !
 ! D99   D(22,34,37,39)         59.7656         estimate D2E/DX2                !
 ! D100  D(22,34,37,40)        -59.5467         estimate D2E/DX2                !
 ! D101  D(35,34,37,38)        -59.3509         estimate D2E/DX2                !
 ! D102  D(35,34,37,39)       -179.7292         estimate D2E/DX2                !
 ! D103  D(35,34,37,40)         60.9585         estimate D2E/DX2                !
 ! D104  D(36,34,37,38)         59.5388         estimate D2E/DX2                !
 ! D105  D(36,34,37,39)        -60.8395         estimate D2E/DX2                !
 ! D106  D(36,34,37,40)        179.8483         estimate D2E/DX2                !
 ! D107  D(34,37,38,41)        -60.3777         estimate D2E/DX2                !
 ! D108  D(34,37,38,42)        179.9693         estimate D2E/DX2                !
 ! D109  D(34,37,38,43)         60.3476         estimate D2E/DX2                !
 ! D110  D(39,37,38,41)         60.4684         estimate D2E/DX2                !
 ! D111  D(39,37,38,42)        -59.1846         estimate D2E/DX2                !
 ! D112  D(39,37,38,43)       -178.8063         estimate D2E/DX2                !
 ! D113  D(40,37,38,41)        178.8249         estimate D2E/DX2                !
 ! D114  D(40,37,38,42)         59.1719         estimate D2E/DX2                !
 ! D115  D(40,37,38,43)        -60.4498         estimate D2E/DX2                !
 --------------------------------------------------------------------------------
 Trust Radius=3.00D-01 FncErr=1.00D-07 GrdErr=1.00D-06 EigMax=2.50D+02 EigMin=1.00D-04
 Number of steps in this run=    248 maximum allowed number of steps=    258.
 GradGradGradGradGradGradGradGradGradGradGradGradGradGradGradGradGradGrad

 Leave Link  103 at Tue Dec 26 20:02:24 2023, MaxMem=  4026531840 cpu:               0.2 elap:               0.1
 (Enter /sysapps/ubuntu-applications/gaussian/Gaussian/AVX2/g16/l202.exe)
                          Input orientation:                          
 ---------------------------------------------------------------------
 Center     Atomic      Atomic             Coordinates (Angstroms)
 Number     Number       Type             X           Y           Z
 ---------------------------------------------------------------------
      1          6           0       -0.237640    3.997590    0.086030
      2          6           0       -1.321160    3.498940    0.812770
      3          6           0       -1.401170    2.136320    1.102390
      4          6           0        0.778520    3.131320   -0.358080
      5          6           0        0.698540    1.759040   -0.066780
      6          6           0       -0.397960    1.267740    0.666240
      7          6           0        1.934800    3.640640   -1.129240
      8          6           0        3.006650    2.712040   -1.593620
      9          6           0        2.938620    1.376360   -1.315650
     10          6           0        1.772390    0.851270   -0.537180
     11          8           0        2.014530    4.832800   -1.388700
     12          8           0        1.703440   -0.343740   -0.284170
     13          1           0       -0.194570    5.058180   -0.128000
     14          1           0       -2.099760    4.170020    1.151860
     15          1           0       -2.241760    1.752180    1.665780
     16          1           0       -0.479790    0.214090    0.902030
     17          8           0        4.042370    3.227210   -2.293960
     18          6           0        3.976010    0.326940   -1.736840
     19          6           0        5.204900    0.789350   -2.535260
     20          6           0        6.126360   -0.394350   -2.858330
     21          6           0        7.355810    0.068300   -3.649410
     22          6           0        8.281370   -1.111820   -3.968090
     23          1           0        4.119890    4.167440   -2.507060
     24          1           0        3.445910   -0.436900   -2.347270
     25          1           0        4.344380   -0.163550   -0.809020
     26          1           0        5.779370    1.527130   -1.933390
     27          1           0        4.873620    1.249050   -3.492070
     28          1           0        5.565530   -1.145640   -3.457250
     29          1           0        6.459820   -0.869890   -1.909440
     30          1           0        7.914970    0.820430   -3.049990
     31          1           0        7.024430    0.542520   -4.599660
     32          1           0        7.724470   -1.864010   -4.569530
     33          1           0        8.611020   -1.586350   -3.017390
     34          6           0        9.512990   -0.645540   -4.753350
     35          1           0       10.068230    0.107360   -4.151180
     36          1           0        9.184430   -0.171520   -5.704710
     37          6           0       10.441620   -1.823600   -5.069110
     38          6           0       11.669980   -1.361380   -5.847620
     39          1           0        9.894990   -2.578620   -5.675320
     40          1           0       10.775930   -2.300280   -4.121780
     41          1           0       11.365030   -0.899240   -6.810690
     42          1           0       12.324280   -2.232460   -6.062120
     43          1           0       12.246820   -0.620740   -5.253560
 ---------------------------------------------------------------------
                    Distance matrix (angstroms):
                    1          2          3          4          5
     1  C    0.000000
     2  C    1.396717   0.000000
     3  C    2.418908   1.395355   0.000000
     4  C    1.407209   2.432014   2.806073   0.000000
     5  C    2.431232   2.807142   2.432711   1.405135   0.000000
     6  C    2.795430   2.419095   1.396814   2.430281   1.407482
     7  C    2.514715   3.793779   4.286239   1.480229   2.489494
     8  C    3.872890   5.013967   5.198923   2.582038   2.926913
     9  C    4.350193   5.213563   5.025757   2.943273   2.593083
    10  C    3.785227   4.289822   3.796186   2.493689   1.482726
    11  O    2.818630   4.213369   5.014333   2.341993   3.595456
    12  O    4.769904   5.011753   4.208545   3.596802   2.340676
    13  H    1.082827   2.141374   3.392198   2.170859   3.418438
    14  H    2.152491   1.082381   2.150909   3.412230   3.889523
    15  H    3.399114   2.150884   1.082388   3.888461   3.412796
    16  H    3.878062   3.392066   2.141040   3.417814   2.171158
    17  O    4.957451   6.204278   6.508253   3.795990   4.277505
    18  C    5.878042   6.679978   6.344222   4.470958   3.947381
    19  C    6.839971   7.819248   7.660743   5.460566   5.228860
    20  C    8.273989   9.170618   8.874418   6.876117   6.472331
    21  C    9.330237  10.342637  10.175510   7.967163   7.746811
    22  C   10.729189  11.675800  11.402270   9.345008   8.997854
    23  H    5.073562   6.408837   6.901861   4.105656   4.843655
    24  H    6.257331   6.942741   6.481960   4.878938   4.191757
    25  H    6.253887   6.938471   6.477209   4.875948   4.188009
    26  H    6.810700   7.864284   7.819669   5.483022   5.417827
    27  H    6.817789   7.872036   7.827471   5.489506   5.424389
    28  H    8.525516   9.339791   8.949664   7.128303   6.604547
    29  H    8.516468   9.329563   8.938880   7.119942   6.595378
    30  H    9.294838  10.363466  10.284177   7.969662   7.864947
    31  H    9.307570  10.377075  10.297782   7.981496   7.876789
    32  H   10.928302  11.813289  11.465192   9.536029   9.097524
    33  H   10.913770  11.797394  11.448791   9.522415   9.083230
    34  C   11.834401  12.866127  12.694382  10.482082  10.268421
    35  H   11.802491  12.878735  12.777473  10.480012  10.353814
    36  H   11.819033  12.896404  12.795220  10.495453  10.369361
    37  C   13.210160  14.187633  13.929108  11.837252  11.523290
    38  C   14.342879  15.386787  15.211558  12.997819  12.787792
    39  H   13.383194  14.312025  13.991828  11.999437  11.612308
    40  H   13.366658  14.294066  13.973444  11.983986  11.596331
    41  H   14.358469  15.440225  15.323424  13.036709  12.896542
    42  H   15.310621  16.319041  16.087399  13.950297  13.676038
    43  H   14.342313  15.422782  15.305787  13.021735  12.881336
                    6          7          8          9         10
     6  C    0.000000
     7  C    3.781028   0.000000
     8  C    4.334090   1.492250   0.000000
     9  C    3.882326   2.483821   1.365993   0.000000
    10  C    2.516364   2.856133   2.470208   1.497273   0.000000
    11  O    4.769962   1.222670   2.350302   3.578583   4.078762
    12  O    2.813544   4.079578   3.570827   2.355497   1.223445
    13  H    3.878095   2.747020   4.230866   4.978272   4.662022
    14  H    3.399291   4.664905   5.978193   6.267249   5.372197
    15  H    2.152524   5.368619   6.252266   5.988865   4.666698
    16  H    1.082807   4.658063   4.962186   4.237275   2.747661
    17  O    5.684966   2.443225   1.352254   2.366643   3.726148
    18  C    5.078534   3.939077   2.578541   1.534556   2.563210
    19  C    6.470742   4.560735   3.068505   2.639707   3.972189
    20  C    7.599466   6.069602   4.580583   3.959414   5.088847
    21  C    8.954577   6.964210   5.489155   5.164206   6.440000
    22  C   10.122751   8.421633   6.934168   6.463084   7.615227
    23  H    6.236109   2.636385   2.047404   3.256529   4.515326
    24  H    5.173237   4.515903   3.267531   2.146973   2.781452
    25  H    5.168633   4.514474   3.267130   2.145730   2.778289
    26  H    6.707068   4.460303   3.034375   2.911047   4.296752
    27  H    6.714272   4.465348   3.038096   2.915002   4.302003
    28  H    7.641386   6.442849   4.990258   4.224641   5.186749
    29  H    7.631038   6.436567   4.985414   4.218658   5.178561
    30  H    9.116757   6.885151   5.458096   5.299156   6.636750
    31  H    9.129486   6.895397   5.466777   5.307905   6.647029
    32  H   10.158495   8.698106   7.214853   6.632654   7.685041
    33  H   10.142814   8.686682   7.205015   6.621910   7.672046
    34  C   11.456855   9.430508   7.974315   7.689486   8.940549
    35  H   11.579946   9.368504   7.949301   7.777013   9.079392
    36  H   11.596666   9.382144   7.961215   7.789090   9.093283
    37  C   12.647020  10.851105   9.377091   8.979043  10.141443
    38  C   13.963446  11.918769  10.475808  10.211299  11.448095
    39  H   12.686792  11.077485   9.596905   9.112611  10.204962
    40  H   12.669322  11.064150   9.585231   9.100301  10.190454
    41  H   14.105609  11.908762  10.493888  10.313981  11.594824
    42  H   14.811402  12.913865  11.455732  11.119495  12.303525
    43  H   14.089033  11.895677  10.482525  10.302336  11.581223
                   11         12         13         14         15
    11  O    0.000000
    12  O    5.302200   0.000000
    13  H    2.553485   5.727789   0.000000
    14  H    4.880687   6.074582   2.461020   0.000000
    15  H    6.077505   4.874401   4.282321   2.475930   0.000000
    16  H    5.727264   2.546515   4.960597   4.282067   2.460401
    17  O    2.740356   4.718213   5.098578   7.105514   7.572684
    18  C    4.926599   2.779323   6.508973   7.747828   7.229785
    19  C    5.276604   4.314107   7.291919   8.853352   8.603983
    20  C    6.811025   5.117722   8.782878  10.226639   9.751953
    21  C    7.506034   6.591199   9.711203  11.370317  11.099552
    22  C    9.014713   7.578283  11.164979  12.723191  12.275148
    23  H    2.475070   5.579535   5.006786   7.216076   7.982272
    24  H    5.544136   2.702085   6.955153   8.013868   7.297002
    25  H    5.543261   2.698611   6.952145   8.009483   7.291906
    26  H    5.039659   4.778419   7.170475   8.864780   8.794498
    27  H    5.043989   4.783058   7.177255   8.872777   8.802567
    28  H    7.254671   5.062333   9.096705  10.404653   9.777350
    29  H    7.249307   5.053859   9.088259  10.394165   9.766010
    30  H    7.326267   6.898417   9.605269  11.365303  11.236806
    31  H    7.335930   6.908100   9.617738  11.379349  11.250835
    32  H    9.357797   7.545087  11.417316  12.870871  12.299661
    33  H    9.347288   7.531881  11.403367  12.854542  12.282536
    34  C    9.877246   9.002984  12.172223  13.889460  13.606191
    35  H    9.737719   9.226428  12.083942  13.881189  13.714165
    36  H    9.750827   9.239974  12.100211  13.899441  13.732537
    37  C   11.352045  10.071813  13.597868  15.228597  14.799090
    38  C   12.307622  11.459471  14.652384  16.407158  16.114650
    39  H   11.636404  10.057866  13.816392  15.363221  14.830653
    40  H   11.623798  10.043175  13.800329  15.344688  14.811433
    41  H   12.234627  11.672633  14.620997  16.443849  16.248856
    42  H   13.343526  12.237410  15.655313  17.351835  16.963706
    43  H   12.222029  11.659092  14.605125  16.425746  16.230433
                   16         17         18         19         20
    16  H    0.000000
    17  O    6.304219   0.000000
    18  C    5.179819   2.954040   0.000000
    19  C    6.667952   2.711616   1.536707   0.000000
    20  C    7.625728   4.216305   2.530218   1.534473   0.000000
    21  C    9.062753   4.774394   3.892026   2.527381   1.533427
    22  C   10.111085   6.292775   5.058125   3.890002   2.527924
    23  H    6.957581   0.967188   3.919615   3.548173   4.995922
    24  H    5.137398   3.712723   1.112242   2.152458   2.729067
    25  H    5.132535   3.713962   1.112262   2.151376   2.725508
    26  H    6.995768   2.457123   2.175131   1.112017   2.160556
    27  H    7.002732   2.457552   2.176424   1.112005   2.161423
    28  H    7.576152   4.774419   2.766745   2.173547   1.112507
    29  H    7.565551   4.772646   2.762518   2.172453   1.112531
    30  H    9.298285   4.621818   4.181304   2.758694   2.170610
    31  H    9.310734   4.627796   4.187491   2.762854   2.171747
    32  H   10.078013   6.682559   5.184144   4.186503   2.764428
    33  H   10.062120   6.675798   5.175307   4.180676   2.760380
    34  C   11.514249   7.139641   6.379906   5.053560   3.888889
    35  H   11.696455   7.035177   6.556859   5.169941   4.178698
    36  H   11.713021   7.044527   6.566589   5.177388   4.183697
    37  C   12.612846   8.611768   7.585048   6.377393   5.054876
    38  C   13.987737   9.584576   8.885162   7.575924   6.372027
    39  H   12.597493   8.910355   7.680379   6.572682   5.187392
    40  H   12.579823   8.901399   7.670015   6.565001   5.181445
    41  H   14.178340   9.542001   9.046827   7.686211   6.581772
    42  H   14.779350  10.611176   9.744341   8.500332   7.215063
    43  H   14.161738   9.533045   9.037240   7.678942   6.576352
                   21         22         23         24         25
    21  C    0.000000
    22  C    1.533265   0.000000
    23  H    5.345941   6.879180   0.000000
    24  H    4.151881   5.144341   4.656150   0.000000
    25  H    4.146116   5.136032   4.657382   1.802271   0.000000
    26  H    2.749195   4.167021   3.170837   3.077945   2.486323
    27  H    2.753215   4.172896   3.171018   2.488242   3.078034
    28  H    2.171561   2.763673   5.587625   2.495427   3.077146
    29  H    2.170367   2.759459   5.586333   3.076171   2.486951
    30  H    1.112503   2.170425   5.089193   4.695444   4.328889
    31  H    1.112507   2.171548   5.094642   4.340314   4.695759
    32  H    2.171717   1.112501   7.322921   5.028037   5.334605
    33  H    2.170914   1.112510   7.316884   5.333728   5.010536
    34  C    2.526198   1.533277   7.569420   6.530100   6.519554
    35  H    2.758717   2.170896   7.387160   6.885160   6.633693
    36  H    2.761453   2.171527   7.396020   6.653829   6.884325
    37  C    3.888066   2.526966   9.078597   7.633565   7.621054
    38  C    5.048581   3.882987   9.936350   8.985680   8.971438
    39  H    4.190219   2.769460   9.428625   7.566605   7.766770
    40  H    4.186947   2.767469   9.420276   7.768543   7.543529
    41  H    5.196506   4.199348   9.832829   9.102106   9.265571
    42  H    5.983340   4.688914  10.995871   9.790281   9.775186
    43  H    5.193270   4.197426   9.824303   9.270185   9.078079
                   26         27         28         29         30
    26  H    0.000000
    27  H    1.824060   0.000000
    28  H    3.084084   2.492888   0.000000
    29  H    2.491845   3.083935   1.808731   0.000000
    30  H    2.511376   3.103057   3.090495   2.505094   0.000000
    31  H    3.103003   2.520302   2.506666   3.090464   1.808804
    32  H    4.715133   4.356536   2.532636   3.108648   3.090552
    33  H    4.345924   4.715185   3.108490   2.523595   2.505621
    34  C    5.158739   5.167596   4.184784   4.178517   2.757566
    35  H    5.032759   5.359277   4.725024   4.359018   2.521432
    36  H    5.357490   5.049443   4.369945   4.723907   3.105323
    37  C    6.541919   6.552164   5.180152   5.171828   4.177523
    38  C    7.639632   7.652024   6.559323   6.549549   5.165959
    39  H    6.913577   6.680703   5.071241   5.376058   4.729310
    40  H    6.663612   6.916035   5.378017   5.056607   4.367225
    41  H    7.802238   7.600447   6.703766   6.934277   5.385447
    42  H    8.603300   8.616171   7.324427   7.313907   6.151023
    43  H    7.580553   7.807883   6.938435   6.688392   5.069282
                   31         32         33         34         35
    31  H    0.000000
    32  H    2.506462   0.000000
    33  H    3.090782   1.808924   0.000000
    34  C    2.761890   2.171926   2.170767   0.000000
    35  H    3.107285   3.091040   2.505513   1.112546   0.000000
    36  H    2.529148   2.506918   3.090668   1.112534   1.808959
    37  C    4.182833   2.762991   2.759880   1.532933   2.170397
    38  C    5.173333   4.177703   4.173494   2.522392   2.756938
    39  H    4.374777   2.538621   3.114124   2.175489   3.093138
    40  H    4.731134   3.114839   2.533024   2.175330   2.509668
    41  H    5.080171   4.382608   4.737702   2.779760   3.125368
    42  H    6.158548   4.849931   4.845218   3.483467   3.770439
    43  H    5.390187   4.739754   4.376288   2.779326   2.547867
                   36         37         38         39         40
    36  H    0.000000
    37  C    2.171148   0.000000
    38  C    2.759375   1.525973   0.000000
    39  H    2.509958   1.111913   2.159155   0.000000
    40  H    3.093567   1.111945   2.158560   1.807489   0.000000
    41  H    2.551036   2.177207   1.110888   2.504077   3.088720
    42  H    3.772781   2.167405   1.110360   2.484128   2.483326
    43  H    3.127869   2.177072   1.110945   3.089058   2.503058
                   41         42         43
    41  H    0.000000
    42  H    1.804991   0.000000
    43  H    1.811013   1.804830   0.000000
 Symmetry turned off by external request.
 Stoichiometry    C18H22O3
 Framework group  C1[X(C18H22O3)]
 Deg. of freedom   123
 Full point group                 C1      NOp   1
 Rotational constants (GHZ):           0.9953261           0.0852786           0.0788738
 Leave Link  202 at Tue Dec 26 20:02:24 2023, MaxMem=  4026531840 cpu:               0.2 elap:               0.1
 (Enter /sysapps/ubuntu-applications/gaussian/Gaussian/AVX2/g16/l301.exe)
 Standard basis: 6-311++G(d,p) (5D, 7F)
 Ernie: Thresh=  0.10000D-02 Tol=  0.10000D-05 Strict=F.
   616 basis functions,   954 primitive gaussians,   637 cartesian basis functions
    77 alpha electrons       77 beta electrons
       nuclear repulsion energy      1527.7483469623 Hartrees.
 IExCor=  402 DFT=T Ex+Corr=B3LYP ExCW=0 ScaHFX=  0.200000
 ScaDFX=  0.800000  0.720000  1.000000  0.810000 ScalE2=  1.000000  1.000000
 IRadAn=      5 IRanWt=     -1 IRanGd=            0 ICorTp=0 IEmpDi=  4
 NAtoms=   43 NActive=   43 NUniq=   43 SFac= 1.00D+00 NAtFMM=   60 NAOKFM=F Big=F
 Integral buffers will be    131072 words long.
 Raffenetti 2 integral format.
 Two-electron integral symmetry is turned off.
 Leave Link  301 at Tue Dec 26 20:02:24 2023, MaxMem=  4026531840 cpu:               0.4 elap:               0.1
 (Enter /sysapps/ubuntu-applications/gaussian/Gaussian/AVX2/g16/l302.exe)
 NPDir=0 NMtPBC=     1 NCelOv=     1 NCel=       1 NClECP=     1 NCelD=      1
         NCelK=      1 NCelE2=     1 NClLst=     1 CellRange=     0.0.
 One-electron integrals computed using PRISM.
 NBasis=   616 RedAO= T EigKep=  1.18D-06  NBF=   616
 NBsUse=   610 1.00D-06 EigRej=  9.47D-07 NBFU=   610
 Precomputing XC quadrature grid using
 IXCGrd= 4 IRadAn=           5 IRanWt=          -1 IRanGd=           0 AccXCQ= 0.00D+00.
 Generated NRdTot=       0 NPtTot=           0 NUsed=           0 NTot=          32
 NSgBfM=   607   607   607   607   607 MxSgAt=    43 MxSgA2=    43.
 Leave Link  302 at Tue Dec 26 20:02:26 2023, MaxMem=  4026531840 cpu:               8.1 elap:               1.5
 (Enter /sysapps/ubuntu-applications/gaussian/Gaussian/AVX2/g16/l303.exe)
 DipDrv:  MaxL=1.
 Leave Link  303 at Tue Dec 26 20:02:26 2023, MaxMem=  4026531840 cpu:               0.8 elap:               0.2
 (Enter /sysapps/ubuntu-applications/gaussian/Gaussian/AVX2/g16/l401.exe)
 ExpMin= 3.60D-02 ExpMax= 8.59D+03 ExpMxC= 1.30D+03 IAcc=3 IRadAn=         5 AccDes= 0.00D+00
 Harris functional with IExCor=  402 and IRadAn=       5 diagonalized for initial guess.
 HarFok:  IExCor=  402 AccDes= 0.00D+00 IRadAn=         5 IDoV= 1 UseB2=F ITyADJ=14
 ICtDFT=  3500011 ScaDFX=  1.000000  1.000000  1.000000  1.000000
 FoFCou: FMM=F IPFlag=           0 FMFlag=      100000 FMFlg1=           0
         NFxFlg=           0 DoJE=T BraDBF=F KetDBF=T FulRan=T
         wScrn=  0.000000 ICntrl=       500 IOpCl=  0 I1Cent=   200000004 NGrid=           0
         NMat0=    1 NMatS0=      1 NMatT0=    0 NMatD0=    1 NMtDS0=    0 NMtDT0=    0
 Symmetry not used in FoFCou.
 Harris En= -925.186190118068    
 JPrj=0 DoOrth=F DoCkMO=F.
 Initial guess <Sx>= 0.0000 <Sy>= 0.0000 <Sz>= 0.0000 <S**2>=-0.0000 S=-0.0000
 Leave Link  401 at Tue Dec 26 20:02:30 2023, MaxMem=  4026531840 cpu:              25.7 elap:               3.6
 (Enter /sysapps/ubuntu-applications/gaussian/Gaussian/AVX2/g16/l502.exe)
 Two-electron integral symmetry not used.
 UHF open shell SCF:
 Using DIIS extrapolation, IDIIS=  1040.
 NGot=  4026531840 LenX=  4025710516 LenY=  4025304110
 Requested convergence on RMS density matrix=1.00D-08 within 128 cycles.
 Requested convergence on MAX density matrix=1.00D-06.
 Requested convergence on             energy=1.00D-06.
 No special actions if energy rises.
 Fock matrices will be formed incrementally for  20 cycles.

 Cycle   1  Pass 1  IDiag  1:
 FoFJK:  IHMeth= 1 ICntrl=       0 DoSepK=F KAlg= 0 I1Cent=           0 FoldK=F
 IRaf= 740000000 NMat=       1 IRICut=       1 DoRegI=T DoRafI=F ISym2E= 0 IDoP0=0 IntGTp=1.
 FoFCou: FMM=F IPFlag=           0 FMFlag=      100000 FMFlg1=           0
         NFxFlg=           0 DoJE=F BraDBF=F KetDBF=F FulRan=T
         wScrn=  0.000000 ICntrl=         0 IOpCl=  1 I1Cent=           0 NGrid=           0
         NMat0=    1 NMatS0=      1 NMatT0=    0 NMatD0=    1 NMtDS0=    0 NMtDT0=    0
 Symmetry not used in FoFCou.
 E= -924.462041296099    
 DIIS: error= 3.92D-02 at cycle   1 NSaved=   1.
 NSaved= 1 IEnMin= 1 EnMin= -924.462041296099     IErMin= 1 ErrMin= 3.92D-02
 ErrMax= 3.92D-02  0.00D+00 EMaxC= 1.00D-01 BMatC= 2.87D+00 BMatP= 2.87D+00
 IDIUse=3 WtCom= 6.08D-01 WtEn= 3.92D-01
 Coeff-Com:  0.100D+01
 Coeff-En:   0.100D+01
 Coeff:      0.100D+01
 Gap=     0.133 Goal=   None    Shift=    0.000
 Gap=     0.133 Goal=   None    Shift=    0.000
 GapD=    0.133 DampG=1.000 DampE=0.500 DampFc=0.5000 IDamp=-1.
 Damping current iteration by 5.00D-01
 RMSDP=1.60D-02 MaxDP=1.07D+00              OVMax= 2.33D-01

 Cycle   2  Pass 1  IDiag  1:
 RMSU=  8.00D-03    CP:  1.01D+00
 E= -924.651515796502     Delta-E=       -0.189474500403 Rises=F Damp=T
 DIIS: error= 1.53D-02 at cycle   2 NSaved=   2.
 NSaved= 2 IEnMin= 2 EnMin= -924.651515796502     IErMin= 2 ErrMin= 1.53D-02
 ErrMax= 1.53D-02  0.00D+00 EMaxC= 1.00D-01 BMatC= 4.06D-01 BMatP= 2.87D+00
 IDIUse=3 WtCom= 8.47D-01 WtEn= 1.53D-01
 Coeff-Com:  0.192D+00 0.808D+00
 Coeff-En:   0.318D+00 0.682D+00
 Coeff:      0.211D+00 0.789D+00
 Gap=     0.168 Goal=   None    Shift=    0.000
 Gap=     0.168 Goal=   None    Shift=    0.000
 RMSDP=6.52D-03 MaxDP=4.88D-01 DE=-1.89D-01 OVMax= 3.11D-01

 Cycle   3  Pass 1  IDiag  1:
 RMSU=  4.83D-03    CP:  9.76D-01  4.76D-01
 E= -924.996031734475     Delta-E=       -0.344515937973 Rises=F Damp=F
 DIIS: error= 2.30D-02 at cycle   3 NSaved=   3.
 NSaved= 3 IEnMin= 3 EnMin= -924.996031734475     IErMin= 2 ErrMin= 1.53D-02
 ErrMax= 2.30D-02  0.00D+00 EMaxC= 1.00D-01 BMatC= 4.63D-01 BMatP= 4.06D-01
 IDIUse=2 WtCom= 0.00D+00 WtEn= 1.00D+00
 Coeff-En:   0.000D+00 0.000D+00 0.100D+01
 Coeff:      0.000D+00 0.000D+00 0.100D+01
 Gap=     0.165 Goal=   None    Shift=    0.000
 Gap=     0.165 Goal=   None    Shift=    0.000
 RMSDP=1.06D-02 MaxDP=9.77D-01 DE=-3.45D-01 OVMax= 3.57D-01

 Cycle   4  Pass 1  IDiag  1:
 RMSU=  4.80D-03    CP:  1.07D+00  1.20D+00 -3.21D-01
 E= -924.421922254544     Delta-E=        0.574109479931 Rises=F Damp=F
 DIIS: error= 5.62D-02 at cycle   4 NSaved=   4.
 NSaved= 4 IEnMin= 3 EnMin= -924.996031734475     IErMin= 2 ErrMin= 1.53D-02
 ErrMax= 5.62D-02  0.00D+00 EMaxC= 1.00D-01 BMatC= 3.26D+00 BMatP= 4.06D-01
 IDIUse=2 WtCom= 0.00D+00 WtEn= 1.00D+00
 Coeff-En:   0.000D+00 0.000D+00 0.813D+00 0.187D+00
 Coeff:      0.000D+00 0.000D+00 0.813D+00 0.187D+00
 Gap=     0.120 Goal=   None    Shift=    0.000
 Gap=     0.120 Goal=   None    Shift=    0.000
 RMSDP=6.12D-03 MaxDP=5.66D-01 DE= 5.74D-01 OVMax= 1.27D-01

 Cycle   5  Pass 1  IDiag  1:
 RMSU=  9.51D-04    CP:  1.01D+00  7.74D-01  3.70D-01  4.25D-01
 E= -925.038705396344     Delta-E=       -0.616783141800 Rises=F Damp=F
 DIIS: error= 1.77D-02 at cycle   5 NSaved=   5.
 NSaved= 5 IEnMin= 5 EnMin= -925.038705396344     IErMin= 2 ErrMin= 1.53D-02
 ErrMax= 1.77D-02  0.00D+00 EMaxC= 1.00D-01 BMatC= 2.74D-01 BMatP= 4.06D-01
 IDIUse=3 WtCom= 8.23D-01 WtEn= 1.77D-01
 Coeff-Com:  0.226D-02 0.244D-01 0.337D+00-0.927D-01 0.729D+00
 Coeff-En:   0.000D+00 0.000D+00 0.399D+00 0.000D+00 0.601D+00
 Coeff:      0.186D-02 0.200D-01 0.348D+00-0.763D-01 0.706D+00
 Gap=     0.149 Goal=   None    Shift=    0.000
 Gap=     0.149 Goal=   None    Shift=    0.000
 RMSDP=2.49D-03 MaxDP=2.97D-01 DE=-6.17D-01 OVMax= 5.46D-02

 Cycle   6  Pass 1  IDiag  1:
 RMSU=  3.88D-04    CP:  9.77D-01  6.09D-01  6.30D-01  2.20D-01  7.03D-01
 E= -925.094939046267     Delta-E=       -0.056233649923 Rises=F Damp=F
 DIIS: error= 1.55D-03 at cycle   6 NSaved=   6.
 NSaved= 6 IEnMin= 6 EnMin= -925.094939046267     IErMin= 6 ErrMin= 1.55D-03
 ErrMax= 1.55D-03  0.00D+00 EMaxC= 1.00D-01 BMatC= 2.24D-03 BMatP= 2.74D-01
 IDIUse=3 WtCom= 9.84D-01 WtEn= 1.55D-02
 Coeff-Com: -0.734D-03 0.156D-01 0.199D+00-0.693D-01 0.481D+00 0.375D+00
 Coeff-En:   0.000D+00 0.000D+00 0.000D+00 0.000D+00 0.000D+00 0.100D+01
 Coeff:     -0.722D-03 0.154D-01 0.195D+00-0.683D-01 0.474D+00 0.384D+00
 Gap=     0.138 Goal=   None    Shift=    0.000
 Gap=     0.138 Goal=   None    Shift=    0.000
 RMSDP=2.43D-04 MaxDP=3.02D-02 DE=-5.62D-02 OVMax= 7.66D-03

 Cycle   7  Pass 1  IDiag  1:
 RMSU=  1.07D-04    CP:  9.80D-01  6.24D-01  6.27D-01  2.25D-01  7.62D-01
                    CP:  6.19D-01
 E= -925.095357230907     Delta-E=       -0.000418184640 Rises=F Damp=F
 DIIS: error= 5.40D-04 at cycle   7 NSaved=   7.
 NSaved= 7 IEnMin= 7 EnMin= -925.095357230907     IErMin= 7 ErrMin= 5.40D-04
 ErrMax= 5.40D-04  0.00D+00 EMaxC= 1.00D-01 BMatC= 2.29D-04 BMatP= 2.24D-03
 IDIUse=3 WtCom= 9.95D-01 WtEn= 5.40D-03
 Coeff-Com:  0.232D-03 0.183D-02 0.553D-01-0.213D-01 0.132D+00 0.189D+00
 Coeff-Com:  0.643D+00
 Coeff-En:   0.000D+00 0.000D+00 0.000D+00 0.000D+00 0.000D+00 0.559D-01
 Coeff-En:   0.944D+00
 Coeff:      0.231D-03 0.182D-02 0.550D-01-0.212D-01 0.131D+00 0.189D+00
 Coeff:      0.645D+00
 Gap=     0.137 Goal=   None    Shift=    0.000
 Gap=     0.137 Goal=   None    Shift=    0.000
 RMSDP=8.55D-05 MaxDP=8.26D-03 DE=-4.18D-04 OVMax= 2.80D-03

 Cycle   8  Pass 1  IDiag  1:
 RMSU=  5.32D-05    CP:  9.80D-01  6.20D-01  6.35D-01  2.23D-01  7.57D-01
                    CP:  6.42D-01  6.75D-01
 E= -925.095387866306     Delta-E=       -0.000030635400 Rises=F Damp=F
 DIIS: error= 3.87D-04 at cycle   8 NSaved=   8.
 NSaved= 8 IEnMin= 8 EnMin= -925.095387866306     IErMin= 8 ErrMin= 3.87D-04
 ErrMax= 3.87D-04  0.00D+00 EMaxC= 1.00D-01 BMatC= 6.08D-05 BMatP= 2.29D-04
 IDIUse=3 WtCom= 9.96D-01 WtEn= 3.87D-03
 Coeff-Com:  0.532D-03-0.184D-02 0.116D-01-0.406D-02 0.205D-01 0.677D-01
 Coeff-Com:  0.450D+00 0.455D+00
 Coeff-En:   0.000D+00 0.000D+00 0.000D+00 0.000D+00 0.000D+00 0.000D+00
 Coeff-En:   0.207D+00 0.793D+00
 Coeff:      0.530D-03-0.183D-02 0.115D-01-0.404D-02 0.204D-01 0.674D-01
 Coeff:      0.449D+00 0.456D+00
 Gap=     0.137 Goal=   None    Shift=    0.000
 Gap=     0.137 Goal=   None    Shift=    0.000
 RMSDP=2.80D-05 MaxDP=2.65D-03 DE=-3.06D-05 OVMax= 1.87D-03

 Cycle   9  Pass 1  IDiag  1:
 RMSU=  1.67D-05    CP:  9.80D-01  6.19D-01  6.36D-01  2.23D-01  7.51D-01
                    CP:  6.34D-01  7.06D-01  6.44D-01
 E= -925.095402630478     Delta-E=       -0.000014764172 Rises=F Damp=F
 DIIS: error= 7.29D-05 at cycle   9 NSaved=   9.
 NSaved= 9 IEnMin= 9 EnMin= -925.095402630478     IErMin= 9 ErrMin= 7.29D-05
 ErrMax= 7.29D-05  0.00D+00 EMaxC= 1.00D-01 BMatC= 2.59D-06 BMatP= 6.08D-05
 IDIUse=1 WtCom= 1.00D+00 WtEn= 0.00D+00
 Coeff-Com:  0.357D-03-0.133D-02 0.309D-02-0.677D-03 0.241D-02 0.271D-01
 Coeff-Com:  0.212D+00 0.262D+00 0.495D+00
 Coeff:      0.357D-03-0.133D-02 0.309D-02-0.677D-03 0.241D-02 0.271D-01
 Coeff:      0.212D+00 0.262D+00 0.495D+00
 Gap=     0.137 Goal=   None    Shift=    0.000
 Gap=     0.137 Goal=   None    Shift=    0.000
 RMSDP=7.15D-06 MaxDP=6.37D-04 DE=-1.48D-05 OVMax= 4.57D-04

 Cycle  10  Pass 1  IDiag  1:
 RMSU=  4.39D-06    CP:  9.80D-01  6.19D-01  6.36D-01  2.23D-01  7.52D-01
                    CP:  6.39D-01  7.19D-01  6.41D-01  7.72D-01
 E= -925.095403233350     Delta-E=       -0.000000602871 Rises=F Damp=F
 DIIS: error= 2.04D-05 at cycle  10 NSaved=  10.
 NSaved=10 IEnMin=10 EnMin= -925.095403233350     IErMin=10 ErrMin= 2.04D-05
 ErrMax= 2.04D-05  0.00D+00 EMaxC= 1.00D-01 BMatC= 3.51D-07 BMatP= 2.59D-06
 IDIUse=1 WtCom= 1.00D+00 WtEn= 0.00D+00
 Coeff-Com:  0.129D-03-0.435D-03-0.490D-04 0.139D-03-0.160D-02 0.638D-02
 Coeff-Com:  0.546D-01 0.835D-01 0.304D+00 0.553D+00
 Coeff:      0.129D-03-0.435D-03-0.490D-04 0.139D-03-0.160D-02 0.638D-02
 Coeff:      0.546D-01 0.835D-01 0.304D+00 0.553D+00
 Gap=     0.137 Goal=   None    Shift=    0.000
 Gap=     0.137 Goal=   None    Shift=    0.000
 RMSDP=2.45D-06 MaxDP=1.65D-04 DE=-6.03D-07 OVMax= 8.55D-05

 Cycle  11  Pass 1  IDiag  1:
 RMSU=  1.86D-06    CP:  9.80D-01  6.19D-01  6.37D-01  2.23D-01  7.52D-01
                    CP:  6.42D-01  7.15D-01  6.45D-01  7.96D-01  9.20D-01
 E= -925.095403311811     Delta-E=       -0.000000078461 Rises=F Damp=F
 DIIS: error= 3.33D-06 at cycle  11 NSaved=  11.
 NSaved=11 IEnMin=11 EnMin= -925.095403311811     IErMin=11 ErrMin= 3.33D-06
 ErrMax= 3.33D-06  0.00D+00 EMaxC= 1.00D-01 BMatC= 1.94D-08 BMatP= 3.51D-07
 IDIUse=1 WtCom= 1.00D+00 WtEn= 0.00D+00
 Coeff-Com:  0.324D-04-0.834D-04-0.377D-03 0.140D-03-0.113D-02 0.969D-03
 Coeff-Com:  0.898D-02 0.179D-01 0.115D+00 0.261D+00 0.597D+00
 Coeff:      0.324D-04-0.834D-04-0.377D-03 0.140D-03-0.113D-02 0.969D-03
 Coeff:      0.898D-02 0.179D-01 0.115D+00 0.261D+00 0.597D+00
 Gap=     0.137 Goal=   None    Shift=    0.000
 Gap=     0.137 Goal=   None    Shift=    0.000
 RMSDP=8.67D-07 MaxDP=1.09D-04 DE=-7.85D-08 OVMax= 3.30D-05

 Cycle  12  Pass 1  IDiag  1:
 RMSU=  4.70D-07    CP:  9.80D-01  6.19D-01  6.37D-01  2.23D-01  7.52D-01
                    CP:  6.42D-01  7.14D-01  6.47D-01  7.96D-01  8.93D-01
                    CP:  8.97D-01
 E= -925.095403315778     Delta-E=       -0.000000003967 Rises=F Damp=F
 DIIS: error= 1.26D-06 at cycle  12 NSaved=  12.
 NSaved=12 IEnMin=12 EnMin= -925.095403315778     IErMin=12 ErrMin= 1.26D-06
 ErrMax= 1.26D-06  0.00D+00 EMaxC= 1.00D-01 BMatC= 3.11D-09 BMatP= 1.94D-08
 IDIUse=1 WtCom= 1.00D+00 WtEn= 0.00D+00
 Coeff-Com:  0.368D-06 0.185D-05-0.200D-03 0.627D-04-0.420D-03-0.719D-04
 Coeff-Com: -0.894D-03-0.275D-03 0.285D-01 0.668D-01 0.315D+00 0.591D+00
 Coeff:      0.368D-06 0.185D-05-0.200D-03 0.627D-04-0.420D-03-0.719D-04
 Coeff:     -0.894D-03-0.275D-03 0.285D-01 0.668D-01 0.315D+00 0.591D+00
 Gap=     0.137 Goal=   None    Shift=    0.000
 Gap=     0.137 Goal=   None    Shift=    0.000
 RMSDP=3.03D-07 MaxDP=1.93D-05 DE=-3.97D-09 OVMax= 1.06D-05

 Cycle  13  Pass 1  IDiag  1:
 RMSU=  1.81D-07    CP:  9.80D-01  6.19D-01  6.37D-01  2.23D-01  7.52D-01
                    CP:  6.42D-01  7.13D-01  6.47D-01  8.04D-01  9.05D-01
                    CP:  8.87D-01  7.52D-01
 E= -925.095403316369     Delta-E=       -0.000000000592 Rises=F Damp=F
 DIIS: error= 1.13D-06 at cycle  13 NSaved=  13.
 NSaved=13 IEnMin=13 EnMin= -925.095403316369     IErMin=13 ErrMin= 1.13D-06
 ErrMax= 1.13D-06  0.00D+00 EMaxC= 1.00D-01 BMatC= 5.35D-10 BMatP= 3.11D-09
 IDIUse=1 WtCom= 1.00D+00 WtEn= 0.00D+00
 Coeff-Com: -0.616D-05 0.145D-04-0.486D-04 0.110D-04-0.331D-04-0.118D-03
 Coeff-Com: -0.196D-02-0.329D-02-0.872D-04-0.172D-02 0.105D+00 0.345D+00
 Coeff-Com:  0.558D+00
 Coeff:     -0.616D-05 0.145D-04-0.486D-04 0.110D-04-0.331D-04-0.118D-03
 Coeff:     -0.196D-02-0.329D-02-0.872D-04-0.172D-02 0.105D+00 0.345D+00
 Coeff:      0.558D+00
 Gap=     0.137 Goal=   None    Shift=    0.000
 Gap=     0.137 Goal=   None    Shift=    0.000
 RMSDP=1.10D-07 MaxDP=6.95D-06 DE=-5.92D-10 OVMax= 6.15D-06

 Cycle  14  Pass 1  IDiag  1:
 RMSU=  7.38D-08    CP:  9.80D-01  6.19D-01  6.37D-01  2.23D-01  7.52D-01
                    CP:  6.42D-01  7.14D-01  6.47D-01  8.04D-01  8.99D-01
                    CP:  8.93D-01  7.88D-01  8.37D-01
 E= -925.095403316541     Delta-E=       -0.000000000172 Rises=F Damp=F
 DIIS: error= 2.74D-07 at cycle  14 NSaved=  14.
 NSaved=14 IEnMin=14 EnMin= -925.095403316541     IErMin=14 ErrMin= 2.74D-07
 ErrMax= 2.74D-07  0.00D+00 EMaxC= 1.00D-01 BMatC= 6.59D-11 BMatP= 5.35D-10
 IDIUse=1 WtCom= 1.00D+00 WtEn= 0.00D+00
 Coeff-Com: -0.350D-05 0.735D-05-0.186D-05-0.138D-05 0.314D-04-0.500D-04
 Coeff-Com: -0.868D-03-0.172D-02-0.391D-02-0.114D-01 0.124D-01 0.882D-01
 Coeff-Com:  0.318D+00 0.599D+00
 Coeff:     -0.350D-05 0.735D-05-0.186D-05-0.138D-05 0.314D-04-0.500D-04
 Coeff:     -0.868D-03-0.172D-02-0.391D-02-0.114D-01 0.124D-01 0.882D-01
 Coeff:      0.318D+00 0.599D+00
 Gap=     0.137 Goal=   None    Shift=    0.000
 Gap=     0.137 Goal=   None    Shift=    0.000
 RMSDP=4.95D-08 MaxDP=3.06D-06 DE=-1.72D-10 OVMax= 1.75D-06

 Cycle  15  Pass 1  IDiag  1:
 RMSU=  2.02D-08    CP:  9.80D-01  6.19D-01  6.37D-01  2.23D-01  7.52D-01
                    CP:  6.42D-01  7.13D-01  6.47D-01  8.05D-01  9.02D-01
                    CP:  9.05D-01  8.00D-01  8.82D-01  8.20D-01
 E= -925.095403316538     Delta-E=        0.000000000004 Rises=F Damp=F
 DIIS: error= 6.32D-08 at cycle  15 NSaved=  15.
 NSaved=15 IEnMin=14 EnMin= -925.095403316541     IErMin=15 ErrMin= 6.32D-08
 ErrMax= 6.32D-08  0.00D+00 EMaxC= 1.00D-01 BMatC= 5.69D-12 BMatP= 6.59D-11
 IDIUse=1 WtCom= 1.00D+00 WtEn= 0.00D+00
 Coeff-Com: -0.113D-05 0.262D-05 0.259D-05-0.170D-05 0.164D-04-0.189D-04
 Coeff-Com: -0.250D-03-0.553D-03-0.184D-02-0.553D-02-0.390D-02 0.630D-02
 Coeff-Com:  0.108D+00 0.309D+00 0.589D+00
 Coeff:     -0.113D-05 0.262D-05 0.259D-05-0.170D-05 0.164D-04-0.189D-04
 Coeff:     -0.250D-03-0.553D-03-0.184D-02-0.553D-02-0.390D-02 0.630D-02
 Coeff:      0.108D+00 0.309D+00 0.589D+00
 Gap=     0.137 Goal=   None    Shift=    0.000
 Gap=     0.137 Goal=   None    Shift=    0.000
 RMSDP=1.32D-08 MaxDP=1.15D-06 DE= 3.64D-12 OVMax= 6.74D-07

 Cycle  16  Pass 1  IDiag  1:
 RMSU=  7.89D-09    CP:  9.80D-01  6.19D-01  6.37D-01  2.23D-01  7.52D-01
                    CP:  6.42D-01  7.13D-01  6.47D-01  8.05D-01  9.03D-01
                    CP:  9.05D-01  7.95D-01  9.14D-01  8.74D-01  7.97D-01
 E= -925.095403316528     Delta-E=        0.000000000010 Rises=F Damp=F
 DIIS: error= 2.29D-08 at cycle  16 NSaved=  16.
 NSaved=16 IEnMin=14 EnMin= -925.095403316541     IErMin=16 ErrMin= 2.29D-08
 ErrMax= 2.29D-08  0.00D+00 EMaxC= 1.00D-01 BMatC= 5.09D-13 BMatP= 5.69D-12
 IDIUse=1 WtCom= 1.00D+00 WtEn= 0.00D+00
 Coeff-Com: -0.215D-07 0.174D-06 0.137D-05-0.490D-06 0.283D-05-0.492D-05
 Coeff-Com: -0.803D-05-0.463D-04-0.332D-03-0.110D-02-0.313D-02-0.822D-02
 Coeff-Com:  0.101D-01 0.571D-01 0.234D+00 0.712D+00
 Coeff:     -0.215D-07 0.174D-06 0.137D-05-0.490D-06 0.283D-05-0.492D-05
 Coeff:     -0.803D-05-0.463D-04-0.332D-03-0.110D-02-0.313D-02-0.822D-02
 Coeff:      0.101D-01 0.571D-01 0.234D+00 0.712D+00
 Gap=     0.137 Goal=   None    Shift=    0.000
 Gap=     0.137 Goal=   None    Shift=    0.000
 RMSDP=4.13D-09 MaxDP=3.11D-07 DE= 1.00D-11 OVMax= 1.65D-07

 SCF Done:  E(UB3LYP) =  -925.095403317     A.U. after   16 cycles
            NFock= 16  Conv=0.41D-08     -V/T= 2.0048
 <Sx>= 0.0000 <Sy>= 0.0000 <Sz>= 0.0000 <S**2>=-0.0000 S=-0.0000
 <L.S>=  0.00000000000    
 KE= 9.206520448550D+02 PE=-5.209245026751D+03 EE= 1.835749231617D+03
 Annihilation of the first spin contaminant:
 S**2 before annihilation    -0.0000,   after     0.0000
 Leave Link  502 at Tue Dec 26 20:09:21 2023, MaxMem=  4026531840 cpu:            2782.7 elap:             411.3
 (Enter /sysapps/ubuntu-applications/gaussian/Gaussian/AVX2/g16/l601.exe)
 Copying SCF densities to generalized density rwf, IOpCl= 1 IROHF=0.

 **********************************************************************

            Population analysis using the SCF density.

 **********************************************************************

 Alpha  occ. eigenvalues --  -19.17594 -19.13868 -19.12249 -10.28820 -10.27620
 Alpha  occ. eigenvalues --  -10.27450 -10.21346 -10.21139 -10.21117 -10.20475
 Alpha  occ. eigenvalues --  -10.20391 -10.20320 -10.20228 -10.18305 -10.16480
 Alpha  occ. eigenvalues --  -10.16471 -10.16384 -10.16355 -10.16350 -10.16309
 Alpha  occ. eigenvalues --  -10.15977  -1.09500  -1.06303  -1.05632  -0.89119
 Alpha  occ. eigenvalues --   -0.84170  -0.81258  -0.79591  -0.77880  -0.77820
 Alpha  occ. eigenvalues --   -0.74919  -0.71210  -0.68725  -0.66452  -0.65564
 Alpha  occ. eigenvalues --   -0.62208  -0.60814  -0.58959  -0.57303  -0.57251
 Alpha  occ. eigenvalues --   -0.56753  -0.54581  -0.51430  -0.49688  -0.49063
 Alpha  occ. eigenvalues --   -0.47637  -0.47541  -0.46129  -0.45984  -0.45346
 Alpha  occ. eigenvalues --   -0.44252  -0.43797  -0.43357  -0.42152  -0.41737
 Alpha  occ. eigenvalues --   -0.41409  -0.40776  -0.40309  -0.39292  -0.38693
 Alpha  occ. eigenvalues --   -0.38119  -0.37620  -0.37212  -0.36165  -0.35527
 Alpha  occ. eigenvalues --   -0.34723  -0.33714  -0.32984  -0.32667  -0.32622
 Alpha  occ. eigenvalues --   -0.32373  -0.29781  -0.28949  -0.28940  -0.27935
 Alpha  occ. eigenvalues --   -0.27191  -0.25868
 Alpha virt. eigenvalues --   -0.12140  -0.05981  -0.02927  -0.01519  -0.00804
 Alpha virt. eigenvalues --   -0.00496   0.00287   0.00727   0.01033   0.01214
 Alpha virt. eigenvalues --    0.01603   0.02367   0.02705   0.02795   0.03239
 Alpha virt. eigenvalues --    0.04028   0.04196   0.04405   0.04499   0.05194
 Alpha virt. eigenvalues --    0.05492   0.05537   0.05799   0.06224   0.06499
 Alpha virt. eigenvalues --    0.07028   0.07444   0.07786   0.08069   0.08231
 Alpha virt. eigenvalues --    0.08794   0.08891   0.09547   0.09790   0.10399
 Alpha virt. eigenvalues --    0.10651   0.10831   0.11096   0.11282   0.11630
 Alpha virt. eigenvalues --    0.11682   0.12089   0.12400   0.12623   0.12693
 Alpha virt. eigenvalues --    0.12921   0.13349   0.13406   0.13572   0.13915
 Alpha virt. eigenvalues --    0.13966   0.14305   0.14513   0.14553   0.14776
 Alpha virt. eigenvalues --    0.15192   0.15227   0.15275   0.15562   0.15684
 Alpha virt. eigenvalues --    0.15900   0.16119   0.16211   0.16719   0.16853
 Alpha virt. eigenvalues --    0.17318   0.17402   0.17643   0.17812   0.18188
 Alpha virt. eigenvalues --    0.18604   0.18665   0.18789   0.19129   0.19256
 Alpha virt. eigenvalues --    0.19914   0.19952   0.20223   0.20438   0.20457
 Alpha virt. eigenvalues --    0.20963   0.21027   0.21298   0.21623   0.22390
 Alpha virt. eigenvalues --    0.22586   0.22874   0.22938   0.23202   0.23469
 Alpha virt. eigenvalues --    0.23552   0.23959   0.23991   0.24598   0.24648
 Alpha virt. eigenvalues --    0.24948   0.25464   0.25838   0.26072   0.26336
 Alpha virt. eigenvalues --    0.26809   0.27217   0.27761   0.27937   0.28336
 Alpha virt. eigenvalues --    0.28674   0.29313   0.29586   0.30237   0.30308
 Alpha virt. eigenvalues --    0.30659   0.30735   0.31290   0.31570   0.31965
 Alpha virt. eigenvalues --    0.32359   0.32663   0.32791   0.32975   0.33133
 Alpha virt. eigenvalues --    0.33441   0.33591   0.34120   0.34663   0.34768
 Alpha virt. eigenvalues --    0.35588   0.35947   0.36090   0.36418   0.36438
 Alpha virt. eigenvalues --    0.37351   0.38136   0.38981   0.39534   0.40219
 Alpha virt. eigenvalues --    0.40605   0.40696   0.41456   0.42420   0.42921
 Alpha virt. eigenvalues --    0.43638   0.44610   0.44980   0.45081   0.45548
 Alpha virt. eigenvalues --    0.45766   0.47129   0.47890   0.48425   0.48979
 Alpha virt. eigenvalues --    0.49656   0.50226   0.51232   0.51903   0.52284
 Alpha virt. eigenvalues --    0.52540   0.53125   0.53884   0.54466   0.54558
 Alpha virt. eigenvalues --    0.55868   0.56978   0.57190   0.58677   0.58707
 Alpha virt. eigenvalues --    0.59056   0.59742   0.60817   0.61216   0.61849
 Alpha virt. eigenvalues --    0.62133   0.62505   0.63477   0.63862   0.64767
 Alpha virt. eigenvalues --    0.64817   0.65151   0.65297   0.65560   0.66209
 Alpha virt. eigenvalues --    0.66556   0.66924   0.67157   0.67242   0.67367
 Alpha virt. eigenvalues --    0.68565   0.68756   0.69372   0.69718   0.69767
 Alpha virt. eigenvalues --    0.70405   0.70856   0.71100   0.71461   0.71944
 Alpha virt. eigenvalues --    0.72589   0.73402   0.73499   0.73910   0.74457
 Alpha virt. eigenvalues --    0.74846   0.74985   0.75476   0.76551   0.77120
 Alpha virt. eigenvalues --    0.77684   0.78175   0.78358   0.78907   0.79562
 Alpha virt. eigenvalues --    0.80066   0.81545   0.81861   0.82989   0.83958
 Alpha virt. eigenvalues --    0.84646   0.84778   0.86545   0.87483   0.88189
 Alpha virt. eigenvalues --    0.89137   0.90454   0.92217   0.92680   0.92767
 Alpha virt. eigenvalues --    0.93849   0.95756   0.96614   0.96831   0.97891
 Alpha virt. eigenvalues --    0.98137   0.99780   1.00748   1.01214   1.01831
 Alpha virt. eigenvalues --    1.02107   1.02539   1.04148   1.04605   1.04822
 Alpha virt. eigenvalues --    1.06015   1.06770   1.07058   1.07654   1.08566
 Alpha virt. eigenvalues --    1.08656   1.09164   1.11050   1.13611   1.13855
 Alpha virt. eigenvalues --    1.14685   1.17977   1.19180   1.21213   1.21691
 Alpha virt. eigenvalues --    1.22154   1.22619   1.24517   1.24702   1.24777
 Alpha virt. eigenvalues --    1.26047   1.26303   1.26865   1.27732   1.27859
 Alpha virt. eigenvalues --    1.28376   1.29339   1.30783   1.31696   1.33123
 Alpha virt. eigenvalues --    1.35245   1.36449   1.38344   1.38846   1.40979
 Alpha virt. eigenvalues --    1.44166   1.44507   1.46331   1.47292   1.47592
 Alpha virt. eigenvalues --    1.48816   1.49012   1.50000   1.50813   1.51146
 Alpha virt. eigenvalues --    1.51968   1.52382   1.54096   1.55165   1.55999
 Alpha virt. eigenvalues --    1.56264   1.57022   1.57735   1.58430   1.58697
 Alpha virt. eigenvalues --    1.60238   1.60265   1.60835   1.61619   1.62557
 Alpha virt. eigenvalues --    1.62714   1.63520   1.64062   1.64643   1.65130
 Alpha virt. eigenvalues --    1.65553   1.66157   1.66859   1.68200   1.68554
 Alpha virt. eigenvalues --    1.68973   1.69632   1.70627   1.71603   1.72166
 Alpha virt. eigenvalues --    1.72656   1.73344   1.73595   1.73911   1.74310
 Alpha virt. eigenvalues --    1.74464   1.74762   1.76009   1.76599   1.77056
 Alpha virt. eigenvalues --    1.78962   1.80488   1.81831   1.83008   1.84218
 Alpha virt. eigenvalues --    1.85099   1.85238   1.86780   1.87809   1.88546
 Alpha virt. eigenvalues --    1.88568   1.90846   1.91432   1.92353   1.92478
 Alpha virt. eigenvalues --    1.94078   1.94868   1.95025   1.95131   1.97434
 Alpha virt. eigenvalues --    1.97832   2.00460   2.02461   2.03166   2.05030
 Alpha virt. eigenvalues --    2.05131   2.05572   2.07360   2.07616   2.08760
 Alpha virt. eigenvalues --    2.10372   2.11278   2.12907   2.13492   2.15397
 Alpha virt. eigenvalues --    2.17235   2.18183   2.19074   2.21158   2.21753
 Alpha virt. eigenvalues --    2.23247   2.24470   2.25055   2.26411   2.27835
 Alpha virt. eigenvalues --    2.29587   2.29614   2.31552   2.32817   2.33416
 Alpha virt. eigenvalues --    2.34464   2.34938   2.35316   2.36550   2.38184
 Alpha virt. eigenvalues --    2.39205   2.40352   2.41469   2.42279   2.44188
 Alpha virt. eigenvalues --    2.46122   2.46355   2.47789   2.48227   2.49343
 Alpha virt. eigenvalues --    2.51209   2.52274   2.53145   2.54581   2.54614
 Alpha virt. eigenvalues --    2.56712   2.58052   2.59360   2.59594   2.60360
 Alpha virt. eigenvalues --    2.62287   2.62592   2.62964   2.63068   2.64832
 Alpha virt. eigenvalues --    2.65390   2.67449   2.68428   2.69136   2.69174
 Alpha virt. eigenvalues --    2.70487   2.70688   2.71797   2.72049   2.72942
 Alpha virt. eigenvalues --    2.73075   2.74481   2.74856   2.75499   2.76148
 Alpha virt. eigenvalues --    2.76537   2.78126   2.79054   2.80308   2.81560
 Alpha virt. eigenvalues --    2.81674   2.82680   2.83345   2.83895   2.85621
 Alpha virt. eigenvalues --    2.86298   2.86746   2.89893   2.90877   2.91230
 Alpha virt. eigenvalues --    2.91421   2.95315   2.95451   2.95607   2.97296
 Alpha virt. eigenvalues --    3.00001   3.00296   3.02439   3.03043   3.03198
 Alpha virt. eigenvalues --    3.04341   3.05084   3.07785   3.08618   3.09956
 Alpha virt. eigenvalues --    3.11895   3.12558   3.15110   3.18101   3.20103
 Alpha virt. eigenvalues --    3.20804   3.21399   3.23911   3.27527   3.30581
 Alpha virt. eigenvalues --    3.32919   3.34135   3.35291   3.36872   3.39321
 Alpha virt. eigenvalues --    3.42321   3.46574   3.49368   3.51822   3.52590
 Alpha virt. eigenvalues --    3.53573   3.56795   3.57211   3.65959   3.75798
 Alpha virt. eigenvalues --    3.77004   3.77419   3.78093   3.78661   3.79450
 Alpha virt. eigenvalues --    3.79581   3.80821   3.82432   3.85493   3.87251
 Alpha virt. eigenvalues --    3.90992   3.96078   4.02448   4.03522   4.04959
 Alpha virt. eigenvalues --    4.05638   4.08682   4.13997   4.16331   4.18556
 Alpha virt. eigenvalues --    4.21817   4.22667   4.29715   4.32646   4.34029
 Alpha virt. eigenvalues --    4.45922   4.74882   4.82330   4.98566   5.05206
 Alpha virt. eigenvalues --    5.08116   5.21973   5.27202   5.44906   5.67905
 Alpha virt. eigenvalues --    5.79556   5.86579  23.54217  23.68065  23.84620
 Alpha virt. eigenvalues --   23.85656  23.86345  23.87852  23.88625  23.89122
 Alpha virt. eigenvalues --   23.89617  23.90395  23.91830  23.92231  23.93798
 Alpha virt. eigenvalues --   23.93904  24.02793  24.05270  24.09127  24.14969
 Alpha virt. eigenvalues --   49.93118  50.02602  50.06948
  Beta  occ. eigenvalues --  -19.17594 -19.13868 -19.12249 -10.28820 -10.27620
  Beta  occ. eigenvalues --  -10.27450 -10.21346 -10.21139 -10.21117 -10.20475
  Beta  occ. eigenvalues --  -10.20391 -10.20320 -10.20228 -10.18305 -10.16480
  Beta  occ. eigenvalues --  -10.16471 -10.16384 -10.16355 -10.16350 -10.16309
  Beta  occ. eigenvalues --  -10.15977  -1.09500  -1.06303  -1.05632  -0.89119
  Beta  occ. eigenvalues --   -0.84170  -0.81258  -0.79591  -0.77880  -0.77820
  Beta  occ. eigenvalues --   -0.74919  -0.71210  -0.68725  -0.66452  -0.65564
  Beta  occ. eigenvalues --   -0.62208  -0.60814  -0.58959  -0.57303  -0.57251
  Beta  occ. eigenvalues --   -0.56753  -0.54581  -0.51430  -0.49688  -0.49063
  Beta  occ. eigenvalues --   -0.47637  -0.47541  -0.46129  -0.45984  -0.45346
  Beta  occ. eigenvalues --   -0.44252  -0.43797  -0.43357  -0.42152  -0.41737
  Beta  occ. eigenvalues --   -0.41409  -0.40776  -0.40309  -0.39292  -0.38693
  Beta  occ. eigenvalues --   -0.38119  -0.37620  -0.37212  -0.36165  -0.35527
  Beta  occ. eigenvalues --   -0.34723  -0.33714  -0.32984  -0.32667  -0.32622
  Beta  occ. eigenvalues --   -0.32373  -0.29781  -0.28949  -0.28940  -0.27935
  Beta  occ. eigenvalues --   -0.27191  -0.25868
  Beta virt. eigenvalues --   -0.12140  -0.05981  -0.02927  -0.01519  -0.00804
  Beta virt. eigenvalues --   -0.00496   0.00287   0.00727   0.01033   0.01214
  Beta virt. eigenvalues --    0.01603   0.02367   0.02705   0.02795   0.03239
  Beta virt. eigenvalues --    0.04028   0.04196   0.04405   0.04499   0.05194
  Beta virt. eigenvalues --    0.05492   0.05537   0.05799   0.06224   0.06499
[...]
 .00000379,0.00000213,-0.00000045,-0.00000317,0.00000077,-0.00000139,0.
 00001139,0.00000730,-0.00000622,0.00000134,-0.00000554,-0.00000092,0.0
 0004199,0.00005308,-0.00008410,-0.00003840,0.00001675,-0.00001906,0.00
 016011,0.00009859,0.00020197,-0.00002700,-0.00008687,0.00000353,-0.000
 55039,-0.00191203,-0.00003227,0.00062908,-0.00016947,0.00042458,0.0000
 5806,0.00042070,-0.00005899,0.01159291,0.06153872,-0.06543657,0.007722
 33,0.03012419,-0.01057835,-0.01711810,-0.06907039,0.07266607,-0.000001
 14,-0.00000015,0.00000008,0.00000082,0.00000048,0.00000083,0.00000070,
 -0.00000008,0.00000085,0.00000192,-0.00000033,0.00000048,-0.00000146,0
 .00000143,-0.00000022,-0.00000025,-0.00000105,0.00000073,0.00000695,-0
 .00001752,-0.00000827,-0.00003160,-0.00001451,-0.00000872,0.00001258,0
 .00000645,0.00001066,-0.00000804,-0.00002025,-0.00001150,0.00000300,0.
 00001501,0.00000727,-0.00000013,0.00001750,0.00001426,-0.00000003,0.00
 000018,-0.00000056,-0.00000028,0.00000026,-0.00000056,0.00000029,-0.00
 000010,-0.00000088,0.00000074,0.00000032,-0.00000167,0.00002641,0.0000
 1659,0.00001154,-0.00001249,0.00000102,-0.00000186,0.00000995,-0.00000
 834,0.00000714,0.00001554,0.00004612,0.00004219,0.00010467,0.00029291,
 0.00034472,0.00078695,-0.00096999,-0.00172834,-0.00000647,-0.00000290,
 -0.00000394,-0.00000137,-0.00000130,-0.00000187,0.00000011,0.00000363,
 0.00000401,-0.00000310,-0.00000022,-0.00000347,0.00001392,-0.00000084,
 -0.00000200,-0.00000672,-0.00000573,0.00000043,-0.00001489,0.00002723,
 0.00007510,-0.00001324,-0.00002401,-0.00003688,0.00038649,-0.00007186,
 0.00006028,-0.00004855,0.00000898,0.00005849,0.00017018,0.00045200,0.0
 0125942,-0.02235277,-0.00970570,-0.01731390,0.00131777,0.00021478,0.00
 007516,-0.00395768,0.00387020,0.00090500,-0.16424951,-0.06162591,-0.10
 800429,0.00929377,0.00520640,0.00959909,-0.00500836,-0.00294121,-0.003
 73629,0.18238369,-0.00000006,0.,0.00000012,0.00000015,-0.00000014,0.00
 000021,-0.00000014,0.00000003,0.00000027,0.00000025,0.00000003,0.00000
 058,0.00000004,0.00000020,0.00000032,0.00000022,-0.00000045,0.00000004
 ,0.00000020,-0.00000017,-0.00000216,-0.00000150,0.00000050,-0.00000068
 ,0.00000081,0.00000011,0.00000481,-0.00000095,-0.00000116,-0.00000244,
 0.00000026,0.00000018,0.00000181,0.00000057,0.00000108,0.00000264,0.00
 000005,0.00000010,-0.00000038,0.,0.00000007,-0.00000024,0.00000014,0.,
 -0.00000030,0.,0.00000001,-0.00000049,0.00000042,-0.00000107,0.0000034
 9,-0.00000955,0.00000353,-0.00000229,-0.00000371,0.00000504,0.00003016
 ,-0.00011767,-0.00000738,-0.00006007,0.00008395,-0.00000709,0.00026419
 ,-0.00038046,0.00050902,0.00068880,0.00000004,0.00000065,-0.00000226,-
 0.00000139,-0.00000148,-0.00000093,0.00000132,0.00000296,0.00000045,0.
 00000203,-0.00000289,0.00000006,0.00000106,-0.00000298,0.00000233,-0.0
 0000520,-0.00000381,-0.00000066,0.00001532,0.00001288,-0.00002258,0.00
 002085,-0.00003345,0.00001583,-0.00006809,-0.00007667,-0.00007368,-0.0
 0006476,-0.00003776,-0.00014176,-0.00025093,0.00013682,-0.00015754,0.0
 1448868,0.00621822,0.01170074,-0.00066671,0.00097291,0.00042920,0.0038
 4115,-0.00102704,-0.00012824,-0.06216375,-0.08138120,-0.05552492,0.000
 51973,-0.00011098,0.00046853,-0.02137024,-0.01155667,-0.01962375,0.064
 91904,0.08483939,-0.00000040,-0.00000052,0.00000017,0.00000029,0.00000
 006,0.00000026,-0.00000013,0.00000003,0.00000070,0.00000030,-0.0000000
 3,0.00000050,-0.00000208,0.00000074,-0.00000076,0.00000011,-0.00000009
 ,0.00000035,0.00000918,-0.00001625,-0.00000636,-0.00002740,-0.00000810
 ,-0.00000611,0.00001149,0.00000093,0.00000794,-0.00000397,-0.00001195,
 -0.00000546,0.00000127,0.00001397,0.00000541,-0.00000125,0.00001098,0.
 00000749,0.,0.00000010,-0.00000030,-0.00000028,0.00000012,-0.00000038,
 0.00000017,-0.00000005,-0.00000053,0.00000043,0.00000015,-0.00000103,0
 .00001976,0.00001400,0.00000711,-0.00001408,0.00000541,0.00000046,-0.0
 0000317,-0.00000910,0.00001880,-0.00006381,0.00002967,-0.00001980,0.00
 018617,0.00006537,0.00024298,0.00064183,0.00028835,0.00079630,-0.00000
 517,-0.00000366,-0.00000189,0.00000037,-0.00000044,-0.00000192,0.00000
 099,0.00000093,0.00000123,-0.00000195,0.00000277,-0.00000183,0.0000008
 7,0.00000197,0.00000009,0.00000226,-0.00000219,0.00000077,0.00000167,0
 .00000168,-0.00000081,-0.00002335,0.00002018,-0.00001935,0.00006851,-0
 .00007536,-0.00012983,0.00003281,0.00004103,0.00000498,-0.00013441,-0.
 00010451,0.00039066,0.00130120,0.00102839,0.00085086,-0.00027772,0.000
 27898,-0.00004995,0.00078185,-0.00008266,0.00051704,-0.10756410,-0.054
 84245,-0.14527993,-0.02059448,-0.01181685,-0.02197247,0.00615280,0.002
 35290,0.00568973,0.11666712,0.06213259,0.16206216,-0.00000082,0.000002
 30,0.00000043,0.00000083,0.00000067,0.00000051,-0.00000036,0.00000006,
 -0.00000017,0.00001011,0.00000241,0.00000137,0.00000629,-0.00000283,0.
 00000047,0.00000232,-0.00000348,-0.00000010,-0.00002960,0.00001191,0.0
 0000304,0.00001346,-0.00001461,-0.00000008,-0.00000578,0.00001633,-0.0
 0000389,-0.00001992,-0.00000202,-0.00000114,0.00001092,-0.00000918,-0.
 00000250,0.00001295,0.00000028,-0.00000046,-0.00000089,-0.00000014,-0.
 00000022,0.00000083,-0.00000042,-0.00000022,0.00000115,0.00000022,-0.0
 0000009,-0.00000147,0.00000033,-0.00000037,0.00000436,-0.00000304,-0.0
 0000422,0.00001329,-0.00000765,-0.00000381,-0.00000528,0.00000578,-0.0
 0001474,0.00003179,-0.00003303,0.00001265,-0.00003269,-0.00001167,-0.0
 0013312,0.00020833,-0.00003395,0.00025652,-0.00000356,0.00000435,0.000
 00218,-0.00000120,-0.00000010,0.00000031,0.00000022,0.00000014,0.00000
 177,-0.00000082,-0.00000050,-0.00000014,0.00000228,0.00000077,0.000002
 39,0.00000066,0.00000400,-0.00000180,0.00000107,-0.00000091,-0.0000021
 5,-0.00000168,-0.00000231,0.00000206,-0.00001861,0.00001502,0.00000294
 ,0.00000486,0.00000878,-0.00001155,-0.00016887,-0.00001920,-0.00003180
 ,0.00148944,0.00025698,0.00039830,-0.00007779,0.00001805,-0.00003402,0
 .00013273,-0.00031025,-0.00023995,0.00863865,0.00561325,0.00855456,-0.
 16079569,-0.06394086,-0.11034666,0.00057517,0.00021198,-0.00089647,-0.
 00003292,0.00056418,0.00298024,0.17295323,-0.00000019,-0.00000027,0.00
 000026,0.00000032,-0.00000013,0.00000039,0.00000027,-0.00000012,0.0000
 0079,0.00000046,-0.00000011,0.00000051,-0.00000009,0.00000011,-0.00000
 035,0.,-0.00000006,0.00000055,0.00000116,-0.00000359,-0.00000300,-0.00
 000697,-0.00000392,-0.00000208,0.00000284,0.00000142,0.00000199,-0.000
 00183,-0.00000246,-0.00000344,0.00000086,0.00000312,0.00000268,0.00000
 008,0.00000141,0.00000489,0.00000005,0.00000005,-0.00000050,-0.0000000
 1,0.00000014,-0.00000046,0.00000012,0.00000014,-0.00000064,0.00000018,
 0.00000043,-0.00000092,0.00000622,0.00000365,0.00000340,0.00000003,0.0
 0000045,-0.00000069,-0.00000188,-0.00000233,-0.00000411,0.00001323,0.0
 0000011,0.00000129,-0.00000733,-0.00001779,-0.00004247,0.00028034,0.00
 001596,0.00004688,-0.00000201,-0.00000077,-0.00000180,-0.00000084,-0.0
 0000061,0.00000020,0.00000006,0.00000081,0.00000166,-0.00000101,-0.000
 00189,-0.00000120,0.00000394,0.00000256,-0.00000010,-0.00000292,-0.000
 00296,0.00000249,0.00000004,0.00000084,0.00000858,-0.00000188,-0.00000
 831,-0.00000636,0.00002517,0.00001301,0.00000020,-0.00002325,-0.000030
 75,0.00003765,-0.00001574,-0.00000957,0.00011886,-0.00063040,-0.000083
 51,-0.00021240,-0.00007598,-0.00005257,-0.00008759,0.00038821,0.000110
 95,-0.00012596,0.00086102,-0.00014850,0.00071613,-0.06368932,-0.083626
 45,-0.06180876,0.00065801,0.00041370,0.00004678,0.00013142,0.00114180,
 0.00036799,0.07073147,0.08595385,-0.00000140,0.00000165,0.00000054,0.0
 0000117,0.00000081,0.00000056,0.00000014,-0.00000014,0.00000065,0.0000
 0797,0.00000177,0.00000077,0.00000417,-0.00000098,0.00000054,0.0000016
 2,-0.00000296,-0.00000058,-0.00001965,0.00000354,-0.00000024,0.0000018
 2,-0.00001469,-0.00000342,-0.00000061,0.00001486,0.00000105,-0.0000173
 1,-0.00001193,-0.00000475,0.00000859,-0.00000239,0.00000031,0.00000963
 ,0.00000902,0.00000513,-0.00000057,-0.00000005,-0.00000031,0.00000046,
 -0.00000014,-0.00000028,0.00000098,0.,-0.00000042,-0.00000063,0.000000
 25,-0.00000075,0.00000978,0.00000216,0.00000086,0.00000674,-0.00000474
 ,-0.00000424,-0.00000707,-0.00000042,-0.00000598,-0.00000402,-0.000006
 64,0.00001260,0.00006479,0.00004868,0.00004367,0.00030056,0.00015806,0
 .00005746,-0.00000393,0.00000233,0.00000026,-0.00000160,-0.00000063,-0
 .00000077,0.00000003,0.00000166,0.00000297,-0.00000042,-0.00000028,-0.
 00000020,0.00000558,-0.00000006,0.00000193,-0.00000186,0.00000183,-0.0
 0000510,-0.00000066,0.00000744,0.00000885,-0.00000154,-0.00000510,-0.0
 0000111,0.00007289,-0.00002479,-0.00000366,-0.00003581,0.00000507,-0.0
 0003508,-0.00000873,0.00012088,0.00035283,-0.00182207,0.00035255,0.001
 10293,0.00011585,-0.00002973,0.00001277,0.00120255,-0.00019022,0.00035
 304,-0.02112299,-0.01226499,-0.02166645,-0.10952118,-0.06153319,-0.152
 33971,-0.00025374,0.00056989,0.00113931,0.00327145,0.00035079,-0.00538
 864,0.11995022,0.06826860,0.16941307,0.00000119,-0.00000554,-0.0000009
 6,-0.00000126,-0.00000161,0.00000002,0.00000075,0.00000016,0.00000043,
 -0.00002105,-0.00000517,-0.00000281,-0.00001632,0.00000651,-0.00000103
 ,-0.00000507,0.00000662,0.00000249,0.00007375,-0.00004604,-0.00001463,
 -0.00006025,0.00002165,-0.00000647,0.00002488,-0.00003383,0.00001793,0
 .00003863,-0.00000816,-0.00000727,-0.00002191,0.00003723,0.00001318,-0
 .00002942,0.00001107,0.00001254,0.00000198,0.00000054,-0.00000027,-0.0
 0000216,0.00000113,-0.00000038,-0.00000215,-0.00000046,-0.00000084,0.0
 0000358,-0.00000027,-0.00000137,0.00001366,0.00002282,0.00001890,-0.00
 004225,0.00002450,0.00000728,0.00000855,-0.00002901,0.00005333,-0.0001
 2116,0.00010753,-0.00007908,0.00002119,-0.00012400,0.00038955,-0.00037
 809,0.00079912,-0.00050608,0.00000195,-0.00001363,-0.00000869,0.000002
 22,-0.00000100,-0.00000264,0.00000113,0.00000146,-0.00000203,0.0000005
 7,0.00000238,-0.00000169,-0.00000041,0.00000057,-0.00000397,-0.0000024
 8,-0.00001288,0.00000236,0.00000884,0.00000387,0.00000465,0.00001272,0
 .00001454,-0.00000867,-0.00000418,-0.00000756,-0.00001950,-0.00003103,
 -0.00007911,0.00000196,0.00000479,0.00003324,0.00012029,0.00032763,-0.
 00097274,0.00333660,0.00010568,0.00009888,-0.00011020,0.00052585,-0.00
 016010,-0.00005078,-0.00940106,0.00566834,-0.00083390,-0.22536379,0.11
 934310,0.00927213,-0.00005991,-0.00050489,-0.00007783,0.00078907,0.000
 01676,0.00023749,-0.01775518,0.01206502,0.00099104,0.24407282,-0.00000
 016,0.00000267,0.00000070,0.00000028,0.00000043,0.00000003,-0.00000059
 ,0.00000001,-0.00000068,0.00000924,0.00000266,0.00000026,0.00000810,-0
 .00000374,0.00000093,0.00000245,-0.00000272,-0.00000068,-0.00003437,0.
 00002373,0.00000794,0.00002967,-0.00000816,0.00000291,-0.00001219,0.00
 001304,-0.00000630,-0.00001740,0.00000831,0.00000404,0.00000987,-0.000
 01938,-0.00000730,0.00001384,-0.00000929,-0.00000730,-0.00000098,-0.00
 000031,0.00000032,0.00000111,-0.00000055,0.00000025,0.00000092,0.00000
 032,0.00000053,-0.00000183,0.00000017,0.00000077,-0.00000849,-0.000012
 24,-0.00001001,0.00001633,-0.00000581,-0.00000279,-0.00001186,0.000001
 02,-0.00001351,0.00002745,-0.00002271,0.00002922,-0.00003199,0.0000359
 6,-0.00005633,0.00019071,0.00036094,0.00033383,-0.00000030,0.00000699,
 0.00000502,-0.00000098,0.00000047,0.00000104,-0.00000034,-0.00000080,0
 .00000064,0.00000126,-0.00000057,0.00000127,-0.00000096,-0.00000012,0.
 00000131,-0.00000113,0.00000223,-0.00000011,-0.00000377,-0.00000254,-0
 .00000553,0.00000309,-0.00000273,0.00000922,0.00000269,0.00000154,0.00
 000362,0.00004456,0.00000374,-0.00011470,-0.00003459,-0.00002447,0.000
 00380,-0.00022147,0.00053871,-0.00043737,-0.00028119,0.00052290,0.0000
 9086,0.00019916,-0.00005054,0.00012330,-0.00207432,-0.00012379,0.00032
 881,0.11962419,-0.12712203,-0.00639206,-0.00018948,0.00053809,-0.00040
 984,0.00005551,-0.00015311,-0.00035405,-0.01098450,0.00730679,0.001416
 58,-0.13202768,0.13461743,-0.00000158,0.00000390,0.00000036,0.00000158
 ,0.00000133,0.00000059,0.00000059,-0.00000009,-0.00000034,0.00001497,0
 .00000262,0.00000292,0.00001127,-0.00000303,-0.00000038,0.00000281,-0.
 00000545,-0.00000007,-0.00005561,0.00003668,0.00001085,0.00005411,-0.0
 0001560,0.00000837,-0.00002278,0.00002759,-0.00002295,-0.00002501,0.00
 000268,0.00000538,0.00001472,-0.00002940,-0.00000937,0.00002068,-0.000
 00608,-0.00000671,-0.00000113,-0.00000023,-0.00000029,0.00000142,-0.00
 000055,-0.00000001,0.00000152,0.00000026,0.00000005,-0.00000207,0.0000
 0042,0.00000012,-0.00001637,-0.00001954,-0.00001416,0.00005158,-0.0000
 2928,-0.00000498,-0.00000693,0.00002493,-0.00009405,0.00020967,-0.0001
 6567,0.00009459,0.00006116,0.00017103,-0.00075403,0.00167327,-0.001159
 69,0.00062798,0.00000060,0.00001029,0.00000446,-0.00000238,0.00000091,
 0.00000308,-0.00000133,-0.00000120,0.00000237,-0.00000177,-0.00000536,
 0.00000090,0.00000171,0.00000289,0.00000406,0.00000182,0.00001327,0.00
 000247,-0.00001231,-0.00000759,-0.00000458,-0.00003061,-0.00002139,0.0
 0000823,0.00000457,0.00003198,0.00002113,0.00002092,0.00009057,0.00003
 065,-0.00010118,-0.00006363,0.00002249,0.00064416,0.00140654,-0.006346
 84,-0.00028719,-0.00009758,-0.00002625,0.00020056,0.00026026,0.0001270
 6,0.02692001,-0.01865266,-0.00058748,0.00826660,-0.00570565,-0.0469059
 6,-0.00037777,0.00045802,0.00129312,-0.00073381,-0.00035288,0.00113794
 ,-0.01676263,0.01282761,0.00077369,-0.01185988,0.00673502,0.05112731,-
 0.00000031,0.00000110,-0.00000043,0.00000005,0.00000049,-0.00000016,-0
 .00000029,0.00000006,-0.00000046,0.00000287,0.00000077,0.00000050,0.00
 000179,-0.00000075,0.00000019,0.00000065,-0.00000109,-0.00000068,-0.00
 000888,0.00000314,0.00000301,0.00000462,-0.00000360,0.00000020,-0.0000
 0161,0.00000490,-0.00000226,-0.00000635,-0.00000312,0.00000110,0.00000
 311,-0.00000237,-0.00000294,0.00000380,0.00000294,-0.00000236,-0.00000
 036,-0.00000011,0.00000054,0.00000021,-0.00000023,0.00000037,0.0000002
 9,-0.00000006,0.00000044,-0.00000043,-0.00000028,0.00000056,0.00000068
 ,-0.00000046,-0.00000393,0.00000384,-0.00000166,0.00000022,-0.00000332
 ,-0.00000240,-0.00000243,0.00001122,0.00000252,0.00000441,-0.00000185,
 0.00002856,-0.00001729,-0.00004751,0.00021516,0.00012371,-0.00000047,0
 .00000121,0.00000302,0.00000093,0.00000071,-0.00000088,-0.00000023,-0.
 00000113,-0.00000038,0.00000012,0.00000403,0.00000181,-0.00000152,-0.0
 0000147,0.00000042,0.00000525,0.00000405,-0.00000857,-0.00000158,-0.00
 000347,-0.00000373,-0.00001953,0.00004157,0.00001312,-0.00000787,-0.00
 000587,0.00000288,0.00005610,0.00012682,-0.00016137,-0.00000665,-0.000
 02590,-0.00004481,0.00054161,-0.00146986,-0.00036403,-0.00006234,0.000
 59830,0.00013773,-0.00006352,-0.00004674,0.00003034,-0.00367676,-0.011
 45270,0.00341063,-0.06077079,-0.05403969,0.01582074,-0.00013462,0.0002
 9962,0.00250917,0.00042546,0.00062788,-0.00038147,-0.00516180,-0.02070
 886,0.00679774,0.00727768,0.02570012,-0.00787798,0.06163831,-0.0000007
 1,-0.00000169,-0.00000061,0.,0.00000045,-0.00000042,0.00000012,0.00000
 009,-0.00000010,-0.00000525,-0.00000125,-0.00000046,-0.00000693,0.0000
 0309,-0.00000044,-0.00000153,0.00000137,0.,0.00002756,-0.00002872,-0.0
 0000633,-0.00003639,0.00000061,-0.00000419,0.00001653,-0.00000696,0.00
 000586,0.00000779,-0.00001842,-0.00000578,-0.00000543,0.00002423,0.000
 00497,-0.00000964,0.00001931,0.00000694,0.00000046,0.00000014,0.000000
 56,-0.00000103,0.00000023,0.00000035,-0.00000050,-0.00000055,0.0000001
 2,0.00000141,-0.00000063,0.00000002,0.00001718,0.00001851,0.00000570,-
 0.00001605,0.00000650,0.00000554,0.00000217,-0.00001260,0.00001398,-0.
 00003583,0.00002398,-0.00001814,-0.00002346,-0.00004751,0.00010205,-0.
 00005619,0.00043656,-0.00013148,-0.00000232,-0.00000831,-0.00000018,0.
 00000242,0.00000110,-0.00000265,-0.00000018,-0.00000062,-0.00000054,-0
 .00000026,0.00000692,-0.00000033,-0.00000010,-0.00000143,-0.00000071,0
 .00000274,0.00000247,-0.00000258,0.00000257,-0.00000067,0.00000357,0.0
 0000080,0.00001873,0.00000607,-0.00000452,-0.00000428,-0.00000255,0.00
 011646,-0.00008387,-0.00015106,0.00000380,-0.00001763,0.00000719,0.000
 27553,0.00076563,-0.00038388,-0.00056391,0.00044898,0.00015649,-0.0000
 0096,-0.00006492,0.00002988,0.00032158,0.00035962,0.00029563,-0.054497
 11,-0.26953034,0.06675365,0.00057878,0.00162547,-0.00007616,0.00012451
 ,0.00055998,0.00066898,-0.00208859,-0.01097466,0.00275563,-0.00425336,
 -0.01642253,0.00423375,0.06010787,0.29290361,0.00000034,0.00000029,0.0
 0000036,-0.00000005,-0.00000019,-0.00000017,-0.00000009,-0.00000005,0.
 ,0.00000078,0.00000021,0.00000038,0.00000177,-0.00000082,0.00000016,0.
 00000040,-0.00000035,-0.00000011,-0.00000806,0.00001152,0.00000254,0.0
 0001744,0.00000433,0.00000358,-0.00000800,-0.00000006,-0.00000214,0.00
 000068,0.00000893,0.00000247,0.00000033,-0.00000978,-0.00000242,0.0000
 0235,-0.00000897,-0.00000265,-0.00000002,-0.00000003,-0.00000018,0.000
 00027,-0.00000007,0.,0.00000010,0.00000011,0.00000002,-0.00000046,0.00
 000015,0.00000004,-0.00001195,-0.00000989,-0.00000305,0.00000469,-0.00
 000001,-0.00000205,-0.00000115,0.00000350,0.00000135,-0.00000971,0.000
 01165,0.00001045,-0.00004067,-0.00010695,0.00004255,-0.00007637,-0.000
 13888,-0.00010727,0.00000284,0.00000293,0.00000007,-0.00000159,-0.0000
 0070,0.00000096,0.00000017,0.00000079,-0.00000051,0.00000204,-0.000003
 19,0.00000044,-0.00000068,-0.00000041,0.00000022,-0.00000743,-0.000002
 99,0.00000262,-0.00000064,0.00000181,-0.00000504,0.00005221,-0.0000439
 4,-0.00000746,0.00000044,0.00000024,0.00000113,-0.00015733,-0.00017054
 ,0.00020195,-0.00001123,0.00003348,-0.00003702,-0.00119936,0.00114553,
 0.00121241,0.00037542,-0.00091530,0.00020676,0.00005721,-0.00014894,0.
 00001312,0.00787859,0.03050478,-0.00990952,0.01573517,0.06598077,-0.06
 639661,0.00276440,-0.00043973,-0.00576994,-0.00081727,0.00000029,0.001
 14344,-0.00367769,-0.02015754,0.00617591,-0.00088119,-0.00128366,-0.00
 053170,-0.01998667,-0.07426833,0.07375489\\0.00000266,0.00000169,0.000
 00090,-0.00000039,-0.00000155,0.00000036,0.00000383,-0.00000112,-0.000
 00007,-0.00000436,0.00000134,-0.00000315,0.00000225,-0.00000709,0.0000
 0101,-0.00000471,0.00000063,0.00000047,0.00001006,-0.00000680,-0.00000
 296,-0.00000459,0.00000488,0.00001013,-0.00000555,0.00000186,-0.000003
 52,0.00000507,0.00001642,0.00000448,-0.00000305,0.00000518,0.00000393,
 -0.00000860,-0.00001057,-0.00000383,0.00000115,-0.00000054,0.00000035,
 -0.00000002,-0.00000085,-0.00000018,-0.00000036,-0.00000051,0.00000111
 ,0.00000080,-0.00000141,0.00000005,-0.00000040,0.00000068,-0.00000281,
 0.00000514,0.00000299,-0.00000241,0.00000040,0.00000155,0.00000319,0.0
 0000128,0.00000183,-0.00000032,0.00000058,-0.00000102,0.00000092,-0.00
 000089,0.00000009,-0.00000088,-0.00000009,-0.00000134,-0.00000218,0.00
 000148,-0.00000371,-0.00000014,0.00000047,-0.00000165,-0.00000060,0.00
 000058,-0.00000014,-0.00000060,-0.00000099,-0.00000250,0.00000116,-0.0
 0000120,-0.00000034,-0.00000030,0.00000010,0.00000032,-0.00000027,0.00
 000059,0.00000059,0.00000046,-0.00000074,-0.00000005,-0.00000093,-0.00
 000012,-0.00000025,-0.00000013,0.00000040,0.00000045,-0.00000018,0.000
 00042,-0.00000031,0.00000095,0.00000005,0.00000041,-0.00000040,-0.0000
 0049,-0.00000043,-0.00000028,-0.00000096,0.00000106,-0.00000048,0.0000
 0023,0.00000007,-0.00000077,-0.00000027,-0.00000042,-0.00000031,0.0000
 0038,0.00000060,-0.00000044,-0.00000050,-0.00000029,-0.00000029,0.0000
 0053,-0.00000014,-0.00000065,-0.00000018,0.00000040,-0.00000036\\\@


 ... UNTIL SCIENCE IS MIXED WITH EMOTION AND APPEALS TO THE HEART AND
 IMAGINATION , IT IS LIKE DEAD INORGANIC MATTER; AND WHEN IT IS SO MIXED
 AND SO TRANSFORMED IT IS LITERATURE.

                                  -- JOHN BURROUGHS
 Job cpu time:       0 days  9 hours 19 minutes 18.4 seconds.
 Elapsed time:       0 days  1 hours 18 minutes 15.5 seconds.
 File lengths (MBytes):  RWF=   2803 Int=      0 D2E=      0 Chk=     52 Scr=      1
 Normal termination of Gaussian 16 at Wed Dec 27 00:14:43 2023.
