
Running Job 1 of 1 066-rad-SM12.in
qchem 066-rad-SM12.in_1452127.0 /expanse/lustre/scratch/selhajj/temp_project/qcscratch/28445247/qchem1452127/ 0
/cm/shared/apps/spack/cpu/opt/spack/linux-centos8-zen2/gcc-10.2.0/qchem-5.4-akfmr7b3t57bfs6qan3padb2wnb2i7cl/exe/qcprog.exe_s 066-rad-SM12.in_1452127.0 /expanse/lustre/scratch/selhajj/temp_project/qcscratch/28445247/qchem1452127/
                  Welcome to Q-Chem
     A Quantum Leap Into The Future Of Chemistry


 Q-Chem 5.4, Q-Chem, Inc., Pleasanton, CA (2021)

 License issued to: University of California, San Diego (site)

 E. Epifanovsky,  A. T. B. Gilbert,  Xintian Feng,  Joonho Lee,  Yuezhi Mao,  
 N. Mardirossian,  P. Pokhilko,  A. White,  M. Wormit,  M. P. Coons,  
 A. L. Dempwolff,  Zhengting Gan,  D. Hait,  P. R. Horn,  L. D. Jacobson,  
 I. Kaliman,  J. Kussmann,  A. W. Lange,  Ka Un Lao,  D. S. Levine,  Jie Liu,  
 S. C. McKenzie,  A. F. Morrison,  K. Nanda,  F. Plasser,  D. R. Rehn,  
 M. L. Vidal,  Zhi-Qiang You,  Ying Zhu,  B. Alam,  B. Albrecht,  
 A. Aldossary,  E. Alguire,  J. H. Andersen,  D. Barton,  K. Begam,  A. Behn,  
 Y. A. Bernard,  E. J. Berquist,  H. Burton,  A. Carreras,  K. Carter-Fenk,  
 R. Chakraborty,  A. D. Chien,  K. D. Closser,  V. Cofer-Shabica,  
 S. Dasgupta,  Jia Deng,  M. de Wergifosse,  M. Diedenhofen,  Hainam Do,  
 S. Ehlert,  Po-Tung Fang,  S. Fatehi,  Qingguo Feng,  J. Gayvert,  
 Qinghui Ge,  G. Gidofalvi,  M. Goldey,  J. Gomes,  C. Gonzalez-Espinoza,  
 S. Gulania,  A. Gunina,  M. W. D. Hanson-Heine,  P. H. P. Harbach,  
 A. W. Hauser,  M. F. Herbst,  M. Hernandez Vera,  M. Hodecker,  
 Z. C. Holden,  S. Houck,  Xunkun Huang,  Kerwin Hui,  B. C. Huynh,  
 M. Ivanov,  Hyunjun Ji,  Hanjie Jiang,  B. Kaduk,  S. Kaehler,  
 K. Khistyaev,  Jaehoon Kim,  P. Klunzinger,  Z. Koczor-Benda,  
 Joong Hoon Koh,  D. Kosenkov,  L. Koulias,  T. Kowalczyk,  C. M. Krauter,  
 K. Kue,  A. Kunitsa,  T. Kus,  A. Landau,  K. V. Lawler,  D. Lefrancois,  
 S. Lehtola,  Rain Li,  Yi-Pei Li,  Jiashu Liang,  M. Liebenthal,  
 Hung-Hsuan Lin,  You-Sheng Lin,  Fenglai Liu,  Kuan-Yu Liu,  
 M. Loipersberger,  A. Luenser,  A. Manjanath,  P. Manohar,  E. Mansoor,  
 S. F. Manzer,  Shan-Ping Mao,  A. V. Marenich,  T. Markovich,  S. Mason,  
 S. A. Maurer,  P. F. McLaughlin,  M. F. S. J. Menger,  J.-M. Mewes,  
 S. A. Mewes,  P. Morgante,  J. W. Mullinax,  T. S. Nguyen-Beck,  
 K. J. Oosterbaan,  G. Paran,  Alexander C. Paul,  Suranjan K. Paul,  
 F. Pavosevic,  Zheng Pei,  S. Prager,  E. I. Proynov,  E. Ramos,  B. Rana,  
 A. E. Rask,  A. Rettig,  R. M. Richard,  F. Rob,  E. Rossomme,  T. Scheele,  
 M. Scheurer,  M. Schneider,  N. Sergueev,  S. M. Sharada,  W. Skomorowski,  
 D. W. Small,  C. J. Stein,  Yu-Chuan Su,  E. J. Sundstrom,  Zhen Tao,  
 J. Thirman,  T. Tsuchimochi,  N. M. Tubman,  S. P. Veccham,  O. Vydrov,  
 J. Wenzel,  J. Witte,  A. Yamada,  Kun Yao,  S. Yeganeh,  S. R. Yost,  
 A. Zech,  Igor Ying Zhang,  Xing Zhang,  Yu Zhang,  D. Zuev,  
 A. Aspuru-Guzik,  A. T. Bell,  N. A. Besley,  K. B. Bravaya,  B. R. Brooks,  
 D. Casanova,  Jeng-Da Chai,  S. Coriani,  C. J. Cramer,  
 A. E. DePrince, III,  R. A. DiStasio Jr.,  A. Dreuw,  B. D. Dunietz,  
 T. R. Furlani,  W. A. Goddard III,  S. Grimme,  S. Hammes-Schiffer,  
 T. Head-Gordon,  W. J. Hehre,  Chao-Ping Hsu,  T.-C. Jagau,  Yousung Jung,  
 A. Klamt,  Jing Kong,  D. S. Lambrecht,  WanZhen Liang,  N. J. Mayhall,  
 C. W. McCurdy,  J. B. Neaton,  C. Ochsenfeld,  J. A. Parkhill,  R. Peverati,  
 V. A. Rassolov,  Yihan Shao,  L. V. Slipchenko,  T. Stauch,  R. P. Steele,  
 J. E. Subotnik,  A. J. W. Thom,  A. Tkatchenko,  D. G. Truhlar,  
 T. Van Voorhis,  T. A. Wesolowski,  K. B. Whaley,  H. L. Woodcock III,  
 P. M. Zimmerman,  S. Faraji,  P. M. W. Gill,  M. Head-Gordon,  
 J. M. Herbert,  A. I. Krylov

 Contributors to earlier versions of Q-Chem not listed above: 
 R. D. Adamson,  B. Austin,  R. Baer,  J. Baker,  G. J. O. Beran,  
 K. Brandhorst,  S. T. Brown,  E. F. C. Byrd,  A. K. Chakraborty,  
 G. K. L. Chan,  Chun-Min Chang,  Yunqing Chen,  C.-L. Cheng,  
 Siu Hung Chien,  D. M. Chipman,  D. L. Crittenden,  H. Dachsel,  
 R. J. Doerksen,  A. D. Dutoi,  R. G. Edgar,  J. Fosso-Tande,  
 L. Fusti-Molnar,  D. Ghosh,  A. Ghysels,  A. Golubeva-Zadorozhnaya,  
 J. Gonthier,  M. S. Gordon,  S. R. Gwaltney,  G. Hawkins,  J. E. Herr,  
 A. Heyden,  S. Hirata,  E. G. Hohenstein,  G. Kedziora,  F. J. Keil,  
 C. Kelley,  Jihan Kim,  R. A. King,  R. Z. Khaliullin,  P. P. Korambath,  
 W. Kurlancheek,  A. Laurent,  A. M. Lee,  M. S. Lee,  S. V. Levchenko,  
 Ching Yeh Lin,  D. Liotard,  E. Livshits,  R. C. Lochan,  I. Lotan,  
 L. A. Martinez-Martinez,  P. E. Maslen,  N. Nair,  D. P. O'Neill,  
 D. Neuhauser,  E. Neuscamman,  C. M. Oana,  R. Olivares-Amaya,  R. Olson,  
 T. M. Perrine,  B. Peters,  P. A. Pieniazek,  A. Prociuk,  Y. M. Rhee,  
 J. Ritchie,  M. A. Rohrdanz,  E. Rosta,  N. J. Russ,  H. F. Schaefer III,  
 M. W. Schmidt,  N. E. Schultz,  S. Sharma,  N. Shenvi,  C. D. Sherrill,  
 A. C. Simmonett,  A. Sodt,  T. Stein,  D. Stuck,  K. S. Thanthiriwatte,  
 V. Vanovschi,  L. Vogt,  Tao Wang,  A. Warshel,  M. A. Watson,  
 C. F. Williams,  Q. Wu,  X. Xu,  Jun Yang,  W. Zhang,  Yan Zhao

 Please cite Q-Chem as follows:
 Y. Shao et al., Mol. Phys. 113, 184-215 (2015)
 DOI: 10.1080/00268976.2014.952696

 Q-Chem 5.4.0 for Intel X86 EM64T Linux

 Parts of Q-Chem use Armadillo 9.800.1 (Horizon Scraper).
 http://arma.sourceforge.net/

 Q-Chem begins on Sat Feb  3 11:12:26 2024  

 Host: 
0

     Scratch files written to /expanse/lustre/scratch/selhajj/temp_project/qcscratch/28445247/qchem1452127//
 May1621 |scratch|qcdevops|jenkins|workspace|build_RNUM    
 Processing $rem in /cm/shared/apps/spack/cpu/opt/spack/linux-centos8-zen2/gcc-10.2.0/qchem-5.4-akfmr7b3t57bfs6qan3padb2wnb2i7cl/config/preferences:
 Processing $rem in /home/selhajj/.qchemrc:
 Symmetry turned off for PCM/SM12/SMD calculation
 Method-specific promolecule density matrix will be built for SM12 calculation

 Checking the input file for inconsistencies... 	...done.

--------------------------------------------------------------
User input:
--------------------------------------------------------------
$molecule
-1 2
C                  1.2829130000     -0.5731710000      1.8459090000
C                  0.8736310000     -1.6009250000      0.9007440000
C                 -0.2502770000     -1.5078610000      0.1362730000
C                 -1.1426900000     -0.3627240000      0.1980480000
C                 -0.7508030000      0.6769060000      1.1234110000
C                  0.3927510000      0.5784560000      1.8838950000
O                  2.3025630000     -0.7002120000      2.5660450000
O                 -2.1867790000     -0.2809100000     -0.5046610000
S                  0.7970420000      1.9684550000      2.9504110000
C                  0.7712730000      1.3190180000      4.6473000000
C                 -0.3845890000      1.4861430000      5.4068940000
C                  1.9045210000      0.7025670000      5.1732820000
C                  1.8699360000      0.2436650000      6.4889430000
C                 -0.4078110000      1.0208690000      6.7206430000
C                  0.7187890000      0.4008680000      7.2614860000
O                  2.1589250000      2.4553900000      2.6870550000
O                 -0.3243120000      2.9279570000      2.8753120000
H                  1.5244090000     -2.4687460000      0.8453920000
H                 -0.5256040000     -2.2994450000     -0.5548940000
H                 -1.3842480000      1.5522890000      1.1993550000
H                 -1.2397160000      1.9852920000      4.9684630000
H                  2.7735170000      0.5689650000      4.5442310000
H                  2.7441430000     -0.2422930000      6.9087640000
H                 -1.3024360000      1.1474810000      7.3210490000
H                  0.6987740000      0.0385070000      8.2842680000
$end

$rem
BASIS  =  6-311++G(d,p)
GUI  =  2
JOB_TYPE  =  SP
METHOD  =  B3LYP
SCF_CONVERGENCE  = 8
SOLVENT_METHOD = sm12
$end

$smx
solvent dimethylformamide
charges CM5
$end





--------------------------------------------------------------
 ----------------------------------------------------------------
             Standard Nuclear Orientation (Angstroms)
    I     Atom           X                Y                Z
 ----------------------------------------------------------------
    1      C       1.2829130000    -0.5731710000     1.8459090000
    2      C       0.8736310000    -1.6009250000     0.9007440000
    3      C      -0.2502770000    -1.5078610000     0.1362730000
    4      C      -1.1426900000    -0.3627240000     0.1980480000
    5      C      -0.7508030000     0.6769060000     1.1234110000
    6      C       0.3927510000     0.5784560000     1.8838950000
    7      O       2.3025630000    -0.7002120000     2.5660450000
    8      O      -2.1867790000    -0.2809100000    -0.5046610000
    9      S       0.7970420000     1.9684550000     2.9504110000
   10      C       0.7712730000     1.3190180000     4.6473000000
   11      C      -0.3845890000     1.4861430000     5.4068940000
   12      C       1.9045210000     0.7025670000     5.1732820000
   13      C       1.8699360000     0.2436650000     6.4889430000
   14      C      -0.4078110000     1.0208690000     6.7206430000
   15      C       0.7187890000     0.4008680000     7.2614860000
   16      O       2.1589250000     2.4553900000     2.6870550000
   17      O      -0.3243120000     2.9279570000     2.8753120000
   18      H       1.5244090000    -2.4687460000     0.8453920000
   19      H      -0.5256040000    -2.2994450000    -0.5548940000
   20      H      -1.3842480000     1.5522890000     1.1993550000
   21      H      -1.2397160000     1.9852920000     4.9684630000
   22      H       2.7735170000     0.5689650000     4.5442310000
   23      H       2.7441430000    -0.2422930000     6.9087640000
   24      H      -1.3024360000     1.1474810000     7.3210490000
   25      H       0.6987740000     0.0385070000     8.2842680000
 ----------------------------------------------------------------
 Nuclear Repulsion Energy =        1297.73656834 hartrees
 There are       65 alpha and       64 beta electrons
 Requested basis set is 6-311++G(d,p)
 There are 149 shells and 438 basis functions

 Total QAlloc Memory Limit   8000 MB
 Mega-Array Size       188 MB
 MEM_STATIC part       192 MB
 A cutoff of  1.0D-11 yielded   8625 shell pairs
 There are     76852 function pairs (     82390 Cartesian)
 Smallest overlap matrix eigenvalue = 6.86E-07

 Q-Chem warning in module stvman/mkSTV.C, line 323:

 Overlap eigenvalue is smaller than square root of threshold
 Use THRESH >= 12 to get rid of this warning

 Linear dependence detected in AO basis
 Tighter screening thresholds may be required for diffuse basis sets
 Use S2THRESH > 14 and THRESH = 14 in case of SCF convergence issues
 Number of orthogonalized atomic orbitals = 437
 Maximum deviation from orthogonality = 2.982E-10

 Scale SEOQF with 1.000000e-01/1.000000e-01/1.000000e-02

 Standard Electronic Orientation quadrupole field applied
 Nucleus-field energy     =     0.0000000075 hartrees
 ================ Generating on-the-fly Promolecule Density  ================
Attempting to make child job directory: /expanse/lustre/scratch/selhajj/temp_project/qcscratch/28445247/qchem1452127//Frg1/
Attempting to make child job directory: /expanse/lustre/scratch/selhajj/temp_project/qcscratch/28445247/qchem1452127//Frg2/
Attempting to make child job directory: /expanse/lustre/scratch/selhajj/temp_project/qcscratch/28445247/qchem1452127//Frg3/
Attempting to make child job directory: /expanse/lustre/scratch/selhajj/temp_project/qcscratch/28445247/qchem1452127//Frg4/
Creating input file /expanse/lustre/scratch/selhajj/temp_project/qcscratch/28445247/qchem1452127/Frg1.input
using default PutDataFrgm: nothing
calling putenv with: QCSCRATCH=/expanse/lustre/scratch/selhajj/temp_project/qcscratch/28445247/qchem1452127/ 
Spawning Job For Fragment 0
Done Job For Fragment 0
calling putenv with: QCSCRATCH=/expanse/lustre/scratch/selhajj/temp_project/qcscratch/28445247 
calling putenv with: QCTHREADS=8 
Creating input file /expanse/lustre/scratch/selhajj/temp_project/qcscratch/28445247/qchem1452127/Frg2.input
using default PutDataFrgm: nothing
calling putenv with: QCSCRATCH=/expanse/lustre/scratch/selhajj/temp_project/qcscratch/28445247/qchem1452127/ 
Spawning Job For Fragment 1
Done Job For Fragment 1
calling putenv with: QCSCRATCH=/expanse/lustre/scratch/selhajj/temp_project/qcscratch/28445247 
calling putenv with: QCTHREADS=8 
Creating input file /expanse/lustre/scratch/selhajj/temp_project/qcscratch/28445247/qchem1452127/Frg3.input
using default PutDataFrgm: nothing
calling putenv with: QCSCRATCH=/expanse/lustre/scratch/selhajj/temp_project/qcscratch/28445247/qchem1452127/ 
Spawning Job For Fragment 2
Done Job For Fragment 2
calling putenv with: QCSCRATCH=/expanse/lustre/scratch/selhajj/temp_project/qcscratch/28445247 
calling putenv with: QCTHREADS=8 
Creating input file /expanse/lustre/scratch/selhajj/temp_project/qcscratch/28445247/qchem1452127/Frg4.input
using default PutDataFrgm: nothing
calling putenv with: QCSCRATCH=/expanse/lustre/scratch/selhajj/temp_project/qcscratch/28445247/qchem1452127/ 
Spawning Job For Fragment 3
Done Job For Fragment 3
calling putenv with: QCSCRATCH=/expanse/lustre/scratch/selhajj/temp_project/qcscratch/28445247 
calling putenv with: QCTHREADS=8 
 Time for running child jobs:  CPU 0.01 s  wall 4.95 s
 ============= Method Specific Promolecule Density Constructed =============
 Guess from superposition of atomic densities
 Warning:  Energy on first SCF cycle will be non-variational
 SAD guess density has 128.000000 electrons

 -----------------------------------------------------------------------
  General SCF calculation program by
  Eric Jon Sundstrom, Paul Horn, Yuezhi Mao, Dmitri Zuev, Alec White,
  David Stuck, Shaama M.S., Shane Yost, Joonho Lee, David Small,
  Daniel Levine, Susi Lehtola, Hugh Burton, Evgeny Epifanovsky,
  Bang C. Huynh
 -----------------------------------------------------------------------
 Exchange:     0.2000 Hartree-Fock + 0.0800 Slater + 0.7200 B88
 Correlation:  0.1900 VWN1RPA + 0.8100 LYP
 Using SG-1 standard quadrature grid
 using 8 threads for integral computing
 -------------------------------------------------------
 OpenMP Integral computing Module                
 Release: version 1.0, May 2013, Q-Chem Inc. Pittsburgh 
 -------------------------------------------------------
 
 SM12 calculation using CM5 charges
 Citation of the SM12 model:
 Marenich, A.V.; Cramer, C.J.; Truhlar, D.G.
 J. Chem. Theory Comput. 2013, 9, 609-612.
 iSolventCode=          91
 Solvent: dimethylformamide                                               
 
Hirshfeld: reading atomic densities from disk.
warning:  vdwdata pointer should have been initialzed before dftman
 Inaccurate integrated density:
   Number of electrons =   129
   Numerical integral  =   127.999643189165
   Relative error      =    -0.7754703960 %

 Charges (in A.U.) from CM5PAC (Nov. 11, 2011)
 -----------------------------------------------
 Center     Atomic      CM5         Hirshfeld
 Number     Number      Charge      Charge
 -----------------------------------------------
    1          6        0.035383    0.005343
    2          6       -0.049677   -0.000003
    3          6       -0.049638    0.000156
    4          6        0.031906    0.006368
    5          6       -0.044860   -0.000029
    6          6        0.013160    0.001446
    7          8       -0.065357   -0.019163
    8          8       -0.057334   -0.015353
    9         16        0.089650    0.041714
   10          6        0.005315   -0.000640
   11          6       -0.054079   -0.003261
   12          6       -0.052766   -0.001951
   13          6       -0.058485   -0.003213
   14          6       -0.058711   -0.003399
   15          6       -0.058736   -0.003249
   16          8       -0.061559   -0.016683
   17          8       -0.070443   -0.019363
   18          1        0.063017    0.004448
   19          1        0.062633    0.004368
   20          1        0.069779    0.004936
   21          1        0.065210    0.003718
   22          1        0.069781    0.005029
   23          1        0.058843    0.003086
   24          1        0.058702    0.003029
   25          1        0.058620    0.003024
 -----------------------------------------------

 Dipole moment (in Debye)
 -----------------------------------------------
                 X        Y        Z     Total
 -----------------------------------------------
 CM5         -0.2157  -0.9328   0.3662   1.0251
 Hirshfeld   -0.0154  -0.0744   0.0678   0.1018
 -----------------------------------------------

 A unrestricted SCF calculation will be
 performed using DIIS
 SCF converges when DIIS error is below 1.0e-08
 ---------------------------------------
  Cycle       Energy         DIIS error
 ---------------------------------------
Hirshfeld: reading atomic densities from disk.

 Charges (in A.U.) from CM5PAC (Nov. 11, 2011)
 -----------------------------------------------
 Center     Atomic      CM5         Hirshfeld
 Number     Number      Charge      Charge
 -----------------------------------------------
    1          6        0.246869    0.216829
    2          6       -0.194380   -0.144706
    3          6       -0.193082   -0.143288
    4          6        0.223348    0.197809
    5          6       -0.192746   -0.147915
    6          6       -0.011706   -0.023420
    7          8       -0.603348   -0.557155
    8          8       -0.646004   -0.604023
    9         16        1.193129    1.145194
   10          6       -0.012861   -0.018816
   11          6       -0.170972   -0.120154
   12          6       -0.181268   -0.130453
   13          6       -0.172204   -0.116932
   14          6       -0.170039   -0.114728
   15          6       -0.172697   -0.117209
   16          8       -0.662934   -0.618058
   17          8       -0.651652   -0.600573
   18          1        0.170574    0.112005
   19          1        0.171118    0.112852
   20          1        0.160895    0.096052
   21          1        0.171158    0.109666
   22          1        0.161736    0.096984
   23          1        0.178455    0.122698
   24          1        0.179376    0.123703
   25          1        0.179204    0.123608
 -----------------------------------------------

 Dipole moment (in Debye)
 -----------------------------------------------
                 X        Y        Z     Total
 -----------------------------------------------
 CM5         -1.2801  -4.7424  -4.2028   6.4647
 Hirshfeld   -1.0798  -3.8839  -4.5012   6.0425
 -----------------------------------------------

    1   -1165.3990070307      1.60e-02  
Hirshfeld: reading atomic densities from disk.

 Charges (in A.U.) from CM5PAC (Nov. 11, 2011)
 -----------------------------------------------
 Center     Atomic      CM5         Hirshfeld
 Number     Number      Charge      Charge
 -----------------------------------------------
    1          6       -0.229262   -0.259302
    2          6       -0.047523    0.002150
    3          6       -0.033481    0.016313
    4          6       -0.180419   -0.205957
    5          6       -0.115366   -0.070535
    6          6       -0.405580   -0.417294
    7          8        0.144001    0.190194
    8          8        0.128875    0.170857
    9         16       -0.756275   -0.804211
   10          6       -0.227881   -0.233836
   11          6       -0.014231    0.036586
   12          6        0.022623    0.073438
   13          6        0.035102    0.090374
   14          6        0.025395    0.080707
   15          6        0.056671    0.112159
   16          8        0.218502    0.263378
   17          8        0.179519    0.230599
   18          1        0.024303   -0.034266
   19          1        0.013153   -0.045113
   20          1        0.020792   -0.044051
   21          1        0.029696   -0.031797
   22          1        0.030163   -0.034589
   23          1        0.027092   -0.028665
   24          1        0.028530   -0.027144
   25          1        0.025669   -0.029927
 -----------------------------------------------

 Dipole moment (in Debye)
 -----------------------------------------------
                 X        Y        Z     Total
 -----------------------------------------------
 CM5         -1.2544  -3.6323  -7.2097   8.1699
 Hirshfeld   -1.0541  -2.7738  -7.5081   8.0733
 -----------------------------------------------

    2   -1160.9068760028      2.48e-03  
Hirshfeld: reading atomic densities from disk.

 Charges (in A.U.) from CM5PAC (Nov. 11, 2011)
 -----------------------------------------------
 Center     Atomic      CM5         Hirshfeld
 Number     Number      Charge      Charge
 -----------------------------------------------
    1          6        0.127719    0.097679
    2          6       -0.072815   -0.023141
    3          6       -0.089430   -0.039636
    4          6        0.070677    0.045139
    5          6       -0.040719    0.004112
    6          6        0.122174    0.110460
    7          8       -0.457917   -0.411724
    8          8       -0.539867   -0.497886
    9         16        0.563334    0.515399
   10          6        0.079199    0.073244
   11          6       -0.058648   -0.007831
   12          6       -0.053508   -0.002693
   13          6       -0.090179   -0.034908
   14          6       -0.091304   -0.035993
   15          6       -0.092425   -0.036937
   16          8       -0.488931   -0.444055
   17          8       -0.470356   -0.419277
   18          1        0.059302    0.000733
   19          1        0.059742    0.001476
   20          1        0.061281   -0.003562
   21          1        0.078430    0.016938
   22          1        0.081720    0.016968
   23          1        0.080354    0.024597
   24          1        0.080222    0.024549
   25          1        0.081939    0.026343
 -----------------------------------------------

 Dipole moment (in Debye)
 -----------------------------------------------
                 X        Y        Z     Total
 -----------------------------------------------
 CM5         -0.7044  -4.2463  -4.6752   6.3549
 Hirshfeld   -0.5040  -3.3879  -4.9736   6.0389
 -----------------------------------------------

    3   -1159.8596993502      4.59e-03  
Hirshfeld: reading atomic densities from disk.

 Charges (in A.U.) from CM5PAC (Nov. 11, 2011)
 -----------------------------------------------
 Center     Atomic      CM5         Hirshfeld
 Number     Number      Charge      Charge
 -----------------------------------------------
    1          6        0.076565    0.046524
    2          6       -0.131315   -0.081641
    3          6       -0.116032   -0.066238
    4          6        0.078996    0.053458
    5          6       -0.125986   -0.081155
    6          6       -0.116192   -0.127906
    7          8       -0.363520   -0.317327
    8          8       -0.381303   -0.339322
    9         16        0.544459    0.496523
   10          6       -0.061502   -0.067457
   11          6       -0.100514   -0.049696
   12          6       -0.094591   -0.043776
   13          6       -0.086505   -0.031233
   14          6       -0.089137   -0.033826
   15          6       -0.076671   -0.021183
   16          8       -0.393295   -0.348419
   17          8       -0.399466   -0.348387
   18          1        0.096400    0.037831
   19          1        0.093644    0.035378
   20          1        0.100756    0.035913
   21          1        0.109042    0.047550
   22          1        0.110081    0.045329
   23          1        0.108647    0.052890
   24          1        0.108687    0.053014
   25          1        0.108762    0.053166
 -----------------------------------------------

 Dipole moment (in Debye)
 -----------------------------------------------
                 X        Y        Z     Total
 -----------------------------------------------
 CM5         -1.5660  -4.3073  -5.1538   6.8969
 Hirshfeld   -1.3656  -3.4489  -5.4523   6.5945
 -----------------------------------------------

    4   -1161.3392012574      8.04e-04  
Hirshfeld: reading atomic densities from disk.

 Charges (in A.U.) from CM5PAC (Nov. 11, 2011)
 -----------------------------------------------
 Center     Atomic      CM5         Hirshfeld
 Number     Number      Charge      Charge
 -----------------------------------------------
    1          6        0.097237    0.067197
    2          6       -0.112734   -0.063060
    3          6       -0.123238   -0.073444
    4          6        0.076947    0.051408
    5          6       -0.116071   -0.071240
    6          6       -0.055102   -0.066816
    7          8       -0.374008   -0.327814
    8          8       -0.434641   -0.392659
    9         16        0.499335    0.451400
   10          6       -0.029462   -0.035417
   11          6       -0.088727   -0.037910
   12          6       -0.081592   -0.030777
   13          6       -0.093558   -0.038286
   14          6       -0.095678   -0.040367
   15          6       -0.090146   -0.034658
   16          8       -0.399420   -0.354544
   17          8       -0.392391   -0.341312
   18          1        0.092305    0.033736
   19          1        0.091591    0.033325
   20          1        0.096002    0.031159
   21          1        0.105454    0.043962
   22          1        0.105951    0.041199
   23          1        0.106870    0.051113
   24          1        0.107012    0.051339
   25          1        0.108070    0.052474
 -----------------------------------------------

 Dipole moment (in Debye)
 -----------------------------------------------
                 X        Y        Z     Total
 -----------------------------------------------
 CM5         -0.9876  -4.2938  -4.8277   6.5359
 Hirshfeld   -0.7872  -3.4354  -5.1261   6.2208
 -----------------------------------------------

    5   -1161.3946509096      2.46e-04  
Hirshfeld: reading atomic densities from disk.

 Charges (in A.U.) from CM5PAC (Nov. 11, 2011)
 -----------------------------------------------
 Center     Atomic      CM5         Hirshfeld
 Number     Number      Charge      Charge
 -----------------------------------------------
    1          6        0.087617    0.057576
    2          6       -0.120535   -0.070862
    3          6       -0.114496   -0.064702
    4          6        0.072125    0.046587
    5          6       -0.109926   -0.065095
    6          6       -0.059377   -0.071091
    7          8       -0.382060   -0.335867
    8          8       -0.409531   -0.367550
    9         16        0.524684    0.476748
   10          6       -0.027111   -0.033066
   11          6       -0.090694   -0.039877
   12          6       -0.084625   -0.033810
   13          6       -0.090418   -0.035146
   14          6       -0.092446   -0.037135
   15          6       -0.084093   -0.028605
   16          8       -0.408242   -0.363366
   17          8       -0.408677   -0.357597
   18          1        0.090619    0.032050
   19          1        0.088918    0.030652
   20          1        0.093910    0.029067
   21          1        0.104171    0.042679
   22          1        0.104754    0.040002
   23          1        0.104822    0.049065
   24          1        0.104924    0.049251
   25          1        0.105693    0.050097
 -----------------------------------------------

 Dipole moment (in Debye)
 -----------------------------------------------
                 X        Y        Z     Total
 -----------------------------------------------
 CM5         -1.4103  -4.3237  -5.0559   6.8004
 Hirshfeld   -1.2099  -3.4653  -5.3544   6.4916
 -----------------------------------------------

    6   -1161.4004328122      9.68e-05  
Hirshfeld: reading atomic densities from disk.

 Charges (in A.U.) from CM5PAC (Nov. 11, 2011)
 -----------------------------------------------
 Center     Atomic      CM5         Hirshfeld
 Number     Number      Charge      Charge
 -----------------------------------------------
    1          6        0.089203    0.059162
    2          6       -0.117256   -0.067582
    3          6       -0.115894   -0.066100
    4          6        0.075556    0.050017
    5          6       -0.110762   -0.065931
    6          6       -0.061634   -0.073348
    7          8       -0.376781   -0.330588
    8          8       -0.419889   -0.377907
    9         16        0.525968    0.478033
   10          6       -0.030595   -0.036550
   11          6       -0.091013   -0.040196
   12          6       -0.084644   -0.033829
   13          6       -0.090230   -0.034958
   14          6       -0.092412   -0.037101
   15          6       -0.084020   -0.028532
   16          8       -0.407406   -0.362530
   17          8       -0.405513   -0.354434
   18          1        0.090072    0.031503
   19          1        0.088708    0.030442
   20          1        0.093989    0.029146
   21          1        0.104195    0.042703
   22          1        0.104882    0.040130
   23          1        0.104833    0.049076
   24          1        0.104934    0.049260
   25          1        0.105715    0.050119
 -----------------------------------------------

 Dipole moment (in Debye)
 -----------------------------------------------
                 X        Y        Z     Total
 -----------------------------------------------
 CM5         -1.2422  -4.3093  -4.9607   6.6874
 Hirshfeld   -1.0419  -3.4508  -5.2591   6.3759
 -----------------------------------------------

    7   -1161.4011896441      4.10e-05  
Hirshfeld: reading atomic densities from disk.

 Charges (in A.U.) from CM5PAC (Nov. 11, 2011)
 -----------------------------------------------
 Center     Atomic      CM5         Hirshfeld
 Number     Number      Charge      Charge
 -----------------------------------------------
    1          6        0.091050    0.061010
    2          6       -0.117745   -0.068071
    3          6       -0.117090   -0.067296
    4          6        0.074330    0.048792
    5          6       -0.111329   -0.066498
    6          6       -0.059858   -0.071572
    7          8       -0.380488   -0.334294
    8          8       -0.416660   -0.374678
    9         16        0.524334    0.476399
   10          6       -0.029041   -0.034996
   11          6       -0.090172   -0.039355
   12          6       -0.083947   -0.033132
   13          6       -0.091021   -0.035749
   14          6       -0.093116   -0.037804
   15          6       -0.085469   -0.029981
   16          8       -0.407353   -0.362477
   17          8       -0.405323   -0.354243
   18          1        0.090312    0.031743
   19          1        0.088953    0.030687
   20          1        0.094182    0.029339
   21          1        0.104276    0.042784
   22          1        0.105006    0.040254
   23          1        0.105039    0.049282
   24          1        0.105128    0.049454
   25          1        0.106006    0.050410
 -----------------------------------------------

 Dipole moment (in Debye)
 -----------------------------------------------
                 X        Y        Z     Total
 -----------------------------------------------
 CM5         -1.2969  -4.2918  -5.0014   6.7168
 Hirshfeld   -1.0965  -3.4334  -5.2999   6.4093
 -----------------------------------------------

    8   -1161.4012864307      1.34e-05  
Hirshfeld: reading atomic densities from disk.

 Charges (in A.U.) from CM5PAC (Nov. 11, 2011)
 -----------------------------------------------
 Center     Atomic      CM5         Hirshfeld
 Number     Number      Charge      Charge
 -----------------------------------------------
    1          6        0.089379    0.059339
    2          6       -0.118444   -0.068770
    3          6       -0.116568   -0.066774
    4          6        0.074511    0.048973
    5          6       -0.110769   -0.065938
    6          6       -0.060022   -0.071736
    7          8       -0.377832   -0.331639
    8          8       -0.417275   -0.375293
    9         16        0.524670    0.476735
   10          6       -0.028950   -0.034905
   11          6       -0.090608   -0.039791
   12          6       -0.084285   -0.033470
   13          6       -0.090755   -0.035483
   14          6       -0.092881   -0.037570
   15          6       -0.084820   -0.029333
   16          8       -0.407874   -0.362998
   17          8       -0.406315   -0.355236
   18          1        0.090304    0.031735
   19          1        0.088927    0.030661
   20          1        0.094240    0.029397
   21          1        0.104322    0.042830
   22          1        0.105010    0.040258
   23          1        0.105004    0.049247
   24          1        0.105100    0.049426
   25          1        0.105938    0.050342
 -----------------------------------------------

 Dipole moment (in Debye)
 -----------------------------------------------
                 X        Y        Z     Total
 -----------------------------------------------
 CM5         -1.2797  -4.3094  -4.9812   6.7098
 Hirshfeld   -1.0793  -3.4510  -5.2796   6.3992
 -----------------------------------------------

    9   -1161.4013716100      8.31e-06  
Hirshfeld: reading atomic densities from disk.

 Charges (in A.U.) from CM5PAC (Nov. 11, 2011)
 -----------------------------------------------
 Center     Atomic      CM5         Hirshfeld
 Number     Number      Charge      Charge
 -----------------------------------------------
    1          6        0.089922    0.059882
    2          6       -0.117802   -0.068128
    3          6       -0.116646   -0.066852
    4          6        0.074456    0.048918
    5          6       -0.110801   -0.065970
    6          6       -0.060204   -0.071918
    7          8       -0.378871   -0.332677
    8          8       -0.417026   -0.375045
    9         16        0.524687    0.476751
   10          6       -0.029346   -0.035300
   11          6       -0.090604   -0.039787
   12          6       -0.084353   -0.033538
   13          6       -0.090729   -0.035457
   14          6       -0.092838   -0.037527
   15          6       -0.084803   -0.029316
   16          8       -0.407755   -0.362878
   17          8       -0.405726   -0.354646
   18          1        0.090160    0.031591
   19          1        0.088806    0.030540
   20          1        0.094172    0.029329
   21          1        0.104299    0.042807
   22          1        0.104993    0.040241
   23          1        0.104994    0.049237
   24          1        0.105090    0.049416
   25          1        0.105930    0.050334
 -----------------------------------------------

 Dipole moment (in Debye)
 -----------------------------------------------
                 X        Y        Z     Total
 -----------------------------------------------
 CM5         -1.2896  -4.3030  -4.9892   6.7135
 Hirshfeld   -1.0892  -3.4446  -5.2876   6.4039
 -----------------------------------------------

   10   -1161.4013480261      4.64e-06  
Hirshfeld: reading atomic densities from disk.

 Charges (in A.U.) from CM5PAC (Nov. 11, 2011)
 -----------------------------------------------
 Center     Atomic      CM5         Hirshfeld
 Number     Number      Charge      Charge
 -----------------------------------------------
    1          6        0.089941    0.059901
    2          6       -0.117974   -0.068300
    3          6       -0.116886   -0.067092
    4          6        0.074338    0.048800
    5          6       -0.110956   -0.066125
    6          6       -0.060052   -0.071766
    7          8       -0.378508   -0.332315
    8          8       -0.416912   -0.374931
    9         16        0.524806    0.476871
   10          6       -0.029060   -0.035015
   11          6       -0.090464   -0.039647
   12          6       -0.084155   -0.033340
   13          6       -0.090869   -0.035597
   14          6       -0.092989   -0.037677
   15          6       -0.085097   -0.029609
   16          8       -0.407704   -0.362828
   17          8       -0.405896   -0.354816
   18          1        0.090173    0.031604
   19          1        0.088830    0.030564
   20          1        0.094164    0.029321
   21          1        0.104274    0.042782
   22          1        0.104971    0.040219
   23          1        0.104994    0.049237
   24          1        0.105091    0.049418
   25          1        0.105946    0.050350
 -----------------------------------------------

 Dipole moment (in Debye)
 -----------------------------------------------
                 X        Y        Z     Total
 -----------------------------------------------
 CM5         -1.2837  -4.3007  -4.9903   6.7117
 Hirshfeld   -1.0834  -3.4422  -5.2887   6.4026
 -----------------------------------------------

   11   -1161.4013580601      1.35e-06  
Hirshfeld: reading atomic densities from disk.

 Charges (in A.U.) from CM5PAC (Nov. 11, 2011)
 -----------------------------------------------
 Center     Atomic      CM5         Hirshfeld
 Number     Number      Charge      Charge
 -----------------------------------------------
    1          6        0.089898    0.059857
    2          6       -0.118003   -0.068330
    3          6       -0.116774   -0.066980
    4          6        0.074429    0.048891
    5          6       -0.110827   -0.065996
    6          6       -0.060127   -0.071841
    7          8       -0.378621   -0.332428
    8          8       -0.416925   -0.374944
    9         16        0.524707    0.476771
   10          6       -0.029204   -0.035159
   11          6       -0.090505   -0.039687
   12          6       -0.084233   -0.033418
   13          6       -0.090798   -0.035527
   14          6       -0.092911   -0.037600
   15          6       -0.084963   -0.029476
   16          8       -0.407730   -0.362854
   17          8       -0.405815   -0.354735
   18          1        0.090170    0.031601
   19          1        0.088819    0.030553
   20          1        0.094163    0.029320
   21          1        0.104280    0.042788
   22          1        0.104977    0.040225
   23          1        0.104988    0.049231
   24          1        0.105083    0.049410
   25          1        0.105930    0.050334
 -----------------------------------------------

 Dipole moment (in Debye)
 -----------------------------------------------
                 X        Y        Z     Total
 -----------------------------------------------
 CM5         -1.2875  -4.3014  -4.9903   6.7129
 Hirshfeld   -1.0871  -3.4429  -5.2887   6.4036
 -----------------------------------------------

   12   -1161.4013721886      8.29e-07  
Hirshfeld: reading atomic densities from disk.

 Charges (in A.U.) from CM5PAC (Nov. 11, 2011)
 -----------------------------------------------
 Center     Atomic      CM5         Hirshfeld
 Number     Number      Charge      Charge
 -----------------------------------------------
    1          6        0.089903    0.059862
    2          6       -0.117925   -0.068251
    3          6       -0.116789   -0.066995
    4          6        0.074387    0.048849
    5          6       -0.110878   -0.066047
    6          6       -0.060129   -0.071843
    7          8       -0.378611   -0.332418
    8          8       -0.416909   -0.374928
    9         16        0.524726    0.476791
   10          6       -0.029178   -0.035132
   11          6       -0.090525   -0.039708
   12          6       -0.084238   -0.033423
   13          6       -0.090799   -0.035527
   14          6       -0.092916   -0.037605
   15          6       -0.084961   -0.029474
   16          8       -0.407718   -0.362842
   17          8       -0.405838   -0.354759
   18          1        0.090164    0.031595
   19          1        0.088816    0.030551
   20          1        0.094168    0.029325
   21          1        0.104280    0.042788
   22          1        0.104977    0.040224
   23          1        0.104988    0.049231
   24          1        0.105084    0.049411
   25          1        0.105930    0.050334
 -----------------------------------------------

 Dipole moment (in Debye)
 -----------------------------------------------
                 X        Y        Z     Total
 -----------------------------------------------
 CM5         -1.2865  -4.3019  -4.9902   6.7130
 Hirshfeld   -1.0861  -3.4435  -5.2887   6.4037
 -----------------------------------------------

   13   -1161.4013672666      2.05e-07  
Hirshfeld: reading atomic densities from disk.

 Charges (in A.U.) from CM5PAC (Nov. 11, 2011)
 -----------------------------------------------
 Center     Atomic      CM5         Hirshfeld
 Number     Number      Charge      Charge
 -----------------------------------------------
    1          6        0.089895    0.059854
    2          6       -0.117961   -0.068287
    3          6       -0.116784   -0.066990
    4          6        0.074407    0.048869
    5          6       -0.110855   -0.066024
    6          6       -0.060128   -0.071842
    7          8       -0.378616   -0.332423
    8          8       -0.416908   -0.374927
    9         16        0.524731    0.476796
   10          6       -0.029180   -0.035135
   11          6       -0.090515   -0.039698
   12          6       -0.084234   -0.033419
   13          6       -0.090805   -0.035533
   14          6       -0.092919   -0.037608
   15          6       -0.084973   -0.029485
   16          8       -0.407730   -0.362854
   17          8       -0.405827   -0.354747
   18          1        0.090167    0.031598
   19          1        0.088817    0.030551
   20          1        0.094166    0.029323
   21          1        0.104279    0.042787
   22          1        0.104976    0.040224
   23          1        0.104989    0.049232
   24          1        0.105085    0.049411
   25          1        0.105931    0.050335
 -----------------------------------------------

 Dipole moment (in Debye)
 -----------------------------------------------
                 X        Y        Z     Total
 -----------------------------------------------
 CM5         -1.2871  -4.3016  -4.9906   6.7131
 Hirshfeld   -1.0868  -3.4431  -5.2890   6.4039
 -----------------------------------------------

   14   -1161.4013670394      1.12e-07  
Hirshfeld: reading atomic densities from disk.

 Charges (in A.U.) from CM5PAC (Nov. 11, 2011)
 -----------------------------------------------
 Center     Atomic      CM5         Hirshfeld
 Number     Number      Charge      Charge
 -----------------------------------------------
    1          6        0.089903    0.059863
    2          6       -0.117958   -0.068284
    3          6       -0.116788   -0.066994
    4          6        0.074409    0.048871
    5          6       -0.110857   -0.066026
    6          6       -0.060127   -0.071841
    7          8       -0.378620   -0.332427
    8          8       -0.416909   -0.374927
    9         16        0.524730    0.476795
   10          6       -0.029187   -0.035142
   11          6       -0.090518   -0.039701
   12          6       -0.084235   -0.033420
   13          6       -0.090801   -0.035529
   14          6       -0.092917   -0.037605
   15          6       -0.084967   -0.029479
   16          8       -0.407722   -0.362846
   17          8       -0.405838   -0.354758
   18          1        0.090166    0.031597
   19          1        0.088818    0.030552
   20          1        0.094166    0.029323
   21          1        0.104279    0.042787
   22          1        0.104976    0.040224
   23          1        0.104988    0.049231
   24          1        0.105084    0.049410
   25          1        0.105930    0.050334
 -----------------------------------------------

 Dipole moment (in Debye)
 -----------------------------------------------
                 X        Y        Z     Total
 -----------------------------------------------
 CM5         -1.2870  -4.3017  -4.9906   6.7132
 Hirshfeld   -1.0866  -3.4433  -5.2890   6.4039
 -----------------------------------------------

   15   -1161.4013678826      4.66e-08  
Hirshfeld: reading atomic densities from disk.

 Charges (in A.U.) from CM5PAC (Nov. 11, 2011)
 -----------------------------------------------
 Center     Atomic      CM5         Hirshfeld
 Number     Number      Charge      Charge
 -----------------------------------------------
    1          6        0.089899    0.059859
    2          6       -0.117955   -0.068281
    3          6       -0.116787   -0.066993
    4          6        0.074408    0.048869
    5          6       -0.110857   -0.066026
    6          6       -0.060129   -0.071843
    7          8       -0.378619   -0.332426
    8          8       -0.416906   -0.374925
    9         16        0.524731    0.476796
   10          6       -0.029181   -0.035136
   11          6       -0.090517   -0.039700
   12          6       -0.084235   -0.033420
   13          6       -0.090803   -0.035531
   14          6       -0.092918   -0.037607
   15          6       -0.084970   -0.029482
   16          8       -0.407730   -0.362854
   17          8       -0.405832   -0.354752
   18          1        0.090166    0.031597
   19          1        0.088818    0.030552
   20          1        0.094167    0.029324
   21          1        0.104279    0.042787
   22          1        0.104977    0.040224
   23          1        0.104988    0.049231
   24          1        0.105084    0.049410
   25          1        0.105930    0.050334
 -----------------------------------------------

 Dipole moment (in Debye)
 -----------------------------------------------
                 X        Y        Z     Total
 -----------------------------------------------
 CM5         -1.2871  -4.3017  -4.9906   6.7132
 Hirshfeld   -1.0867  -3.4433  -5.2891   6.4040
 -----------------------------------------------

   16   -1161.4013678152      3.42e-08  
Hirshfeld: reading atomic densities from disk.

 Charges (in A.U.) from CM5PAC (Nov. 11, 2011)
 -----------------------------------------------
 Center     Atomic      CM5         Hirshfeld
 Number     Number      Charge      Charge
 -----------------------------------------------
    1          6        0.089897    0.059857
    2          6       -0.117956   -0.068282
    3          6       -0.116785   -0.066991
    4          6        0.074408    0.048870
    5          6       -0.110856   -0.066025
    6          6       -0.060129   -0.071843
    7          8       -0.378621   -0.332427
    8          8       -0.416906   -0.374925
    9         16        0.524730    0.476794
   10          6       -0.029181   -0.035136
   11          6       -0.090517   -0.039700
   12          6       -0.084235   -0.033420
   13          6       -0.090803   -0.035531
   14          6       -0.092919   -0.037607
   15          6       -0.084970   -0.029483
   16          8       -0.407726   -0.362850
   17          8       -0.405834   -0.354754
   18          1        0.090166    0.031597
   19          1        0.088818    0.030552
   20          1        0.094167    0.029324
   21          1        0.104279    0.042787
   22          1        0.104977    0.040224
   23          1        0.104988    0.049231
   24          1        0.105084    0.049411
   25          1        0.105930    0.050334
 -----------------------------------------------

 Dipole moment (in Debye)
 -----------------------------------------------
                 X        Y        Z     Total
 -----------------------------------------------
 CM5         -1.2871  -4.3017  -4.9907   6.7133
 Hirshfeld   -1.0868  -3.4432  -5.2891   6.4041
 -----------------------------------------------

   17   -1161.4013678890      1.38e-08  
   18   -1161.4013679726      8.89e-09  Convergence criterion met
 ---------------------------------------
 SCF time:   CPU 4451.78s  wall 567.00s 
<S^2> =          0.761701206
(1)  E-EN(liq) elect-nuc energy of solute              -1161.401367973 a.u.
(2)  G-P(liq) polarization free energy of solvation           -45.0300 kcal/mol
(3)  G-ENP(liq) elect-nuc-pol free energy of system    -1161.473127881 a.u.
(4)  G-CDS(liq) cavity-dispersion-solvent structure 
     free energy                                              -10.1463 kcal/mol
(5)  G-P-CDS(liq) = G-P(liq) + G-CDS(liq) = (2) + (4)         -55.1763 kcal/mol
(6)  G-S(liq) free energy of system = (1) + (5)        -1161.489297028 a.u.
 SCF   energy in the final basis set =    -1161.4892970283
 Total energy in the final basis set =    -1161.4892970283
 
 --------------------------------------------------------------
 
                    Orbital Energies (a.u.)
 --------------------------------------------------------------
 
 Alpha MOs
 -- Occupied --
-89.0491 -19.1135 -19.1134 -19.0895 -19.0892 -10.2429 -10.2334 -10.2146
-10.2063 -10.1972 -10.1934 -10.1934 -10.1919 -10.1906 -10.1895 -10.1828
-10.1821  -8.1129  -6.0756  -6.0746  -6.0739  -1.1060  -1.0162  -1.0096
 -1.0014  -0.8789  -0.8458  -0.7879  -0.7702  -0.7665  -0.7115  -0.6768
 -0.6274  -0.6242  -0.6045  -0.5760  -0.5396  -0.5017  -0.4953  -0.4848
 -0.4772  -0.4734  -0.4580  -0.4479  -0.4460  -0.4412  -0.4230  -0.4168
 -0.3987  -0.3913  -0.3842  -0.3828  -0.3807  -0.3633  -0.3386  -0.3241
 -0.3108  -0.3018  -0.2983  -0.2858  -0.2738  -0.2725  -0.2528  -0.2473
 -0.1789
 -- Virtual --
 -0.0543  -0.0297  -0.0287  -0.0256  -0.0157  -0.0105  -0.0015   0.0027
  0.0056   0.0126   0.0216   0.0243   0.0291   0.0385   0.0431   0.0487
  0.0506   0.0542   0.0592   0.0664   0.0698   0.0709   0.0761   0.0812
  0.0835   0.0898   0.0911   0.0926   0.0939   0.0970   0.0999   0.1049
  0.1073   0.1125   0.1137   0.1167   0.1190   0.1220   0.1287   0.1314
  0.1371   0.1393   0.1414   0.1476   0.1497   0.1548   0.1552   0.1628
  0.1659   0.1692   0.1711   0.1822   0.1878   0.1906   0.1950   0.1974
  0.2031   0.2095   0.2112   0.2177   0.2198   0.2240   0.2290   0.2324
  0.2362   0.2422   0.2451   0.2545   0.2576   0.2590   0.2653   0.2665
  0.2715   0.2753   0.2797   0.2862   0.2909   0.2965   0.2989   0.3066
  0.3111   0.3205   0.3245   0.3289   0.3345   0.3376   0.3462   0.3474
  0.3538   0.3573   0.3689   0.3694   0.3747   0.3784   0.3849   0.3903
  0.4011   0.4075   0.4151   0.4162   0.4301   0.4420   0.4644   0.4721
  0.4806   0.4880   0.5016   0.5214   0.5261   0.5340   0.5370   0.5422
  0.5458   0.5529   0.5555   0.5595   0.5687   0.5726   0.5818   0.5933
  0.6002   0.6044   0.6108   0.6143   0.6293   0.6434   0.6597   0.6639
  0.6711   0.6860   0.6915   0.7106   0.7122   0.7193   0.7236   0.7327
  0.7398   0.7419   0.7523   0.7687   0.7809   0.7998   0.8084   0.8122
  0.8365   0.8433   0.8553   0.8574   0.8632   0.8678   0.8721   0.8759
  0.8903   0.8972   0.8983   0.9144   0.9171   0.9353   0.9402   0.9471
  0.9612   0.9656   0.9950   1.0028   1.0061   1.0148   1.0324   1.0383
  1.0509   1.0592   1.0656   1.0751   1.0983   1.1080   1.1205   1.1283
  1.1448   1.1505   1.1682   1.1756   1.1932   1.2090   1.2149   1.2232
  1.2333   1.2476   1.2550   1.2562   1.2618   1.2751   1.2853   1.2973
  1.3079   1.3157   1.3510   1.3836   1.4163   1.4505   1.4975   1.5104
  1.5153   1.5220   1.5239   1.5485   1.5572   1.5643   1.5683   1.5754
  1.6167   1.6191   1.6334   1.6379   1.6492   1.6551   1.6819   1.6887
  1.7002   1.7282   1.7409   1.7484   1.7671   1.7764   1.7894   1.7969
  1.8052   1.8129   1.8336   1.8362   1.8628   1.8828   1.9113   1.9186
  1.9221   1.9299   1.9417   1.9482   1.9536   1.9604   1.9787   1.9837
  1.9866   2.0175   2.0209   2.0451   2.0551   2.0765   2.0884   2.1033
  2.1218   2.1369   2.1463   2.2068   2.2160   2.2488   2.2588   2.2997
  2.3281   2.3517   2.4119   2.4232   2.4513   2.4628   2.4809   2.5173
  2.5546   2.5946   2.6184   2.6321   2.6475   2.6669   2.6731   2.7014
  2.7054   2.7227   2.7259   2.7336   2.7426   2.7480   2.7553   2.7606
  2.7663   2.8012   2.8064   2.8185   2.8265   2.8361   2.8510   2.8538
  2.8625   2.8771   2.8788   2.8836   2.9023   2.9177   2.9305   2.9416
  2.9455   2.9578   2.9695   2.9961   3.0084   3.0390   3.0579   3.0867
  3.1017   3.1340   3.1769   3.1887   3.2127   3.2388   3.2559   3.3111
  3.3200   3.3395   3.3571   3.3730   3.4400   3.4850   3.4943   3.5020
  3.5284   3.5518   3.5854   3.6069   3.6294   3.6393   3.7306   3.7963
  3.8250   3.9953   4.0347   4.0604   4.1295   4.1444   4.1501   4.1610
  4.2408   4.7607   4.8328   5.0593   5.0913   5.0955   5.1199   5.1226
  5.1421   5.1792   5.2254   5.2981   5.3317   5.7247   5.8208   8.2196
 17.4179  17.4674  17.5931  23.5714  23.6297  23.8318  23.9091  23.9392
 23.9452  23.9657  24.0641  24.0850  24.0961  24.1795  24.1832  49.9107
 49.9520  50.0136  50.0559 189.3417
 
 Beta MOs
 -- Occupied --
-89.0491 -19.1135 -19.1134 -19.0829 -19.0809 -10.2421 -10.2326 -10.2146
-10.2052 -10.1972 -10.1934 -10.1933 -10.1919 -10.1906 -10.1871 -10.1821
-10.1812  -8.1129  -6.0756  -6.0746  -6.0740  -1.1059  -1.0054  -1.0008
 -0.9952  -0.8789  -0.8395  -0.7869  -0.7685  -0.7664  -0.7038  -0.6727
 -0.6266  -0.6228  -0.6011  -0.5744  -0.5385  -0.4995  -0.4937  -0.4829
 -0.4768  -0.4712  -0.4578  -0.4468  -0.4443  -0.4409  -0.4096  -0.4063
 -0.3954  -0.3862  -0.3823  -0.3784  -0.3631  -0.3581  -0.3378  -0.3234
 -0.3082  -0.3009  -0.2844  -0.2741  -0.2682  -0.2606  -0.2462  -0.2406
 -- Virtual --
 -0.1054  -0.0488  -0.0294  -0.0255  -0.0183  -0.0155  -0.0103  -0.0010
  0.0033   0.0124   0.0155   0.0224   0.0293   0.0311   0.0407   0.0440
  0.0491   0.0512   0.0552   0.0596   0.0670   0.0705   0.0718   0.0774
  0.0814   0.0839   0.0910   0.0920   0.0930   0.0946   0.0978   0.1002
  0.1055   0.1076   0.1134   0.1143   0.1182   0.1195   0.1229   0.1293
  0.1319   0.1374   0.1403   0.1424   0.1481   0.1504   0.1551   0.1558
  0.1630   0.1677   0.1705   0.1735   0.1831   0.1892   0.1913   0.1967
  0.1985   0.2033   0.2100   0.2119   0.2184   0.2203   0.2248   0.2294
  0.2335   0.2372   0.2433   0.2457   0.2550   0.2590   0.2599   0.2661
  0.2673   0.2719   0.2770   0.2802   0.2884   0.2929   0.2972   0.3002
  0.3082   0.3121   0.3216   0.3254   0.3296   0.3351   0.3400   0.3470
  0.3480   0.3544   0.3575   0.3693   0.3710   0.3755   0.3797   0.3857
  0.3911   0.4031   0.4098   0.4160   0.4181   0.4316   0.4430   0.4652
  0.4727   0.4815   0.4887   0.5022   0.5222   0.5273   0.5344   0.5384
  0.5431   0.5463   0.5549   0.5574   0.5602   0.5696   0.5732   0.5829
  0.5952   0.6021   0.6077   0.6127   0.6175   0.6308   0.6470   0.6622
  0.6650   0.6722   0.6880   0.6928   0.7114   0.7127   0.7205   0.7253
  0.7333   0.7401   0.7435   0.7538   0.7697   0.7820   0.8009   0.8092
  0.8131   0.8371   0.8438   0.8556   0.8580   0.8640   0.8687   0.8758
  0.8766   0.8922   0.8985   0.8993   0.9150   0.9175   0.9366   0.9412
  0.9480   0.9623   0.9667   0.9961   1.0048   1.0081   1.0169   1.0345
  1.0404   1.0536   1.0602   1.0679   1.0761   1.1028   1.1108   1.1279
  1.1336   1.1488   1.1568   1.1737   1.1776   1.1957   1.2104   1.2174
  1.2255   1.2339   1.2556   1.2575   1.2582   1.2657   1.2790   1.2871
  1.2989   1.3109   1.3187   1.3534   1.3851   1.4185   1.4534   1.4988
  1.5113   1.5155   1.5224   1.5251   1.5494   1.5594   1.5653   1.5691
  1.5761   1.6182   1.6229   1.6340   1.6386   1.6500   1.6583   1.6845
  1.6903   1.7017   1.7295   1.7410   1.7495   1.7694   1.7776   1.7920
  1.7986   1.8089   1.8177   1.8348   1.8405   1.8647   1.8840   1.9118
  1.9210   1.9252   1.9316   1.9426   1.9498   1.9549   1.9620   1.9795
  1.9863   1.9881   2.0185   2.0222   2.0464   2.0561   2.0773   2.0893
  2.1053   2.1244   2.1397   2.1500   2.2098   2.2180   2.2544   2.2626
  2.3000   2.3282   2.3521   2.4128   2.4233   2.4513   2.4630   2.4821
  2.5178   2.5583   2.5960   2.6187   2.6376   2.6485   2.6684   2.6738
  2.7015   2.7069   2.7232   2.7266   2.7351   2.7462   2.7510   2.7590
  2.7615   2.7725   2.8017   2.8069   2.8191   2.8267   2.8374   2.8538
  2.8600   2.8684   2.8793   2.8819   2.8855   2.9028   2.9187   2.9352
  2.9472   2.9641   2.9716   2.9810   3.0053   3.0141   3.0414   3.0633
  3.0885   3.1024   3.1356   3.1783   3.1893   3.2168   3.2404   3.2584
  3.3127   3.3362   3.3482   3.3679   3.3744   3.4424   3.4877   3.4946
  3.5034   3.5285   3.5545   3.5879   3.6087   3.6324   3.6403   3.7361
  3.7965   3.8291   3.9954   4.0348   4.0630   4.1320   4.1483   4.1517
  4.1617   4.2445   4.7656   4.8328   5.0914   5.0936   5.1139   5.1222
  5.1268   5.1446   5.1798   5.2320   5.3019   5.3332   5.7309   5.8265
  8.2197  17.4179  17.4674  17.5930  23.5715  23.6310  23.8332  23.9101
 23.9398  23.9455  23.9657  24.0641  24.0850  24.0982  24.1795  24.1842
 49.9107  49.9522  50.0214  50.0629 189.3417
 --------------------------------------------------------------
 
          Ground-State Mulliken Net Atomic Charges

     Atom                 Charge (a.u.)    Spin (a.u.)
  --------------------------------------------------------
      1 C                    -0.995669      -0.015544
      2 C                     0.604532       0.086357
      3 C                     0.431619       0.050805
      4 C                    -1.041956       0.108958
      5 C                    -0.713526       0.129062
      6 C                     0.163846       0.125421
      7 O                    -0.278080       0.247184
      8 O                    -0.369296       0.294957
      9 S                    -0.230826      -0.029574
     10 C                    -1.293224       0.006819
     11 C                     0.049189       0.006818
     12 C                    -1.227817       0.014311
     13 C                     0.358528      -0.004366
     14 C                     0.555410      -0.000897
     15 C                     1.074062       0.003124
     16 O                    -0.148401       0.005919
     17 O                    -0.187752      -0.003040
     18 H                     0.282041      -0.006458
     19 H                     0.275253      -0.004253
     20 H                     0.201614      -0.014293
     21 H                     0.252759       0.000708
     22 H                     0.160472      -0.002066
     23 H                     0.332050       0.000161
     24 H                     0.353137       0.000068
     25 H                     0.392034      -0.000183
  --------------------------------------------------------
  Sum of atomic charges =    -1.000000
  Sum of spin   charges =     1.000000

 -----------------------------------------------------------------
                    Cartesian Multipole Moments
 -----------------------------------------------------------------
    Charge (ESU x 10^10)
                -4.8032
    Dipole Moment (Debye)
         X      -1.2389      Y      -4.7242      Z      -4.6633
       Tot       6.7527
    Quadrupole Moments (Debye-Ang)
        XX    -133.5916     XY      -6.9930     YY    -130.2344
        XZ     -17.6704     YZ     -14.2699     ZZ    -108.3368
    Octopole Moments (Debye-Ang^2)
       XXX    -158.8069    XXY     -73.1146    XYY     -70.8932
       YYY    -263.6317    XXZ    -345.1847    XYZ     -21.8904
       YYZ    -406.4760    XZZ     -80.8387    YZZ    -111.0236
       ZZZ    -857.0704
    Hexadecapole Moments (Debye-Ang^3)
      XXXX   -1376.5833   XXXY    -158.9836   XXYY    -508.1286
      XYYY    -158.2979   YYYY   -1636.1161   XXXZ    -902.0339
      XXYZ    -359.2194   XYYZ    -343.9817   YYYZ   -1158.0265
      XXZZ   -1806.2022   XYZZ    -162.0904   YYZZ   -2129.3209
      XZZZ    -871.9202   YZZZ   -1177.0344   ZZZZ   -8314.2035
 -----------------------------------------------------------------
 Total job time:  575.87s(wall), 4458.54s(cpu) 
 Sat Feb  3 11:22:02 2024

        *************************************************************
        *                                                           *
        *  Thank you very much for using Q-Chem.  Have a nice day.  *
        *                                                           *
        *************************************************************


