 Entering Gaussian System, Link 0=g16
 Input=307-PCM.com
 Output=307-PCM.log
 Initial command:
 /sysapps/ubuntu-applications/gaussian/Gaussian/AVX2/g16/l1.exe "/scratch/selhajj1/4334715/Gau-3009164.inp" -scrdir="/scratch/selhajj1/4334715/"
 Entering Link 1 = /sysapps/ubuntu-applications/gaussian/Gaussian/AVX2/g16/l1.exe PID=   3009169.
  
 Copyright (c) 1988,1990,1992,1993,1995,1998,2003,2009,2016,
            Gaussian, Inc.  All Rights Reserved.
  
 This is part of the Gaussian(R) 16 program.  It is based on
 the Gaussian(R) 09 system (copyright 2009, Gaussian, Inc.),
 the Gaussian(R) 03 system (copyright 2003, Gaussian, Inc.),
 the Gaussian(R) 98 system (copyright 1998, Gaussian, Inc.),
 the Gaussian(R) 94 system (copyright 1995, Gaussian, Inc.),
 the Gaussian 92(TM) system (copyright 1992, Gaussian, Inc.),
 the Gaussian 90(TM) system (copyright 1990, Gaussian, Inc.),
 the Gaussian 88(TM) system (copyright 1988, Gaussian, Inc.),
 the Gaussian 86(TM) system (copyright 1986, Carnegie Mellon
 University), and the Gaussian 82(TM) system (copyright 1983,
 Carnegie Mellon University). Gaussian is a federally registered
 trademark of Gaussian, Inc.
  
 This software contains proprietary and confidential information,
 including trade secrets, belonging to Gaussian, Inc.
  
 This software is provided under written license and may be
 used, copied, transmitted, or stored only in accord with that
 written license.
  
 The following legend is applicable only to US Government
 contracts under FAR:
  
                    RESTRICTED RIGHTS LEGEND
  
 Use, reproduction and disclosure by the US Government is
 subject to restrictions as set forth in subparagraphs (a)
 and (c) of the Commercial Computer Software - Restricted
 Rights clause in FAR 52.227-19.
  
 Gaussian, Inc.
 340 Quinnipiac St., Bldg. 40, Wallingford CT 06492
  
  
 ---------------------------------------------------------------
 Warning -- This program may not be used in any manner that
 competes with the business of Gaussian, Inc. or will provide
 assistance to any competitor of Gaussian, Inc.  The licensee
 of this program is prohibited from giving any competitor of
 Gaussian, Inc. access to this program.  By using this program,
 the user acknowledges that Gaussian, Inc. is engaged in the
 business of creating and licensing software in the field of
 computational chemistry and represents and warrants to the
 licensee that it is not a competitor of Gaussian, Inc. and that
 it will not use this program in any manner prohibited above.
 ---------------------------------------------------------------
  

 Cite this work as:
 Gaussian 16, Revision A.03,
 M. J. Frisch, G. W. Trucks, H. B. Schlegel, G. E. Scuseria, 
 M. A. Robb, J. R. Cheeseman, G. Scalmani, V. Barone, 
 G. A. Petersson, H. Nakatsuji, X. Li, M. Caricato, A. V. Marenich, 
 J. Bloino, B. G. Janesko, R. Gomperts, B. Mennucci, H. P. Hratchian, 
 J. V. Ortiz, A. F. Izmaylov, J. L. Sonnenberg, D. Williams-Young, 
 F. Ding, F. Lipparini, F. Egidi, J. Goings, B. Peng, A. Petrone, 
 T. Henderson, D. Ranasinghe, V. G. Zakrzewski, J. Gao, N. Rega, 
 G. Zheng, W. Liang, M. Hada, M. Ehara, K. Toyota, R. Fukuda, 
 J. Hasegawa, M. Ishida, T. Nakajima, Y. Honda, O. Kitao, H. Nakai, 
 T. Vreven, K. Throssell, J. A. Montgomery, Jr., J. E. Peralta, 
 F. Ogliaro, M. J. Bearpark, J. J. Heyd, E. N. Brothers, K. N. Kudin, 
 V. N. Staroverov, T. A. Keith, R. Kobayashi, J. Normand, 
 K. Raghavachari, A. P. Rendell, J. C. Burant, S. S. Iyengar, 
 J. Tomasi, M. Cossi, J. M. Millam, M. Klene, C. Adamo, R. Cammi, 
 J. W. Ochterski, R. L. Martin, K. Morokuma, O. Farkas, 
 J. B. Foresman, and D. J. Fox, Gaussian, Inc., Wallingford CT, 2016.
 
 ******************************************
 Gaussian 16:  ES64L-G16RevA.03 25-Dec-2016
                25-Jan-2024 
 ******************************************
 %chk=307-PCM.chk
 %nproc=8
 Will use up to    8 processors via shared memory.
 %mem=30GB
 ----------------------------------------------------------------
 #P UB3LYP/6-311++G(d,p) SCRF=(PCM,Solvent=n,n-DiMethylFormamide)
 ----------------------------------------------------------------
 1/38=1,172=1/1;
 2/12=2,17=6,18=5,40=1/2;
 3/5=4,6=6,7=1111,11=2,25=1,30=1,70=2201,72=148,74=-5,116=2/1,2,3;
 4//1;
 5/5=2,38=5,53=148/2;
 6/7=2,8=2,9=2,10=2,28=1/1;
 99/5=1,9=1/99;
 Leave Link    1 at Thu Jan 25 05:43:06 2024, MaxMem=  4026531840 cpu:               0.8 elap:               0.1
 (Enter /sysapps/ubuntu-applications/gaussian/Gaussian/AVX2/g16/l101.exe)
 ------------------
 Quinone PCM in DMF
 ------------------
 Symbolic Z-matrix:
 Charge =  0 Multiplicity = 1
 C                    -3.41998  -0.72892  -0.38232 
 C                    -2.0326   -0.26446  -0.06518 
 C                    -1.75847   0.69804   0.83528 
 C                    -0.3932    1.15078   1.14343 
 O                    -0.21598   2.04354   1.98577 
 C                     0.72597   0.52386   0.43605 
 C                     2.05383   0.92717   0.70101 
 O                     2.34929   1.88155   1.59186 
 C                     3.11224   0.31182   0.01096 
 C                     2.8522   -0.67985  -0.91904 
 C                     1.54047  -1.08886  -1.19114 
 C                     0.48469  -0.49074  -0.51782 
 C                    -0.9126   -0.92812  -0.80942 
 O                    -1.15656  -1.79998  -1.62729 
 H                    -4.16059  -0.18848   0.20791 
 H                    -3.51793  -1.8008   -0.18957 
 H                    -3.63578  -0.59051  -1.44533 
 H                    -2.5447    1.19896   1.39094 
 H                     1.49771   2.19935   1.97657 
 H                     4.12286   0.63529   0.22859 
 H                     3.67822  -1.14609  -1.44408 
 H                     1.33091  -1.86356  -1.91718 
 
 ITRead=  0  0  0  0  0  0  0  0  0  0  0  0  0  0  0  0  0  0  0  0
 ITRead=  0  0
 MicOpt= -1 -1 -1 -1 -1 -1 -1 -1 -1 -1 -1 -1 -1 -1 -1 -1 -1 -1 -1 -1
 MicOpt= -1 -1
 NAtoms=     22 NQM=       22 NQMF=       0 NMMI=      0 NMMIF=      0
                NMic=       0 NMicF=      0.
                    Isotopes and Nuclear Properties:
 (Nuclear quadrupole moments (NQMom) in fm**2, nuclear magnetic moments (NMagM)
  in nuclear magnetons)

  Atom         1           2           3           4           5           6           7           8           9          10
 IAtWgt=          12          12          12          12          16          12          12          16          12          12
 AtmWgt=  12.0000000  12.0000000  12.0000000  12.0000000  15.9949146  12.0000000  12.0000000  15.9949146  12.0000000  12.0000000
 NucSpn=           0           0           0           0           0           0           0           0           0           0
 AtZEff=  -0.0000000  -0.0000000  -0.0000000  -0.0000000  -0.0000000  -0.0000000  -0.0000000  -0.0000000  -0.0000000  -0.0000000
 NQMom=    0.0000000   0.0000000   0.0000000   0.0000000   0.0000000   0.0000000   0.0000000   0.0000000   0.0000000   0.0000000
 NMagM=    0.0000000   0.0000000   0.0000000   0.0000000   0.0000000   0.0000000   0.0000000   0.0000000   0.0000000   0.0000000
 AtZNuc=   6.0000000   6.0000000   6.0000000   6.0000000   8.0000000   6.0000000   6.0000000   8.0000000   6.0000000   6.0000000

  Atom        11          12          13          14          15          16          17          18          19          20
 IAtWgt=          12          12          12          16           1           1           1           1           1           1
 AtmWgt=  12.0000000  12.0000000  12.0000000  15.9949146   1.0078250   1.0078250   1.0078250   1.0078250   1.0078250   1.0078250
 NucSpn=           0           0           0           0           1           1           1           1           1           1
 AtZEff=  -0.0000000  -0.0000000  -0.0000000  -0.0000000  -0.0000000  -0.0000000  -0.0000000  -0.0000000  -0.0000000  -0.0000000
 NQMom=    0.0000000   0.0000000   0.0000000   0.0000000   0.0000000   0.0000000   0.0000000   0.0000000   0.0000000   0.0000000
 NMagM=    0.0000000   0.0000000   0.0000000   0.0000000   2.7928460   2.7928460   2.7928460   2.7928460   2.7928460   2.7928460
 AtZNuc=   6.0000000   6.0000000   6.0000000   8.0000000   1.0000000   1.0000000   1.0000000   1.0000000   1.0000000   1.0000000

  Atom        21          22
 IAtWgt=           1           1
 AtmWgt=   1.0078250   1.0078250
 NucSpn=           1           1
 AtZEff=  -0.0000000  -0.0000000
 NQMom=    0.0000000   0.0000000
 NMagM=    2.7928460   2.7928460
 AtZNuc=   1.0000000   1.0000000
 Leave Link  101 at Thu Jan 25 05:43:06 2024, MaxMem=  4026531840 cpu:               2.0 elap:               0.3
 (Enter /sysapps/ubuntu-applications/gaussian/Gaussian/AVX2/g16/l202.exe)
                          Input orientation:                          
 ---------------------------------------------------------------------
 Center     Atomic      Atomic             Coordinates (Angstroms)
 Number     Number       Type             X           Y           Z
 ---------------------------------------------------------------------
      1          6           0       -3.419976   -0.728922   -0.382323
      2          6           0       -2.032597   -0.264457   -0.065178
      3          6           0       -1.758468    0.698035    0.835278
      4          6           0       -0.393203    1.150783    1.143433
      5          8           0       -0.215980    2.043537    1.985769
      6          6           0        0.725965    0.523861    0.436048
      7          6           0        2.053827    0.927167    0.701014
      8          8           0        2.349285    1.881550    1.591857
      9          6           0        3.112236    0.311817    0.010957
     10          6           0        2.852204   -0.679850   -0.919040
     11          6           0        1.540472   -1.088862   -1.191137
     12          6           0        0.484690   -0.490738   -0.517818
     13          6           0       -0.912598   -0.928124   -0.809419
     14          8           0       -1.156556   -1.799982   -1.627287
     15          1           0       -4.160585   -0.188478    0.207913
     16          1           0       -3.517927   -1.800796   -0.189569
     17          1           0       -3.635781   -0.590506   -1.445329
     18          1           0       -2.544702    1.198962    1.390939
     19          1           0        1.497709    2.199353    1.976567
     20          1           0        4.122858    0.635289    0.228587
     21          1           0        3.678215   -1.146086   -1.444079
     22          1           0        1.330911   -1.863555   -1.917182
 ---------------------------------------------------------------------
                    Distance matrix (angstroms):
                    1          2          3          4          5
     1  C    0.000000
     2  C    1.497040   0.000000
     3  C    2.505867   1.346239   0.000000
     4  C    3.875897   2.480173   1.471016   0.000000
     5  O    4.853862   3.582362   2.348036   1.240140   0.000000
     6  C    4.407723   2.912445   2.522326   1.464910   2.366075
     7  C    5.820547   4.325029   3.821534   2.496737   2.837059
     8  O    6.632972   5.152863   4.341285   2.873386   2.600383
     9  C    6.626281   5.177566   4.955041   3.778157   4.239783
    10  C    6.295293   4.976235   5.121962   4.258835   5.026779
    11  C    5.038827   3.835916   4.264078   3.768995   4.794766
    12  C    3.914270   2.567649   2.876770   2.495003   3.630625
    13  C    2.551281   1.499582   2.462705   2.899182   4.138734
    14  O    2.796458   2.359125   3.559019   4.119055   5.358311
    15  H    1.090394   2.146785   2.636220   4.106335   4.868529
    16  H    1.093463   2.140564   3.223378   4.500290   5.514875
    17  H    1.093486   2.140403   3.222702   4.499788   5.514132
    18  H    2.761757   2.126999   1.085288   2.166224   2.547563
    19  H    6.190540   4.764677   3.762869   2.317145   1.720783
    20  H    7.689514   6.227798   5.912868   4.636538   4.888391
    21  H    7.189274   5.940708   6.176874   5.342965   6.091166
    22  H    5.119972   4.159353   4.866420   4.628841   5.735091
                    6          7          8          9         10
     6  C    0.000000
     7  C    1.412827   0.000000
     8  O    2.411303   1.338560   0.000000
     9  C    2.433096   1.405370   2.354867   0.000000
    10  C    2.793936   2.417537   3.621920   1.384166   0.000000
    11  C    2.431466   2.812142   4.150010   2.424330   1.400703
    12  C    1.413324   2.440942   3.681738   2.797802   2.408706
    13  C    2.518797   3.810930   4.929531   4.290660   3.774572
    14  O    3.633385   4.812991   6.017266   5.036479   4.222140
    15  H    4.943465   6.332987   6.969844   7.292668   7.119739
    16  H    4.879144   6.267325   7.152435   6.961495   6.509010
    17  H    4.879162   6.267516   7.152382   6.962089   6.509909
    18  H    3.473448   4.657933   4.945443   5.890019   6.163808
    19  H    2.403344   1.885407   0.987007   3.167509   4.302209
    20  H    3.405046   2.142258   2.560709   1.083215   2.158981
    21  H    3.878064   3.396828   4.488824   2.136105   1.084129
    22  H    3.406377   3.894315   5.232232   3.409264   2.170663
                   11         12         13         14         15
    11  C    0.000000
    12  C    1.387727   0.000000
    13  C    2.487790   1.492900   0.000000
    14  O    2.823097   2.374601   1.220066   0.000000
    15  H    5.938862   4.711330   3.483025   3.871575   0.000000
    16  H    5.205515   4.224327   2.816649   2.764617   1.780610
    17  H    5.206397   4.224750   2.816752   2.764507   1.780521
    18  H    5.346953   3.959249   3.468405   4.475523   2.436312
    19  H    4.566020   3.805884   4.832433   6.002297   6.391100
    20  H    3.414239   3.880892   5.373782   6.103034   8.324329
    21  H    2.153416   3.389106   4.639597   4.882229   8.068016
    22  H    1.082223   2.135167   2.671236   2.505109   6.121964
                   16         17         18         19         20
    16  H    0.000000
    17  H    1.748035   0.000000
    18  H    3.527566   3.526622   0.000000
    19  H    6.771259   6.770924   4.205333   0.000000
    20  H    8.030626   8.031254   6.791550   3.520389   0.000000
    21  H    7.333955   7.335067   7.229196   5.258078   2.483710
    22  H    5.147797   5.148915   5.945002   5.629949   4.317814
                   21         22
    21  H    0.000000
    22  H    2.499685   0.000000
 Stoichiometry    C11H8O3
 Framework group  C1[X(C11H8O3)]
 Deg. of freedom    60
 Full point group                 C1      NOp   1
 Largest Abelian subgroup         C1      NOp   1
 Largest concise Abelian subgroup C1      NOp   1
                         Standard orientation:                         
 ---------------------------------------------------------------------
 Center     Atomic      Atomic             Coordinates (Angstroms)
 Number     Number       Type             X           Y           Z
 ---------------------------------------------------------------------
      1          6           0       -3.724164    0.287795    0.001069
      2          6           0       -2.228681    0.356057    0.000463
      3          6           0       -1.537205    1.511141    0.000191
      4          6           0       -0.067482    1.572804   -0.000250
      5          8           0        0.502562    2.674166   -0.000533
      6          6           0        0.683475    0.315017   -0.000204
      7          6           0        2.096250    0.327028    0.000015
      8          8           0        2.803816    1.463291   -0.000132
      9          6           0        2.796320   -0.891564    0.000450
     10          6           0        2.104597   -2.090495    0.000613
     11          6           0        0.704133   -2.116361    0.000294
     12          6           0       -0.001324   -0.921322   -0.000079
     13          6           0       -1.493926   -0.951184   -0.000508
     14          8           0       -2.116582   -2.000402   -0.001554
     15          1           0       -4.163763    1.285649    0.001947
     16          1           0       -4.081508   -0.264219    0.874710
     17          1           0       -4.082036   -0.262730   -0.873324
     18          1           0       -2.037158    2.474415    0.000504
     19          1           0        2.159940    2.211359   -0.000382
     20          1           0        3.879095   -0.860716    0.000665
     21          1           0        2.657322   -3.023142    0.000971
     22          1           0        0.157787   -3.050552    0.000332
 ---------------------------------------------------------------------
 Rotational constants (GHZ):           1.1367863           0.6493774           0.4143334
 Leave Link  202 at Thu Jan 25 05:43:06 2024, MaxMem=  4026531840 cpu:               0.3 elap:               0.1
 (Enter /sysapps/ubuntu-applications/gaussian/Gaussian/AVX2/g16/l301.exe)
 Standard basis: 6-311++G(d,p) (5D, 7F)
 Ernie: Thresh=  0.10000D-02 Tol=  0.10000D-05 Strict=F.
 There are   378 symmetry adapted cartesian basis functions of A   symmetry.
 There are   364 symmetry adapted basis functions of A   symmetry.
   364 basis functions,   576 primitive gaussians,   378 cartesian basis functions
    49 alpha electrons       49 beta electrons
       nuclear repulsion energy       837.9215990030 Hartrees.
 IExCor=  402 DFT=T Ex+Corr=B3LYP ExCW=0 ScaHFX=  0.200000
 ScaDFX=  0.800000  0.720000  1.000000  0.810000 ScalE2=  1.000000  1.000000
 IRadAn=      5 IRanWt=     -1 IRanGd=            0 ICorTp=0 IEmpDi=  4
 NAtoms=   22 NActive=   22 NUniq=   22 SFac= 1.00D+00 NAtFMM=   60 NAOKFM=F Big=F
 Integral buffers will be    131072 words long.
 Raffenetti 2 integral format.
 Two-electron integral symmetry is turned on.
 ------------------------------------------------------------------------------
 Polarizable Continuum Model (PCM)
 =================================
 Model                : PCM.
 Atomic radii         : UFF (Universal Force Field).
 Polarization charges : Total charges.
 Charge compensation  : None.
 Solution method      : On-the-fly selection.
 Cavity type          : Scaled VdW (van der Waals Surface) (Alpha=1.100).
 Cavity algorithm     : GePol (No added spheres)
                        Default sphere list used, NSphG=   22.
                        Lebedev-Laikov grids with approx.  5.0 points / Ang**2.
                        Smoothing algorithm: York/Karplus (Gamma=1.0000).
                        Polarization charges: spherical gaussians, with
                                              point-specific exponents (IZeta= 3).
                        Self-potential: point-specific (ISelfS= 7).
                        Self-field    : sphere-specific E.n sum rule (ISelfD= 2).
 Solvent              : n,n-DiMethylFormamide, Eps=  37.219000 Eps(inf)=   2.046330
 ------------------------------------------------------------------------------
 GePol: Number of generator spheres                  =      22
 GePol: Total number of spheres                      =      22
 GePol: Number of exposed spheres                    =      22 (100.00%)
 GePol: Number of points                             =    1818
 GePol: Average weight of points                     =       0.13
 GePol: Minimum weight of points                     =   0.59D-07
 GePol: Maximum weight of points                     =    0.20577
 GePol: Number of points with low weight             =      80
 GePol: Fraction of low-weight points (<1% of avg)   =       4.40%
 GePol: Cavity surface area                          =    235.885 Ang**2
 GePol: Cavity volume                                =    248.845 Ang**3
 Leave Link  301 at Thu Jan 25 05:43:06 2024, MaxMem=  4026531840 cpu:               1.0 elap:               0.2
 (Enter /sysapps/ubuntu-applications/gaussian/Gaussian/AVX2/g16/l302.exe)
 NPDir=0 NMtPBC=     1 NCelOv=     1 NCel=       1 NClECP=     1 NCelD=      1
         NCelK=      1 NCelE2=     1 NClLst=     1 CellRange=     0.0.
 One-electron integrals computed using PRISM.
 One-electron integral symmetry used in STVInt
 NBasis=   364 RedAO= T EigKep=  1.22D-06  NBF=   364
 NBsUse=   361 1.00D-06 EigRej=  6.88D-07 NBFU=   361
 Precomputing XC quadrature grid using
 IXCGrd= 4 IRadAn=           5 IRanWt=          -1 IRanGd=           0 AccXCQ= 0.00D+00.
 Generated NRdTot=       0 NPtTot=           0 NUsed=           0 NTot=          32
 NSgBfM=   378   378   378   378   378 MxSgAt=    22 MxSgA2=    22.
 Leave Link  302 at Thu Jan 25 05:43:07 2024, MaxMem=  4026531840 cpu:               4.6 elap:               0.8
 (Enter /sysapps/ubuntu-applications/gaussian/Gaussian/AVX2/g16/l303.exe)
 DipDrv:  MaxL=1.
 Leave Link  303 at Thu Jan 25 05:43:07 2024, MaxMem=  4026531840 cpu:               0.9 elap:               0.2
 (Enter /sysapps/ubuntu-applications/gaussian/Gaussian/AVX2/g16/l401.exe)
 ExpMin= 3.60D-02 ExpMax= 8.59D+03 ExpMxC= 1.30D+03 IAcc=3 IRadAn=         5 AccDes= 0.00D+00
 Harris functional with IExCor=  402 and IRadAn=       5 diagonalized for initial guess.
 HarFok:  IExCor=  402 AccDes= 0.00D+00 IRadAn=         5 IDoV= 1 UseB2=F ITyADJ=14
 ICtDFT=  3500011 ScaDFX=  1.000000  1.000000  1.000000  1.000000
 FoFCou: FMM=F IPFlag=           0 FMFlag=      100000 FMFlg1=           0
         NFxFlg=           0 DoJE=T BraDBF=F KetDBF=T FulRan=T
         wScrn=  0.000000 ICntrl=       500 IOpCl=  0 I1Cent=   200000004 NGrid=           0
         NMat0=    1 NMatS0=      1 NMatT0=    0 NMatD0=    1 NMtDS0=    0 NMtDT0=    0
 Petite list used in FoFCou.
 Harris En= -649.875413924410    
 JPrj=0 DoOrth=F DoCkMO=F.
 Initial guess <Sx>= 0.0000 <Sy>= 0.0000 <Sz>= 0.0000 <S**2>= 0.0000 S= 0.0000
 Leave Link  401 at Thu Jan 25 05:43:09 2024, MaxMem=  4026531840 cpu:              10.5 elap:               1.3
 (Enter /sysapps/ubuntu-applications/gaussian/Gaussian/AVX2/g16/l502.exe)
 Integral symmetry usage will be decided dynamically.
 UHF open shell SCF:
 Using DIIS extrapolation, IDIIS=  1040.
 NGot=  4026531840 LenX=  4026239438 LenY=  4026096113
 Requested convergence on RMS density matrix=1.00D-08 within 128 cycles.
 Requested convergence on MAX density matrix=1.00D-06.
 Requested convergence on             energy=1.00D-06.
 No special actions if energy rises.
 Fock matrices will be formed incrementally for  20 cycles.

 Cycle   1  Pass 1  IDiag  1:
 FoFJK:  IHMeth= 1 ICntrl=       0 DoSepK=F KAlg= 0 I1Cent=           0 FoldK=F
 IRaf= 900000000 NMat=       1 IRICut=       1 DoRegI=T DoRafI=F ISym2E= 0 IDoP0=0 IntGTp=1.
 FoFCou: FMM=F IPFlag=           0 FMFlag=      100000 FMFlg1=           0
         NFxFlg=           0 DoJE=F BraDBF=F KetDBF=F FulRan=T
         wScrn=  0.000000 ICntrl=         0 IOpCl=  1 I1Cent=           0 NGrid=           0
         NMat0=    1 NMatS0=      1 NMatT0=    0 NMatD0=    1 NMtDS0=    0 NMtDT0=    0
 Symmetry not used in FoFCou.
 Inv3:  Mode=1 IEnd=     9915372.
 Iteration    1 A*A^-1 deviation from unit magnitude is 3.66D-15 for   1279.
 Iteration    1 A*A^-1 deviation from orthogonality  is 2.31D-15 for   1247    119.
 Iteration    1 A^-1*A deviation from unit magnitude is 3.66D-15 for   1279.
 Iteration    1 A^-1*A deviation from orthogonality  is 3.95D-15 for   1422    483.
 E= -649.536468158963    
 DIIS: error= 3.28D-02 at cycle   1 NSaved=   1.
 NSaved= 1 IEnMin= 1 EnMin= -649.536468158963     IErMin= 1 ErrMin= 3.28D-02
 ErrMax= 3.28D-02  0.00D+00 EMaxC= 1.00D-01 BMatC= 1.67D+00 BMatP= 1.67D+00
 IDIUse=3 WtCom= 6.72D-01 WtEn= 3.28D-01
 Coeff-Com:  0.100D+01
 Coeff-En:   0.100D+01
 Coeff:      0.100D+01
 Gap=     0.102 Goal=   None    Shift=    0.000
 Gap=     0.102 Goal=   None    Shift=    0.000
 GapD=    0.102 DampG=1.000 DampE=0.500 DampFc=0.5000 IDamp=-1.
 Damping current iteration by 5.00D-01
 RMSDP=1.91D-02 MaxDP=1.52D+00              OVMax= 2.13D-01

 Cycle   2  Pass 1  IDiag  1:
 RMSU=  9.55D-03    CP:  1.00D+00
 E= -649.646015588919     Delta-E=       -0.109547429956 Rises=F Damp=T
 DIIS: error= 1.39D-02 at cycle   2 NSaved=   2.
 NSaved= 2 IEnMin= 2 EnMin= -649.646015588919     IErMin= 2 ErrMin= 1.39D-02
 ErrMax= 1.39D-02  0.00D+00 EMaxC= 1.00D-01 BMatC= 2.00D-01 BMatP= 1.67D+00
 IDIUse=3 WtCom= 8.61D-01 WtEn= 1.39D-01
 Coeff-Com:  0.161D+00 0.839D+00
 Coeff-En:   0.272D+00 0.728D+00
 Coeff:      0.176D+00 0.824D+00
 Gap=     0.166 Goal=   None    Shift=    0.000
 Gap=     0.166 Goal=   None    Shift=    0.000
 RMSDP=9.21D-03 MaxDP=6.56D-01 DE=-1.10D-01 OVMax= 1.86D-01

 Cycle   3  Pass 1  IDiag  1:
 RMSU=  9.03D-03    CP:  9.97D-01  8.11D-01
 E= -649.812664349853     Delta-E=       -0.166648760934 Rises=F Damp=F
 DIIS: error= 1.85D-02 at cycle   3 NSaved=   3.
 NSaved= 3 IEnMin= 3 EnMin= -649.812664349853     IErMin= 2 ErrMin= 1.39D-02
 ErrMax= 1.85D-02  0.00D+00 EMaxC= 1.00D-01 BMatC= 2.16D-01 BMatP= 2.00D-01
 IDIUse=3 WtCom= 8.15D-01 WtEn= 1.85D-01
 Coeff-Com:  0.125D-01 0.509D+00 0.478D+00
 Coeff-En:   0.000D+00 0.000D+00 0.100D+01
 Coeff:      0.102D-01 0.415D+00 0.575D+00
 Gap=     0.126 Goal=   None    Shift=    0.000
 Gap=     0.126 Goal=   None    Shift=    0.000
 RMSDP=5.73D-03 MaxDP=5.39D-01 DE=-1.67D-01 OVMax= 8.15D-02

 Cycle   4  Pass 1  IDiag  1:
 RMSU=  3.93D-03    CP:  9.94D-01  8.82D-01  5.45D-01
 E= -649.842476468866     Delta-E=       -0.029812119013 Rises=F Damp=F
 DIIS: error= 1.10D-02 at cycle   4 NSaved=   4.
 NSaved= 4 IEnMin= 4 EnMin= -649.842476468866     IErMin= 4 ErrMin= 1.10D-02
 ErrMax= 1.10D-02  0.00D+00 EMaxC= 1.00D-01 BMatC= 7.90D-02 BMatP= 2.00D-01
 IDIUse=3 WtCom= 8.90D-01 WtEn= 1.10D-01
 Coeff-Com:  0.240D-02 0.105D+00 0.383D+00 0.510D+00
 Coeff-En:   0.000D+00 0.000D+00 0.305D+00 0.695D+00
 Coeff:      0.214D-02 0.934D-01 0.374D+00 0.530D+00
 Gap=     0.121 Goal=   None    Shift=    0.000
 Gap=     0.121 Goal=   None    Shift=    0.000
 RMSDP=2.73D-03 MaxDP=2.00D-01 DE=-2.98D-02 OVMax= 2.97D-02

 Cycle   5  Pass 1  IDiag  1:
 RMSU=  7.15D-04    CP:  9.80D-01  8.42D-01  6.64D-01  4.51D-01
 E= -649.857999920892     Delta-E=       -0.015523452026 Rises=F Damp=F
 DIIS: error= 1.30D-03 at cycle   5 NSaved=   5.
 NSaved= 5 IEnMin= 5 EnMin= -649.857999920892     IErMin= 5 ErrMin= 1.30D-03
 ErrMax= 1.30D-03  0.00D+00 EMaxC= 1.00D-01 BMatC= 2.29D-03 BMatP= 7.90D-02
 IDIUse=3 WtCom= 9.87D-01 WtEn= 1.30D-02
 Coeff-Com: -0.780D-04 0.144D-01 0.171D+00 0.300D+00 0.515D+00
 Coeff-En:   0.000D+00 0.000D+00 0.000D+00 0.000D+00 0.100D+01
 Coeff:     -0.770D-04 0.142D-01 0.168D+00 0.296D+00 0.522D+00
 Gap=     0.124 Goal=   None    Shift=    0.000
 Gap=     0.124 Goal=   None    Shift=    0.000
 RMSDP=7.22D-04 MaxDP=7.83D-02 DE=-1.55D-02 OVMax= 1.05D-02

 Cycle   6  Pass 1  IDiag  1:
 RMSU=  3.71D-04    CP:  9.72D-01  8.33D-01  6.75D-01  4.53D-01  8.42D-01
 E= -649.858449026500     Delta-E=       -0.000449105607 Rises=F Damp=F
 DIIS: error= 4.28D-04 at cycle   6 NSaved=   6.
 NSaved= 6 IEnMin= 6 EnMin= -649.858449026500     IErMin= 6 ErrMin= 4.28D-04
 ErrMax= 4.28D-04  0.00D+00 EMaxC= 1.00D-01 BMatC= 1.90D-04 BMatP= 2.29D-03
 IDIUse=3 WtCom= 9.96D-01 WtEn= 4.28D-03
 Coeff-Com: -0.288D-03-0.612D-03 0.567D-01 0.113D+00 0.293D+00 0.538D+00
 Coeff-En:   0.000D+00 0.000D+00 0.000D+00 0.000D+00 0.131D-01 0.987D+00
 Coeff:     -0.287D-03-0.609D-03 0.565D-01 0.113D+00 0.292D+00 0.540D+00
 Gap=     0.123 Goal=   None    Shift=    0.000
 Gap=     0.123 Goal=   None    Shift=    0.000
 RMSDP=1.57D-04 MaxDP=1.06D-02 DE=-4.49D-04 OVMax= 3.32D-03

 Cycle   7  Pass 1  IDiag  1:
 RMSU=  5.91D-05    CP:  9.73D-01  8.31D-01  6.80D-01  4.68D-01  8.50D-01
                    CP:  7.95D-01
 E= -649.858489476396     Delta-E=       -0.000040449896 Rises=F Damp=F
 DIIS: error= 9.99D-05 at cycle   7 NSaved=   7.
 NSaved= 7 IEnMin= 7 EnMin= -649.858489476396     IErMin= 7 ErrMin= 9.99D-05
 ErrMax= 9.99D-05  0.00D+00 EMaxC= 1.00D-01 BMatC= 1.77D-05 BMatP= 1.90D-04
 IDIUse=1 WtCom= 1.00D+00 WtEn= 0.00D+00
 Coeff-Com: -0.664D-04-0.160D-02 0.127D-01 0.295D-01 0.107D+00 0.298D+00
 Coeff-Com:  0.554D+00
 Coeff:     -0.664D-04-0.160D-02 0.127D-01 0.295D-01 0.107D+00 0.298D+00
 Coeff:      0.554D+00
 Gap=     0.123 Goal=   None    Shift=    0.000
 Gap=     0.123 Goal=   None    Shift=    0.000
 RMSDP=4.24D-05 MaxDP=3.29D-03 DE=-4.04D-05 OVMax= 7.15D-04

 Cycle   8  Pass 1  IDiag  1:
 RMSU=  1.86D-05    CP:  9.74D-01  8.32D-01  6.79D-01  4.71D-01  8.48D-01
                    CP:  7.71D-01  8.68D-01
 E= -649.858493381274     Delta-E=       -0.000003904878 Rises=F Damp=F
 DIIS: error= 2.38D-05 at cycle   8 NSaved=   8.
 NSaved= 8 IEnMin= 8 EnMin= -649.858493381274     IErMin= 8 ErrMin= 2.38D-05
 ErrMax= 2.38D-05  0.00D+00 EMaxC= 1.00D-01 BMatC= 6.09D-07 BMatP= 1.77D-05
 IDIUse=1 WtCom= 1.00D+00 WtEn= 0.00D+00
 Coeff-Com:  0.214D-04-0.643D-03 0.272D-02 0.709D-02 0.326D-01 0.101D+00
 Coeff-Com:  0.233D+00 0.624D+00
 Coeff:      0.214D-04-0.643D-03 0.272D-02 0.709D-02 0.326D-01 0.101D+00
 Coeff:      0.233D+00 0.624D+00
 Gap=     0.123 Goal=   None    Shift=    0.000
 Gap=     0.123 Goal=   None    Shift=    0.000
 RMSDP=1.05D-05 MaxDP=5.79D-04 DE=-3.90D-06 OVMax= 2.15D-04

 Cycle   9  Pass 1  IDiag  1:
 RMSU=  7.21D-06    CP:  9.74D-01  8.32D-01  6.79D-01  4.71D-01  8.48D-01
                    CP:  7.70D-01  8.20D-01  7.08D-01
 E= -649.858493455654     Delta-E=       -0.000000074380 Rises=F Damp=F
 DIIS: error= 1.75D-05 at cycle   9 NSaved=   9.
 NSaved= 9 IEnMin= 9 EnMin= -649.858493455654     IErMin= 9 ErrMin= 1.75D-05
 ErrMax= 1.75D-05  0.00D+00 EMaxC= 1.00D-01 BMatC= 3.11D-07 BMatP= 6.09D-07
 IDIUse=1 WtCom= 1.00D+00 WtEn= 0.00D+00
 Coeff-Com:  0.298D-04-0.202D-03-0.120D-03 0.163D-03 0.548D-02 0.214D-01
 Coeff-Com:  0.665D-01 0.429D+00 0.478D+00
 Coeff:      0.298D-04-0.202D-03-0.120D-03 0.163D-03 0.548D-02 0.214D-01
 Coeff:      0.665D-01 0.429D+00 0.478D+00
 Gap=     0.123 Goal=   None    Shift=    0.000
 Gap=     0.123 Goal=   None    Shift=    0.000
 RMSDP=4.66D-06 MaxDP=4.37D-04 DE=-7.44D-08 OVMax= 1.01D-04

 Cycle  10  Pass 1  IDiag  1:
 RMSU=  2.41D-06    CP:  9.74D-01  8.32D-01  6.79D-01  4.71D-01  8.50D-01
                    CP:  7.72D-01  8.25D-01  7.22D-01  7.42D-01
 E= -649.858493524748     Delta-E=       -0.000000069095 Rises=F Damp=F
 DIIS: error= 3.79D-06 at cycle  10 NSaved=  10.
 NSaved=10 IEnMin=10 EnMin= -649.858493524748     IErMin=10 ErrMin= 3.79D-06
 ErrMax= 3.79D-06  0.00D+00 EMaxC= 1.00D-01 BMatC= 1.29D-08 BMatP= 3.11D-07
 IDIUse=1 WtCom= 1.00D+00 WtEn= 0.00D+00
 Coeff-Com:  0.146D-04-0.806D-04-0.191D-03-0.265D-03 0.139D-02 0.642D-02
 Coeff-Com:  0.232D-01 0.202D+00 0.264D+00 0.504D+00
 Coeff:      0.146D-04-0.806D-04-0.191D-03-0.265D-03 0.139D-02 0.642D-02
 Coeff:      0.232D-01 0.202D+00 0.264D+00 0.504D+00
 Gap=     0.123 Goal=   None    Shift=    0.000
 Gap=     0.123 Goal=   None    Shift=    0.000
 RMSDP=1.27D-06 MaxDP=8.85D-05 DE=-6.91D-08 OVMax= 1.82D-05

 Cycle  11  Pass 1  IDiag  1:
 RMSU=  6.73D-07    CP:  9.74D-01  8.32D-01  6.79D-01  4.71D-01  8.49D-01
                    CP:  7.73D-01  8.29D-01  7.32D-01  7.24D-01  8.14D-01
 E= -649.858493526993     Delta-E=       -0.000000002245 Rises=F Damp=F
 DIIS: error= 1.32D-06 at cycle  11 NSaved=  11.
 NSaved=11 IEnMin=11 EnMin= -649.858493526993     IErMin=11 ErrMin= 1.32D-06
 ErrMax= 1.32D-06  0.00D+00 EMaxC= 1.00D-01 BMatC= 1.96D-09 BMatP= 1.29D-08
 IDIUse=1 WtCom= 1.00D+00 WtEn= 0.00D+00
 Coeff-Com:  0.368D-05-0.155D-04-0.104D-03-0.205D-03-0.143D-04 0.656D-03
 Coeff-Com:  0.392D-02 0.594D-01 0.894D-01 0.309D+00 0.538D+00
 Coeff:      0.368D-05-0.155D-04-0.104D-03-0.205D-03-0.143D-04 0.656D-03
 Coeff:      0.392D-02 0.594D-01 0.894D-01 0.309D+00 0.538D+00
 Gap=     0.123 Goal=   None    Shift=    0.000
 Gap=     0.123 Goal=   None    Shift=    0.000
 RMSDP=4.07D-07 MaxDP=4.36D-05 DE=-2.24D-09 OVMax= 8.15D-06

 Cycle  12  Pass 1  IDiag  1:
 RMSU=  2.23D-07    CP:  9.74D-01  8.32D-01  6.79D-01  4.71D-01  8.49D-01
                    CP:  7.73D-01  8.29D-01  7.29D-01  7.29D-01  8.08D-01
                    CP:  8.23D-01
 E= -649.858493527370     Delta-E=       -0.000000000377 Rises=F Damp=F
 DIIS: error= 3.57D-07 at cycle  12 NSaved=  12.
 NSaved=12 IEnMin=12 EnMin= -649.858493527370     IErMin=12 ErrMin= 3.57D-07
 ErrMax= 3.57D-07  0.00D+00 EMaxC= 1.00D-01 BMatC= 1.59D-10 BMatP= 1.96D-09
 IDIUse=1 WtCom= 1.00D+00 WtEn= 0.00D+00
 Coeff-Com:  0.277D-06-0.525D-06-0.424D-04-0.940D-04-0.151D-03-0.207D-03
 Coeff-Com: -0.244D-04 0.147D-01 0.250D-01 0.126D+00 0.295D+00 0.541D+00
 Coeff:      0.277D-06-0.525D-06-0.424D-04-0.940D-04-0.151D-03-0.207D-03
 Coeff:     -0.244D-04 0.147D-01 0.250D-01 0.126D+00 0.295D+00 0.541D+00
 Gap=     0.123 Goal=   None    Shift=    0.000
 Gap=     0.123 Goal=   None    Shift=    0.000
 RMSDP=1.23D-07 MaxDP=9.43D-06 DE=-3.77D-10 OVMax= 2.59D-06

 Cycle  13  Pass 1  IDiag  1:
 RMSU=  5.11D-08    CP:  9.74D-01  8.32D-01  6.79D-01  4.71D-01  8.49D-01
                    CP:  7.73D-01  8.29D-01  7.32D-01  7.33D-01  8.18D-01
                    CP:  8.25D-01  7.98D-01
 E= -649.858493527418     Delta-E=       -0.000000000048 Rises=F Damp=F
 DIIS: error= 6.60D-08 at cycle  13 NSaved=  13.
 NSaved=13 IEnMin=13 EnMin= -649.858493527418     IErMin=13 ErrMin= 6.60D-08
 ErrMax= 6.60D-08  0.00D+00 EMaxC= 1.00D-01 BMatC= 8.20D-12 BMatP= 1.59D-10
 IDIUse=1 WtCom= 1.00D+00 WtEn= 0.00D+00
 Coeff-Com: -0.621D-06 0.175D-05-0.400D-05-0.109D-04-0.633D-04-0.146D-03
 Coeff-Com: -0.560D-03-0.168D-02-0.179D-02 0.107D-01 0.458D-01 0.206D+00
 Coeff-Com:  0.741D+00
 Coeff:     -0.621D-06 0.175D-05-0.400D-05-0.109D-04-0.633D-04-0.146D-03
 Coeff:     -0.560D-03-0.168D-02-0.179D-02 0.107D-01 0.458D-01 0.206D+00
 Coeff:      0.741D+00
 Gap=     0.123 Goal=   None    Shift=    0.000
 Gap=     0.123 Goal=   None    Shift=    0.000
 RMSDP=4.84D-08 MaxDP=2.75D-06 DE=-4.83D-11 OVMax= 6.06D-07

 Cycle  14  Pass 1  IDiag  1:
 RMSU=  1.74D-08    CP:  9.74D-01  8.32D-01  6.79D-01  4.71D-01  8.49D-01
                    CP:  7.73D-01  8.29D-01  7.31D-01  7.35D-01  8.26D-01
                    CP:  8.31D-01  8.09D-01  8.52D-01
 E= -649.858493527413     Delta-E=        0.000000000005 Rises=F Damp=F
 DIIS: error= 2.23D-08 at cycle  14 NSaved=  14.
 NSaved=14 IEnMin=13 EnMin= -649.858493527418     IErMin=14 ErrMin= 2.23D-08
 ErrMax= 2.23D-08  0.00D+00 EMaxC= 1.00D-01 BMatC= 6.71D-13 BMatP= 8.20D-12
 IDIUse=1 WtCom= 1.00D+00 WtEn= 0.00D+00
 Coeff-Com: -0.281D-06 0.796D-06-0.141D-06-0.807D-06-0.221D-04-0.533D-04
 Coeff-Com: -0.254D-03-0.134D-02-0.190D-02-0.745D-03 0.638D-02 0.617D-01
 Coeff-Com:  0.325D+00 0.611D+00
 Coeff:     -0.281D-06 0.796D-06-0.141D-06-0.807D-06-0.221D-04-0.533D-04
 Coeff:     -0.254D-03-0.134D-02-0.190D-02-0.745D-03 0.638D-02 0.617D-01
 Coeff:      0.325D+00 0.611D+00
 Gap=     0.123 Goal=   None    Shift=    0.000
 Gap=     0.123 Goal=   None    Shift=    0.000
 RMSDP=7.91D-09 MaxDP=7.22D-07 DE= 5.00D-12 OVMax= 2.44D-07

 Error on total polarization charges =  0.01450
 SCF Done:  E(UB3LYP) =  -649.858493527     A.U. after   14 cycles
            NFock= 14  Conv=0.79D-08     -V/T= 2.0040
 <Sx>= 0.0000 <Sy>= 0.0000 <Sz>= 0.0000 <S**2>=-0.0000 S=-0.0000
 <L.S>=  0.00000000000    
 KE= 6.472819054636D+02 PE=-3.192509430985D+03 EE= 1.057447432991D+03
 Annihilation of the first spin contaminant:
 S**2 before annihilation    -0.0000,   after     0.0000
 Leave Link  502 at Thu Jan 25 05:44:40 2024, MaxMem=  4026531840 cpu:             729.7 elap:              91.7
 (Enter /sysapps/ubuntu-applications/gaussian/Gaussian/AVX2/g16/l601.exe)
 Copying SCF densities to generalized density rwf, IOpCl= 1 IROHF=0.

 **********************************************************************

            Population analysis using the SCF density.

 **********************************************************************

 Orbital symmetries:
 Alpha Orbitals:
       Occupied  (A) (A) (A) (A) (A) (A) (A) (A) (A) (A) (A) (A)
                 (A) (A) (A) (A) (A) (A) (A) (A) (A) (A) (A) (A)
                 (A) (A) (A) (A) (A) (A) (A) (A) (A) (A) (A) (A)
                 (A) (A) (A) (A) (A) (A) (A) (A) (A) (A) (A) (A)
                 (A)
       Virtual   (A) (A) (A) (A) (A) (A) (A) (A) (A) (A) (A) (A)
                 (A) (A) (A) (A) (A) (A) (A) (A) (A) (A) (A) (A)
                 (A) (A) (A) (A) (A) (A) (A) (A) (A) (A) (A) (A)
                 (A) (A) (A) (A) (A) (A) (A) (A) (A) (A) (A) (A)
                 (A) (A) (A) (A) (A) (A) (A) (A) (A) (A) (A) (A)
                 (A) (A) (A) (A) (A) (A) (A) (A) (A) (A) (A) (A)
                 (A) (A) (A) (A) (A) (A) (A) (A) (A) (A) (A) (A)
                 (A) (A) (A) (A) (A) (A) (A) (A) (A) (A) (A) (A)
                 (A) (A) (A) (A) (A) (A) (A) (A) (A) (A) (A) (A)
                 (A) (A) (A) (A) (A) (A) (A) (A) (A) (A) (A) (A)
                 (A) (A) (A) (A) (A) (A) (A) (A) (A) (A) (A) (A)
                 (A) (A) (A) (A) (A) (A) (A) (A) (A) (A) (A) (A)
                 (A) (A) (A) (A) (A) (A) (A) (A) (A) (A) (A) (A)
                 (A) (A) (A) (A) (A) (A) (A) (A) (A) (A) (A) (A)
                 (A) (A) (A) (A) (A) (A) (A) (A) (A) (A) (A) (A)
                 (A) (A) (A) (A) (A) (A) (A) (A) (A) (A) (A) (A)
                 (A) (A) (A) (A) (A) (A) (A) (A) (A) (A) (A) (A)
                 (A) (A) (A) (A) (A) (A) (A) (A) (A) (A) (A) (A)
                 (A) (A) (A) (A) (A) (A) (A) (A) (A) (A) (A) (A)
                 (A) (A) (A) (A) (A) (A) (A) (A) (A) (A) (A) (A)
                 (A) (A) (A) (A) (A) (A) (A) (A) (A) (A) (A) (A)
                 (A) (A) (A) (A) (A) (A) (A) (A) (A) (A) (A) (A)
                 (A) (A) (A) (A) (A) (A) (A) (A) (A) (A) (A) (A)
                 (A) (A) (A) (A) (A) (A) (A) (A) (A) (A) (A) (A)
                 (A) (A) (A) (A) (A) (A) (A) (A) (A) (A) (A) (A)
                 (A) (A) (A) (A) (A) (A) (A) (A) (A) (A) (A) (A)
 Beta  Orbitals:
       Occupied  (A) (A) (A) (A) (A) (A) (A) (A) (A) (A) (A) (A)
                 (A) (A) (A) (A) (A) (A) (A) (A) (A) (A) (A) (A)
                 (A) (A) (A) (A) (A) (A) (A) (A) (A) (A) (A) (A)
                 (A) (A) (A) (A) (A) (A) (A) (A) (A) (A) (A) (A)
                 (A)
       Virtual   (A) (A) (A) (A) (A) (A) (A) (A) (A) (A) (A) (A)
                 (A) (A) (A) (A) (A) (A) (A) (A) (A) (A) (A) (A)
                 (A) (A) (A) (A) (A) (A) (A) (A) (A) (A) (A) (A)
                 (A) (A) (A) (A) (A) (A) (A) (A) (A) (A) (A) (A)
                 (A) (A) (A) (A) (A) (A) (A) (A) (A) (A) (A) (A)
                 (A) (A) (A) (A) (A) (A) (A) (A) (A) (A) (A) (A)
                 (A) (A) (A) (A) (A) (A) (A) (A) (A) (A) (A) (A)
                 (A) (A) (A) (A) (A) (A) (A) (A) (A) (A) (A) (A)
                 (A) (A) (A) (A) (A) (A) (A) (A) (A) (A) (A) (A)
                 (A) (A) (A) (A) (A) (A) (A) (A) (A) (A) (A) (A)
                 (A) (A) (A) (A) (A) (A) (A) (A) (A) (A) (A) (A)
                 (A) (A) (A) (A) (A) (A) (A) (A) (A) (A) (A) (A)
                 (A) (A) (A) (A) (A) (A) (A) (A) (A) (A) (A) (A)
                 (A) (A) (A) (A) (A) (A) (A) (A) (A) (A) (A) (A)
                 (A) (A) (A) (A) (A) (A) (A) (A) (A) (A) (A) (A)
                 (A) (A) (A) (A) (A) (A) (A) (A) (A) (A) (A) (A)
                 (A) (A) (A) (A) (A) (A) (A) (A) (A) (A) (A) (A)
                 (A) (A) (A) (A) (A) (A) (A) (A) (A) (A) (A) (A)
                 (A) (A) (A) (A) (A) (A) (A) (A) (A) (A) (A) (A)
                 (A) (A) (A) (A) (A) (A) (A) (A) (A) (A) (A) (A)
                 (A) (A) (A) (A) (A) (A) (A) (A) (A) (A) (A) (A)
                 (A) (A) (A) (A) (A) (A) (A) (A) (A) (A) (A) (A)
                 (A) (A) (A) (A) (A) (A) (A) (A) (A) (A) (A) (A)
                 (A) (A) (A) (A) (A) (A) (A) (A) (A) (A) (A) (A)
                 (A) (A) (A) (A) (A) (A) (A) (A) (A) (A) (A) (A)
                 (A) (A) (A) (A) (A) (A) (A) (A) (A) (A) (A) (A)
 The electronic state is 1-A.
 Alpha  occ. eigenvalues --  -19.16784 -19.14493 -19.13957 -10.29081 -10.28762
 Alpha  occ. eigenvalues --  -10.27048 -10.22436 -10.21352 -10.20916 -10.20739
 Alpha  occ. eigenvalues --  -10.20471 -10.19837 -10.19755 -10.17993  -1.09578
 Alpha  occ. eigenvalues --   -1.07276  -1.06582  -0.89229  -0.85088  -0.79344
 Alpha  occ. eigenvalues --   -0.77536  -0.73371  -0.69422  -0.66112  -0.62893
 Alpha  occ. eigenvalues --   -0.60972  -0.55181  -0.54331  -0.53763  -0.49837
 Alpha  occ. eigenvalues --   -0.48270  -0.47360  -0.46897  -0.46705  -0.44299
 Alpha  occ. eigenvalues --   -0.43663  -0.42449  -0.41703  -0.41022  -0.40754
 Alpha  occ. eigenvalues --   -0.40516  -0.38951  -0.38168  -0.36082  -0.30422
 Alpha  occ. eigenvalues --   -0.29801  -0.28387  -0.28190  -0.25464
 Alpha virt. eigenvalues --   -0.13125  -0.05184  -0.03640  -0.00646   0.00388
 Alpha virt. eigenvalues --    0.00900   0.02166   0.02313   0.02480   0.03380
 Alpha virt. eigenvalues --    0.04065   0.04822   0.05091   0.05101   0.05865
 Alpha virt. eigenvalues --    0.07056   0.07343   0.08243   0.08619   0.09133
 Alpha virt. eigenvalues --    0.09438   0.09699   0.10658   0.11024   0.11524
 Alpha virt. eigenvalues --    0.11778   0.12824   0.12936   0.12947   0.13427
 Alpha virt. eigenvalues --    0.13790   0.13988   0.14487   0.15017   0.15376
 Alpha virt. eigenvalues --    0.15646   0.16312   0.16974   0.17395   0.17734
 Alpha virt. eigenvalues --    0.18202   0.18375   0.18381   0.19275   0.19383
 Alpha virt. eigenvalues --    0.20295   0.20740   0.21411   0.21686   0.21833
 Alpha virt. eigenvalues --    0.22231   0.23377   0.23769   0.24511   0.25138
 Alpha virt. eigenvalues --    0.25444   0.26872   0.27053   0.27151   0.27165
 Alpha virt. eigenvalues --    0.28355   0.28474   0.29276   0.29457   0.29637
 Alpha virt. eigenvalues --    0.30138   0.30612   0.31006   0.31247   0.31543
 Alpha virt. eigenvalues --    0.31699   0.33459   0.33881   0.34639   0.35177
 Alpha virt. eigenvalues --    0.35829   0.35984   0.36739   0.37989   0.38716
 Alpha virt. eigenvalues --    0.40458   0.40956   0.41843   0.43311   0.44768
 Alpha virt. eigenvalues --    0.45433   0.47543   0.49489   0.51372   0.52420
 Alpha virt. eigenvalues --    0.52916   0.53228   0.53607   0.56060   0.56459
 Alpha virt. eigenvalues --    0.58109   0.58165   0.58543   0.59537   0.60661
 Alpha virt. eigenvalues --    0.60911   0.61535   0.62527   0.63318   0.63819
 Alpha virt. eigenvalues --    0.64307   0.64766   0.64940   0.65953   0.66817
 Alpha virt. eigenvalues --    0.68537   0.70390   0.70734   0.73094   0.74134
 Alpha virt. eigenvalues --    0.74828   0.76033   0.76231   0.78272   0.79282
 Alpha virt. eigenvalues --    0.81115   0.84250   0.84943   0.85882   0.87312
 Alpha virt. eigenvalues --    0.88238   0.89134   0.90557   0.91148   0.91933
 Alpha virt. eigenvalues --    0.93139   0.93696   0.95220   0.95568   0.97018
 Alpha virt. eigenvalues --    0.98027   0.99628   1.02214   1.02467   1.03150
 Alpha virt. eigenvalues --    1.05819   1.05979   1.06985   1.09222   1.10011
 Alpha virt. eigenvalues --    1.11221   1.11889   1.13065   1.13951   1.19007
 Alpha virt. eigenvalues --    1.19654   1.20872   1.21160   1.22002   1.22681
 Alpha virt. eigenvalues --    1.26935   1.28206   1.30505   1.31088   1.34697
 Alpha virt. eigenvalues --    1.35494   1.41226   1.41406   1.43084   1.45147
 Alpha virt. eigenvalues --    1.47401   1.47828   1.48373   1.49322   1.52233
 Alpha virt. eigenvalues --    1.52764   1.53950   1.55639   1.55980   1.56798
 Alpha virt. eigenvalues --    1.58869   1.59301   1.62615   1.63540   1.65542
 Alpha virt. eigenvalues --    1.65989   1.68358   1.70781   1.72788   1.73305
 Alpha virt. eigenvalues --    1.75545   1.76887   1.78685   1.79598   1.81973
 Alpha virt. eigenvalues --    1.82501   1.87143   1.87592   1.88326   1.89839
 Alpha virt. eigenvalues --    1.90570   1.91067   1.92493   1.94020   1.97167
 Alpha virt. eigenvalues --    1.97467   1.98116   1.99740   2.01958   2.02894
 Alpha virt. eigenvalues --    2.04587   2.08118   2.10846   2.12160   2.16375
 Alpha virt. eigenvalues --    2.17899   2.18880   2.22939   2.25102   2.28086
 Alpha virt. eigenvalues --    2.32012   2.33922   2.35857   2.37683   2.43097
 Alpha virt. eigenvalues --    2.47306   2.49511   2.51644   2.53102   2.54083
 Alpha virt. eigenvalues --    2.55884   2.57780   2.58375   2.59853   2.63288
 Alpha virt. eigenvalues --    2.67213   2.69919   2.70979   2.72535   2.72733
 Alpha virt. eigenvalues --    2.73844   2.75383   2.75804   2.76036   2.77632
 Alpha virt. eigenvalues --    2.78165   2.80753   2.82766   2.83170   2.84268
 Alpha virt. eigenvalues --    2.84928   2.90071   2.91150   2.93560   3.00754
 Alpha virt. eigenvalues --    3.01383   3.04546   3.06634   3.07405   3.08719
 Alpha virt. eigenvalues --    3.10742   3.14490   3.17160   3.18516   3.19109
 Alpha virt. eigenvalues --    3.21530   3.22749   3.30221   3.33668   3.34227
 Alpha virt. eigenvalues --    3.35437   3.39671   3.45197   3.50393   3.51580
 Alpha virt. eigenvalues --    3.55880   3.57707   3.64894   3.65462   3.69497
 Alpha virt. eigenvalues --    3.77709   3.78277   3.83795   3.86948   3.91282
 Alpha virt. eigenvalues --    4.02948   4.08599   4.12009   4.18318   4.23367
 Alpha virt. eigenvalues --    4.28034   4.36756   4.71778   4.82644   4.99212
 Alpha virt. eigenvalues --    5.02864   5.04841   5.23170   5.26850   5.46132
 Alpha virt. eigenvalues --    5.71379   5.78129   5.80075  23.54340  23.71458
 Alpha virt. eigenvalues --   23.84761  23.89380  23.90276  23.92574  23.96980
 Alpha virt. eigenvalues --   24.00261  24.06755  24.15979  24.19128  49.96315
 Alpha virt. eigenvalues --   50.00561  50.04911
  Beta  occ. eigenvalues --  -19.16784 -19.14493 -19.13957 -10.29081 -10.28762
  Beta  occ. eigenvalues --  -10.27048 -10.22436 -10.21352 -10.20916 -10.20739
  Beta  occ. eigenvalues --  -10.20471 -10.19837 -10.19755 -10.17993  -1.09578
  Beta  occ. eigenvalues --   -1.07276  -1.06582  -0.89229  -0.85088  -0.79344
  Beta  occ. eigenvalues --   -0.77536  -0.73371  -0.69422  -0.66112  -0.62893
  Beta  occ. eigenvalues --   -0.60972  -0.55181  -0.54331  -0.53763  -0.49837
  Beta  occ. eigenvalues --   -0.48270  -0.47360  -0.46897  -0.46705  -0.44299
  Beta  occ. eigenvalues --   -0.43663  -0.42449  -0.41703  -0.41022  -0.40754
  Beta  occ. eigenvalues --   -0.40516  -0.38951  -0.38168  -0.36082  -0.30422
  Beta  occ. eigenvalues --   -0.29801  -0.28387  -0.28190  -0.25464
  Beta virt. eigenvalues --   -0.13125  -0.05184  -0.03640  -0.00646   0.00388
  Beta virt. eigenvalues --    0.00900   0.02166   0.02313   0.02480   0.03380
  Beta virt. eigenvalues --    0.04065   0.04822   0.05091   0.05101   0.05865
  Beta virt. eigenvalues --    0.07056   0.07343   0.08243   0.08619   0.09133
  Beta virt. eigenvalues --    0.09438   0.09699   0.10658   0.11024   0.11524
  Beta virt. eigenvalues --    0.11778   0.12824   0.12936   0.12947   0.13427
  Beta virt. eigenvalues --    0.13790   0.13988   0.14487   0.15017   0.15376
  Beta virt. eigenvalues --    0.15646   0.16312   0.16974   0.17395   0.17734
  Beta virt. eigenvalues --    0.18202   0.18375   0.18381   0.19275   0.19383
  Beta virt. eigenvalues --    0.20295   0.20740   0.21411   0.21686   0.21833
  Beta virt. eigenvalues --    0.22231   0.23377   0.23769   0.24511   0.25138
  Beta virt. eigenvalues --    0.25444   0.26872   0.27053   0.27151   0.27165
  Beta virt. eigenvalues --    0.28355   0.28474   0.29276   0.29457   0.29637
  Beta virt. eigenvalues --    0.30138   0.30612   0.31006   0.31247   0.31543
  Beta virt. eigenvalues --    0.31699   0.33459   0.33881   0.34639   0.35177
  Beta virt. eigenvalues --    0.35829   0.35984   0.36739   0.37989   0.38716
  Beta virt. eigenvalues --    0.40458   0.40956   0.41843   0.43311   0.44768
  Beta virt. eigenvalues --    0.45433   0.47543   0.49489   0.51372   0.52420
  Beta virt. eigenvalues --    0.52916   0.53228   0.53607   0.56060   0.56459
  Beta virt. eigenvalues --    0.58109   0.58165   0.58543   0.59537   0.60661
  Beta virt. eigenvalues --    0.60911   0.61535   0.62527   0.63318   0.63819
  Beta virt. eigenvalues --    0.64307   0.64766   0.64940   0.65953   0.66817
  Beta virt. eigenvalues --    0.68537   0.70390   0.70734   0.73094   0.74134
  Beta virt. eigenvalues --    0.74828   0.76033   0.76231   0.78272   0.79282
  Beta virt. eigenvalues --    0.81115   0.84250   0.84943   0.85882   0.87312
  Beta virt. eigenvalues --    0.88238   0.89134   0.90557   0.91148   0.91933
  Beta virt. eigenvalues --    0.93139   0.93696   0.95220   0.95568   0.97018
  Beta virt. eigenvalues --    0.98027   0.99628   1.02214   1.02467   1.03150
  Beta virt. eigenvalues --    1.05819   1.05979   1.06985   1.09222   1.10011
  Beta virt. eigenvalues --    1.11221   1.11889   1.13065   1.13951   1.19007
  Beta virt. eigenvalues --    1.19654   1.20872   1.21160   1.22002   1.22681
  Beta virt. eigenvalues --    1.26935   1.28206   1.30505   1.31088   1.34697
  Beta virt. eigenvalues --    1.35494   1.41226   1.41406   1.43084   1.45147
  Beta virt. eigenvalues --    1.47401   1.47828   1.48373   1.49322   1.52233
  Beta virt. eigenvalues --    1.52764   1.53950   1.55639   1.55980   1.56798
  Beta virt. eigenvalues --    1.58869   1.59301   1.62615   1.63540   1.65542
  Beta virt. eigenvalues --    1.65989   1.68358   1.70781   1.72788   1.73305
  Beta virt. eigenvalues --    1.75545   1.76887   1.78685   1.79598   1.81973
  Beta virt. eigenvalues --    1.82501   1.87143   1.87592   1.88326   1.89839
  Beta virt. eigenvalues --    1.90570   1.91067   1.92493   1.94020   1.97167
  Beta virt. eigenvalues --    1.97467   1.98116   1.99740   2.01958   2.02894
  Beta virt. eigenvalues --    2.04587   2.08118   2.10846   2.12160   2.16375
  Beta virt. eigenvalues --    2.17899   2.18880   2.22939   2.25102   2.28086
  Beta virt. eigenvalues --    2.32012   2.33922   2.35857   2.37683   2.43097
  Beta virt. eigenvalues --    2.47306   2.49511   2.51644   2.53102   2.54083
  Beta virt. eigenvalues --    2.55884   2.57780   2.58375   2.59853   2.63288
  Beta virt. eigenvalues --    2.67213   2.69919   2.70979   2.72535   2.72733
  Beta virt. eigenvalues --    2.73844   2.75383   2.75804   2.76036   2.77632
  Beta virt. eigenvalues --    2.78165   2.80753   2.82766   2.83170   2.84268
  Beta virt. eigenvalues --    2.84928   2.90071   2.91150   2.93560   3.00754
  Beta virt. eigenvalues --    3.01383   3.04546   3.06634   3.07405   3.08719
  Beta virt. eigenvalues --    3.10742   3.14490   3.17160   3.18516   3.19109
  Beta virt. eigenvalues --    3.21530   3.22749   3.30221   3.33668   3.34227
  Beta virt. eigenvalues --    3.35437   3.39671   3.45197   3.50393   3.51580
  Beta virt. eigenvalues --    3.55880   3.57707   3.64894   3.65462   3.69497
  Beta virt. eigenvalues --    3.77709   3.78277   3.83795   3.86948   3.91282
  Beta virt. eigenvalues --    4.02948   4.08599   4.12009   4.18318   4.23367
  Beta virt. eigenvalues --    4.28034   4.36756   4.71778   4.82644   4.99212
  Beta virt. eigenvalues --    5.02864   5.04841   5.23170   5.26850   5.46132
  Beta virt. eigenvalues --    5.71379   5.78129   5.80075  23.54340  23.71458
  Beta virt. eigenvalues --   23.84761  23.89380  23.90276  23.92574  23.96980
  Beta virt. eigenvalues --   24.00261  24.06755  24.15979  24.19128  49.96315
  Beta virt. eigenvalues --   50.00561  50.04911
          Condensed to atoms (all electrons):
               1          2          3          4          5          6
     1  C    7.224345  -0.860169  -0.171033   0.327994   0.022913   0.240407
     2  C   -0.860169  12.579982  -3.199359   0.262409  -0.067356  -0.883197
     3  C   -0.171033  -3.199359  22.507106  -5.344591   0.101456   2.818021
     4  C    0.327994   0.262409  -5.344591  17.083757   0.121695  -6.196172
     5  O    0.022913  -0.067356   0.101456   0.121695   8.248221   0.596681
     6  C    0.240407  -0.883197   2.818021  -6.196172   0.596681  26.647781
     7  C   -0.161235  -0.202299  -2.341649   0.197949  -0.245770  -5.295331
     8  O    0.001963   0.015402   0.001809  -0.131304   0.004635   0.375732
     9  C    0.006394   0.179019  -1.857969  -1.939208  -0.127443  -5.438966
    10  C    0.015854  -0.286789   0.250057   0.519831  -0.008526   0.347506
    11  C   -0.170405  -0.558104  -0.588873   0.905155  -0.023729  -3.274450
    12  C   -0.772547  -2.160205  -0.653286  -0.809290  -0.187648  -0.151601
    13  C   -0.476358   0.918174  -5.501319   2.137734  -0.130762  -4.425382
    14  O    0.012597  -0.346226  -0.162655  -0.000023   0.000371  -0.127247
    15  H    0.428992  -0.088120  -0.074104   0.044666   0.000807   0.008479
    16  H    0.340205   0.063630  -0.034443  -0.001731   0.000082  -0.006750
    17  H    0.341274   0.062631  -0.035933  -0.001881   0.000088  -0.007013
    18  H   -0.038338  -0.045764   0.700873  -0.152378  -0.025184  -0.087421
    19  H   -0.000454   0.007295  -0.022987  -0.048918   0.055831  -0.114859
    20  H   -0.001148  -0.003612  -0.003946  -0.030740   0.000852  -0.134185
    21  H    0.001335   0.010774   0.011534  -0.001449   0.000137   0.088305
    22  H   -0.013522  -0.034739   0.004334  -0.013445   0.000168   0.041458
               7          8          9         10         11         12
     1  C   -0.161235   0.001963   0.006394   0.015854  -0.170405  -0.772547
     2  C   -0.202299   0.015402   0.179019  -0.286789  -0.558104  -2.160205
     3  C   -2.341649   0.001809  -1.857969   0.250057  -0.588873  -0.653286
     4  C    0.197949  -0.131304  -1.939208   0.519831   0.905155  -0.809290
     5  O   -0.245770   0.004635  -0.127443  -0.008526  -0.023729  -0.187648
     6  C   -5.295331   0.375732  -5.438966   0.347506  -3.274450  -0.151601
     7  C   15.467268   0.294467  -0.501809  -0.594581   2.314841  -2.586440
     8  O    0.294467   8.099994  -0.577634   0.015556  -0.007228  -0.020847
     9  C   -0.501809  -0.577634  13.333058  -0.276470  -0.857769   2.330350
    10  C   -0.594581   0.015556  -0.276470   6.881341   0.641600  -1.056444
    11  C    2.314841  -0.007228  -0.857769   0.641600   9.445694  -1.486551
    12  C   -2.586440  -0.020847   2.330350  -1.056444  -1.486551  13.465906
    13  C    0.047666  -0.001014   1.137695  -0.397088  -0.751216  -0.113260
    14  O   -0.008102   0.000026  -0.003416   0.050411   0.152707  -0.251655
    15  H    0.007075   0.000092   0.002243  -0.001296   0.007380  -0.016377
    16  H   -0.002872  -0.000020  -0.000297   0.000675  -0.001586  -0.004075
    17  H   -0.002944  -0.000020  -0.000295   0.000720  -0.001341  -0.003716
    18  H   -0.060080  -0.001049  -0.018299   0.003981  -0.011330   0.032597
    19  H    0.022624   0.265246   0.134229  -0.002604  -0.006242   0.002128
    20  H   -0.151893  -0.027229   0.678845  -0.054912   0.003773   0.041670
    21  H    0.031471   0.001410  -0.171369   0.436417  -0.071348  -0.022700
    22  H    0.014653   0.000049   0.014276  -0.083713   0.382973   0.063634
              13         14         15         16         17         18
     1  C   -0.476358   0.012597   0.428992   0.340205   0.341274  -0.038338
     2  C    0.918174  -0.346226  -0.088120   0.063630   0.062631  -0.045764
     3  C   -5.501319  -0.162655  -0.074104  -0.034443  -0.035933   0.700873
     4  C    2.137734  -0.000023   0.044666  -0.001731  -0.001881  -0.152378
     5  O   -0.130762   0.000371   0.000807   0.000082   0.000088  -0.025184
     6  C   -4.425382  -0.127247   0.008479  -0.006750  -0.007013  -0.087421
     7  C    0.047666  -0.008102   0.007075  -0.002872  -0.002944  -0.060080
     8  O   -0.001014   0.000026   0.000092  -0.000020  -0.000020  -0.001049
     9  C    1.137695  -0.003416   0.002243  -0.000297  -0.000295  -0.018299
    10  C   -0.397088   0.050411  -0.001296   0.000675   0.000720   0.003981
    11  C   -0.751216   0.152707   0.007380  -0.001586  -0.001341  -0.011330
    12  C   -0.113260  -0.251655  -0.016377  -0.004075  -0.003716   0.032597
    13  C   13.164253   0.801412   0.026956  -0.000481   0.000757   0.015505
    14  O    0.801412   8.162465   0.001400  -0.005630  -0.005703  -0.000416
    15  H    0.026956   0.001400   0.509947  -0.015088  -0.015181  -0.003811
    16  H   -0.000481  -0.005630  -0.015088   0.534600  -0.058812   0.000609
    17  H    0.000757  -0.005703  -0.015181  -0.058812   0.534829   0.000591
    18  H    0.015505  -0.000416  -0.003811   0.000609   0.000591   0.484095
    19  H    0.012108  -0.000174   0.000148   0.000009   0.000009  -0.000575
    20  H   -0.009187  -0.000047   0.000005  -0.000007  -0.000007  -0.000040
    21  H    0.007018   0.001191  -0.000007   0.000006   0.000006  -0.000045
    22  H   -0.038196  -0.000803   0.000146  -0.000025  -0.000026   0.000423
              19         20         21         22
     1  C   -0.000454  -0.001148   0.001335  -0.013522
     2  C    0.007295  -0.003612   0.010774  -0.034739
     3  C   -0.022987  -0.003946   0.011534   0.004334
     4  C   -0.048918  -0.030740  -0.001449  -0.013445
     5  O    0.055831   0.000852   0.000137   0.000168
     6  C   -0.114859  -0.134185   0.088305   0.041458
     7  C    0.022624  -0.151893   0.031471   0.014653
     8  O    0.265246  -0.027229   0.001410   0.000049
     9  C    0.134229   0.678845  -0.171369   0.014276
    10  C   -0.002604  -0.054912   0.436417  -0.083713
    11  C   -0.006242   0.003773  -0.071348   0.382973
    12  C    0.002128   0.041670  -0.022700   0.063634
    13  C    0.012108  -0.009187   0.007018  -0.038196
    14  O   -0.000174  -0.000047   0.001191  -0.000803
    15  H    0.000148   0.000005  -0.000007   0.000146
    16  H    0.000009  -0.000007   0.000006  -0.000025
    17  H    0.000009  -0.000007   0.000006  -0.000026
    18  H   -0.000575  -0.000040  -0.000045   0.000423
    19  H    0.346515   0.002099  -0.000491   0.000542
    20  H    0.002099   0.490676  -0.018883   0.001395
    21  H   -0.000491  -0.018883   0.493639  -0.015587
    22  H    0.000542   0.001395  -0.015587   0.491676
          Atomic-Atomic Spin Densities.
               1          2          3          4          5          6
     1  C   -0.000000  -0.000000   0.000000  -0.000000  -0.000000  -0.000000
     2  C   -0.000000  -0.000000   0.000000  -0.000000   0.000000   0.000000
     3  C    0.000000   0.000000  -0.000000  -0.000000   0.000000   0.000000
     4  C   -0.000000  -0.000000  -0.000000  -0.000000  -0.000000  -0.000000
     5  O   -0.000000   0.000000   0.000000  -0.000000   0.000000   0.000000
     6  C   -0.000000   0.000000   0.000000  -0.000000   0.000000  -0.000000
     7  C   -0.000000  -0.000000   0.000000   0.000000  -0.000000   0.000000
     8  O    0.000000   0.000000  -0.000000  -0.000000  -0.000000  -0.000000
     9  C   -0.000000  -0.000000   0.000000   0.000000  -0.000000   0.000000
    10  C    0.000000   0.000000  -0.000000  -0.000000  -0.000000  -0.000000
    11  C    0.000000   0.000000   0.000000  -0.000000   0.000000   0.000000
    12  C    0.000000   0.000000  -0.000000   0.000000  -0.000000   0.000000
    13  C   -0.000000  -0.000000  -0.000000   0.000000  -0.000000  -0.000000
    14  O    0.000000   0.000000   0.000000  -0.000000   0.000000   0.000000
    15  H   -0.000000   0.000000   0.000000  -0.000000   0.000000   0.000000
    16  H    0.000000  -0.000000   0.000000   0.000000  -0.000000  -0.000000
    17  H    0.000000  -0.000000   0.000000   0.000000  -0.000000   0.000000
    18  H    0.000000   0.000000  -0.000000   0.000000   0.000000   0.000000
    19  H   -0.000000  -0.000000   0.000000   0.000000  -0.000000  -0.000000
    20  H   -0.000000  -0.000000   0.000000   0.000000  -0.000000   0.000000
    21  H    0.000000   0.000000  -0.000000  -0.000000   0.000000  -0.000000
    22  H    0.000000   0.000000   0.000000  -0.000000   0.000000   0.000000
               7          8          9         10         11         12
     1  C   -0.000000   0.000000  -0.000000   0.000000   0.000000   0.000000
     2  C   -0.000000   0.000000  -0.000000   0.000000   0.000000   0.000000
     3  C    0.000000  -0.000000   0.000000  -0.000000   0.000000  -0.000000
     4  C    0.000000  -0.000000   0.000000  -0.000000  -0.000000   0.000000
     5  O   -0.000000  -0.000000  -0.000000  -0.000000   0.000000  -0.000000
     6  C    0.000000  -0.000000   0.000000  -0.000000   0.000000   0.000000
     7  C   -0.000000   0.000000  -0.000000   0.000000   0.000000  -0.000000
     8  O    0.000000  -0.000000   0.000000  -0.000000   0.000000  -0.000000
     9  C   -0.000000   0.000000  -0.000000   0.000000  -0.000000  -0.000000
    10  C    0.000000  -0.000000   0.000000  -0.000000  -0.000000   0.000000
    11  C    0.000000   0.000000  -0.000000  -0.000000  -0.000000  -0.000000
    12  C   -0.000000  -0.000000  -0.000000   0.000000  -0.000000  -0.000000
    13  C   -0.000000   0.000000  -0.000000   0.000000   0.000000  -0.000000
    14  O    0.000000  -0.000000  -0.000000   0.000000  -0.000000  -0.000000
    15  H   -0.000000   0.000000  -0.000000   0.000000   0.000000   0.000000
    16  H    0.000000  -0.000000   0.000000  -0.000000  -0.000000  -0.000000
    17  H    0.000000  -0.000000   0.000000  -0.000000   0.000000  -0.000000
    18  H    0.000000  -0.000000   0.000000  -0.000000  -0.000000  -0.000000
    19  H   -0.000000  -0.000000  -0.000000   0.000000  -0.000000  -0.000000
    20  H   -0.000000   0.000000  -0.000000   0.000000  -0.000000  -0.000000
    21  H    0.000000  -0.000000   0.000000  -0.000000   0.000000   0.000000
    22  H   -0.000000   0.000000  -0.000000   0.000000  -0.000000  -0.000000
              13         14         15         16         17         18
     1  C   -0.000000   0.000000  -0.000000   0.000000   0.000000   0.000000
     2  C   -0.000000   0.000000   0.000000  -0.000000  -0.000000   0.000000
     3  C   -0.000000   0.000000   0.000000   0.000000   0.000000  -0.000000
     4  C    0.000000  -0.000000  -0.000000   0.000000   0.000000   0.000000
     5  O   -0.000000   0.000000   0.000000  -0.000000  -0.000000   0.000000
     6  C   -0.000000   0.000000   0.000000  -0.000000   0.000000   0.000000
     7  C   -0.000000   0.000000  -0.000000   0.000000   0.000000   0.000000
     8  O    0.000000  -0.000000   0.000000  -0.000000  -0.000000  -0.000000
     9  C   -0.000000  -0.000000  -0.000000   0.000000   0.000000   0.000000
    10  C    0.000000   0.000000   0.000000  -0.000000  -0.000000  -0.000000
    11  C    0.000000  -0.000000   0.000000  -0.000000   0.000000  -0.000000
    12  C   -0.000000  -0.000000   0.000000  -0.000000  -0.000000  -0.000000
    13  C    0.000000  -0.000000  -0.000000  -0.000000  -0.000000   0.000000
    14  O   -0.000000   0.000000   0.000000  -0.000000  -0.000000  -0.000000
    15  H   -0.000000   0.000000   0.000000  -0.000000  -0.000000   0.000000
    16  H   -0.000000  -0.000000  -0.000000  -0.000000   0.000000   0.000000
    17  H   -0.000000  -0.000000  -0.000000   0.000000   0.000000   0.000000
    18  H    0.000000  -0.000000   0.000000   0.000000   0.000000  -0.000000
    19  H   -0.000000  -0.000000  -0.000000  -0.000000  -0.000000   0.000000
    20  H   -0.000000   0.000000  -0.000000   0.000000   0.000000   0.000000
    21  H    0.000000  -0.000000   0.000000  -0.000000  -0.000000  -0.000000
    22  H   -0.000000   0.000000   0.000000   0.000000   0.000000  -0.000000
              19         20         21         22
     1  C   -0.000000  -0.000000   0.000000   0.000000
     2  C   -0.000000  -0.000000   0.000000   0.000000
     3  C    0.000000   0.000000  -0.000000   0.000000
     4  C    0.000000   0.000000  -0.000000  -0.000000
     5  O   -0.000000  -0.000000   0.000000   0.000000
     6  C   -0.000000   0.000000  -0.000000   0.000000
     7  C   -0.000000  -0.000000   0.000000  -0.000000
     8  O   -0.000000   0.000000  -0.000000   0.000000
     9  C   -0.000000  -0.000000   0.000000  -0.000000
    10  C    0.000000   0.000000  -0.000000   0.000000
    11  C   -0.000000  -0.000000   0.000000  -0.000000
    12  C   -0.000000  -0.000000   0.000000  -0.000000
    13  C   -0.000000  -0.000000   0.000000  -0.000000
    14  O   -0.000000   0.000000  -0.000000   0.000000
    15  H   -0.000000  -0.000000   0.000000   0.000000
    16  H   -0.000000   0.000000  -0.000000   0.000000
    17  H   -0.000000   0.000000  -0.000000   0.000000
    18  H    0.000000   0.000000  -0.000000  -0.000000
    19  H    0.000000  -0.000000   0.000000  -0.000000
    20  H   -0.000000  -0.000000   0.000000  -0.000000
    21  H    0.000000   0.000000  -0.000000   0.000000
    22  H   -0.000000  -0.000000   0.000000  -0.000000
 Mulliken charges and spin densities:
               1          2
     1  C   -0.299064   0.000000
     2  C    0.636626   0.000000
     3  C   -0.403041  -0.000000
     4  C   -0.930060  -0.000000
     5  O   -0.337519   0.000000
     6  C    0.978203   0.000000
     7  C   -0.243011  -0.000000
     8  O   -0.310036  -0.000000
     9  C   -0.045163   0.000000
    10  C   -0.401526  -0.000000
    11  C   -0.043951  -0.000000
    12  C    0.360358  -0.000000
    13  C   -0.425016   0.000000
    14  O   -0.270484   0.000000
    15  H    0.175648   0.000000
    16  H    0.192000   0.000000
    17  H    0.191971   0.000000
    18  H    0.206057   0.000000
    19  H    0.348523   0.000000
    20  H    0.216520   0.000000
    21  H    0.218636   0.000000
    22  H    0.184330   0.000000
 Sum of Mulliken charges =  -0.00000  -0.00000
 Mulliken charges and spin densities with hydrogens summed into heavy atoms:
               1          2
     1  C    0.260556   0.000000
     2  C    0.636626   0.000000
     3  C   -0.196984  -0.000000
     4  C   -0.930060  -0.000000
     5  O   -0.337519   0.000000
     6  C    0.978203   0.000000
     7  C   -0.243011  -0.000000
     8  O    0.038486  -0.000000
     9  C    0.171356   0.000000
    10  C   -0.182890  -0.000000
    11  C    0.140379  -0.000000
    12  C    0.360358  -0.000000
    13  C   -0.425016   0.000000
    14  O   -0.270484   0.000000
 Electronic spatial extent (au):  <R**2>=           2566.6438
 Charge=             -0.0000 electrons
 Dipole moment (field-independent basis, Debye):
    X=             -0.8932    Y=             -0.9618    Z=              0.0043  Tot=              1.3126
 Quadrupole moment (field-independent basis, Debye-Ang):
   XX=            -75.2251   YY=            -87.2874   ZZ=            -81.6347
   XY=            -16.4110   XZ=             -0.0066   YZ=             -0.0070
 Traceless Quadrupole moment (field-independent basis, Debye-Ang):
   XX=              6.1572   YY=             -5.9050   ZZ=             -0.2523
   XY=            -16.4110   XZ=             -0.0066   YZ=             -0.0070
 Octapole moment (field-independent basis, Debye-Ang**2):
  XXX=            -17.8723  YYY=            -17.0887  ZZZ=             -0.0113  XYY=             17.7718
  XXY=              3.5741  XXZ=              0.0306  XZZ=             -4.5405  YZZ=              4.5721
  YYZ=              0.0304  XYZ=              0.0086
 Hexadecapole moment (field-independent basis, Debye-Ang**3):
 XXXX=          -2020.9876 YYYY=          -1222.2272 ZZZZ=            -93.8122 XXXY=           -113.2711
 XXXZ=             -0.0299 YYYX=            -62.4089 YYYZ=             -0.0314 ZZZX=              0.0052
 ZZZY=              0.0040 XXYY=           -548.7631 XXZZ=           -376.9812 YYZZ=           -221.1650
 XXYZ=             -0.0495 YYXZ=             -0.0338 ZZXY=             20.7873
 N-N= 8.379215990030D+02 E-N=-3.192509432287D+03  KE= 6.472819054636D+02
                          Isotropic Fermi Contact Couplings
        Atom                 a.u.       MegaHertz       Gauss      10(-4) cm-1
     1  C(13)             -0.00000      -0.00000      -0.00000      -0.00000
     2  C(13)              0.00000       0.00000       0.00000       0.00000
     3  C(13)              0.00000       0.00000       0.00000       0.00000
     4  C(13)             -0.00000      -0.00000      -0.00000      -0.00000
     5  O(17)              0.00000      -0.00000      -0.00000      -0.00000
     6  C(13)             -0.00000      -0.00000      -0.00000      -0.00000
     7  C(13)              0.00000       0.00000       0.00000       0.00000
     8  O(17)              0.00000      -0.00000      -0.00000      -0.00000
     9  C(13)              0.00000       0.00000       0.00000       0.00000
    10  C(13)              0.00000       0.00000       0.00000       0.00000
    11  C(13)             -0.00000      -0.00000      -0.00000      -0.00000
    12  C(13)             -0.00000      -0.00000      -0.00000      -0.00000
    13  C(13)              0.00000       0.00000       0.00000       0.00000
    14  O(17)              0.00000      -0.00000      -0.00000      -0.00000
    15  H(1)               0.00000       0.00000       0.00000       0.00000
    16  H(1)              -0.00000      -0.00000      -0.00000      -0.00000
    17  H(1)              -0.00000      -0.00000      -0.00000      -0.00000
    18  H(1)              -0.00000      -0.00000      -0.00000      -0.00000
    19  H(1)              -0.00000      -0.00000      -0.00000      -0.00000
    20  H(1)              -0.00000      -0.00000      -0.00000      -0.00000
    21  H(1)              -0.00000      -0.00000      -0.00000      -0.00000
    22  H(1)              -0.00000      -0.00000      -0.00000      -0.00000
 --------------------------------------------------------
       Center         ----  Spin Dipole Couplings  ----
                      3XX-RR        3YY-RR        3ZZ-RR
 --------------------------------------------------------
     1   Atom        0.000000     -0.000000     -0.000000
     2   Atom       -0.000000      0.000000      0.000000
     3   Atom        0.000000     -0.000000      0.000000
     4   Atom        0.000000     -0.000000      0.000000
     5   Atom       -0.000000      0.000000      0.000000
     6   Atom       -0.000000      0.000000      0.000000
     7   Atom        0.000000     -0.000000      0.000000
     8   Atom        0.000000     -0.000000      0.000000
     9   Atom        0.000000     -0.000000      0.000000
    10   Atom       -0.000000      0.000000      0.000000
    11   Atom       -0.000000      0.000000      0.000000
    12   Atom        0.000000     -0.000000      0.000000
    13   Atom       -0.000000      0.000000      0.000000
    14   Atom        0.000000     -0.000000      0.000000
    15   Atom       -0.000000      0.000000     -0.000000
    16   Atom       -0.000000     -0.000000      0.000000
    17   Atom       -0.000000     -0.000000      0.000000
    18   Atom       -0.000000      0.000000      0.000000
    19   Atom       -0.000000      0.000000      0.000000
    20   Atom       -0.000000      0.000000     -0.000000
    21   Atom        0.000000     -0.000000     -0.000000
    22   Atom        0.000000     -0.000000      0.000000
 --------------------------------------------------------
                        XY            XZ            YZ
 --------------------------------------------------------
     1   Atom        0.000000     -0.000000     -0.000000
     2   Atom       -0.000000      0.000000     -0.000000
     3   Atom       -0.000000      0.000000      0.000000
     4   Atom       -0.000000      0.000000      0.000000
     5   Atom        0.000000     -0.000000      0.000000
     6   Atom        0.000000     -0.000000     -0.000000
     7   Atom        0.000000     -0.000000      0.000000
     8   Atom        0.000000      0.000000      0.000000
     9   Atom       -0.000000      0.000000     -0.000000
    10   Atom        0.000000     -0.000000      0.000000
    11   Atom        0.000000      0.000000     -0.000000
    12   Atom        0.000000     -0.000000      0.000000
    13   Atom       -0.000000      0.000000      0.000000
    14   Atom        0.000000     -0.000000     -0.000000
    15   Atom       -0.000000      0.000000     -0.000000
    16   Atom       -0.000000      0.000000     -0.000000
    17   Atom       -0.000000     -0.000000      0.000000
    18   Atom        0.000000      0.000000     -0.000000
    19   Atom        0.000000     -0.000000      0.000000
    20   Atom        0.000000     -0.000000     -0.000000
    21   Atom       -0.000000      0.000000     -0.000000
    22   Atom       -0.000000      0.000000      0.000000
 --------------------------------------------------------


 ---------------------------------------------------------------------------------
              Anisotropic Spin Dipole Couplings in Principal Axis System
 ---------------------------------------------------------------------------------

       Atom             a.u.   MegaHertz   Gauss  10(-4) cm-1        Axes

              Baa    -0.0000    -0.000    -0.000    -0.000 -0.1708  0.9552  0.2418
     1 C(13)  Bbb    -0.0000    -0.000    -0.000    -0.000  0.0782 -0.2315  0.9697
              Bcc     0.0000     0.000     0.000     0.000  0.9822  0.1846 -0.0351
 
              Baa    -0.0000    -0.000    -0.000    -0.000  0.9569  0.2905  0.0031
     2 C(13)  Bbb     0.0000     0.000     0.000     0.000 -0.0090  0.0192  0.9998
              Bcc     0.0000     0.000     0.000     0.000 -0.2904  0.9567 -0.0210
 
              Baa    -0.0000    -0.000    -0.000    -0.000  0.6069  0.7942 -0.0308
     3 C(13)  Bbb     0.0000     0.000     0.000     0.000  0.0799 -0.0223  0.9966
              Bcc     0.0000     0.000     0.000     0.000  0.7907 -0.6073 -0.0770
 
              Baa    -0.0000    -0.000    -0.000    -0.000  0.0682  0.9977 -0.0032
     4 C(13)  Bbb     0.0000     0.000     0.000     0.000  0.0006  0.0031  1.0000
              Bcc     0.0000     0.000     0.000     0.000  0.9977 -0.0682 -0.0003
 
              Baa    -0.0000     0.000     0.000     0.000  0.8061 -0.5917  0.0028
     5 O(17)  Bbb     0.0000    -0.000    -0.000    -0.000 -0.0060 -0.0034  1.0000
              Bcc     0.0000    -0.000    -0.000    -0.000  0.5917  0.8061  0.0063
 
              Baa    -0.0000    -0.000    -0.000    -0.000  0.7525 -0.6586  0.0031
     6 C(13)  Bbb     0.0000     0.000     0.000     0.000  0.0036  0.0088  1.0000
              Bcc     0.0000     0.000     0.000     0.000  0.6586  0.7524 -0.0090
 
              Baa    -0.0000    -0.000    -0.000    -0.000 -0.4036  0.9149 -0.0043
     7 C(13)  Bbb     0.0000     0.000     0.000     0.000  0.9148  0.4036  0.0155
              Bcc     0.0000     0.000     0.000     0.000 -0.0159 -0.0023  0.9999
 
              Baa    -0.0000     0.000     0.000     0.000 -0.5703  0.8214 -0.0009
     8 O(17)  Bbb     0.0000    -0.000    -0.000    -0.000 -0.0048 -0.0023  1.0000
              Bcc     0.0000    -0.000    -0.000    -0.000  0.8214  0.5703  0.0052
 
              Baa    -0.0000    -0.000    -0.000    -0.000  0.6262  0.7794 -0.0186
     9 C(13)  Bbb     0.0000     0.000     0.000     0.000 -0.0355  0.0523  0.9980
              Bcc     0.0000     0.000     0.000     0.000  0.7788 -0.6243  0.0604
 
              Baa    -0.0000    -0.000    -0.000    -0.000  0.9646 -0.2634  0.0111
    10 C(13)  Bbb     0.0000     0.000     0.000     0.000 -0.0146 -0.0113  0.9998
              Bcc     0.0000     0.000     0.000     0.000  0.2632  0.9646  0.0147
 
              Baa    -0.0000    -0.000    -0.000    -0.000  0.9360 -0.3517 -0.0121
    11 C(13)  Bbb     0.0000     0.000     0.000     0.000  0.0107 -0.0061  0.9999
              Bcc     0.0000     0.000     0.000     0.000  0.3517  0.9361  0.0020
 
              Baa    -0.0000    -0.000    -0.000    -0.000 -0.0387  0.9992 -0.0042
    12 C(13)  Bbb     0.0000     0.000     0.000     0.000  0.0174  0.0048  0.9998
              Bcc     0.0000     0.000     0.000     0.000  0.9991  0.0386 -0.0176
 
              Baa    -0.0000    -0.000    -0.000    -0.000  0.7957  0.6056 -0.0040
    13 C(13)  Bbb     0.0000     0.000     0.000     0.000  0.0069 -0.0025  1.0000
              Bcc     0.0000     0.000     0.000     0.000 -0.6056  0.7958  0.0061
 
              Baa    -0.0000     0.000     0.000     0.000 -0.2702  0.9628  0.0011
    14 O(17)  Bbb     0.0000    -0.000    -0.000    -0.000  0.0101  0.0017  0.9999
              Bcc     0.0000    -0.000    -0.000    -0.000  0.9627  0.2702 -0.0102
 
              Baa    -0.0000    -0.000    -0.000    -0.000  0.0184  0.0559  0.9983
    15 H(1)   Bbb    -0.0000    -0.000    -0.000    -0.000  0.9517  0.3051 -0.0346
              Bcc     0.0000     0.000     0.000     0.000 -0.3065  0.9507 -0.0476
 
              Baa    -0.0000    -0.000    -0.000    -0.000  0.5615  0.7672  0.3100
    16 H(1)   Bbb     0.0000     0.000     0.000     0.000  0.7953 -0.3971 -0.4580
              Bcc     0.0000     0.000     0.000     0.000  0.2282 -0.5038  0.8332
 
              Baa    -0.0000    -0.000    -0.000    -0.000  0.5654  0.7886 -0.2417
    17 H(1)   Bbb    -0.0000    -0.000    -0.000    -0.000  0.8119 -0.4805  0.3314
              Bcc     0.0000     0.000     0.000     0.000 -0.1452  0.3837  0.9120
 
              Baa    -0.0000    -0.000    -0.000    -0.000  0.9754 -0.2201 -0.0136
    18 H(1)   Bbb     0.0000     0.000     0.000     0.000  0.0124 -0.0065  0.9999
              Bcc     0.0000     0.000     0.000     0.000  0.2202  0.9755  0.0036
 
              Baa    -0.0000    -0.000    -0.000    -0.000  0.9436 -0.3309  0.0071
    19 H(1)   Bbb     0.0000     0.000     0.000     0.000  0.3309  0.9437  0.0072
              Bcc     0.0000     0.000     0.000     0.000 -0.0091 -0.0045  0.9999
 
              Baa    -0.0000    -0.000    -0.000    -0.000  0.2768 -0.1151  0.9540
    20 H(1)   Bbb    -0.0000    -0.000    -0.000    -0.000  0.8441 -0.4453 -0.2987
              Bcc     0.0000     0.000     0.000     0.000  0.4591  0.8880 -0.0261
 
              Baa    -0.0000    -0.000    -0.000    -0.000 -0.0019  0.0897  0.9960
    21 H(1)   Bbb    -0.0000    -0.000    -0.000    -0.000  0.1853  0.9788 -0.0877
              Bcc     0.0000     0.000     0.000     0.000  0.9827 -0.1843  0.0185
 
              Baa    -0.0000    -0.000    -0.000    -0.000  0.3893  0.9211 -0.0040
    22 H(1)   Bbb     0.0000     0.000     0.000     0.000 -0.0206  0.0130  0.9997
              Bcc     0.0000     0.000     0.000     0.000  0.9209 -0.3891  0.0241
 

 ---------------------------------------------------------------------------------

 No NMR shielding tensors so no spin-rotation constants.
 Leave Link  601 at Thu Jan 25 05:44:41 2024, MaxMem=  4026531840 cpu:               2.6 elap:               0.4
 (Enter /sysapps/ubuntu-applications/gaussian/Gaussian/AVX2/g16/l9999.exe)
 1\1\GINC-ACIDSCN012\SP\UB3LYP\6-311++G(d,p)\C11H8O3\SELHAJJ1\25-Jan-20
 24\0\\#P UB3LYP/6-311++G(d,p) SCRF=(PCM,Solvent=n,n-DiMethylFormamide)
 \\Quinone PCM in DMF\\0,1\C,0,-3.419976,-0.728922,-0.382323\C,0,-2.032
 597,-0.264457,-0.065178\C,0,-1.758468,0.698035,0.835278\C,0,-0.393203,
 1.150783,1.143433\O,0,-0.21598,2.043537,1.985769\C,0,0.725965,0.523861
 ,0.436048\C,0,2.053827,0.927167,0.701014\O,0,2.349285,1.88155,1.591857
 \C,0,3.112236,0.311817,0.010957\C,0,2.852204,-0.67985,-0.91904\C,0,1.5
 40472,-1.088862,-1.191137\C,0,0.48469,-0.490738,-0.517818\C,0,-0.91259
 8,-0.928124,-0.809419\O,0,-1.156556,-1.799982,-1.627287\H,0,-4.160585,
 -0.188478,0.207913\H,0,-3.517927,-1.800796,-0.189569\H,0,-3.635781,-0.
 590506,-1.445329\H,0,-2.544702,1.198962,1.390939\H,0,1.497709,2.199353
 ,1.976567\H,0,4.122858,0.635289,0.228587\H,0,3.678215,-1.146086,-1.444
 079\H,0,1.330911,-1.863555,-1.917182\\Version=ES64L-G16RevA.03\State=1
 -A\HF=-649.8584935\S2=0.\S2-1=0.\S2A=0.\RMSD=7.911e-09\Dipole=-0.20741
 14,-0.351377,-0.3165245\Quadrupole=11.1187404,-6.2149839,-4.9037564,-4
 .3642591,-5.2558608,-5.4018432\PG=C01 [X(C11H8O3)]\\@


 I WANT TO KNOW HOW GOD CREATED THE WORLD.  I AM NOT INTERESTED IN
 THIS OR THAT PHENOMENON, IN THE SPECTRUM OF THIS OR THAT ELEMENT.
 I WANT TO KNOW HIS THOUGHTS, THE REST ARE DETAILS.
     -- ALBERT EINSTEIN
 Job cpu time:       0 days  0 hours 12 minutes 33.6 seconds.
 Elapsed time:       0 days  0 hours  1 minutes 35.3 seconds.
 File lengths (MBytes):  RWF=    187 Int=      0 D2E=      0 Chk=     11 Scr=      1
 Normal termination of Gaussian 16 at Thu Jan 25 05:44:41 2024.
