
Running Job 1 of 1 017-an-SM12.in
qchem 017-an-SM12.in_2686114.0 /expanse/lustre/scratch/selhajj/temp_project/qcscratch/28444910/qchem2686114/ 0
/cm/shared/apps/spack/cpu/opt/spack/linux-centos8-zen2/gcc-10.2.0/qchem-5.4-akfmr7b3t57bfs6qan3padb2wnb2i7cl/exe/qcprog.exe_s 017-an-SM12.in_2686114.0 /expanse/lustre/scratch/selhajj/temp_project/qcscratch/28444910/qchem2686114/
                  Welcome to Q-Chem
     A Quantum Leap Into The Future Of Chemistry


 Q-Chem 5.4, Q-Chem, Inc., Pleasanton, CA (2021)

 License issued to: University of California, San Diego (site)

 E. Epifanovsky,  A. T. B. Gilbert,  Xintian Feng,  Joonho Lee,  Yuezhi Mao,  
 N. Mardirossian,  P. Pokhilko,  A. White,  M. Wormit,  M. P. Coons,  
 A. L. Dempwolff,  Zhengting Gan,  D. Hait,  P. R. Horn,  L. D. Jacobson,  
 I. Kaliman,  J. Kussmann,  A. W. Lange,  Ka Un Lao,  D. S. Levine,  Jie Liu,  
 S. C. McKenzie,  A. F. Morrison,  K. Nanda,  F. Plasser,  D. R. Rehn,  
 M. L. Vidal,  Zhi-Qiang You,  Ying Zhu,  B. Alam,  B. Albrecht,  
 A. Aldossary,  E. Alguire,  J. H. Andersen,  D. Barton,  K. Begam,  A. Behn,  
 Y. A. Bernard,  E. J. Berquist,  H. Burton,  A. Carreras,  K. Carter-Fenk,  
 R. Chakraborty,  A. D. Chien,  K. D. Closser,  V. Cofer-Shabica,  
 S. Dasgupta,  Jia Deng,  M. de Wergifosse,  M. Diedenhofen,  Hainam Do,  
 S. Ehlert,  Po-Tung Fang,  S. Fatehi,  Qingguo Feng,  J. Gayvert,  
 Qinghui Ge,  G. Gidofalvi,  M. Goldey,  J. Gomes,  C. Gonzalez-Espinoza,  
 S. Gulania,  A. Gunina,  M. W. D. Hanson-Heine,  P. H. P. Harbach,  
 A. W. Hauser,  M. F. Herbst,  M. Hernandez Vera,  M. Hodecker,  
 Z. C. Holden,  S. Houck,  Xunkun Huang,  Kerwin Hui,  B. C. Huynh,  
 M. Ivanov,  Hyunjun Ji,  Hanjie Jiang,  B. Kaduk,  S. Kaehler,  
 K. Khistyaev,  Jaehoon Kim,  P. Klunzinger,  Z. Koczor-Benda,  
 Joong Hoon Koh,  D. Kosenkov,  L. Koulias,  T. Kowalczyk,  C. M. Krauter,  
 K. Kue,  A. Kunitsa,  T. Kus,  A. Landau,  K. V. Lawler,  D. Lefrancois,  
 S. Lehtola,  Rain Li,  Yi-Pei Li,  Jiashu Liang,  M. Liebenthal,  
 Hung-Hsuan Lin,  You-Sheng Lin,  Fenglai Liu,  Kuan-Yu Liu,  
 M. Loipersberger,  A. Luenser,  A. Manjanath,  P. Manohar,  E. Mansoor,  
 S. F. Manzer,  Shan-Ping Mao,  A. V. Marenich,  T. Markovich,  S. Mason,  
 S. A. Maurer,  P. F. McLaughlin,  M. F. S. J. Menger,  J.-M. Mewes,  
 S. A. Mewes,  P. Morgante,  J. W. Mullinax,  T. S. Nguyen-Beck,  
 K. J. Oosterbaan,  G. Paran,  Alexander C. Paul,  Suranjan K. Paul,  
 F. Pavosevic,  Zheng Pei,  S. Prager,  E. I. Proynov,  E. Ramos,  B. Rana,  
 A. E. Rask,  A. Rettig,  R. M. Richard,  F. Rob,  E. Rossomme,  T. Scheele,  
 M. Scheurer,  M. Schneider,  N. Sergueev,  S. M. Sharada,  W. Skomorowski,  
 D. W. Small,  C. J. Stein,  Yu-Chuan Su,  E. J. Sundstrom,  Zhen Tao,  
 J. Thirman,  T. Tsuchimochi,  N. M. Tubman,  S. P. Veccham,  O. Vydrov,  
 J. Wenzel,  J. Witte,  A. Yamada,  Kun Yao,  S. Yeganeh,  S. R. Yost,  
 A. Zech,  Igor Ying Zhang,  Xing Zhang,  Yu Zhang,  D. Zuev,  
 A. Aspuru-Guzik,  A. T. Bell,  N. A. Besley,  K. B. Bravaya,  B. R. Brooks,  
 D. Casanova,  Jeng-Da Chai,  S. Coriani,  C. J. Cramer,  
 A. E. DePrince, III,  R. A. DiStasio Jr.,  A. Dreuw,  B. D. Dunietz,  
 T. R. Furlani,  W. A. Goddard III,  S. Grimme,  S. Hammes-Schiffer,  
 T. Head-Gordon,  W. J. Hehre,  Chao-Ping Hsu,  T.-C. Jagau,  Yousung Jung,  
 A. Klamt,  Jing Kong,  D. S. Lambrecht,  WanZhen Liang,  N. J. Mayhall,  
 C. W. McCurdy,  J. B. Neaton,  C. Ochsenfeld,  J. A. Parkhill,  R. Peverati,  
 V. A. Rassolov,  Yihan Shao,  L. V. Slipchenko,  T. Stauch,  R. P. Steele,  
 J. E. Subotnik,  A. J. W. Thom,  A. Tkatchenko,  D. G. Truhlar,  
 T. Van Voorhis,  T. A. Wesolowski,  K. B. Whaley,  H. L. Woodcock III,  
 P. M. Zimmerman,  S. Faraji,  P. M. W. Gill,  M. Head-Gordon,  
 J. M. Herbert,  A. I. Krylov

 Contributors to earlier versions of Q-Chem not listed above: 
 R. D. Adamson,  B. Austin,  R. Baer,  J. Baker,  G. J. O. Beran,  
 K. Brandhorst,  S. T. Brown,  E. F. C. Byrd,  A. K. Chakraborty,  
 G. K. L. Chan,  Chun-Min Chang,  Yunqing Chen,  C.-L. Cheng,  
 Siu Hung Chien,  D. M. Chipman,  D. L. Crittenden,  H. Dachsel,  
 R. J. Doerksen,  A. D. Dutoi,  R. G. Edgar,  J. Fosso-Tande,  
 L. Fusti-Molnar,  D. Ghosh,  A. Ghysels,  A. Golubeva-Zadorozhnaya,  
 J. Gonthier,  M. S. Gordon,  S. R. Gwaltney,  G. Hawkins,  J. E. Herr,  
 A. Heyden,  S. Hirata,  E. G. Hohenstein,  G. Kedziora,  F. J. Keil,  
 C. Kelley,  Jihan Kim,  R. A. King,  R. Z. Khaliullin,  P. P. Korambath,  
 W. Kurlancheek,  A. Laurent,  A. M. Lee,  M. S. Lee,  S. V. Levchenko,  
 Ching Yeh Lin,  D. Liotard,  E. Livshits,  R. C. Lochan,  I. Lotan,  
 L. A. Martinez-Martinez,  P. E. Maslen,  N. Nair,  D. P. O'Neill,  
 D. Neuhauser,  E. Neuscamman,  C. M. Oana,  R. Olivares-Amaya,  R. Olson,  
 T. M. Perrine,  B. Peters,  P. A. Pieniazek,  A. Prociuk,  Y. M. Rhee,  
 J. Ritchie,  M. A. Rohrdanz,  E. Rosta,  N. J. Russ,  H. F. Schaefer III,  
 M. W. Schmidt,  N. E. Schultz,  S. Sharma,  N. Shenvi,  C. D. Sherrill,  
 A. C. Simmonett,  A. Sodt,  T. Stein,  D. Stuck,  K. S. Thanthiriwatte,  
 V. Vanovschi,  L. Vogt,  Tao Wang,  A. Warshel,  M. A. Watson,  
 C. F. Williams,  Q. Wu,  X. Xu,  Jun Yang,  W. Zhang,  Yan Zhao

 Please cite Q-Chem as follows:
 Y. Shao et al., Mol. Phys. 113, 184-215 (2015)
 DOI: 10.1080/00268976.2014.952696

 Q-Chem 5.4.0 for Intel X86 EM64T Linux

 Parts of Q-Chem use Armadillo 9.800.1 (Horizon Scraper).
 http://arma.sourceforge.net/

 Q-Chem begins on Sat Feb  3 10:27:25 2024  

 Host: 
0

     Scratch files written to /expanse/lustre/scratch/selhajj/temp_project/qcscratch/28444910/qchem2686114//
 May1621 |scratch|qcdevops|jenkins|workspace|build_RNUM    
 Processing $rem in /cm/shared/apps/spack/cpu/opt/spack/linux-centos8-zen2/gcc-10.2.0/qchem-5.4-akfmr7b3t57bfs6qan3padb2wnb2i7cl/config/preferences:
 Processing $rem in /home/selhajj/.qchemrc:
 Symmetry turned off for PCM/SM12/SMD calculation
 Method-specific promolecule density matrix will be built for SM12 calculation

 Checking the input file for inconsistencies... 	...done.

--------------------------------------------------------------
User input:
--------------------------------------------------------------
$molecule
-2 1
C                  2.5253330000     -0.8927360000     -0.1340740000
C                  1.2172920000     -0.1562900000     -0.0000950000
C                  1.1492730000      1.2041670000      0.3193880000
Cl                 2.7171350000      2.0896070000      0.5762120000
C                 -0.0242500000      2.0149940000      0.4751920000
O                 -0.0392520000      3.2612460000      0.7690540000
C                 -1.1781040000      1.1934700000      0.2460850000
C                 -1.2133610000     -0.1674760000     -0.0766580000
C                 -2.5035780000     -0.9158550000     -0.2925160000
C                  0.0109590000     -0.9109740000     -0.2149750000
O                  0.0262370000     -2.1815690000     -0.5142520000
Cl                -2.7670940000      2.0644510000      0.4033670000
H                  3.1144520000     -0.8694210000      0.7944930000
H                  2.2918960000     -1.9297870000     -0.3873800000
H                  3.1679500000     -0.4631280000     -0.9164890000
H                 -3.1508010000     -0.8969280000      0.5966030000
H                 -3.0988730000     -0.4928020000     -1.1149410000
H                 -2.2452140000     -1.9509690000     -0.5290140000
$end

$rem
BASIS  =  6-311++G(d,p)
GUI  =  2
JOB_TYPE  =  SP
METHOD  =  B3LYP
SCF_CONVERGENCE  = 8
SOLVENT_METHOD = sm12
$end

$smx
solvent dimethylformamide
charges CM5
$end





--------------------------------------------------------------
 ----------------------------------------------------------------
             Standard Nuclear Orientation (Angstroms)
    I     Atom           X                Y                Z
 ----------------------------------------------------------------
    1      C       2.5253330000    -0.8927360000    -0.1340740000
    2      C       1.2172920000    -0.1562900000    -0.0000950000
    3      C       1.1492730000     1.2041670000     0.3193880000
    4      Cl      2.7171350000     2.0896070000     0.5762120000
    5      C      -0.0242500000     2.0149940000     0.4751920000
    6      O      -0.0392520000     3.2612460000     0.7690540000
    7      C      -1.1781040000     1.1934700000     0.2460850000
    8      C      -1.2133610000    -0.1674760000    -0.0766580000
    9      C      -2.5035780000    -0.9158550000    -0.2925160000
   10      C       0.0109590000    -0.9109740000    -0.2149750000
   11      O       0.0262370000    -2.1815690000    -0.5142520000
   12      Cl     -2.7670940000     2.0644510000     0.4033670000
   13      H       3.1144520000    -0.8694210000     0.7944930000
   14      H       2.2918960000    -1.9297870000    -0.3873800000
   15      H       3.1679500000    -0.4631280000    -0.9164890000
   16      H      -3.1508010000    -0.8969280000     0.5966030000
   17      H      -3.0988730000    -0.4928020000    -1.1149410000
   18      H      -2.2452140000    -1.9509690000    -0.5290140000
 ----------------------------------------------------------------
 Nuclear Repulsion Energy =         856.21524309 hartrees
 There are       53 alpha and       53 beta electrons
 Requested basis set is 6-311++G(d,p)
 There are 116 shells and 322 basis functions

 Total QAlloc Memory Limit   8000 MB
 Mega-Array Size       188 MB
 MEM_STATIC part       192 MB
 A cutoff of  1.0D-11 yielded   5494 shell pairs
 There are     44916 function pairs (     48246 Cartesian)
 Smallest overlap matrix eigenvalue = 8.09E-07

 Q-Chem warning in module stvman/mkSTV.C, line 323:

 Overlap eigenvalue is smaller than square root of threshold
 Use THRESH >= 12 to get rid of this warning

 Linear dependence detected in AO basis
 Tighter screening thresholds may be required for diffuse basis sets
 Use S2THRESH > 14 and THRESH = 14 in case of SCF convergence issues
 Number of orthogonalized atomic orbitals = 320
 Maximum deviation from orthogonality = 1.142E-10

 Scale SEOQF with 1.000000e-01/1.000000e-01/1.000000e-01

 Standard Electronic Orientation quadrupole field applied
 Nucleus-field energy     =     0.0000000365 hartrees
 ================ Generating on-the-fly Promolecule Density  ================
Attempting to make child job directory: /expanse/lustre/scratch/selhajj/temp_project/qcscratch/28444910/qchem2686114//Frg1/
Attempting to make child job directory: /expanse/lustre/scratch/selhajj/temp_project/qcscratch/28444910/qchem2686114//Frg2/
Attempting to make child job directory: /expanse/lustre/scratch/selhajj/temp_project/qcscratch/28444910/qchem2686114//Frg3/
Attempting to make child job directory: /expanse/lustre/scratch/selhajj/temp_project/qcscratch/28444910/qchem2686114//Frg4/
Creating input file /expanse/lustre/scratch/selhajj/temp_project/qcscratch/28444910/qchem2686114/Frg1.input
using default PutDataFrgm: nothing
calling putenv with: QCSCRATCH=/expanse/lustre/scratch/selhajj/temp_project/qcscratch/28444910/qchem2686114/ 
Spawning Job For Fragment 0
Done Job For Fragment 0
calling putenv with: QCSCRATCH=/expanse/lustre/scratch/selhajj/temp_project/qcscratch/28444910 
calling putenv with: QCTHREADS=8 
Creating input file /expanse/lustre/scratch/selhajj/temp_project/qcscratch/28444910/qchem2686114/Frg2.input
using default PutDataFrgm: nothing
calling putenv with: QCSCRATCH=/expanse/lustre/scratch/selhajj/temp_project/qcscratch/28444910/qchem2686114/ 
Spawning Job For Fragment 1
Done Job For Fragment 1
calling putenv with: QCSCRATCH=/expanse/lustre/scratch/selhajj/temp_project/qcscratch/28444910 
calling putenv with: QCTHREADS=8 
Creating input file /expanse/lustre/scratch/selhajj/temp_project/qcscratch/28444910/qchem2686114/Frg3.input
using default PutDataFrgm: nothing
calling putenv with: QCSCRATCH=/expanse/lustre/scratch/selhajj/temp_project/qcscratch/28444910/qchem2686114/ 
Spawning Job For Fragment 2
Done Job For Fragment 2
calling putenv with: QCSCRATCH=/expanse/lustre/scratch/selhajj/temp_project/qcscratch/28444910 
calling putenv with: QCTHREADS=8 
Creating input file /expanse/lustre/scratch/selhajj/temp_project/qcscratch/28444910/qchem2686114/Frg4.input
using default PutDataFrgm: nothing
calling putenv with: QCSCRATCH=/expanse/lustre/scratch/selhajj/temp_project/qcscratch/28444910/qchem2686114/ 
Spawning Job For Fragment 3
Done Job For Fragment 3
calling putenv with: QCSCRATCH=/expanse/lustre/scratch/selhajj/temp_project/qcscratch/28444910 
calling putenv with: QCTHREADS=8 
 Time for running child jobs:  CPU 0.01 s  wall 5.63 s
 ============= Method Specific Promolecule Density Constructed =============
 Guess from superposition of atomic densities
 Warning:  Energy on first SCF cycle will be non-variational
 SAD guess density has 104.000000 electrons

 -----------------------------------------------------------------------
  General SCF calculation program by
  Eric Jon Sundstrom, Paul Horn, Yuezhi Mao, Dmitri Zuev, Alec White,
  David Stuck, Shaama M.S., Shane Yost, Joonho Lee, David Small,
  Daniel Levine, Susi Lehtola, Hugh Burton, Evgeny Epifanovsky,
  Bang C. Huynh
 -----------------------------------------------------------------------
 Exchange:     0.2000 Hartree-Fock + 0.0800 Slater + 0.7200 B88
 Correlation:  0.1900 VWN1RPA + 0.8100 LYP
 Using SG-1 standard quadrature grid
 using 8 threads for integral computing
 -------------------------------------------------------
 OpenMP Integral computing Module                
 Release: version 1.0, May 2013, Q-Chem Inc. Pittsburgh 
 -------------------------------------------------------
 
 SM12 calculation using CM5 charges
 Citation of the SM12 model:
 Marenich, A.V.; Cramer, C.J.; Truhlar, D.G.
 J. Chem. Theory Comput. 2013, 9, 609-612.
 iSolventCode=          91
 Solvent: dimethylformamide                                               
 
Hirshfeld: reading atomic densities from disk.
warning:  vdwdata pointer should have been initialzed before dftman
 Inaccurate integrated density:
   Number of electrons =   106
   Numerical integral  =   104.001240520103
   Relative error      =    -1.8856221508 %

 Charges (in A.U.) from CM5PAC (Nov. 11, 2011)
 -----------------------------------------------
 Center     Atomic      CM5         Hirshfeld
 Number     Number      Charge      Charge
 -----------------------------------------------
    1          6       -0.146564   -0.006513
    2          6       -0.012311   -0.003875
    3          6       -0.002341   -0.002829
    4         17        0.021274    0.021464
    5          6        0.031978    0.001402
    6          8       -0.058222   -0.021203
    7          6       -0.002314   -0.002803
    8          6       -0.012291   -0.003855
    9          6       -0.146504   -0.006453
   10          6        0.031076    0.005986
   11          8       -0.065841   -0.018073
   12         17        0.021147    0.021337
   13          1        0.052746    0.001037
   14          1        0.064354    0.005035
   15          1        0.052734    0.001012
   16          1        0.052756    0.001041
   17          1        0.052742    0.001025
   18          1        0.064341    0.005024
 -----------------------------------------------

 Dipole moment (in Debye)
 -----------------------------------------------
                 X        Y        Z     Total
 -----------------------------------------------
 CM5          0.0036  -0.2492  -0.0586   0.2561
 Hirshfeld   -0.0018   0.1943   0.0460   0.1997
 -----------------------------------------------

 A restricted SCF calculation will be
 performed using DIIS
 SCF converges when DIIS error is below 1.0e-08
 ---------------------------------------
  Cycle       Energy         DIIS error
 ---------------------------------------
Hirshfeld: reading atomic densities from disk.

 Charges (in A.U.) from CM5PAC (Nov. 11, 2011)
 -----------------------------------------------
 Center     Atomic      CM5         Hirshfeld
 Number     Number      Charge      Charge
 -----------------------------------------------
    1          6       -0.447069   -0.307018
    2          6       -0.186082   -0.177645
    3          6       -0.017052   -0.017540
    4         17       -0.043207   -0.043016
    5          6        0.035922    0.005346
    6          8       -0.802937   -0.765918
    7          6       -0.017035   -0.017523
    8          6       -0.186064   -0.177628
    9          6       -0.447000   -0.306949
   10          6        0.067813    0.042723
   11          8       -0.774669   -0.726901
   12         17       -0.043335   -0.043145
   13          1        0.145139    0.093429
   14          1        0.139761    0.080442
   15          1        0.145073    0.093351
   16          1        0.145122    0.093407
   17          1        0.145105    0.093388
   18          1        0.139764    0.080446
 -----------------------------------------------

 Dipole moment (in Debye)
 -----------------------------------------------
                 X        Y        Z     Total
 -----------------------------------------------
 CM5          0.0702  -5.7988  -1.3670   5.9582
 Hirshfeld    0.0649  -5.3553  -1.2624   5.5024
 -----------------------------------------------

    1   -1381.6582830997      3.31e-02  
Hirshfeld: reading atomic densities from disk.

 Charges (in A.U.) from CM5PAC (Nov. 11, 2011)
 -----------------------------------------------
 Center     Atomic      CM5         Hirshfeld
 Number     Number      Charge      Charge
 -----------------------------------------------
    1          6       -0.559089   -0.419038
    2          6        0.187158    0.195595
    3          6       -0.066506   -0.066994
    4         17       -0.818173   -0.817983
    5          6        0.068851    0.038275
    6          8        1.863481    1.900500
    7          6       -0.066108   -0.066596
    8          6        0.187510    0.195946
    9          6       -0.557882   -0.417831
   10          6        0.113355    0.088265
   11          8        1.813536    1.861304
   12         17       -0.816828   -0.816637
   13          1       -0.546098   -0.597807
   14          1       -0.584495   -0.643814
   15          1       -0.544924   -0.596646
   16          1       -0.546035   -0.597750
   17          1       -0.544256   -0.595974
   18          1       -0.582972   -0.642290
 -----------------------------------------------

 Dipole moment (in Debye)
 -----------------------------------------------
                 X        Y        Z     Total
 -----------------------------------------------
 CM5         -0.2547  15.8569   3.7254  16.2906
 Hirshfeld   -0.2600  16.3004   3.8299  16.7463
 -----------------------------------------------

    2   -1379.0869299999      5.37e-03  
Hirshfeld: reading atomic densities from disk.

 Charges (in A.U.) from CM5PAC (Nov. 11, 2011)
 -----------------------------------------------
 Center     Atomic      CM5         Hirshfeld
 Number     Number      Charge      Charge
 -----------------------------------------------
    1          6       -0.113290    0.026761
    2          6       -0.020996   -0.012560
    3          6       -0.058734   -0.059222
    4         17       -0.084785   -0.084595
    5          6       -0.018368   -0.048944
    6          8       -0.746164   -0.709144
    7          6       -0.058671   -0.059159
    8          6       -0.020865   -0.012429
    9          6       -0.113182    0.026869
   10          6       -0.087841   -0.112931
   11          8       -0.814816   -0.767048
   12         17       -0.084910   -0.084720
   13          1        0.037128   -0.014581
   14          1        0.036368   -0.022952
   15          1        0.037179   -0.014543
   16          1        0.037186   -0.014529
   17          1        0.037199   -0.014518
   18          1        0.036386   -0.022931
 -----------------------------------------------

 Dipole moment (in Debye)
 -----------------------------------------------
                 X        Y        Z     Total
 -----------------------------------------------
 CM5          0.0636  -5.4605  -1.2886   5.6108
 Hirshfeld    0.0583  -5.0169  -1.1840   5.1551
 -----------------------------------------------

    3   -1373.2482541188      1.59e-02  
Hirshfeld: reading atomic densities from disk.

 Charges (in A.U.) from CM5PAC (Nov. 11, 2011)
 -----------------------------------------------
 Center     Atomic      CM5         Hirshfeld
 Number     Number      Charge      Charge
 -----------------------------------------------
    1          6       -0.293998   -0.153947
    2          6       -0.162461   -0.154025
    3          6       -0.049736   -0.050224
    4         17       -0.109136   -0.108945
    5          6        0.020957   -0.009619
    6          8       -0.629862   -0.592842
    7          6       -0.049708   -0.050196
    8          6       -0.162410   -0.153974
    9          6       -0.293911   -0.153860
   10          6        0.014056   -0.011033
   11          8       -0.609493   -0.561725
   12         17       -0.109243   -0.109053
   13          1        0.071210    0.019501
   14          1        0.074376    0.015057
   15          1        0.071222    0.019500
   16          1        0.071255    0.019540
   17          1        0.071257    0.019540
   18          1        0.074400    0.015082
 -----------------------------------------------

 Dipole moment (in Debye)
 -----------------------------------------------
                 X        Y        Z     Total
 -----------------------------------------------
 CM5          0.0658  -5.6017  -1.3211   5.7557
 Hirshfeld    0.0605  -5.1581  -1.2165   5.3000
 -----------------------------------------------

    4   -1379.2794848114      3.75e-03  
Hirshfeld: reading atomic densities from disk.

 Charges (in A.U.) from CM5PAC (Nov. 11, 2011)
 -----------------------------------------------
 Center     Atomic      CM5         Hirshfeld
 Number     Number      Charge      Charge
 -----------------------------------------------
    1          6       -0.258634   -0.118583
    2          6       -0.032974   -0.024538
    3          6       -0.065510   -0.065998
    4         17       -0.194540   -0.194349
    5          6       -0.021584   -0.052160
    6          8       -0.558361   -0.521342
    7          6       -0.065440   -0.065929
    8          6       -0.032887   -0.024451
    9          6       -0.258553   -0.118502
   10          6        0.010373   -0.014716
   11          8       -0.620194   -0.572426
   12         17       -0.194652   -0.194462
   13          1        0.044703   -0.007007
   14          1        0.056297   -0.003022
   15          1        0.044704   -0.007018
   16          1        0.044734   -0.006981
   17          1        0.044729   -0.006989
   18          1        0.056303   -0.003015
 -----------------------------------------------

 Dipole moment (in Debye)
 -----------------------------------------------
                 X        Y        Z     Total
 -----------------------------------------------
 CM5          0.0766  -6.4753  -1.5274   6.6535
 Hirshfeld    0.0713  -6.0318  -1.4228   6.1977
 -----------------------------------------------

    5   -1379.4235131787      1.41e-03  
Hirshfeld: reading atomic densities from disk.

 Charges (in A.U.) from CM5PAC (Nov. 11, 2011)
 -----------------------------------------------
 Center     Atomic      CM5         Hirshfeld
 Number     Number      Charge      Charge
 -----------------------------------------------
    1          6       -0.246730   -0.106679
    2          6       -0.107603   -0.099167
    3          6       -0.058740   -0.059228
    4         17       -0.174546   -0.174356
    5          6        0.005911   -0.024665
    6          8       -0.560090   -0.523071
    7          6       -0.058710   -0.059198
    8          6       -0.107546   -0.099110
    9          6       -0.246648   -0.106597
   10          6       -0.014512   -0.039601
   11          8       -0.536496   -0.488728
   12         17       -0.174654   -0.174464
   13          1        0.043451   -0.008259
   14          1        0.052489   -0.006830
   15          1        0.043457   -0.008265
   16          1        0.043482   -0.008233
   17          1        0.043475   -0.008243
   18          1        0.052492   -0.006826
 -----------------------------------------------

 Dipole moment (in Debye)
 -----------------------------------------------
                 X        Y        Z     Total
 -----------------------------------------------
 CM5          0.0765  -6.4277  -1.5159   6.6045
 Hirshfeld    0.0712  -5.9842  -1.4113   6.1488
 -----------------------------------------------

    6   -1379.4540122886      9.03e-04  
Hirshfeld: reading atomic densities from disk.

 Charges (in A.U.) from CM5PAC (Nov. 11, 2011)
 -----------------------------------------------
 Center     Atomic      CM5         Hirshfeld
 Number     Number      Charge      Charge
 -----------------------------------------------
    1          6       -0.258334   -0.118283
    2          6       -0.099897   -0.091461
    3          6       -0.063053   -0.063541
    4         17       -0.180869   -0.180678
    5          6       -0.000949   -0.031525
    6          8       -0.539526   -0.502507
    7          6       -0.063004   -0.063492
    8          6       -0.099832   -0.091397
    9          6       -0.258254   -0.118203
   10          6        0.010639   -0.014451
   11          8       -0.555674   -0.507906
   12         17       -0.180979   -0.180789
   13          1        0.044840   -0.006870
   14          1        0.054391   -0.004928
   15          1        0.044849   -0.006873
   16          1        0.044870   -0.006845
   17          1        0.044864   -0.006854
   18          1        0.054392   -0.004926
 -----------------------------------------------

 Dipole moment (in Debye)
 -----------------------------------------------
                 X        Y        Z     Total
 -----------------------------------------------
 CM5          0.0740  -6.2216  -1.4674   6.3927
 Hirshfeld    0.0687  -5.7780  -1.3628   5.9370
 -----------------------------------------------

    7   -1379.4594190542      2.85e-04  
Hirshfeld: reading atomic densities from disk.

 Charges (in A.U.) from CM5PAC (Nov. 11, 2011)
 -----------------------------------------------
 Center     Atomic      CM5         Hirshfeld
 Number     Number      Charge      Charge
 -----------------------------------------------
    1          6       -0.259731   -0.119680
    2          6       -0.095686   -0.087249
    3          6       -0.059973   -0.060461
    4         17       -0.183009   -0.182818
    5          6       -0.000849   -0.031425
    6          8       -0.548797   -0.511778
    7          6       -0.059934   -0.060422
    8          6       -0.095626   -0.087190
    9          6       -0.259652   -0.119601
   10          6        0.004612   -0.020478
   11          8       -0.547085   -0.499317
   12         17       -0.183119   -0.182928
   13          1        0.044807   -0.006903
   14          1        0.054011   -0.005308
   15          1        0.044817   -0.006904
   16          1        0.044837   -0.006878
   17          1        0.044831   -0.006887
   18          1        0.054012   -0.005306
 -----------------------------------------------

 Dipole moment (in Debye)
 -----------------------------------------------
                 X        Y        Z     Total
 -----------------------------------------------
 CM5          0.0766  -6.4236  -1.5150   6.6003
 Hirshfeld    0.0712  -5.9801  -1.4104   6.1446
 -----------------------------------------------

    8   -1379.4609002506      1.07e-04  
Hirshfeld: reading atomic densities from disk.

 Charges (in A.U.) from CM5PAC (Nov. 11, 2011)
 -----------------------------------------------
 Center     Atomic      CM5         Hirshfeld
 Number     Number      Charge      Charge
 -----------------------------------------------
    1          6       -0.258629   -0.118578
    2          6       -0.097412   -0.088976
    3          6       -0.061390   -0.061878
    4         17       -0.182065   -0.181874
    5          6       -0.000157   -0.030733
    6          8       -0.544621   -0.507602
    7          6       -0.061347   -0.061835
    8          6       -0.097350   -0.088914
    9          6       -0.258549   -0.118498
   10          6        0.002864   -0.022225
   11          8       -0.548857   -0.501089
   12         17       -0.182175   -0.181985
   13          1        0.044912   -0.006797
   14          1        0.054222   -0.005097
   15          1        0.044923   -0.006799
   16          1        0.044942   -0.006773
   17          1        0.044936   -0.006781
   18          1        0.054222   -0.005095
 -----------------------------------------------

 Dipole moment (in Debye)
 -----------------------------------------------
                 X        Y        Z     Total
 -----------------------------------------------
 CM5          0.0755  -6.3350  -1.4941   6.5092
 Hirshfeld    0.0702  -5.8914  -1.3895   6.0535
 -----------------------------------------------

    9   -1379.4613018692      4.66e-05  
Hirshfeld: reading atomic densities from disk.

 Charges (in A.U.) from CM5PAC (Nov. 11, 2011)
 -----------------------------------------------
 Center     Atomic      CM5         Hirshfeld
 Number     Number      Charge      Charge
 -----------------------------------------------
    1          6       -0.258538   -0.118487
    2          6       -0.097477   -0.089041
    3          6       -0.061326   -0.061814
    4         17       -0.182162   -0.181972
    5          6       -0.000407   -0.030982
    6          8       -0.545641   -0.508622
    7          6       -0.061284   -0.061772
    8          6       -0.097416   -0.088980
    9          6       -0.258459   -0.118408
   10          6        0.004724   -0.020366
   11          8       -0.548720   -0.500952
   12         17       -0.182273   -0.182083
   13          1        0.044781   -0.006929
   14          1        0.054131   -0.005188
   15          1        0.044792   -0.006930
   16          1        0.044811   -0.006904
   17          1        0.044805   -0.006913
   18          1        0.054131   -0.005187
 -----------------------------------------------

 Dipole moment (in Debye)
 -----------------------------------------------
                 X        Y        Z     Total
 -----------------------------------------------
 CM5          0.0758  -6.3614  -1.5004   6.5364
 Hirshfeld    0.0705  -5.9179  -1.3958   6.0807
 -----------------------------------------------

   10   -1379.4611450146      1.26e-05  
Hirshfeld: reading atomic densities from disk.

 Charges (in A.U.) from CM5PAC (Nov. 11, 2011)
 -----------------------------------------------
 Center     Atomic      CM5         Hirshfeld
 Number     Number      Charge      Charge
 -----------------------------------------------
    1          6       -0.258686   -0.118635
    2          6       -0.097421   -0.088985
    3          6       -0.061099   -0.061587
    4         17       -0.182226   -0.182036
    5          6       -0.000303   -0.030879
    6          8       -0.545482   -0.508462
    7          6       -0.061057   -0.061545
    8          6       -0.097360   -0.088924
    9          6       -0.258607   -0.118556
   10          6        0.004161   -0.020929
   11          8       -0.548740   -0.500972
   12         17       -0.182337   -0.182147
   13          1        0.044818   -0.006891
   14          1        0.054145   -0.005174
   15          1        0.044829   -0.006892
   16          1        0.044848   -0.006867
   17          1        0.044842   -0.006875
   18          1        0.054145   -0.005173
 -----------------------------------------------

 Dipole moment (in Debye)
 -----------------------------------------------
                 X        Y        Z     Total
 -----------------------------------------------
 CM5          0.0757  -6.3535  -1.4985   6.5282
 Hirshfeld    0.0704  -5.9099  -1.3939   6.0725
 -----------------------------------------------

   11   -1379.4611907440      4.53e-06  
Hirshfeld: reading atomic densities from disk.

 Charges (in A.U.) from CM5PAC (Nov. 11, 2011)
 -----------------------------------------------
 Center     Atomic      CM5         Hirshfeld
 Number     Number      Charge      Charge
 -----------------------------------------------
    1          6       -0.258674   -0.118623
    2          6       -0.097378   -0.088942
    3          6       -0.061254   -0.061742
    4         17       -0.182174   -0.181983
    5          6       -0.000378   -0.030954
    6          8       -0.545430   -0.508410
    7          6       -0.061212   -0.061700
    8          6       -0.097317   -0.088881
    9          6       -0.258595   -0.118544
   10          6        0.004199   -0.020891
   11          8       -0.548683   -0.500915
   12         17       -0.182284   -0.182094
   13          1        0.044823   -0.006887
   14          1        0.054147   -0.005172
   15          1        0.044834   -0.006888
   16          1        0.044852   -0.006863
   17          1        0.044846   -0.006871
   18          1        0.054147   -0.005171
 -----------------------------------------------

 Dipole moment (in Debye)
 -----------------------------------------------
                 X        Y        Z     Total
 -----------------------------------------------
 CM5          0.0758  -6.3551  -1.4989   6.5299
 Hirshfeld    0.0704  -5.9116  -1.3943   6.0742
 -----------------------------------------------

   12   -1379.4611885979      1.18e-06  
Hirshfeld: reading atomic densities from disk.

 Charges (in A.U.) from CM5PAC (Nov. 11, 2011)
 -----------------------------------------------
 Center     Atomic      CM5         Hirshfeld
 Number     Number      Charge      Charge
 -----------------------------------------------
    1          6       -0.258668   -0.118617
    2          6       -0.097400   -0.088964
    3          6       -0.061208   -0.061696
    4         17       -0.182197   -0.182006
    5          6       -0.000340   -0.030916
    6          8       -0.545442   -0.508423
    7          6       -0.061166   -0.061655
    8          6       -0.097339   -0.088904
    9          6       -0.258589   -0.118538
   10          6        0.004204   -0.020886
   11          8       -0.548712   -0.500944
   12         17       -0.182308   -0.182117
   13          1        0.044820   -0.006889
   14          1        0.054146   -0.005174
   15          1        0.044831   -0.006890
   16          1        0.044850   -0.006865
   17          1        0.044844   -0.006873
   18          1        0.054145   -0.005172
 -----------------------------------------------

 Dipole moment (in Debye)
 -----------------------------------------------
                 X        Y        Z     Total
 -----------------------------------------------
 CM5          0.0758  -6.3546  -1.4988   6.5294
 Hirshfeld    0.0704  -5.9110  -1.3942   6.0736
 -----------------------------------------------

   13   -1379.4611843443      6.47e-07  
Hirshfeld: reading atomic densities from disk.

 Charges (in A.U.) from CM5PAC (Nov. 11, 2011)
 -----------------------------------------------
 Center     Atomic      CM5         Hirshfeld
 Number     Number      Charge      Charge
 -----------------------------------------------
    1          6       -0.258671   -0.118620
    2          6       -0.097399   -0.088963
    3          6       -0.061206   -0.061694
    4         17       -0.182190   -0.182000
    5          6       -0.000349   -0.030925
    6          8       -0.545445   -0.508426
    7          6       -0.061164   -0.061653
    8          6       -0.097338   -0.088903
    9          6       -0.258592   -0.118541
   10          6        0.004203   -0.020886
   11          8       -0.548717   -0.500948
   12         17       -0.182301   -0.182111
   13          1        0.044820   -0.006889
   14          1        0.054146   -0.005173
   15          1        0.044831   -0.006890
   16          1        0.044850   -0.006865
   17          1        0.044844   -0.006873
   18          1        0.054146   -0.005171
 -----------------------------------------------

 Dipole moment (in Debye)
 -----------------------------------------------
                 X        Y        Z     Total
 -----------------------------------------------
 CM5          0.0758  -6.3545  -1.4987   6.5293
 Hirshfeld    0.0704  -5.9110  -1.3941   6.0735
 -----------------------------------------------

   14   -1379.4611861419      1.19e-07  
Hirshfeld: reading atomic densities from disk.

 Charges (in A.U.) from CM5PAC (Nov. 11, 2011)
 -----------------------------------------------
 Center     Atomic      CM5         Hirshfeld
 Number     Number      Charge      Charge
 -----------------------------------------------
    1          6       -0.258670   -0.118619
    2          6       -0.097398   -0.088962
    3          6       -0.061208   -0.061696
    4         17       -0.182191   -0.182000
    5          6       -0.000344   -0.030920
    6          8       -0.545446   -0.508427
    7          6       -0.061166   -0.061654
    8          6       -0.097338   -0.088902
    9          6       -0.258591   -0.118540
   10          6        0.004203   -0.020886
   11          8       -0.548718   -0.500950
   12         17       -0.182302   -0.182111
   13          1        0.044820   -0.006889
   14          1        0.054146   -0.005173
   15          1        0.044831   -0.006890
   16          1        0.044850   -0.006865
   17          1        0.044844   -0.006873
   18          1        0.054146   -0.005171
 -----------------------------------------------

 Dipole moment (in Debye)
 -----------------------------------------------
                 X        Y        Z     Total
 -----------------------------------------------
 CM5          0.0758  -6.3545  -1.4987   6.5293
 Hirshfeld    0.0704  -5.9109  -1.3941   6.0735
 -----------------------------------------------

   15   -1379.4611857677      4.71e-08  
Hirshfeld: reading atomic densities from disk.

 Charges (in A.U.) from CM5PAC (Nov. 11, 2011)
 -----------------------------------------------
 Center     Atomic      CM5         Hirshfeld
 Number     Number      Charge      Charge
 -----------------------------------------------
    1          6       -0.258670   -0.118619
    2          6       -0.097399   -0.088962
    3          6       -0.061207   -0.061695
    4         17       -0.182191   -0.182000
    5          6       -0.000345   -0.030921
    6          8       -0.545446   -0.508426
    7          6       -0.061165   -0.061654
    8          6       -0.097338   -0.088902
    9          6       -0.258591   -0.118540
   10          6        0.004204   -0.020886
   11          8       -0.548718   -0.500950
   12         17       -0.182302   -0.182111
   13          1        0.044820   -0.006889
   14          1        0.054146   -0.005173
   15          1        0.044832   -0.006890
   16          1        0.044850   -0.006865
   17          1        0.044844   -0.006873
   18          1        0.054146   -0.005171
 -----------------------------------------------

 Dipole moment (in Debye)
 -----------------------------------------------
                 X        Y        Z     Total
 -----------------------------------------------
 CM5          0.0758  -6.3545  -1.4987   6.5293
 Hirshfeld    0.0704  -5.9110  -1.3941   6.0735
 -----------------------------------------------

   16   -1379.4611858244      1.02e-08  
   17   -1379.4611858274      4.19e-09  Convergence criterion met
 ---------------------------------------
 SCF time:   CPU 1753.24s  wall 221.00s 
(1)  E-EN(liq) elect-nuc energy of solute              -1379.461185827 a.u.
(2)  G-P(liq) polarization free energy of solvation          -163.7242 kcal/mol
(3)  G-ENP(liq) elect-nuc-pol free energy of system    -1379.722096910 a.u.
(4)  G-CDS(liq) cavity-dispersion-solvent structure 
     free energy                                               -6.3916 kcal/mol
(5)  G-P-CDS(liq) = G-P(liq) + G-CDS(liq) = (2) + (4)        -170.1157 kcal/mol
(6)  G-S(liq) free energy of system = (1) + (5)        -1379.732282509 a.u.
 SCF   energy in the final basis set =    -1379.7322825089
 Total energy in the final basis set =    -1379.7322825089
 
 --------------------------------------------------------------
 
                    Orbital Energies (a.u.)
 --------------------------------------------------------------
 
 Alpha MOs
 -- Occupied --
********-101.5234 -19.0158 -19.0128 -10.1865 -10.1859 -10.1858 -10.1782
-10.1593 -10.1593 -10.1471 -10.1471  -9.4363  -9.4363  -7.2003  -7.2002
 -7.1919  -7.1919  -7.1911  -7.1911  -0.9359  -0.9271  -0.8356  -0.8291
 -0.7708  -0.7463  -0.7078  -0.6395  -0.6343  -0.5359  -0.5294  -0.4757
 -0.4301  -0.4193  -0.4076  -0.4036  -0.3922  -0.3792  -0.3718  -0.3623
 -0.3560  -0.3315  -0.3284  -0.3183  -0.3152  -0.2859  -0.2857  -0.2790
 -0.2212  -0.2077  -0.1982  -0.1921  -0.1208
 -- Virtual --
 -0.0700  -0.0658  -0.0390  -0.0341  -0.0309  -0.0277  -0.0200  -0.0059
  0.0039   0.0122   0.0175   0.0204   0.0313   0.0394   0.0462   0.0465
  0.0564   0.0620   0.0634   0.0654   0.0676   0.0743   0.0748   0.0822
  0.0916   0.0934   0.0937   0.0981   0.1005   0.1044   0.1211   0.1221
  0.1264   0.1278   0.1430   0.1546   0.1568   0.1605   0.1688   0.1710
  0.1714   0.1797   0.1903   0.1913   0.1934   0.2278   0.2278   0.2301
  0.2320   0.2438   0.2453   0.2605   0.2696   0.2737   0.2780   0.2979
  0.3052   0.3053   0.3135   0.3202   0.3207   0.3245   0.3511   0.3557
  0.3570   0.3815   0.4075   0.4182   0.4294   0.4294   0.4517   0.4535
  0.4588   0.4735   0.4763   0.4779   0.4841   0.4867   0.4988   0.5048
  0.5581   0.5663   0.5764   0.5802   0.6141   0.6215   0.6254   0.6416
  0.6422   0.6429   0.6479   0.6628   0.6683   0.6847   0.6919   0.6979
  0.7160   0.7177   0.7262   0.7556   0.7585   0.7761   0.8033   0.8700
  0.8785   0.8841   0.8999   0.9003   0.9057   0.9116   0.9130   0.9174
  0.9213   0.9377   0.9523   0.9822   0.9915   0.9986   1.0125   1.0221
  1.0430   1.0431   1.0496   1.0697   1.0756   1.1199   1.1414   1.1690
  1.2126   1.2224   1.2488   1.2681   1.2710   1.2771   1.2795   1.2798
  1.3348   1.3422   1.3568   1.3677   1.3730   1.3886   1.3955   1.4574
  1.4668   1.4813   1.5087   1.5389   1.5497   1.5730   1.5875   1.6013
  1.6235   1.6311   1.6436   1.6791   1.7046   1.7087   1.7326   1.7772
  1.7893   1.8205   1.8358   1.8445   1.8656   1.8682   1.9004   1.9232
  1.9242   1.9414   1.9505   1.9577   2.0272   2.0673   2.1302   2.1372
  2.1973   2.2108   2.2291   2.2309   2.2620   2.2805   2.2863   2.3434
  2.3590   2.3620   2.3931   2.4481   2.4691   2.4831   2.5087   2.5462
  2.5531   2.5531   2.5562   2.5671   2.5730   2.5943   2.6083   2.6169
  2.6766   2.6775   2.7164   2.7622   2.7914   2.8139   2.8256   2.9072
  2.9176   2.9313   2.9593   2.9941   2.9986   3.0204   3.0268   3.1194
  3.1476   3.1753   3.1899   3.2093   3.2373   3.2810   3.2899   3.3496
  3.3883   3.4420   3.5139   3.5301   3.5720   3.5768   3.7659   3.7689
  3.8235   3.8417   3.8988   3.9500   4.0920   4.3091   4.3239   4.3455
  4.8154   5.1448   5.1645   5.3082   5.3438   5.7608   5.8416   9.8056
  9.8370  23.5196  23.8402  23.9446  23.9614  23.9628  23.9967  24.0650
 24.0920  25.8849  25.9134  26.1853  26.2590  26.5930  26.6357  50.0829
 50.1317 215.7960 215.8346
 --------------------------------------------------------------
 
          Ground-State Mulliken Net Atomic Charges

     Atom                 Charge (a.u.)
  ----------------------------------------
      1 C                     0.242130
      2 C                    -0.495955
      3 C                     0.405267
      4 Cl                    0.936003
      5 C                    -1.633893
      6 O                    -0.368580
      7 C                     0.408199
      8 C                    -0.495908
      9 C                     0.244323
     10 C                    -2.720688
     11 O                    -0.422225
     12 Cl                    0.935310
     13 H                     0.171094
     14 H                     0.140411
     15 H                     0.171369
     16 H                     0.171100
     17 H                     0.171450
     18 H                     0.140593
  ----------------------------------------
  Sum of atomic charges =    -2.000000

 -----------------------------------------------------------------
                    Cartesian Multipole Moments
 -----------------------------------------------------------------
    Charge (ESU x 10^10)
                -9.6064
    Dipole Moment (Debye)
         X       0.0839      Y      -7.0517      Z      -1.6631
       Tot       7.2456
    Quadrupole Moments (Debye-Ang)
        XX    -120.5581     XY       0.6203     YY    -155.6286
        XZ      -0.6620     YZ     -14.5277     ZZ     -97.4944
    Octopole Moments (Debye-Ang^2)
       XXX       3.5073    XXY     -97.4642    XYY       1.6810
       YYY    -297.5013    XXZ     -22.9664    XYZ      -0.7133
       YYZ     -38.5062    XZZ       0.4185    YZZ     -72.5171
       ZZZ     -48.7750
    Hexadecapole Moments (Debye-Ang^3)
      XXXX   -2504.4916   XXXY       7.2274   XXYY    -772.2375
      XYYY      10.6460   YYYY   -2404.4421   XXXZ     -37.0661
      XXYZ     -85.3588   XYYZ     -11.4539   YYYZ    -324.7418
      XXZZ    -430.9100   XYZZ       1.2190   YYZZ    -386.7789
      XZZZ     -32.1160   YZZZ    -215.9279   ZZZZ    -242.9514
 -----------------------------------------------------------------
 Total job time:  241.80s(wall), 1759.40s(cpu) 
 Sat Feb  3 10:31:27 2024

        *************************************************************
        *                                                           *
        *  Thank you very much for using Q-Chem.  Have a nice day.  *
        *                                                           *
        *************************************************************


