
Running Job 1 of 1 171-SM12.in
qchem 171-SM12.in_606719.0 /expanse/lustre/scratch/selhajj/temp_project/qcscratch/28445540/qchem606719/ 0
/cm/shared/apps/spack/cpu/opt/spack/linux-centos8-zen2/gcc-10.2.0/qchem-5.4-akfmr7b3t57bfs6qan3padb2wnb2i7cl/exe/qcprog.exe_s 171-SM12.in_606719.0 /expanse/lustre/scratch/selhajj/temp_project/qcscratch/28445540/qchem606719/
                  Welcome to Q-Chem
     A Quantum Leap Into The Future Of Chemistry


 Q-Chem 5.4, Q-Chem, Inc., Pleasanton, CA (2021)

 License issued to: University of California, San Diego (site)

 E. Epifanovsky,  A. T. B. Gilbert,  Xintian Feng,  Joonho Lee,  Yuezhi Mao,  
 N. Mardirossian,  P. Pokhilko,  A. White,  M. Wormit,  M. P. Coons,  
 A. L. Dempwolff,  Zhengting Gan,  D. Hait,  P. R. Horn,  L. D. Jacobson,  
 I. Kaliman,  J. Kussmann,  A. W. Lange,  Ka Un Lao,  D. S. Levine,  Jie Liu,  
 S. C. McKenzie,  A. F. Morrison,  K. Nanda,  F. Plasser,  D. R. Rehn,  
 M. L. Vidal,  Zhi-Qiang You,  Ying Zhu,  B. Alam,  B. Albrecht,  
 A. Aldossary,  E. Alguire,  J. H. Andersen,  D. Barton,  K. Begam,  A. Behn,  
 Y. A. Bernard,  E. J. Berquist,  H. Burton,  A. Carreras,  K. Carter-Fenk,  
 R. Chakraborty,  A. D. Chien,  K. D. Closser,  V. Cofer-Shabica,  
 S. Dasgupta,  Jia Deng,  M. de Wergifosse,  M. Diedenhofen,  Hainam Do,  
 S. Ehlert,  Po-Tung Fang,  S. Fatehi,  Qingguo Feng,  J. Gayvert,  
 Qinghui Ge,  G. Gidofalvi,  M. Goldey,  J. Gomes,  C. Gonzalez-Espinoza,  
 S. Gulania,  A. Gunina,  M. W. D. Hanson-Heine,  P. H. P. Harbach,  
 A. W. Hauser,  M. F. Herbst,  M. Hernandez Vera,  M. Hodecker,  
 Z. C. Holden,  S. Houck,  Xunkun Huang,  Kerwin Hui,  B. C. Huynh,  
 M. Ivanov,  Hyunjun Ji,  Hanjie Jiang,  B. Kaduk,  S. Kaehler,  
 K. Khistyaev,  Jaehoon Kim,  P. Klunzinger,  Z. Koczor-Benda,  
 Joong Hoon Koh,  D. Kosenkov,  L. Koulias,  T. Kowalczyk,  C. M. Krauter,  
 K. Kue,  A. Kunitsa,  T. Kus,  A. Landau,  K. V. Lawler,  D. Lefrancois,  
 S. Lehtola,  Rain Li,  Yi-Pei Li,  Jiashu Liang,  M. Liebenthal,  
 Hung-Hsuan Lin,  You-Sheng Lin,  Fenglai Liu,  Kuan-Yu Liu,  
 M. Loipersberger,  A. Luenser,  A. Manjanath,  P. Manohar,  E. Mansoor,  
 S. F. Manzer,  Shan-Ping Mao,  A. V. Marenich,  T. Markovich,  S. Mason,  
 S. A. Maurer,  P. F. McLaughlin,  M. F. S. J. Menger,  J.-M. Mewes,  
 S. A. Mewes,  P. Morgante,  J. W. Mullinax,  T. S. Nguyen-Beck,  
 K. J. Oosterbaan,  G. Paran,  Alexander C. Paul,  Suranjan K. Paul,  
 F. Pavosevic,  Zheng Pei,  S. Prager,  E. I. Proynov,  E. Ramos,  B. Rana,  
 A. E. Rask,  A. Rettig,  R. M. Richard,  F. Rob,  E. Rossomme,  T. Scheele,  
 M. Scheurer,  M. Schneider,  N. Sergueev,  S. M. Sharada,  W. Skomorowski,  
 D. W. Small,  C. J. Stein,  Yu-Chuan Su,  E. J. Sundstrom,  Zhen Tao,  
 J. Thirman,  T. Tsuchimochi,  N. M. Tubman,  S. P. Veccham,  O. Vydrov,  
 J. Wenzel,  J. Witte,  A. Yamada,  Kun Yao,  S. Yeganeh,  S. R. Yost,  
 A. Zech,  Igor Ying Zhang,  Xing Zhang,  Yu Zhang,  D. Zuev,  
 A. Aspuru-Guzik,  A. T. Bell,  N. A. Besley,  K. B. Bravaya,  B. R. Brooks,  
 D. Casanova,  Jeng-Da Chai,  S. Coriani,  C. J. Cramer,  
 A. E. DePrince, III,  R. A. DiStasio Jr.,  A. Dreuw,  B. D. Dunietz,  
 T. R. Furlani,  W. A. Goddard III,  S. Grimme,  S. Hammes-Schiffer,  
 T. Head-Gordon,  W. J. Hehre,  Chao-Ping Hsu,  T.-C. Jagau,  Yousung Jung,  
 A. Klamt,  Jing Kong,  D. S. Lambrecht,  WanZhen Liang,  N. J. Mayhall,  
 C. W. McCurdy,  J. B. Neaton,  C. Ochsenfeld,  J. A. Parkhill,  R. Peverati,  
 V. A. Rassolov,  Yihan Shao,  L. V. Slipchenko,  T. Stauch,  R. P. Steele,  
 J. E. Subotnik,  A. J. W. Thom,  A. Tkatchenko,  D. G. Truhlar,  
 T. Van Voorhis,  T. A. Wesolowski,  K. B. Whaley,  H. L. Woodcock III,  
 P. M. Zimmerman,  S. Faraji,  P. M. W. Gill,  M. Head-Gordon,  
 J. M. Herbert,  A. I. Krylov

 Contributors to earlier versions of Q-Chem not listed above: 
 R. D. Adamson,  B. Austin,  R. Baer,  J. Baker,  G. J. O. Beran,  
 K. Brandhorst,  S. T. Brown,  E. F. C. Byrd,  A. K. Chakraborty,  
 G. K. L. Chan,  Chun-Min Chang,  Yunqing Chen,  C.-L. Cheng,  
 Siu Hung Chien,  D. M. Chipman,  D. L. Crittenden,  H. Dachsel,  
 R. J. Doerksen,  A. D. Dutoi,  R. G. Edgar,  J. Fosso-Tande,  
 L. Fusti-Molnar,  D. Ghosh,  A. Ghysels,  A. Golubeva-Zadorozhnaya,  
 J. Gonthier,  M. S. Gordon,  S. R. Gwaltney,  G. Hawkins,  J. E. Herr,  
 A. Heyden,  S. Hirata,  E. G. Hohenstein,  G. Kedziora,  F. J. Keil,  
 C. Kelley,  Jihan Kim,  R. A. King,  R. Z. Khaliullin,  P. P. Korambath,  
 W. Kurlancheek,  A. Laurent,  A. M. Lee,  M. S. Lee,  S. V. Levchenko,  
 Ching Yeh Lin,  D. Liotard,  E. Livshits,  R. C. Lochan,  I. Lotan,  
 L. A. Martinez-Martinez,  P. E. Maslen,  N. Nair,  D. P. O'Neill,  
 D. Neuhauser,  E. Neuscamman,  C. M. Oana,  R. Olivares-Amaya,  R. Olson,  
 T. M. Perrine,  B. Peters,  P. A. Pieniazek,  A. Prociuk,  Y. M. Rhee,  
 J. Ritchie,  M. A. Rohrdanz,  E. Rosta,  N. J. Russ,  H. F. Schaefer III,  
 M. W. Schmidt,  N. E. Schultz,  S. Sharma,  N. Shenvi,  C. D. Sherrill,  
 A. C. Simmonett,  A. Sodt,  T. Stein,  D. Stuck,  K. S. Thanthiriwatte,  
 V. Vanovschi,  L. Vogt,  Tao Wang,  A. Warshel,  M. A. Watson,  
 C. F. Williams,  Q. Wu,  X. Xu,  Jun Yang,  W. Zhang,  Yan Zhao

 Please cite Q-Chem as follows:
 Y. Shao et al., Mol. Phys. 113, 184-215 (2015)
 DOI: 10.1080/00268976.2014.952696

 Q-Chem 5.4.0 for Intel X86 EM64T Linux

 Parts of Q-Chem use Armadillo 9.800.1 (Horizon Scraper).
 http://arma.sourceforge.net/

 Q-Chem begins on Sat Feb  3 11:23:26 2024  

 Host: 
0

     Scratch files written to /expanse/lustre/scratch/selhajj/temp_project/qcscratch/28445540/qchem606719//
 May1621 |scratch|qcdevops|jenkins|workspace|build_RNUM    
 Processing $rem in /cm/shared/apps/spack/cpu/opt/spack/linux-centos8-zen2/gcc-10.2.0/qchem-5.4-akfmr7b3t57bfs6qan3padb2wnb2i7cl/config/preferences:
 Processing $rem in /home/selhajj/.qchemrc:
 Symmetry turned off for PCM/SM12/SMD calculation
 Method-specific promolecule density matrix will be built for SM12 calculation

 Checking the input file for inconsistencies... 	...done.

--------------------------------------------------------------
User input:
--------------------------------------------------------------
$molecule
0 1
C                 -1.3791820000      1.8895790000     -4.2654010000
C                 -1.3403730000      0.5042610000     -4.3356110000
C                 -1.0592070000     -0.2491370000     -3.1897280000
C                 -1.1373920000      2.5401110000     -3.0483200000
C                 -0.8558980000      1.7858270000     -1.9011150000
C                 -0.8184950000      0.3873960000     -1.9804820000
C                 -1.1828260000      4.0216790000     -2.9940460000
C                 -0.5974950000      2.4475620000     -0.5998030000
C                 -0.9281930000      4.6844710000     -1.7136340000
C                 -0.6433780000      3.9098210000     -0.5343840000
C                 -0.9646970000      6.1061770000     -1.6451040000
C                 -0.7086410000      6.7169510000     -0.3859030000
C                 -0.4388050000      5.9811000000      0.7336770000
C                 -0.3990300000      4.5595880000      0.7080250000
O                 -1.4349430000      4.6506300000     -4.0370570000
O                 -0.3497580000      1.7392130000      0.3927720000
H                 -1.5943390000      2.4935720000     -5.1376070000
H                 -1.5282860000      0.0049500000     -5.2795970000
H                 -1.0295920000     -1.3315330000     -3.2467150000
H                 -0.5994140000     -0.1735120000     -1.0809200000
H                 -0.2514590000      6.4993290000      1.6648970000
H                 -0.7268610000      7.7960500000     -0.3079440000
N                 -1.2302780000      6.8817240000     -2.7293760000
C                 -1.2836430000      8.3273580000     -2.7206860000
H                 -1.4008100000      6.3634930000     -3.5872460000
H                 -0.3262210000      8.7768790000     -2.4304610000
H                 -2.0611240000      8.7104780000     -2.0486410000
H                 -1.5185590000      8.6639940000     -3.7301560000
N                 -0.1347030000      3.8689380000      1.8511070000
C                  0.1549870000      4.4660960000      3.1385770000
C                  0.3181840000      3.3715700000      4.1953380000
O                  0.5874790000      3.9178580000      5.4807460000
H                 -0.1039110000      2.8576060000      1.7281950000
H                 -0.6523300000      5.1355560000      3.4583730000
H                  1.0773600000      5.0660090000      3.0967380000
H                  1.1027510000      2.6672140000      3.8898930000
H                 -0.6129420000      2.8105530000      4.2955810000
H                  1.4793550000      4.2795580000      5.4867470000
$end

$rem
BASIS  =  6-311++G(d,p)
GUI  =  2
JOB_TYPE  =  SP
METHOD  =  B3LYP
SCF_CONVERGENCE  = 8
SOLVENT_METHOD = sm12
$end

$smx
solvent dimethylformamide
charges CM5
$end





--------------------------------------------------------------
 ----------------------------------------------------------------
             Standard Nuclear Orientation (Angstroms)
    I     Atom           X                Y                Z
 ----------------------------------------------------------------
    1      C      -1.3791820000     1.8895790000    -4.2654010000
    2      C      -1.3403730000     0.5042610000    -4.3356110000
    3      C      -1.0592070000    -0.2491370000    -3.1897280000
    4      C      -1.1373920000     2.5401110000    -3.0483200000
    5      C      -0.8558980000     1.7858270000    -1.9011150000
    6      C      -0.8184950000     0.3873960000    -1.9804820000
    7      C      -1.1828260000     4.0216790000    -2.9940460000
    8      C      -0.5974950000     2.4475620000    -0.5998030000
    9      C      -0.9281930000     4.6844710000    -1.7136340000
   10      C      -0.6433780000     3.9098210000    -0.5343840000
   11      C      -0.9646970000     6.1061770000    -1.6451040000
   12      C      -0.7086410000     6.7169510000    -0.3859030000
   13      C      -0.4388050000     5.9811000000     0.7336770000
   14      C      -0.3990300000     4.5595880000     0.7080250000
   15      O      -1.4349430000     4.6506300000    -4.0370570000
   16      O      -0.3497580000     1.7392130000     0.3927720000
   17      H      -1.5943390000     2.4935720000    -5.1376070000
   18      H      -1.5282860000     0.0049500000    -5.2795970000
   19      H      -1.0295920000    -1.3315330000    -3.2467150000
   20      H      -0.5994140000    -0.1735120000    -1.0809200000
   21      H      -0.2514590000     6.4993290000     1.6648970000
   22      H      -0.7268610000     7.7960500000    -0.3079440000
   23      N      -1.2302780000     6.8817240000    -2.7293760000
   24      C      -1.2836430000     8.3273580000    -2.7206860000
   25      H      -1.4008100000     6.3634930000    -3.5872460000
   26      H      -0.3262210000     8.7768790000    -2.4304610000
   27      H      -2.0611240000     8.7104780000    -2.0486410000
   28      H      -1.5185590000     8.6639940000    -3.7301560000
   29      N      -0.1347030000     3.8689380000     1.8511070000
   30      C       0.1549870000     4.4660960000     3.1385770000
   31      C       0.3181840000     3.3715700000     4.1953380000
   32      O       0.5874790000     3.9178580000     5.4807460000
   33      H      -0.1039110000     2.8576060000     1.7281950000
   34      H      -0.6523300000     5.1355560000     3.4583730000
   35      H       1.0773600000     5.0660090000     3.0967380000
   36      H       1.1027510000     2.6672140000     3.8898930000
   37      H      -0.6129420000     2.8105530000     4.2955810000
   38      H       1.4793550000     4.2795580000     5.4867470000
 ----------------------------------------------------------------
 Nuclear Repulsion Energy =        1717.88034869 hartrees
 There are       78 alpha and       78 beta electrons
 Requested basis set is 6-311++G(d,p)
 There are 212 shells and 596 basis functions

 Total QAlloc Memory Limit   8000 MB
 Mega-Array Size       188 MB
 MEM_STATIC part       192 MB
 A cutoff of  1.0D-11 yielded  15845 shell pairs
 There are    128957 function pairs (    137590 Cartesian)
 Smallest overlap matrix eigenvalue = 1.13E-08

 Q-Chem warning in module stvman/mkSTV.C, line 323:

 Overlap eigenvalue is smaller than square root of threshold
 Use THRESH >= 12 to get rid of this warning

 Linear dependence detected in AO basis
 Tighter screening thresholds may be required for diffuse basis sets
 Use S2THRESH > 14 and THRESH = 14 in case of SCF convergence issues
 Number of orthogonalized atomic orbitals = 587
 Maximum deviation from orthogonality = 4.159E-10

 Scale SEOQF with 1.000000e-01/1.000000e-02/1.000000e-02

 Standard Electronic Orientation quadrupole field applied
 Nucleus-field energy     =     0.0000000128 hartrees
 ================ Generating on-the-fly Promolecule Density  ================
Attempting to make child job directory: /expanse/lustre/scratch/selhajj/temp_project/qcscratch/28445540/qchem606719//Frg1/
Attempting to make child job directory: /expanse/lustre/scratch/selhajj/temp_project/qcscratch/28445540/qchem606719//Frg2/
Attempting to make child job directory: /expanse/lustre/scratch/selhajj/temp_project/qcscratch/28445540/qchem606719//Frg3/
Attempting to make child job directory: /expanse/lustre/scratch/selhajj/temp_project/qcscratch/28445540/qchem606719//Frg4/
Creating input file /expanse/lustre/scratch/selhajj/temp_project/qcscratch/28445540/qchem606719/Frg1.input
using default PutDataFrgm: nothing
calling putenv with: QCSCRATCH=/expanse/lustre/scratch/selhajj/temp_project/qcscratch/28445540/qchem606719/ 
Spawning Job For Fragment 0
Done Job For Fragment 0
calling putenv with: QCSCRATCH=/expanse/lustre/scratch/selhajj/temp_project/qcscratch/28445540 
calling putenv with: QCTHREADS=8 
Creating input file /expanse/lustre/scratch/selhajj/temp_project/qcscratch/28445540/qchem606719/Frg2.input
using default PutDataFrgm: nothing
calling putenv with: QCSCRATCH=/expanse/lustre/scratch/selhajj/temp_project/qcscratch/28445540/qchem606719/ 
Spawning Job For Fragment 1
Done Job For Fragment 1
calling putenv with: QCSCRATCH=/expanse/lustre/scratch/selhajj/temp_project/qcscratch/28445540 
calling putenv with: QCTHREADS=8 
Creating input file /expanse/lustre/scratch/selhajj/temp_project/qcscratch/28445540/qchem606719/Frg3.input
using default PutDataFrgm: nothing
calling putenv with: QCSCRATCH=/expanse/lustre/scratch/selhajj/temp_project/qcscratch/28445540/qchem606719/ 
Spawning Job For Fragment 2
Done Job For Fragment 2
calling putenv with: QCSCRATCH=/expanse/lustre/scratch/selhajj/temp_project/qcscratch/28445540 
calling putenv with: QCTHREADS=8 
Creating input file /expanse/lustre/scratch/selhajj/temp_project/qcscratch/28445540/qchem606719/Frg4.input
using default PutDataFrgm: nothing
calling putenv with: QCSCRATCH=/expanse/lustre/scratch/selhajj/temp_project/qcscratch/28445540/qchem606719/ 
Spawning Job For Fragment 3
Done Job For Fragment 3
calling putenv with: QCSCRATCH=/expanse/lustre/scratch/selhajj/temp_project/qcscratch/28445540 
calling putenv with: QCTHREADS=8 
 Time for running child jobs:  CPU 0.01 s  wall 5.16 s
 ============= Method Specific Promolecule Density Constructed =============
 Guess from superposition of atomic densities
 Warning:  Energy on first SCF cycle will be non-variational
 SAD guess density has 156.000000 electrons

 -----------------------------------------------------------------------
  General SCF calculation program by
  Eric Jon Sundstrom, Paul Horn, Yuezhi Mao, Dmitri Zuev, Alec White,
  David Stuck, Shaama M.S., Shane Yost, Joonho Lee, David Small,
  Daniel Levine, Susi Lehtola, Hugh Burton, Evgeny Epifanovsky,
  Bang C. Huynh
 -----------------------------------------------------------------------
 Exchange:     0.2000 Hartree-Fock + 0.0800 Slater + 0.7200 B88
 Correlation:  0.1900 VWN1RPA + 0.8100 LYP
 Using SG-1 standard quadrature grid
 using 8 threads for integral computing
 -------------------------------------------------------
 OpenMP Integral computing Module                
 Release: version 1.0, May 2013, Q-Chem Inc. Pittsburgh 
 -------------------------------------------------------
 
 SM12 calculation using CM5 charges
 Citation of the SM12 model:
 Marenich, A.V.; Cramer, C.J.; Truhlar, D.G.
 J. Chem. Theory Comput. 2013, 9, 609-612.
 iSolventCode=          91
 Solvent: dimethylformamide                                               
 
Hirshfeld: reading atomic densities from disk.
warning:  vdwdata pointer should have been initialzed before dftman

 Charges (in A.U.) from CM5PAC (Nov. 11, 2011)
 -----------------------------------------------
 Center     Atomic      CM5         Hirshfeld
 Number     Number      Charge      Charge
 -----------------------------------------------
    1          6       -0.051926   -0.000308
    2          6       -0.058097   -0.002720
    3          6       -0.058079   -0.002698
    4          6       -0.001512    0.000149
    5          6       -0.001502    0.000158
    6          6       -0.051946   -0.000326
    7          6        0.040107    0.007557
    8          6        0.040043    0.007578
    9          6        0.007776    0.002119
   10          6        0.007708    0.002072
   11          6        0.065485    0.003259
   12          6       -0.048609   -0.000369
   13          6       -0.048672   -0.000373
   14          6        0.065157    0.003266
   15          8       -0.085044   -0.020063
   16          8       -0.085684   -0.019950
   17          1        0.066966    0.005526
   18          1        0.058807    0.003045
   19          1        0.058824    0.003062
   20          1        0.066947    0.005515
   21          1        0.063809    0.002937
   22          1        0.063811    0.002929
   23          7       -0.384718   -0.020887
   24          6       -0.090338   -0.001259
   25          1        0.225070    0.010298
   26          1        0.063623    0.003704
   27          1        0.063631    0.003705
   28          1        0.065097    0.003444
   29          7       -0.380367   -0.020342
   30          6       -0.047224   -0.000373
   31          6       -0.079344    0.002340
   32          8       -0.242082   -0.025438
   33          1        0.225246    0.009529
   34          1        0.071608    0.005230
   35          1        0.070359    0.004938
   36          1        0.068826    0.005195
   37          1        0.071868    0.005823
   38          1        0.184282    0.011633
 -----------------------------------------------

 Dipole moment (in Debye)
 -----------------------------------------------
                 X        Y        Z     Total
 -----------------------------------------------
 CM5          0.6806   0.3039  -0.4886   0.8913
 Hirshfeld    0.0320   0.0571  -0.0585   0.0878
 -----------------------------------------------

 A restricted SCF calculation will be
 performed using DIIS
 SCF converges when DIIS error is below 1.0e-08
 ---------------------------------------
  Cycle       Energy         DIIS error
 ---------------------------------------
Hirshfeld: reading atomic densities from disk.

 Charges (in A.U.) from CM5PAC (Nov. 11, 2011)
 -----------------------------------------------
 Center     Atomic      CM5         Hirshfeld
 Number     Number      Charge      Charge
 -----------------------------------------------
    1          6       -0.159260   -0.107642
    2          6       -0.156267   -0.100889
    3          6       -0.155826   -0.100444
    4          6       -0.041698   -0.040037
    5          6       -0.041026   -0.039366
    6          6       -0.158593   -0.106974
    7          6        0.316839    0.284289
    8          6        0.316983    0.284518
    9          6       -0.096844   -0.102501
   10          6       -0.095949   -0.101585
   11          6        0.183967    0.121741
   12          6       -0.154985   -0.106745
   13          6       -0.150043   -0.101743
   14          6        0.189576    0.127685
   15          8       -0.535579   -0.470598
   16          8       -0.532837   -0.467103
   17          1        0.170779    0.109339
   18          1        0.180719    0.124957
   19          1        0.180796    0.125034
   20          1        0.170935    0.109502
   21          1        0.181073    0.120201
   22          1        0.180134    0.119252
   23          7       -0.496639   -0.132807
   24          6       -0.242368   -0.153288
   25          1        0.363211    0.148439
   26          1        0.155696    0.095778
   27          1        0.155556    0.095630
   28          1        0.167248    0.105596
   29          7       -0.478957   -0.118932
   30          6       -0.125370   -0.078520
   31          6       -0.090924   -0.009240
   32          8       -0.605156   -0.388512
   33          1        0.362547    0.146830
   34          1        0.153654    0.087276
   35          1        0.158634    0.093213
   36          1        0.152202    0.088571
   37          1        0.148484    0.082439
   38          1        0.429348    0.256699
 -----------------------------------------------

 Dipole moment (in Debye)
 -----------------------------------------------
                 X        Y        Z     Total
 -----------------------------------------------
 CM5          2.1683   6.0226   2.2864   6.7971
 Hirshfeld    1.5197   5.7757   2.7165   6.5611
 -----------------------------------------------

    1    -998.2297136625      2.75e-02  
Hirshfeld: reading atomic densities from disk.

 Charges (in A.U.) from CM5PAC (Nov. 11, 2011)
 -----------------------------------------------
 Center     Atomic      CM5         Hirshfeld
 Number     Number      Charge      Charge
 -----------------------------------------------
    1          6       -0.000929    0.050689
    2          6        0.010546    0.065924
    3          6        0.009690    0.065071
    4          6       -0.048740   -0.047078
    5          6       -0.049485   -0.047825
    6          6       -0.001085    0.050534
    7          6       -0.199981   -0.232532
    8          6       -0.196406   -0.228871
    9          6       -0.041448   -0.047105
   10          6       -0.040364   -0.046001
   11          6       -0.004938   -0.067164
   12          6       -0.003076    0.045165
   13          6       -0.013382    0.034917
   14          6       -0.018055   -0.079946
   15          8        0.164800    0.229782
   16          8        0.165436    0.231170
   17          1        0.022784   -0.038657
   18          1        0.029323   -0.026439
   19          1        0.029377   -0.026385
   20          1        0.023313   -0.038120
   21          1        0.056933   -0.003939
   22          1        0.056959   -0.003923
   23          7       -0.388345   -0.024514
   24          6        0.033645    0.122724
   25          1        0.239006    0.024234
   26          1        0.044164   -0.015754
   27          1        0.044652   -0.015274
   28          1        0.068236    0.006583
   29          7       -0.416445   -0.056420
   30          6        0.021200    0.068050
   31          6       -0.038583    0.043101
   32          8       -0.188105    0.028539
   33          1        0.242161    0.026444
   34          1        0.052285   -0.014093
   35          1        0.039213   -0.026208
   36          1        0.039899   -0.023732
   37          1        0.066227    0.000182
   38          1        0.190627    0.017978
 -----------------------------------------------

 Dipole moment (in Debye)
 -----------------------------------------------
                 X        Y        Z     Total
 -----------------------------------------------
 CM5          0.6398   0.9643   0.0929   1.1610
 Hirshfeld   -0.0088   0.7175   0.5230   0.8879
 -----------------------------------------------

    2    -992.5657321117      2.96e-03  
Hirshfeld: reading atomic densities from disk.

 Charges (in A.U.) from CM5PAC (Nov. 11, 2011)
 -----------------------------------------------
 Center     Atomic      CM5         Hirshfeld
 Number     Number      Charge      Charge
 -----------------------------------------------
    1          6       -0.073359   -0.021741
    2          6       -0.085407   -0.030029
    3          6       -0.085403   -0.030022
    4          6        0.020873    0.022534
    5          6        0.020295    0.021955
    6          6       -0.073707   -0.022087
    7          6        0.202286    0.169735
    8          6        0.201346    0.168881
    9          6        0.007795    0.002138
   10          6        0.007995    0.002359
   11          6        0.130331    0.068105
   12          6       -0.062760   -0.014520
   13          6       -0.058684   -0.010385
   14          6        0.136690    0.074799
   15          8       -0.485060   -0.420079
   16          8       -0.486064   -0.420330
   17          1        0.089568    0.028127
   18          1        0.093977    0.038216
   19          1        0.094017    0.038254
   20          1        0.089501    0.028068
   21          1        0.095552    0.034680
   22          1        0.095571    0.034689
   23          7       -0.430608   -0.066776
   24          6       -0.084660    0.004419
   25          1        0.293338    0.078566
   26          1        0.090229    0.030311
   27          1        0.090268    0.030342
   28          1        0.107901    0.046249
   29          7       -0.412591   -0.052566
   30          6       -0.026742    0.020108
   31          6       -0.028666    0.053018
   32          8       -0.474748   -0.258104
   33          1        0.291221    0.075503
   34          1        0.093025    0.026647
   35          1        0.086924    0.021503
   36          1        0.095494    0.031862
   37          1        0.105129    0.039084
   38          1        0.329822    0.157173
 -----------------------------------------------

 Dipole moment (in Debye)
 -----------------------------------------------
                 X        Y        Z     Total
 -----------------------------------------------
 CM5          1.5471   4.8989   1.7345   5.4223
 Hirshfeld    0.8985   4.6521   2.1646   5.2091
 -----------------------------------------------

    3    -992.2750677552      4.34e-03  
Hirshfeld: reading atomic densities from disk.

 Charges (in A.U.) from CM5PAC (Nov. 11, 2011)
 -----------------------------------------------
 Center     Atomic      CM5         Hirshfeld
 Number     Number      Charge      Charge
 -----------------------------------------------
    1          6       -0.087299   -0.035681
    2          6       -0.084670   -0.029292
    3          6       -0.084754   -0.029373
    4          6       -0.033086   -0.031425
    5          6       -0.032821   -0.031161
    6          6       -0.086894   -0.035274
    7          6        0.152287    0.119736
    8          6        0.153555    0.121089
    9          6       -0.063766   -0.069423
   10          6       -0.062903   -0.068539
   11          6        0.115575    0.053349
   12          6       -0.089801   -0.041561
   13          6       -0.090062   -0.041763
   14          6        0.115501    0.053610
   15          8       -0.297626   -0.232645
   16          8       -0.295530   -0.229796
   17          1        0.107872    0.046431
   18          1        0.111783    0.056022
   19          1        0.111781    0.056019
   20          1        0.107849    0.046416
   21          1        0.117599    0.056727
   22          1        0.117206    0.056324
   23          7       -0.458849   -0.095018
   24          6       -0.116772   -0.027692
   25          1        0.305215    0.090443
   26          1        0.103549    0.043630
   27          1        0.103583    0.043656
   28          1        0.121413    0.059760
   29          7       -0.456448   -0.096424
   30          6       -0.051008   -0.004158
   31          6       -0.048496    0.033188
   32          8       -0.466718   -0.250074
   33          1        0.303776    0.088059
   34          1        0.105654    0.039276
   35          1        0.101055    0.035634
   36          1        0.104780    0.041149
   37          1        0.112828    0.046783
   38          1        0.335178    0.162530
 -----------------------------------------------

 Dipole moment (in Debye)
 -----------------------------------------------
                 X        Y        Z     Total
 -----------------------------------------------
 CM5          1.4255   3.3437   0.7112   3.7038
 Hirshfeld    0.7769   3.0969   1.1413   3.3907
 -----------------------------------------------

    4    -992.8608205829      1.14e-03  
Hirshfeld: reading atomic densities from disk.

 Charges (in A.U.) from CM5PAC (Nov. 11, 2011)
 -----------------------------------------------
 Center     Atomic      CM5         Hirshfeld
 Number     Number      Charge      Charge
 -----------------------------------------------
    1          6       -0.082563   -0.030945
    2          6       -0.081074   -0.025697
    3          6       -0.081275   -0.025894
    4          6       -0.024465   -0.022803
    5          6       -0.024821   -0.023161
    6          6       -0.082526   -0.030907
    7          6        0.132586    0.100035
    8          6        0.133690    0.101225
    9          6       -0.051288   -0.056945
   10          6       -0.050374   -0.056010
   11          6        0.117627    0.055401
   12          6       -0.078928   -0.030687
   13          6       -0.079439   -0.031140
   14          6        0.117798    0.055907
   15          8       -0.334302   -0.269320
   16          8       -0.334170   -0.268436
   17          1        0.106117    0.044676
   18          1        0.110057    0.054296
   19          1        0.110072    0.054310
   20          1        0.106191    0.044758
   21          1        0.115260    0.054388
   22          1        0.115079    0.054197
   23          7       -0.438034   -0.074202
   24          6       -0.109751   -0.020672
   25          1        0.304529    0.089756
   26          1        0.101650    0.041731
   27          1        0.101745    0.041819
   28          1        0.118547    0.056894
   29          7       -0.435406   -0.075381
   30          6       -0.049021   -0.002171
   31          6       -0.054146    0.027538
   32          8       -0.439700   -0.223056
   33          1        0.303207    0.087490
   34          1        0.103958    0.037580
   35          1        0.099037    0.033616
   36          1        0.100625    0.036994
   37          1        0.109863    0.043818
   38          1        0.324184    0.151536
 -----------------------------------------------

 Dipole moment (in Debye)
 -----------------------------------------------
                 X        Y        Z     Total
 -----------------------------------------------
 CM5          1.4643   4.0424   1.2666   4.4821
 Hirshfeld    0.8157   3.7956   1.6967   4.2368
 -----------------------------------------------

    5    -992.9063866685      2.80e-04  
Hirshfeld: reading atomic densities from disk.

 Charges (in A.U.) from CM5PAC (Nov. 11, 2011)
 -----------------------------------------------
 Center     Atomic      CM5         Hirshfeld
 Number     Number      Charge      Charge
 -----------------------------------------------
    1          6       -0.083637   -0.032019
    2          6       -0.084299   -0.028921
    3          6       -0.084371   -0.028990
    4          6       -0.019435   -0.017774
    5          6       -0.019538   -0.017878
    6          6       -0.083466   -0.031846
    7          6        0.146633    0.114082
    8          6        0.147211    0.114746
    9          6       -0.043470   -0.049128
   10          6       -0.042849   -0.048485
   11          6        0.110831    0.048605
   12          6       -0.084836   -0.036595
   13          6       -0.084355   -0.036056
   14          6        0.111487    0.049596
   15          8       -0.325748   -0.260767
   16          8       -0.324466   -0.258732
   17          1        0.104178    0.042737
   18          1        0.108715    0.052954
   19          1        0.108725    0.052962
   20          1        0.104221    0.042788
   21          1        0.114084    0.053212
   22          1        0.113974    0.053092
   23          7       -0.452947   -0.089115
   24          6       -0.108315   -0.019236
   25          1        0.303712    0.088940
   26          1        0.100904    0.040986
   27          1        0.100984    0.041058
   28          1        0.118375    0.056722
   29          7       -0.447598   -0.087574
   30          6       -0.046689    0.000161
   31          6       -0.047710    0.033973
   32          8       -0.452331   -0.235686
   33          1        0.302330    0.086612
   34          1        0.103047    0.036669
   35          1        0.098059    0.032638
   36          1        0.100929    0.037298
   37          1        0.109886    0.043841
   38          1        0.328329    0.155680
 -----------------------------------------------

 Dipole moment (in Debye)
 -----------------------------------------------
                 X        Y        Z     Total
 -----------------------------------------------
 CM5          1.4346   3.5829   0.9616   3.9774
 Hirshfeld    0.7860   3.3361   1.3918   3.6992
 -----------------------------------------------

    6    -992.9077231490      1.22e-04  
Hirshfeld: reading atomic densities from disk.

 Charges (in A.U.) from CM5PAC (Nov. 11, 2011)
 -----------------------------------------------
 Center     Atomic      CM5         Hirshfeld
 Number     Number      Charge      Charge
 -----------------------------------------------
    1          6       -0.082878   -0.031260
    2          6       -0.082014   -0.026636
    3          6       -0.082141   -0.026760
    4          6       -0.023572   -0.021910
    5          6       -0.023649   -0.021989
    6          6       -0.082690   -0.031070
    7          6        0.143538    0.110988
    8          6        0.144501    0.112035
    9          6       -0.050274   -0.055932
   10          6       -0.049482   -0.055118
   11          6        0.115543    0.053317
   12          6       -0.081613   -0.033372
   13          6       -0.081501   -0.033201
   14          6        0.116172    0.054281
   15          8       -0.327549   -0.262567
   16          8       -0.326540   -0.260806
   17          1        0.104594    0.043153
   18          1        0.108878    0.053117
   19          1        0.108886    0.053124
   20          1        0.104642    0.043209
   21          1        0.113689    0.052817
   22          1        0.113522    0.052640
   23          7       -0.446049   -0.082217
   24          6       -0.108701   -0.019622
   25          1        0.303241    0.088469
   26          1        0.100698    0.040780
   27          1        0.100774    0.040848
   28          1        0.118028    0.056376
   29          7       -0.441916   -0.081892
   30          6       -0.046794    0.000056
   31          6       -0.048586    0.033098
   32          8       -0.452621   -0.235977
   33          1        0.301978    0.086260
   34          1        0.102964    0.036586
   35          1        0.097966    0.032545
   36          1        0.101027    0.037396
   37          1        0.110017    0.043972
   38          1        0.328463    0.155814
 -----------------------------------------------

 Dipole moment (in Debye)
 -----------------------------------------------
                 X        Y        Z     Total
 -----------------------------------------------
 CM5          1.4447   3.7292   1.0321   4.1303
 Hirshfeld    0.7961   3.4824   1.4622   3.8599
 -----------------------------------------------

    7    -992.9093405526      5.18e-05  
Hirshfeld: reading atomic densities from disk.

 Charges (in A.U.) from CM5PAC (Nov. 11, 2011)
 -----------------------------------------------
 Center     Atomic      CM5         Hirshfeld
 Number     Number      Charge      Charge
 -----------------------------------------------
    1          6       -0.083087   -0.031469
    2          6       -0.082644   -0.027266
    3          6       -0.082778   -0.027397
    4          6       -0.022674   -0.021012
    5          6       -0.022820   -0.021160
    6          6       -0.082929   -0.031309
    7          6        0.144455    0.111904
    8          6        0.145379    0.112914
    9          6       -0.048443   -0.054101
   10          6       -0.047678   -0.053315
   11          6        0.114676    0.052450
   12          6       -0.082671   -0.034430
   13          6       -0.082590   -0.034290
   14          6        0.115215    0.053324
   15          8       -0.327249   -0.262267
   16          8       -0.326301   -0.260567
   17          1        0.104708    0.043267
   18          1        0.109048    0.053287
   19          1        0.109057    0.053294
   20          1        0.104760    0.043328
   21          1        0.113920    0.053049
   22          1        0.113730    0.052848
   23          7       -0.447862   -0.084031
   24          6       -0.109108   -0.020028
   25          1        0.303466    0.088694
   26          1        0.100847    0.040928
   27          1        0.100923    0.040997
   28          1        0.118246    0.056594
   29          7       -0.443816   -0.083792
   30          6       -0.047384   -0.000533
   31          6       -0.049374    0.032309
   32          8       -0.450847   -0.234203
   33          1        0.302167    0.086450
   34          1        0.103115    0.036737
   35          1        0.098108    0.032687
   36          1        0.101020    0.037389
   37          1        0.110058    0.044014
   38          1        0.327908    0.155259
 -----------------------------------------------

 Dipole moment (in Debye)
 -----------------------------------------------
                 X        Y        Z     Total
 -----------------------------------------------
 CM5          1.4386   3.6831   1.0083   4.0806
 Hirshfeld    0.7900   3.4363   1.4384   3.8080
 -----------------------------------------------

    8    -992.9090494366      1.71e-05  
Hirshfeld: reading atomic densities from disk.

 Charges (in A.U.) from CM5PAC (Nov. 11, 2011)
 -----------------------------------------------
 Center     Atomic      CM5         Hirshfeld
 Number     Number      Charge      Charge
 -----------------------------------------------
    1          6       -0.083065   -0.031447
    2          6       -0.082587   -0.027209
    3          6       -0.082708   -0.027327
    4          6       -0.022577   -0.020915
    5          6       -0.022706   -0.021046
    6          6       -0.082897   -0.031278
    7          6        0.144009    0.111459
    8          6        0.144871    0.112406
    9          6       -0.048528   -0.054185
   10          6       -0.047778   -0.053414
   11          6        0.114519    0.052293
   12          6       -0.082566   -0.034325
   13          6       -0.082425   -0.034126
   14          6        0.115093    0.053202
   15          8       -0.327339   -0.262358
   16          8       -0.326332   -0.260598
   17          1        0.104736    0.043295
   18          1        0.109072    0.053311
   19          1        0.109080    0.053318
   20          1        0.104785    0.043353
   21          1        0.113940    0.053069
   22          1        0.113760    0.052878
   23          7       -0.447689   -0.083857
   24          6       -0.109000   -0.019921
   25          1        0.303490    0.088717
   26          1        0.100839    0.040920
   27          1        0.100916    0.040989
   28          1        0.118224    0.056572
   29          7       -0.443393   -0.083369
   30          6       -0.047198   -0.000348
   31          6       -0.049082    0.032601
   32          8       -0.451284   -0.234640
   33          1        0.302167    0.086450
   34          1        0.103078    0.036700
   35          1        0.098076    0.032655
   36          1        0.101002    0.037371
   37          1        0.110021    0.043976
   38          1        0.328028    0.155379
 -----------------------------------------------

 Dipole moment (in Debye)
 -----------------------------------------------
                 X        Y        Z     Total
 -----------------------------------------------
 CM5          1.4398   3.6852   1.0112   4.0837
 Hirshfeld    0.7912   3.4384   1.4413   3.8113
 -----------------------------------------------

    9    -992.9091846605      5.09e-06  
Hirshfeld: reading atomic densities from disk.

 Charges (in A.U.) from CM5PAC (Nov. 11, 2011)
 -----------------------------------------------
 Center     Atomic      CM5         Hirshfeld
 Number     Number      Charge      Charge
 -----------------------------------------------
    1          6       -0.083055   -0.031437
    2          6       -0.082514   -0.027137
    3          6       -0.082646   -0.027265
    4          6       -0.022664   -0.021003
    5          6       -0.022788   -0.021128
    6          6       -0.082886   -0.031267
    7          6        0.144047    0.111496
    8          6        0.144973    0.112508
    9          6       -0.048616   -0.054274
   10          6       -0.047837   -0.053473
   11          6        0.114652    0.052426
   12          6       -0.082499   -0.034259
   13          6       -0.082409   -0.034109
   14          6        0.115200    0.053309
   15          8       -0.327434   -0.262452
   16          8       -0.326474   -0.260740
   17          1        0.104751    0.043310
   18          1        0.109086    0.053325
   19          1        0.109094    0.053332
   20          1        0.104802    0.043369
   21          1        0.113914    0.053042
   22          1        0.113734    0.052851
   23          7       -0.447563   -0.083732
   24          6       -0.108998   -0.019919
   25          1        0.303462    0.088689
   26          1        0.100820    0.040902
   27          1        0.100897    0.040971
   28          1        0.118196    0.056543
   29          7       -0.443460   -0.083435
   30          6       -0.047223   -0.000373
   31          6       -0.049123    0.032561
   32          8       -0.451216   -0.234572
   33          1        0.302160    0.086442
   34          1        0.103078    0.036700
   35          1        0.098076    0.032655
   36          1        0.100997    0.037365
   37          1        0.110015    0.043970
   38          1        0.328006    0.155357
 -----------------------------------------------

 Dipole moment (in Debye)
 -----------------------------------------------
                 X        Y        Z     Total
 -----------------------------------------------
 CM5          1.4393   3.6851   1.0090   4.0828
 Hirshfeld    0.7907   3.4383   1.4391   3.8103
 -----------------------------------------------

   10    -992.9091637072      1.77e-06  
Hirshfeld: reading atomic densities from disk.

 Charges (in A.U.) from CM5PAC (Nov. 11, 2011)
 -----------------------------------------------
 Center     Atomic      CM5         Hirshfeld
 Number     Number      Charge      Charge
 -----------------------------------------------
    1          6       -0.083039   -0.031421
    2          6       -0.082534   -0.027156
    3          6       -0.082659   -0.027278
    4          6       -0.022650   -0.020989
    5          6       -0.022787   -0.021127
    6          6       -0.082875   -0.031256
    7          6        0.144063    0.111513
    8          6        0.144934    0.112468
    9          6       -0.048613   -0.054270
   10          6       -0.047864   -0.053500
   11          6        0.114632    0.052406
   12          6       -0.082529   -0.034288
   13          6       -0.082390   -0.034091
   14          6        0.115213    0.053322
   15          8       -0.327459   -0.262478
   16          8       -0.326464   -0.260730
   17          1        0.104755    0.043314
   18          1        0.109093    0.053332
   19          1        0.109101    0.053339
   20          1        0.104805    0.043373
   21          1        0.113910    0.053039
   22          1        0.113731    0.052849
   23          7       -0.447580   -0.083749
   24          6       -0.109018   -0.019938
   25          1        0.303464    0.088692
   26          1        0.100822    0.040903
   27          1        0.100898    0.040972
   28          1        0.118199    0.056547
   29          7       -0.443322   -0.083297
   30          6       -0.047228   -0.000377
   31          6       -0.049146    0.032538
   32          8       -0.451214   -0.234570
   33          1        0.302147    0.086429
   34          1        0.103070    0.036692
   35          1        0.098066    0.032646
   36          1        0.100996    0.037364
   37          1        0.110016    0.043971
   38          1        0.328004    0.155355
 -----------------------------------------------

 Dipole moment (in Debye)
 -----------------------------------------------
                 X        Y        Z     Total
 -----------------------------------------------
 CM5          1.4395   3.6840   1.0100   4.0821
 Hirshfeld    0.7909   3.4372   1.4401   3.8097
 -----------------------------------------------

   11    -992.9091645505      5.81e-07  
Hirshfeld: reading atomic densities from disk.

 Charges (in A.U.) from CM5PAC (Nov. 11, 2011)
 -----------------------------------------------
 Center     Atomic      CM5         Hirshfeld
 Number     Number      Charge      Charge
 -----------------------------------------------
    1          6       -0.083039   -0.031421
    2          6       -0.082517   -0.027139
    3          6       -0.082644   -0.027263
    4          6       -0.022661   -0.020999
    5          6       -0.022788   -0.021128
    6          6       -0.082871   -0.031251
    7          6        0.144032    0.111482
    8          6        0.144931    0.112466
    9          6       -0.048624   -0.054281
   10          6       -0.047859   -0.053496
   11          6        0.114647    0.052421
   12          6       -0.082504   -0.034263
   13          6       -0.082392   -0.034093
   14          6        0.115208    0.053317
   15          8       -0.327454   -0.262472
   16          8       -0.326477   -0.260743
   17          1        0.104756    0.043315
   18          1        0.109094    0.053332
   19          1        0.109102    0.053339
   20          1        0.104807    0.043374
   21          1        0.113909    0.053037
   22          1        0.113728    0.052846
   23          7       -0.447547   -0.083716
   24          6       -0.109015   -0.019935
   25          1        0.303461    0.088689
   26          1        0.100817    0.040899
   27          1        0.100894    0.040968
   28          1        0.118195    0.056543
   29          7       -0.443362   -0.083337
   30          6       -0.047225   -0.000374
   31          6       -0.049137    0.032546
   32          8       -0.451218   -0.234574
   33          1        0.302151    0.086433
   34          1        0.103071    0.036693
   35          1        0.098067    0.032646
   36          1        0.100994    0.037363
   37          1        0.110015    0.043971
   38          1        0.328005    0.155357
 -----------------------------------------------

 Dipole moment (in Debye)
 -----------------------------------------------
                 X        Y        Z     Total
 -----------------------------------------------
 CM5          1.4393   3.6841   1.0092   4.0820
 Hirshfeld    0.7907   3.4372   1.4393   3.8094
 -----------------------------------------------

   12    -992.9091654943      3.02e-07  
Hirshfeld: reading atomic densities from disk.

 Charges (in A.U.) from CM5PAC (Nov. 11, 2011)
 -----------------------------------------------
 Center     Atomic      CM5         Hirshfeld
 Number     Number      Charge      Charge
 -----------------------------------------------
    1          6       -0.083039   -0.031421
    2          6       -0.082513   -0.027135
    3          6       -0.082641   -0.027259
    4          6       -0.022661   -0.020999
    5          6       -0.022792   -0.021132
    6          6       -0.082873   -0.031254
    7          6        0.144035    0.111485
    8          6        0.144929    0.112463
    9          6       -0.048628   -0.054285
   10          6       -0.047865   -0.053501
   11          6        0.114647    0.052421
   12          6       -0.082507   -0.034266
   13          6       -0.082387   -0.034088
   14          6        0.115215    0.053324
   15          8       -0.327456   -0.262474
   16          8       -0.326475   -0.260741
   17          1        0.104756    0.043315
   18          1        0.109094    0.053333
   19          1        0.109102    0.053340
   20          1        0.104807    0.043375
   21          1        0.113908    0.053037
   22          1        0.113728    0.052846
   23          7       -0.447553   -0.083721
   24          6       -0.109010   -0.019930
   25          1        0.303461    0.088689
   26          1        0.100817    0.040898
   27          1        0.100893    0.040967
   28          1        0.118194    0.056542
   29          7       -0.443358   -0.083334
   30          6       -0.047223   -0.000373
   31          6       -0.049135    0.032549
   32          8       -0.451217   -0.234573
   33          1        0.302150    0.086433
   34          1        0.103070    0.036692
   35          1        0.098066    0.032645
   36          1        0.100993    0.037362
   37          1        0.110014    0.043969
   38          1        0.328004    0.155356
 -----------------------------------------------

 Dipole moment (in Debye)
 -----------------------------------------------
                 X        Y        Z     Total
 -----------------------------------------------
 CM5          1.4393   3.6839   1.0092   4.0819
 Hirshfeld    0.7907   3.4371   1.4393   3.8093
 -----------------------------------------------

   13    -992.9091651263      5.63e-08  
Hirshfeld: reading atomic densities from disk.

 Charges (in A.U.) from CM5PAC (Nov. 11, 2011)
 -----------------------------------------------
 Center     Atomic      CM5         Hirshfeld
 Number     Number      Charge      Charge
 -----------------------------------------------
    1          6       -0.083039   -0.031421
    2          6       -0.082515   -0.027137
    3          6       -0.082642   -0.027261
    4          6       -0.022662   -0.021000
    5          6       -0.022791   -0.021131
    6          6       -0.082871   -0.031252
    7          6        0.144034    0.111483
    8          6        0.144930    0.112464
    9          6       -0.048627   -0.054285
   10          6       -0.047865   -0.053501
   11          6        0.114648    0.052422
   12          6       -0.082505   -0.034265
   13          6       -0.082390   -0.034090
   14          6        0.115212    0.053321
   15          8       -0.327455   -0.262474
   16          8       -0.326476   -0.260742
   17          1        0.104757    0.043316
   18          1        0.109095    0.053333
   19          1        0.109102    0.053340
   20          1        0.104807    0.043375
   21          1        0.113908    0.053037
   22          1        0.113727    0.052845
   23          7       -0.447549   -0.083717
   24          6       -0.109012   -0.019932
   25          1        0.303461    0.088688
   26          1        0.100817    0.040898
   27          1        0.100893    0.040967
   28          1        0.118194    0.056542
   29          7       -0.443357   -0.083332
   30          6       -0.047224   -0.000374
   31          6       -0.049136    0.032547
   32          8       -0.451218   -0.234573
   33          1        0.302150    0.086433
   34          1        0.103070    0.036692
   35          1        0.098066    0.032645
   36          1        0.100993    0.037362
   37          1        0.110014    0.043969
   38          1        0.328005    0.155356
 -----------------------------------------------

 Dipole moment (in Debye)
 -----------------------------------------------
                 X        Y        Z     Total
 -----------------------------------------------
 CM5          1.4393   3.6839   1.0092   4.0818
 Hirshfeld    0.7907   3.4371   1.4393   3.8093
 -----------------------------------------------

   14    -992.9091649777      2.76e-08  
   15    -992.9091650841      5.74e-09  Convergence criterion met
 ---------------------------------------
 SCF time:   CPU 10460.59s  wall 1341.00s 
(1)  E-EN(liq) elect-nuc energy of solute               -992.909165084 a.u.
(2)  G-P(liq) polarization free energy of solvation            -7.6783 kcal/mol
(3)  G-ENP(liq) elect-nuc-pol free energy of system     -992.921401203 a.u.
(4)  G-CDS(liq) cavity-dispersion-solvent structure 
     free energy                                              -12.0205 kcal/mol
(5)  G-P-CDS(liq) = G-P(liq) + G-CDS(liq) = (2) + (4)         -19.6988 kcal/mol
(6)  G-S(liq) free energy of system = (1) + (5)         -992.940557148 a.u.
 SCF   energy in the final basis set =     -992.9405571483
 Total energy in the final basis set =     -992.9405571483
 
 --------------------------------------------------------------
 
                    Orbital Energies (a.u.)
 --------------------------------------------------------------
 
 Alpha MOs
 -- Occupied --
-19.1295 -19.1115 -19.1107 -14.3370 -14.3359 -10.2644 -10.2637 -10.2400
-10.2389 -10.2232 -10.2112 -10.2010 -10.1977 -10.1973 -10.1972 -10.1966
-10.1962 -10.1955 -10.1911 -10.1906 -10.1887 -10.1886  -1.0451  -1.0430
 -1.0312  -0.9566  -0.9498  -0.8810  -0.8579  -0.8061  -0.7772  -0.7694
 -0.7665  -0.7328  -0.6944  -0.6828  -0.6606  -0.6472  -0.6296  -0.6082
 -0.5903  -0.5542  -0.5509  -0.5345  -0.5233  -0.5110  -0.4987  -0.4849
 -0.4820  -0.4777  -0.4692  -0.4554  -0.4544  -0.4428  -0.4416  -0.4386
 -0.4382  -0.4260  -0.4171  -0.4104  -0.4022  -0.4010  -0.3974  -0.3874
 -0.3799  -0.3704  -0.3618  -0.3594  -0.3443  -0.3311  -0.2891  -0.2840
 -0.2759  -0.2727  -0.2704  -0.2634  -0.2620  -0.1943
 -- Virtual --
 -0.1075  -0.0575  -0.0324  -0.0065  -0.0032  -0.0006   0.0043   0.0129
  0.0147   0.0220   0.0278   0.0322   0.0357   0.0414   0.0427   0.0451
  0.0485   0.0499   0.0524   0.0585   0.0600   0.0678   0.0695   0.0735
  0.0765   0.0785   0.0795   0.0901   0.0956   0.0993   0.1025   0.1073
  0.1086   0.1105   0.1127   0.1135   0.1138   0.1173   0.1216   0.1236
  0.1288   0.1293   0.1316   0.1380   0.1408   0.1433   0.1442   0.1450
  0.1478   0.1516   0.1539   0.1575   0.1602   0.1641   0.1654   0.1688
  0.1698   0.1720   0.1745   0.1752   0.1788   0.1823   0.1846   0.1857
  0.1896   0.1951   0.1991   0.2012   0.2048   0.2064   0.2083   0.2096
  0.2114   0.2183   0.2193   0.2208   0.2269   0.2287   0.2327   0.2387
  0.2398   0.2452   0.2471   0.2523   0.2559   0.2582   0.2601   0.2609
  0.2615   0.2687   0.2706   0.2747   0.2785   0.2816   0.2854   0.2886
  0.2906   0.2934   0.2961   0.3010   0.3019   0.3068   0.3109   0.3131
  0.3144   0.3166   0.3213   0.3259   0.3287   0.3357   0.3364   0.3417
  0.3461   0.3482   0.3510   0.3597   0.3615   0.3648   0.3690   0.3718
  0.3732   0.3842   0.3876   0.3892   0.3958   0.4023   0.4079   0.4097
  0.4168   0.4217   0.4357   0.4531   0.4606   0.4611   0.4634   0.4747
  0.4783   0.5028   0.5070   0.5178   0.5249   0.5335   0.5404   0.5419
  0.5440   0.5518   0.5520   0.5552   0.5593   0.5661   0.5705   0.5760
  0.5903   0.5928   0.6019   0.6030   0.6124   0.6137   0.6202   0.6285
  0.6316   0.6424   0.6444   0.6478   0.6501   0.6518   0.6548   0.6584
  0.6634   0.6668   0.6697   0.6785   0.6813   0.6896   0.6925   0.7009
  0.7071   0.7087   0.7254   0.7291   0.7340   0.7353   0.7408   0.7467
  0.7569   0.7587   0.7668   0.7717   0.7802   0.7867   0.7951   0.7964
  0.8162   0.8299   0.8469   0.8501   0.8581   0.8735   0.8810   0.8855
  0.8880   0.8903   0.8980   0.9059   0.9114   0.9207   0.9215   0.9292
  0.9321   0.9478   0.9488   0.9615   0.9626   0.9698   0.9759   0.9859
  0.9909   0.9962   1.0012   1.0107   1.0147   1.0199   1.0237   1.0322
  1.0346   1.0518   1.0605   1.0715   1.0846   1.0892   1.0945   1.0985
  1.1187   1.1228   1.1346   1.1381   1.1428   1.1516   1.1567   1.1773
  1.1783   1.1948   1.2130   1.2190   1.2279   1.2386   1.2431   1.2561
  1.2676   1.2829   1.2962   1.3065   1.3234   1.3480   1.3556   1.3609
  1.3882   1.3995   1.4111   1.4212   1.4362   1.4560   1.4597   1.4657
  1.4747   1.4835   1.4842   1.4924   1.5029   1.5068   1.5133   1.5158
  1.5247   1.5265   1.5534   1.5551   1.5643   1.5659   1.5730   1.5796
  1.5825   1.5908   1.6001   1.6056   1.6090   1.6145   1.6371   1.6421
  1.6636   1.6666   1.6770   1.6809   1.6951   1.7089   1.7161   1.7208
  1.7348   1.7399   1.7418   1.7460   1.7545   1.7593   1.7687   1.7713
  1.7867   1.7997   1.8129   1.8243   1.8428   1.8461   1.8664   1.8791
  1.8866   1.8896   1.8975   1.9004   1.9029   1.9164   1.9338   1.9344
  1.9424   1.9470   1.9775   1.9796   1.9822   1.9893   2.0018   2.0122
  2.0167   2.0324   2.0406   2.0591   2.0658   2.0736   2.0829   2.0950
  2.1024   2.1107   2.1207   2.1284   2.1357   2.1541   2.1691   2.1915
  2.1964   2.2158   2.2544   2.2550   2.2777   2.2984   2.3073   2.3102
  2.3142   2.3536   2.3686   2.3709   2.3989   2.4241   2.4250   2.4355
  2.4415   2.4546   2.4700   2.4894   2.4943   2.5027   2.5164   2.5200
  2.5247   2.5537   2.5683   2.5794   2.5947   2.6171   2.6194   2.6324
  2.6365   2.6413   2.6562   2.6764   2.6844   2.6902   2.7111   2.7230
  2.7243   2.7298   2.7450   2.7465   2.7578   2.7648   2.7674   2.7703
  2.7881   2.7901   2.7908   2.8055   2.8141   2.8341   2.8429   2.8480
  2.8564   2.8663   2.8708   2.8760   2.8917   2.8988   2.9001   2.9149
  2.9399   2.9486   2.9533   2.9698   2.9883   3.0138   3.0552   3.0759
  3.0868   3.0928   3.1037   3.1148   3.1236   3.1666   3.1761   3.1970
  3.2012   3.2274   3.2370   3.2418   3.2541   3.2671   3.3160   3.3200
  3.3432   3.3446   3.3610   3.3692   3.3801   3.4182   3.4228   3.4512
  3.5093   3.5304   3.5423   3.5470   3.5751   3.5827   3.5900   3.6657
  3.7181   3.7479   3.7629   3.7667   3.7691   3.7835   3.8302   3.8377
  3.8628   3.8859   3.9502   3.9715   3.9975   4.0067   4.0178   4.0364
  4.0785   4.1447   4.2014   4.2173   4.2552   4.2936   4.4751   4.7786
  4.8307   4.8529   4.8728   4.8986   5.0411   5.0605   5.0796   5.0986
  5.1626   5.3350   5.3574   5.3916   5.6594   5.7818   5.8672  23.5494
 23.6988  23.8332  23.8872  23.9011  23.9068  23.9183  23.9498  23.9557
 23.9564  23.9593  23.9787  24.0066  24.0652  24.0932  24.1798  24.1832
 35.6621  35.7051  49.9224  50.0543  50.0995
 --------------------------------------------------------------
 
          Ground-State Mulliken Net Atomic Charges

     Atom                 Charge (a.u.)
  ----------------------------------------
      1 C                    -0.048747
      2 C                     0.185255
      3 C                     0.227395
      4 C                    -0.512638
      5 C                    -0.492004
      6 C                    -0.091969
      7 C                    -1.431806
      8 C                    -1.174053
      9 C                    -0.143668
     10 C                     0.015979
     11 C                    -0.865924
     12 C                     1.335021
     13 C                     1.295612
     14 C                    -1.063386
     15 O                    -0.288570
     16 O                    -0.259135
     17 H                     0.184990
     18 H                     0.311946
     19 H                     0.314390
     20 H                     0.176888
     21 H                     0.389408
     22 H                     0.391625
     23 N                    -0.375344
     24 C                    -0.098228
     25 H                     0.333373
     26 H                     0.218778
     27 H                     0.218387
     28 H                     0.238984
     29 N                    -0.128196
     30 C                     0.144475
     31 C                    -0.180487
     32 O                    -0.289901
     33 H                     0.441521
     34 H                     0.194299
     35 H                     0.220593
     36 H                     0.181616
     37 H                     0.155543
     38 H                     0.267976
  ----------------------------------------
  Sum of atomic charges =     0.000000

 -----------------------------------------------------------------
                    Cartesian Multipole Moments
 -----------------------------------------------------------------
    Charge (ESU x 10^10)
                 0.0000
    Dipole Moment (Debye)
         X       1.4942      Y       3.9844      Z       0.9207
       Tot       4.3538
    Quadrupole Moments (Debye-Ang)
        XX    -129.8127     XY       4.6335     YY     -71.5935
        XZ       7.3309     YZ       9.0824     ZZ    -135.9543
    Octopole Moments (Debye-Ang^2)
       XXX     291.6235    XXY    -486.3605    XYY      71.8501
       YYY    -936.0995    XXZ     134.7608    XYZ      30.2814
       YYZ      84.5722    XZZ     121.6614    YZZ    -530.3304
       ZZZ     240.7250
    Hexadecapole Moments (Debye-Ang^3)
      XXXX    -835.9355   XXXY    1093.3836   XXYY   -2649.7868
      XYYY     638.1917   YYYY  -10619.6243   XXXZ    -839.4402
      XXYZ     391.2369   XYYZ     -30.9540   YYYZ     266.6670
      XXZZ   -1143.2818   XYZZ     542.8362   YYZZ   -3513.6459
      XZZZ    -617.3421   YZZZ     777.6354   ZZZZ   -7069.6855
 -----------------------------------------------------------------
 Total job time:  1352.31s(wall), 10469.29s(cpu) 
 Sat Feb  3 11:45:58 2024

        *************************************************************
        *                                                           *
        *  Thank you very much for using Q-Chem.  Have a nice day.  *
        *                                                           *
        *************************************************************


