 Entering Gaussian System, Link 0=g16
 Input=215-an-PCM.com
 Output=215-an-PCM.log
 Initial command:
 /sysapps/ubuntu-applications/gaussian/Gaussian/AVX2/g16/l1.exe "/scratch/selhajj1/4293293/Gau-2616983.inp" -scrdir="/scratch/selhajj1/4293293/"
 Entering Link 1 = /sysapps/ubuntu-applications/gaussian/Gaussian/AVX2/g16/l1.exe PID=   2616990.
  
 Copyright (c) 1988,1990,1992,1993,1995,1998,2003,2009,2016,
            Gaussian, Inc.  All Rights Reserved.
  
 This is part of the Gaussian(R) 16 program.  It is based on
 the Gaussian(R) 09 system (copyright 2009, Gaussian, Inc.),
 the Gaussian(R) 03 system (copyright 2003, Gaussian, Inc.),
 the Gaussian(R) 98 system (copyright 1998, Gaussian, Inc.),
 the Gaussian(R) 94 system (copyright 1995, Gaussian, Inc.),
 the Gaussian 92(TM) system (copyright 1992, Gaussian, Inc.),
 the Gaussian 90(TM) system (copyright 1990, Gaussian, Inc.),
 the Gaussian 88(TM) system (copyright 1988, Gaussian, Inc.),
 the Gaussian 86(TM) system (copyright 1986, Carnegie Mellon
 University), and the Gaussian 82(TM) system (copyright 1983,
 Carnegie Mellon University). Gaussian is a federally registered
 trademark of Gaussian, Inc.
  
 This software contains proprietary and confidential information,
 including trade secrets, belonging to Gaussian, Inc.
  
 This software is provided under written license and may be
 used, copied, transmitted, or stored only in accord with that
 written license.
  
 The following legend is applicable only to US Government
 contracts under FAR:
  
                    RESTRICTED RIGHTS LEGEND
  
 Use, reproduction and disclosure by the US Government is
 subject to restrictions as set forth in subparagraphs (a)
 and (c) of the Commercial Computer Software - Restricted
 Rights clause in FAR 52.227-19.
  
 Gaussian, Inc.
 340 Quinnipiac St., Bldg. 40, Wallingford CT 06492
  
  
 ---------------------------------------------------------------
 Warning -- This program may not be used in any manner that
 competes with the business of Gaussian, Inc. or will provide
 assistance to any competitor of Gaussian, Inc.  The licensee
 of this program is prohibited from giving any competitor of
 Gaussian, Inc. access to this program.  By using this program,
 the user acknowledges that Gaussian, Inc. is engaged in the
 business of creating and licensing software in the field of
 computational chemistry and represents and warrants to the
 licensee that it is not a competitor of Gaussian, Inc. and that
 it will not use this program in any manner prohibited above.
 ---------------------------------------------------------------
  

 Cite this work as:
 Gaussian 16, Revision A.03,
 M. J. Frisch, G. W. Trucks, H. B. Schlegel, G. E. Scuseria, 
 M. A. Robb, J. R. Cheeseman, G. Scalmani, V. Barone, 
 G. A. Petersson, H. Nakatsuji, X. Li, M. Caricato, A. V. Marenich, 
 J. Bloino, B. G. Janesko, R. Gomperts, B. Mennucci, H. P. Hratchian, 
 J. V. Ortiz, A. F. Izmaylov, J. L. Sonnenberg, D. Williams-Young, 
 F. Ding, F. Lipparini, F. Egidi, J. Goings, B. Peng, A. Petrone, 
 T. Henderson, D. Ranasinghe, V. G. Zakrzewski, J. Gao, N. Rega, 
 G. Zheng, W. Liang, M. Hada, M. Ehara, K. Toyota, R. Fukuda, 
 J. Hasegawa, M. Ishida, T. Nakajima, Y. Honda, O. Kitao, H. Nakai, 
 T. Vreven, K. Throssell, J. A. Montgomery, Jr., J. E. Peralta, 
 F. Ogliaro, M. J. Bearpark, J. J. Heyd, E. N. Brothers, K. N. Kudin, 
 V. N. Staroverov, T. A. Keith, R. Kobayashi, J. Normand, 
 K. Raghavachari, A. P. Rendell, J. C. Burant, S. S. Iyengar, 
 J. Tomasi, M. Cossi, J. M. Millam, M. Klene, C. Adamo, R. Cammi, 
 J. W. Ochterski, R. L. Martin, K. Morokuma, O. Farkas, 
 J. B. Foresman, and D. J. Fox, Gaussian, Inc., Wallingford CT, 2016.
 
 ******************************************
 Gaussian 16:  ES64L-G16RevA.03 25-Dec-2016
                16-Jan-2024 
 ******************************************
 %chk=215-an-PCM.chk
 %nproc=8
 Will use up to    8 processors via shared memory.
 %mem=30GB
 ----------------------------------------------------------------
 #P UB3LYP/6-311++G(d,p) SCRF=(PCM,Solvent=n,n-DiMethylFormamide)
 ----------------------------------------------------------------
 1/38=1,172=1/1;
 2/12=2,17=6,18=5,40=1/2;
 3/5=4,6=6,7=1111,11=2,25=1,30=1,70=2201,72=148,74=-5,116=2/1,2,3;
 4//1;
 5/5=2,38=5,53=148/2;
 6/7=2,8=2,9=2,10=2,28=1/1;
 99/5=1,9=1/99;
 Leave Link    1 at Tue Jan 16 06:29:59 2024, MaxMem=  4026531840 cpu:               0.4 elap:               0.1
 (Enter /sysapps/ubuntu-applications/gaussian/Gaussian/AVX2/g16/l101.exe)
 -------
 Reduced
 -------
 Symbolic Z-matrix:
 Charge = -2 Multiplicity = 1
 C                     5.0251   -2.3738    0.57812 
 C                     5.831    -1.69271  -0.31522 
 C                     5.23101  -0.89481  -1.32127 
 C                     3.616    -2.30008   0.51963 
 C                     3.00423  -1.49186  -0.4994 
 C                     3.85604  -0.80462  -1.40092 
 C                     2.82619  -3.04543   1.50093 
 C                     1.38188  -2.90251   1.34779 
 C                     0.78292  -2.07346   0.30145 
 C                     1.55627  -1.34574  -0.6505 
 C                     0.55069  -3.58747   2.23362 
 C                    -0.64395  -2.00781   0.25387 
 C                    -1.45515  -2.67267   1.13039 
 O                     3.36814  -3.75217   2.40066 
 O                     1.05433  -0.61252  -1.57805 
 H                     5.44755  -2.99392   1.3624 
 H                     6.9142   -1.76758  -0.24803 
 H                     5.85584  -0.35381  -2.02982 
 H                    -2.53399  -2.59062   1.08611 
 H                     3.36513  -0.20283  -2.15885 
 H                     1.0206   -4.20017   2.99403 
 H                    -1.06804  -1.38221  -0.52494 
 C                    -0.84193  -3.47601   2.16119 
 S                    -1.8272   -4.40535   3.21291 
 O                    -1.13306  -4.85883   4.4297 
 O                    -3.17846  -3.83067   3.36826 
 O                    -2.10305  -5.85424   2.31255 
 C                    -2.98823  -6.78617   2.92505 
 H                    -2.59834  -7.12873   3.89086 
 H                    -3.05887  -7.63922   2.242 
 H                    -3.9846   -6.35203   3.06783 
 
 ITRead=  0  0  0  0  0  0  0  0  0  0  0  0  0  0  0  0  0  0  0  0
 ITRead=  0  0  0  0  0  0  0  0  0  0  0
 MicOpt= -1 -1 -1 -1 -1 -1 -1 -1 -1 -1 -1 -1 -1 -1 -1 -1 -1 -1 -1 -1
 MicOpt= -1 -1 -1 -1 -1 -1 -1 -1 -1 -1 -1
 NAtoms=     31 NQM=       31 NQMF=       0 NMMI=      0 NMMIF=      0
                NMic=       0 NMicF=      0.
                    Isotopes and Nuclear Properties:
 (Nuclear quadrupole moments (NQMom) in fm**2, nuclear magnetic moments (NMagM)
  in nuclear magnetons)

  Atom         1           2           3           4           5           6           7           8           9          10
 IAtWgt=          12          12          12          12          12          12          12          12          12          12
 AtmWgt=  12.0000000  12.0000000  12.0000000  12.0000000  12.0000000  12.0000000  12.0000000  12.0000000  12.0000000  12.0000000
 NucSpn=           0           0           0           0           0           0           0           0           0           0
 AtZEff=  -0.0000000  -0.0000000  -0.0000000  -0.0000000  -0.0000000  -0.0000000  -0.0000000  -0.0000000  -0.0000000  -0.0000000
 NQMom=    0.0000000   0.0000000   0.0000000   0.0000000   0.0000000   0.0000000   0.0000000   0.0000000   0.0000000   0.0000000
 NMagM=    0.0000000   0.0000000   0.0000000   0.0000000   0.0000000   0.0000000   0.0000000   0.0000000   0.0000000   0.0000000
 AtZNuc=   6.0000000   6.0000000   6.0000000   6.0000000   6.0000000   6.0000000   6.0000000   6.0000000   6.0000000   6.0000000

  Atom        11          12          13          14          15          16          17          18          19          20
 IAtWgt=          12          12          12          16          16           1           1           1           1           1
 AtmWgt=  12.0000000  12.0000000  12.0000000  15.9949146  15.9949146   1.0078250   1.0078250   1.0078250   1.0078250   1.0078250
 NucSpn=           0           0           0           0           0           1           1           1           1           1
 AtZEff=  -0.0000000  -0.0000000  -0.0000000  -0.0000000  -0.0000000  -0.0000000  -0.0000000  -0.0000000  -0.0000000  -0.0000000
 NQMom=    0.0000000   0.0000000   0.0000000   0.0000000   0.0000000   0.0000000   0.0000000   0.0000000   0.0000000   0.0000000
 NMagM=    0.0000000   0.0000000   0.0000000   0.0000000   0.0000000   2.7928460   2.7928460   2.7928460   2.7928460   2.7928460
 AtZNuc=   6.0000000   6.0000000   6.0000000   8.0000000   8.0000000   1.0000000   1.0000000   1.0000000   1.0000000   1.0000000

  Atom        21          22          23          24          25          26          27          28          29          30
 IAtWgt=           1           1          12          32          16          16          16          12           1           1
 AtmWgt=   1.0078250   1.0078250  12.0000000  31.9720718  15.9949146  15.9949146  15.9949146  12.0000000   1.0078250   1.0078250
 NucSpn=           1           1           0           0           0           0           0           0           1           1
 AtZEff=  -0.0000000  -0.0000000  -0.0000000  -0.0000000  -0.0000000  -0.0000000  -0.0000000  -0.0000000  -0.0000000  -0.0000000
 NQMom=    0.0000000   0.0000000   0.0000000   0.0000000   0.0000000   0.0000000   0.0000000   0.0000000   0.0000000   0.0000000
 NMagM=    2.7928460   2.7928460   0.0000000   0.0000000   0.0000000   0.0000000   0.0000000   0.0000000   2.7928460   2.7928460
 AtZNuc=   1.0000000   1.0000000   6.0000000  16.0000000   8.0000000   8.0000000   8.0000000   6.0000000   1.0000000   1.0000000

  Atom        31
 IAtWgt=           1
 AtmWgt=   1.0078250
 NucSpn=           1
 AtZEff=  -0.0000000
 NQMom=    0.0000000
 NMagM=    2.7928460
 AtZNuc=   1.0000000
 Leave Link  101 at Tue Jan 16 06:29:59 2024, MaxMem=  4026531840 cpu:               1.2 elap:               0.2
 (Enter /sysapps/ubuntu-applications/gaussian/Gaussian/AVX2/g16/l202.exe)
                          Input orientation:                          
 ---------------------------------------------------------------------
 Center     Atomic      Atomic             Coordinates (Angstroms)
 Number     Number       Type             X           Y           Z
 ---------------------------------------------------------------------
      1          6           0        5.025098   -2.373804    0.578119
      2          6           0        5.830999   -1.692709   -0.315222
      3          6           0        5.231007   -0.894812   -1.321274
      4          6           0        3.615997   -2.300077    0.519629
      5          6           0        3.004232   -1.491863   -0.499401
      6          6           0        3.856043   -0.804619   -1.400921
      7          6           0        2.826188   -3.045426    1.500934
      8          6           0        1.381883   -2.902507    1.347791
      9          6           0        0.782923   -2.073461    0.301452
     10          6           0        1.556273   -1.345743   -0.650502
     11          6           0        0.550686   -3.587466    2.233625
     12          6           0       -0.643950   -2.007808    0.253873
     13          6           0       -1.455154   -2.672666    1.130388
     14          8           0        3.368139   -3.752168    2.400661
     15          8           0        1.054332   -0.612517   -1.578050
     16          1           0        5.447550   -2.993923    1.362400
     17          1           0        6.914196   -1.767583   -0.248029
     18          1           0        5.855839   -0.353813   -2.029820
     19          1           0       -2.533994   -2.590623    1.086112
     20          1           0        3.365126   -0.202826   -2.158846
     21          1           0        1.020596   -4.200165    2.994026
     22          1           0       -1.068043   -1.382213   -0.524936
     23          6           0       -0.841934   -3.476014    2.161185
     24         16           0       -1.827197   -4.405350    3.212911
     25          8           0       -1.133055   -4.858830    4.429696
     26          8           0       -3.178455   -3.830665    3.368261
     27          8           0       -2.103046   -5.854240    2.312548
     28          6           0       -2.988233   -6.786173    2.925053
     29          1           0       -2.598335   -7.128735    3.890864
     30          1           0       -3.058866   -7.639216    2.242001
     31          1           0       -3.984597   -6.352026    3.067831
 ---------------------------------------------------------------------
                    Distance matrix (angstroms):
                    1          2          3          4          5
     1  C    0.000000
     2  C    1.382543   0.000000
     3  C    2.416094   1.417311   0.000000
     4  C    1.412240   2.443789   2.823464   0.000000
     5  C    2.454133   2.839872   2.447544   1.437320   0.000000
     6  C    2.783097   2.422374   1.380219   2.445921   1.417965
     7  C    2.477472   3.762600   4.286392   1.463661   2.539015
     8  C    3.760976   4.901414   5.096126   2.457649   2.834440
     9  C    4.261784   5.099836   4.879334   2.850485   2.431838
    10  C    3.820885   4.301869   3.762571   2.553903   1.463136
    11  C    4.922808   6.161853   6.464758   3.740493   4.228578
    12  C    5.690096   6.507543   6.183443   4.278223   3.760698
    13  C    6.510606   7.492538   7.340038   5.121369   4.892508
    14  O    2.822598   4.205124   5.048521   2.389201   3.694830
    15  O    4.849555   5.057479   4.194072   3.716214   2.395588
    16  H    1.085408   2.157454   3.413981   2.132199   3.419399
    17  H    2.149120   1.087859   2.178694   3.427968   3.927726
    18  H    3.401741   2.175570   1.088638   3.912100   3.430598
    19  H    7.579244   8.528956   8.304609   6.182856   5.864561
    20  H    3.867768   3.420414   2.159140   3.411103   2.132046
    21  H    5.020781   6.354403   6.875662   4.058212   4.844971
    22  H    6.271072   6.909209   6.367868   4.886084   4.073831
    23  C    6.176004   7.337629   7.461283   4.893943   5.080213
    24  S    7.617300   8.857432   9.094007   6.427620   6.753693
    25  O    7.676773   9.002034   9.449253   6.662532   7.262893
    26  O    8.786673   9.965398  10.066281   7.524758   7.658618
    27  O    8.119859   9.336626   9.570210   6.968076   7.281599
    28  C    9.444076  10.687451  10.967923   8.338284   8.698634
    29  H    9.576031  10.876360  11.283917   8.561489   9.079510
    30  H    9.789971  10.996819  11.265252   8.719333   9.059050
    31  H   10.158716  11.379816  11.574661   8.982241   9.229846
                    6          7          8          9         10
     6  C    0.000000
     7  C    3.808225   0.000000
     8  C    4.251825   1.459416   0.000000
     9  C    3.735251   2.560938   1.463180   0.000000
    10  C    2.478888   3.021636   2.539114   1.426135   0.000000
    11  C    5.646198   2.451235   1.394546   2.465652   3.788762
    12  C    4.943273   3.830623   2.470049   1.429175   2.469252
    13  C    6.173001   4.313484   2.854623   2.460726   3.741789
    14  O    4.835093   1.265979   2.403263   3.729353   4.287579
    15  O    2.813870   4.305655   3.729865   2.395944   1.284488
    16  H    3.868060   2.625525   4.066721   4.871510   4.680845
    17  H    3.407163   4.626399   5.868661   6.163441   5.389552
    18  H    2.144277   5.374922   6.157953   5.841789   4.623063
    19  H    7.085740   5.395412   3.936984   3.447475   4.614741
    20  H    1.085175   4.665278   4.849539   4.027420   2.617883
    21  H    6.235788   2.612070   2.127095   3.439377   4.660178
    22  H    5.034639   4.694194   3.438101   2.141685   2.627571
    23  C    6.472707   3.751860   2.436367   2.840057   4.265564
    24  S    8.157936   5.141425   4.004423   4.552694   5.977878
    25  O    8.678930   5.248017   4.432860   5.335883   6.736667
    26  O    9.021431   6.337132   5.073506   5.309011   6.689017
    27  O    8.648657   5.731099   4.667785   5.164070   6.518959
    28  C   10.066636   7.058951   6.055455   6.581379   7.939484
    29  H   10.471696   7.197960   6.338009   7.062052   8.445577
    30  H   10.382609   7.502396   6.554104   7.035816   8.323093
    31  H   10.593352   7.731466   6.607331   6.977694   8.342069
                   11         12         13         14         15
    11  C    0.000000
    12  C    2.800338   0.000000
    13  C    2.465235   1.366882   0.000000
    14  O    2.827202   4.873228   5.103241   0.000000
    15  O    4.861363   2.861283   4.228164   5.571468   0.000000
    16  H    5.009052   6.269580   6.914070   2.444764   5.798078
    17  H    7.068581   7.578600   8.530254   4.850635   6.118917
    18  H    7.535126   7.085070   8.295457   6.112825   4.829647
    19  H    3.438856   2.145824   1.082861   6.157305   4.887407
    20  H    6.218574   5.015163   6.336740   5.778143   2.417631
    21  H    1.083709   3.884016   3.454814   2.462467   5.811733
    22  H    3.884982   1.085250   2.134296   5.818549   2.491176
    23  C    1.398949   2.415091   1.443589   4.225911   5.077137
    24  S    2.698567   3.988005   2.734504   5.298860   6.755894
    25  O    3.045337   5.079867   3.970956   5.059885   7.675210
    26  O    3.905514   4.409755   3.052672   6.618180   7.262159
    27  O    3.490958   4.600233   3.455384   5.861769   7.251307
    28  C    4.820140   5.955135   4.742583   7.062835   8.644900
    29  H    5.020295   6.578086   5.365039   7.015748   9.258083
    30  H    5.426381   6.441834   5.336122   7.512703   8.993647
    31  H    5.376568   6.160399   4.867182   7.827331   8.939630
                   16         17         18         19         20
    16  H    0.000000
    17  H    2.499688   0.000000
    18  H    4.317874   2.508714   0.000000
    19  H    7.996501   9.577349   9.225055   0.000000
    20  H    4.952362   4.323839   2.498619   7.143595   0.000000
    21  H    4.869820   7.152824   7.963230   4.343486   6.930197
    22  H    6.972274   7.996332   7.159778   2.490932   4.869661
    23  C    6.358308   8.299434   8.495459   2.191521   6.861179
    24  S    7.637962   9.764623  10.145453   2.883760   8.571884
    25  O    7.496035   9.807914  10.529253   4.276324   9.236931
    26  O    8.895593  10.917668  11.083603   2.676049   9.302074
    27  O    8.129926  10.225848  10.604466   3.512984   9.046146
    28  C    9.380058  11.546116  12.005983   4.603333  10.466693
    29  H    9.392873  11.677356  12.346138   5.335282  10.960387
    30  H    9.731986  11.838002  12.279964   5.205753  10.767313
    31  H   10.156316  12.279891  12.601539   4.492172  10.915550
                   21         22         23         24         25
    21  H    0.000000
    22  H    4.968537   0.000000
    23  C    2.164957   3.413264   0.000000
    24  S    2.863553   4.866947   1.714799   0.000000
    25  O    2.670805   6.053055   2.672653   1.472428   0.000000
    26  O    4.231857   5.060211   2.653703   1.476582   2.523376
    27  O    3.599655   5.396441   2.696159   1.728013   2.532595
    28  C    4.771049   6.692708   4.018364   2.664430   3.069249
    29  H    4.741044   7.406997   4.406711   2.910515   2.754969
    30  H    5.388379   7.125265   4.717369   3.594101   4.028065
    31  H    5.448661   6.790678   4.355431   2.909462   3.495083
                   26         27         28         29         30
    26  O    0.000000
    27  O    2.523072   0.000000
    28  C    2.994603   1.423804   0.000000
    29  H    3.389236   2.088236   1.096431   0.000000
    30  H    3.973389   2.026008   1.095094   1.786457   0.000000
    31  H    2.664092   2.087697   1.096180   1.789520   1.787689
                   31
    31  H    0.000000
 Stoichiometry    C15H10O5S(2-)
 Framework group  C1[X(C15H10O5S)]
 Deg. of freedom    87
 Full point group                 C1      NOp   1
 Largest Abelian subgroup         C1      NOp   1
 Largest concise Abelian subgroup C1      NOp   1
                         Standard orientation:                         
 ---------------------------------------------------------------------
 Center     Atomic      Atomic             Coordinates (Angstroms)
 Number     Number       Type             X           Y           Z
 ---------------------------------------------------------------------
      1          6           0       -3.909485   -1.806598    0.045177
      2          6           0       -5.233109   -1.426850    0.168613
      3          6           0       -5.554012   -0.049065    0.255220
      4          6           0       -2.861545   -0.860835    0.003030
      5          6           0       -3.183433    0.537234    0.090657
      6          6           0       -4.549375    0.896544    0.216048
      7          6           0       -1.483706   -1.335630   -0.132738
      8          6           0       -0.480088   -0.276484   -0.162006
      9          6           0       -0.833159    1.140529   -0.070848
     10          6           0       -2.177425    1.599130    0.057581
     11          6           0        0.861725   -0.638203   -0.278007
     12          6           0        0.237064    2.086694   -0.114838
     13          6           0        1.550356    1.728575   -0.238854
     14          8           0       -1.203884   -2.567547   -0.215094
     15          8           0       -2.512451    2.836402    0.140209
     16          1           0       -3.624605   -2.851625   -0.024620
     17          1           0       -6.020935   -2.176401    0.199253
     18          1           0       -6.592906    0.261443    0.352257
     19          1           0        2.341838    2.465802   -0.290237
     20          1           0       -4.760899    1.958979    0.280024
     21          1           0        1.095550   -1.694791   -0.336082
     22          1           0       -0.046467    3.132414   -0.052808
     23          6           0        1.874223    0.325284   -0.338016
     24         16           0        3.516282   -0.166058   -0.390560
     25          8           0        3.707906   -1.544610   -0.871098
     26          8           0        4.397113    0.881718   -0.944273
     27          8           0        3.959638   -0.229214    1.278414
     28          6           0        5.329281   -0.527377    1.528208
     29          1           0        5.600263   -1.512689    1.130857
     30          1           0        5.450379   -0.532076    2.616576
     31          1           0        5.986807    0.234177    1.093115
 ---------------------------------------------------------------------
 Rotational constants (GHZ):           0.7449185           0.1448785           0.1275122
 Leave Link  202 at Tue Jan 16 06:29:59 2024, MaxMem=  4026531840 cpu:               0.2 elap:               0.1
 (Enter /sysapps/ubuntu-applications/gaussian/Gaussian/AVX2/g16/l301.exe)
 Standard basis: 6-311++G(d,p) (5D, 7F)
 Ernie: Thresh=  0.10000D-02 Tol=  0.10000D-05 Strict=F.
 There are   561 symmetry adapted cartesian basis functions of A   symmetry.
 There are   540 symmetry adapted basis functions of A   symmetry.
   540 basis functions,   860 primitive gaussians,   561 cartesian basis functions
    79 alpha electrons       79 beta electrons
       nuclear repulsion energy      1728.3869246620 Hartrees.
 IExCor=  402 DFT=T Ex+Corr=B3LYP ExCW=0 ScaHFX=  0.200000
 ScaDFX=  0.800000  0.720000  1.000000  0.810000 ScalE2=  1.000000  1.000000
 IRadAn=      5 IRanWt=     -1 IRanGd=            0 ICorTp=0 IEmpDi=  4
 NAtoms=   31 NActive=   31 NUniq=   31 SFac= 1.00D+00 NAtFMM=   60 NAOKFM=F Big=F
 Integral buffers will be    131072 words long.
 Raffenetti 2 integral format.
 Two-electron integral symmetry is turned on.
 ------------------------------------------------------------------------------
 Polarizable Continuum Model (PCM)
 =================================
 Model                : PCM.
 Atomic radii         : UFF (Universal Force Field).
 Polarization charges : Total charges.
 Charge compensation  : None.
 Solution method      : On-the-fly selection.
 Cavity type          : Scaled VdW (van der Waals Surface) (Alpha=1.100).
 Cavity algorithm     : GePol (No added spheres)
                        Default sphere list used, NSphG=   31.
                        Lebedev-Laikov grids with approx.  5.0 points / Ang**2.
                        Smoothing algorithm: York/Karplus (Gamma=1.0000).
                        Polarization charges: spherical gaussians, with
                                              point-specific exponents (IZeta= 3).
                        Self-potential: point-specific (ISelfS= 7).
                        Self-field    : sphere-specific E.n sum rule (ISelfD= 2).
 Solvent              : n,n-DiMethylFormamide, Eps=  37.219000 Eps(inf)=   2.046330
 ------------------------------------------------------------------------------
 GePol: Number of generator spheres                  =      31
 GePol: Total number of spheres                      =      31
 GePol: Number of exposed spheres                    =      31 (100.00%)
 GePol: Number of points                             =    2639
 GePol: Average weight of points                     =       0.13
 GePol: Minimum weight of points                     =   0.23D-09
 GePol: Maximum weight of points                     =    0.20577
 GePol: Number of points with low weight             =     145
 GePol: Fraction of low-weight points (<1% of avg)   =       5.49%
 GePol: Cavity surface area                          =    335.654 Ang**2
 GePol: Cavity volume                                =    366.918 Ang**3
 Leave Link  301 at Tue Jan 16 06:29:59 2024, MaxMem=  4026531840 cpu:               1.0 elap:               0.2
 (Enter /sysapps/ubuntu-applications/gaussian/Gaussian/AVX2/g16/l302.exe)
 NPDir=0 NMtPBC=     1 NCelOv=     1 NCel=       1 NClECP=     1 NCelD=      1
         NCelK=      1 NCelE2=     1 NClLst=     1 CellRange=     0.0.
 One-electron integrals computed using PRISM.
 One-electron integral symmetry used in STVInt
 NBasis=   540 RedAO= T EigKep=  1.35D-06  NBF=   540
 NBsUse=   533 1.00D-06 EigRej=  8.74D-07 NBFU=   533
 Precomputing XC quadrature grid using
 IXCGrd= 4 IRadAn=           5 IRanWt=          -1 IRanGd=           0 AccXCQ= 0.00D+00.
 Generated NRdTot=       0 NPtTot=           0 NUsed=           0 NTot=          32
 NSgBfM=   556   556   556   556   556 MxSgAt=    31 MxSgA2=    31.
 Leave Link  302 at Tue Jan 16 06:30:01 2024, MaxMem=  4026531840 cpu:              10.0 elap:               1.6
 (Enter /sysapps/ubuntu-applications/gaussian/Gaussian/AVX2/g16/l303.exe)
 DipDrv:  MaxL=1.
 Leave Link  303 at Tue Jan 16 06:30:01 2024, MaxMem=  4026531840 cpu:               0.6 elap:               0.2
 (Enter /sysapps/ubuntu-applications/gaussian/Gaussian/AVX2/g16/l401.exe)
 ExpMin= 3.60D-02 ExpMax= 9.34D+04 ExpMxC= 3.17D+03 IAcc=3 IRadAn=         5 AccDes= 0.00D+00
 Harris functional with IExCor=  402 and IRadAn=       5 diagonalized for initial guess.
 HarFok:  IExCor=  402 AccDes= 0.00D+00 IRadAn=         5 IDoV= 1 UseB2=F ITyADJ=14
 ICtDFT=  3500011 ScaDFX=  1.000000  1.000000  1.000000  1.000000
 FoFCou: FMM=F IPFlag=           0 FMFlag=      100000 FMFlg1=           0
         NFxFlg=           0 DoJE=T BraDBF=F KetDBF=T FulRan=T
         wScrn=  0.000000 ICntrl=       500 IOpCl=  0 I1Cent=   200000004 NGrid=           0
         NMat0=    1 NMatS0=      1 NMatT0=    0 NMatD0=    1 NMtDS0=    0 NMtDT0=    0
 Petite list used in FoFCou.
 Harris En= -1352.66896089462    
 JPrj=0 DoOrth=F DoCkMO=F.
 Initial guess <Sx>= 0.0000 <Sy>= 0.0000 <Sz>= 0.0000 <S**2>=-0.0000 S=-0.0000
 Leave Link  401 at Tue Jan 16 06:30:04 2024, MaxMem=  4026531840 cpu:              17.1 elap:               2.5
 (Enter /sysapps/ubuntu-applications/gaussian/Gaussian/AVX2/g16/l502.exe)
 Integral symmetry usage will be decided dynamically.
 UHF open shell SCF:
 Using DIIS extrapolation, IDIIS=  1040.
 NGot=  4026531840 LenX=  4025892688 LenY=  4025577406
 Requested convergence on RMS density matrix=1.00D-08 within 128 cycles.
 Requested convergence on MAX density matrix=1.00D-06.
 Requested convergence on             energy=1.00D-06.
 No special actions if energy rises.
 Fock matrices will be formed incrementally for  20 cycles.

 Cycle   1  Pass 1  IDiag  1:
 FoFJK:  IHMeth= 1 ICntrl=       0 DoSepK=F KAlg= 0 I1Cent=           0 FoldK=F
 IRaf= 800000000 NMat=       1 IRICut=       1 DoRegI=T DoRafI=F ISym2E= 0 IDoP0=0 IntGTp=1.
 FoFCou: FMM=F IPFlag=           0 FMFlag=      100000 FMFlg1=           0
         NFxFlg=           0 DoJE=F BraDBF=F KetDBF=F FulRan=T
         wScrn=  0.000000 ICntrl=         0 IOpCl=  1 I1Cent=           0 NGrid=           0
         NMat0=    1 NMatS0=      1 NMatT0=    0 NMatD0=    1 NMtDS0=    0 NMtDT0=    0
 Symmetry not used in FoFCou.
 Inv3:  Mode=1 IEnd=    20892963.
 Iteration    1 A*A^-1 deviation from unit magnitude is 3.77D-15 for     11.
 Iteration    1 A*A^-1 deviation from orthogonality  is 1.76D-15 for   2043   1630.
 Iteration    1 A^-1*A deviation from unit magnitude is 3.77D-15 for     11.
 Iteration    1 A^-1*A deviation from orthogonality  is 2.97D-15 for   2061     97.
 E= -1351.59692481967    
 DIIS: error= 3.10D-02 at cycle   1 NSaved=   1.
 NSaved= 1 IEnMin= 1 EnMin= -1351.59692481967     IErMin= 1 ErrMin= 3.10D-02
 ErrMax= 3.10D-02  0.00D+00 EMaxC= 1.00D-01 BMatC= 4.14D+00 BMatP= 4.14D+00
 IDIUse=3 WtCom= 6.90D-01 WtEn= 3.10D-01
 Coeff-Com:  0.100D+01
 Coeff-En:   0.100D+01
 Coeff:      0.100D+01
 Gap=     0.049 Goal=   None    Shift=    0.000
 Gap=     0.049 Goal=   None    Shift=    0.000
 GapD=    0.049 DampG=0.250 DampE=0.500 DampFc=0.2500 IDamp=-1.
 Damping current iteration by 2.50D-01
 RMSDP=2.06D-01 MaxDP=2.00D+01              OVMax= 8.42D-01

 Cycle   2  Pass 1  IDiag  1:
 RMSU=  2.99D-02    CP:  1.46D+00
 E= -1351.84277591223     Delta-E=       -0.245851092556 Rises=F Damp=T
 DIIS: error= 1.50D-02 at cycle   2 NSaved=   2.
 NSaved= 2 IEnMin= 2 EnMin= -1351.84277591223     IErMin= 2 ErrMin= 1.50D-02
 ErrMax= 1.50D-02  0.00D+00 EMaxC= 1.00D-01 BMatC= 6.96D-01 BMatP= 4.14D+00
 IDIUse=3 WtCom= 8.50D-01 WtEn= 1.50D-01
 Coeff-Com: -0.411D+00 0.141D+01
 Coeff-En:   0.492D-01 0.951D+00
 Coeff:     -0.342D+00 0.134D+01
 Gap=     0.234 Goal=   None    Shift=    0.000
 Gap=     0.234 Goal=   None    Shift=    0.000
 RMSDP=3.89D-02 MaxDP=3.33D+00 DE=-2.46D-01 OVMax= 8.23D-01

 Cycle   3  Pass 1  IDiag  1:
 RMSU=  1.08D-02    CP:  1.09D+00  4.68D-01
 E= -1352.18191216975     Delta-E=       -0.339136257523 Rises=F Damp=F
 DIIS: error= 1.93D-02 at cycle   3 NSaved=   3.
 NSaved= 3 IEnMin= 3 EnMin= -1352.18191216975     IErMin= 2 ErrMin= 1.50D-02
 ErrMax= 1.93D-02  0.00D+00 EMaxC= 1.00D-01 BMatC= 9.42D-01 BMatP= 6.96D-01
 IDIUse=2 WtCom= 0.00D+00 WtEn= 1.00D+00
 Coeff-En:   0.000D+00 0.000D+00 0.100D+01
 Coeff:      0.000D+00 0.000D+00 0.100D+01
 Gap=     0.032 Goal=   None    Shift=    0.000
 Gap=     0.032 Goal=   None    Shift=    0.000
 RMSDP=6.71D-02 MaxDP=5.69D+00 DE=-3.39D-01 OVMax= 9.15D-01

 Cycle   4  Pass 1  IDiag  1:
 RMSU=  3.48D-02    CP:  1.63D+00  1.40D+00  2.78D-01
 E= -1348.06942240135     Delta-E=        4.112489768398 Rises=F Damp=F
 DIIS: error= 6.78D-02 at cycle   4 NSaved=   4.
 NSaved= 4 IEnMin= 3 EnMin= -1352.18191216975     IErMin= 2 ErrMin= 1.50D-02
 ErrMax= 6.78D-02  0.00D+00 EMaxC= 1.00D-01 BMatC= 1.26D+01 BMatP= 6.96D-01
 IDIUse=2 WtCom= 0.00D+00 WtEn= 1.00D+00
 Coeff-En:   0.000D+00 0.000D+00 0.914D+00 0.860D-01
 Coeff:      0.000D+00 0.000D+00 0.914D+00 0.860D-01
 Gap=    -0.017 Goal=   None    Shift=    0.000
 Gap=    -0.017 Goal=   None    Shift=    0.000
 RMSDP=3.05D-02 MaxDP=2.14D+00 DE= 4.11D+00 OVMax= 8.78D-01

 Cycle   5  Pass 1  IDiag  1:
 RMSU=  1.06D-02    CP:  1.45D+00  1.06D+00  2.92D-01  4.00D-01
 E= -1351.95514877217     Delta-E=       -3.885726370811 Rises=F Damp=F
 DIIS: error= 2.51D-02 at cycle   5 NSaved=   5.
 NSaved= 5 IEnMin= 3 EnMin= -1352.18191216975     IErMin= 2 ErrMin= 1.50D-02
 ErrMax= 2.51D-02  0.00D+00 EMaxC= 1.00D-01 BMatC= 1.86D+00 BMatP= 6.96D-01
 IDIUse=2 WtCom= 0.00D+00 WtEn= 1.00D+00
 Coeff-En:   0.000D+00 0.000D+00 0.625D+00 0.000D+00 0.375D+00
 Coeff:      0.000D+00 0.000D+00 0.625D+00 0.000D+00 0.375D+00
 Gap=     0.022 Goal=   None    Shift=    0.000
 Gap=     0.022 Goal=   None    Shift=    0.000
 RMSDP=2.59D-02 MaxDP=2.09D+00 DE=-3.89D+00 OVMax= 5.38D-01

 Cycle   6  Pass 1  IDiag  1:
 RMSU=  3.89D-03    CP:  1.21D+00  7.57D-01  7.05D-01  1.46D-01  5.32D-01
 E= -1352.38567387168     Delta-E=       -0.430525099515 Rises=F Damp=F
 DIIS: error= 9.77D-03 at cycle   6 NSaved=   6.
 NSaved= 6 IEnMin= 6 EnMin= -1352.38567387168     IErMin= 6 ErrMin= 9.77D-03
 ErrMax= 9.77D-03  0.00D+00 EMaxC= 1.00D-01 BMatC= 1.30D-01 BMatP= 6.96D-01
 IDIUse=3 WtCom= 9.02D-01 WtEn= 9.77D-02
 Coeff-Com: -0.638D-01 0.175D+00 0.344D+00-0.130D-01 0.200D+00 0.358D+00
 Coeff-En:   0.000D+00 0.000D+00 0.259D-02 0.000D+00 0.000D+00 0.997D+00
 Coeff:     -0.576D-01 0.157D+00 0.311D+00-0.118D-01 0.181D+00 0.420D+00
 Gap=     0.067 Goal=   None    Shift=    0.000
 Gap=     0.067 Goal=   None    Shift=    0.000
 RMSDP=3.45D-03 MaxDP=3.77D-01 DE=-4.31D-01 OVMax= 1.18D-01

 Cycle   7  Pass 1  IDiag  1:
 RMSU=  1.94D-03    CP:  1.20D+00  7.36D-01  7.85D-01  1.85D-01  4.39D-01
                    CP:  6.53D-01
 E= -1352.40863429120     Delta-E=       -0.022960419516 Rises=F Damp=F
 DIIS: error= 3.83D-03 at cycle   7 NSaved=   7.
 NSaved= 7 IEnMin= 7 EnMin= -1352.40863429120     IErMin= 7 ErrMin= 3.83D-03
 ErrMax= 3.83D-03  0.00D+00 EMaxC= 1.00D-01 BMatC= 2.11D-02 BMatP= 1.30D-01
 IDIUse=3 WtCom= 9.62D-01 WtEn= 3.83D-02
 Coeff-Com: -0.332D-01 0.451D-01 0.368D-01-0.289D-02 0.880D-02 0.285D+00
 Coeff-Com:  0.661D+00
 Coeff-En:   0.000D+00 0.000D+00 0.000D+00 0.000D+00 0.000D+00 0.171D+00
 Coeff-En:   0.829D+00
 Coeff:     -0.319D-01 0.434D-01 0.354D-01-0.277D-02 0.846D-02 0.280D+00
 Coeff:      0.667D+00
 Gap=     0.066 Goal=   None    Shift=    0.000
 Gap=     0.066 Goal=   None    Shift=    0.000
 RMSDP=1.12D-03 MaxDP=9.20D-02 DE=-2.30D-02 OVMax= 4.52D-02

 Cycle   8  Pass 1  IDiag  1:
 RMSU=  4.99D-04    CP:  1.20D+00  7.54D-01  7.71D-01  1.77D-01  4.83D-01
                    CP:  7.64D-01  7.98D-01
 E= -1352.41274393804     Delta-E=       -0.004109646847 Rises=F Damp=F
 DIIS: error= 6.80D-04 at cycle   8 NSaved=   8.
 NSaved= 8 IEnMin= 8 EnMin= -1352.41274393804     IErMin= 8 ErrMin= 6.80D-04
 ErrMax= 6.80D-04  0.00D+00 EMaxC= 1.00D-01 BMatC= 1.27D-03 BMatP= 2.11D-02
 IDIUse=3 WtCom= 9.93D-01 WtEn= 6.80D-03
 Coeff-Com: -0.182D-01 0.234D-01 0.507D-03-0.984D-04-0.106D-01 0.132D+00
 Coeff-Com:  0.386D+00 0.487D+00
 Coeff-En:   0.000D+00 0.000D+00 0.000D+00 0.000D+00 0.000D+00 0.000D+00
 Coeff-En:   0.000D+00 0.100D+01
 Coeff:     -0.180D-01 0.233D-01 0.503D-03-0.978D-04-0.105D-01 0.131D+00
 Coeff:      0.383D+00 0.490D+00
 Gap=     0.067 Goal=   None    Shift=    0.000
 Gap=     0.067 Goal=   None    Shift=    0.000
 RMSDP=3.41D-04 MaxDP=1.94D-02 DE=-4.11D-03 OVMax= 9.44D-03

 Cycle   9  Pass 1  IDiag  1:
 RMSU=  2.06D-04    CP:  1.20D+00  7.56D-01  7.81D-01  1.78D-01  4.82D-01
                    CP:  7.83D-01  8.62D-01  7.19D-01
 E= -1352.41301796425     Delta-E=       -0.000274026205 Rises=F Damp=F
 DIIS: error= 1.81D-04 at cycle   9 NSaved=   9.
 NSaved= 9 IEnMin= 9 EnMin= -1352.41301796425     IErMin= 9 ErrMin= 1.81D-04
 ErrMax= 1.81D-04  0.00D+00 EMaxC= 1.00D-01 BMatC= 7.48D-05 BMatP= 1.27D-03
 IDIUse=3 WtCom= 9.98D-01 WtEn= 1.81D-03
 Coeff-Com: -0.636D-02 0.855D-02-0.208D-02 0.167D-03-0.480D-02 0.364D-01
 Coeff-Com:  0.978D-01 0.216D+00 0.654D+00
 Coeff-En:   0.000D+00 0.000D+00 0.000D+00 0.000D+00 0.000D+00 0.000D+00
 Coeff-En:   0.000D+00 0.000D+00 0.100D+01
 Coeff:     -0.634D-02 0.854D-02-0.208D-02 0.167D-03-0.479D-02 0.364D-01
 Coeff:      0.977D-01 0.216D+00 0.655D+00
 Gap=     0.067 Goal=   None    Shift=    0.000
 Gap=     0.067 Goal=   None    Shift=    0.000
 RMSDP=1.88D-04 MaxDP=1.89D-02 DE=-2.74D-04 OVMax= 2.77D-03

 Cycle  10  Pass 1  IDiag  1:
 RMSU=  8.76D-05    CP:  1.20D+00  7.59D-01  7.84D-01  1.79D-01  4.81D-01
                    CP:  7.91D-01  8.66D-01  7.50D-01  8.50D-01
 E= -1352.41303101294     Delta-E=       -0.000013048696 Rises=F Damp=F
 DIIS: error= 9.56D-05 at cycle  10 NSaved=  10.
 NSaved=10 IEnMin=10 EnMin= -1352.41303101294     IErMin=10 ErrMin= 9.56D-05
 ErrMax= 9.56D-05  0.00D+00 EMaxC= 1.00D-01 BMatC= 2.23D-05 BMatP= 7.48D-05
 IDIUse=1 WtCom= 1.00D+00 WtEn= 0.00D+00
 Coeff-Com: -0.125D-02 0.160D-02-0.162D-02 0.836D-04-0.920D-03 0.238D-02
 Coeff-Com: -0.526D-02 0.531D-01 0.422D+00 0.530D+00
 Coeff:     -0.125D-02 0.160D-02-0.162D-02 0.836D-04-0.920D-03 0.238D-02
 Coeff:     -0.526D-02 0.531D-01 0.422D+00 0.530D+00
 Gap=     0.067 Goal=   None    Shift=    0.000
 Gap=     0.067 Goal=   None    Shift=    0.000
 RMSDP=5.76D-05 MaxDP=5.70D-03 DE=-1.30D-05 OVMax= 7.14D-04

 Cycle  11  Pass 1  IDiag  1:
 RMSU=  2.14D-05    CP:  1.20D+00  7.59D-01  7.85D-01  1.79D-01  4.82D-01
                    CP:  7.94D-01  8.64D-01  7.50D-01  9.57D-01  8.62D-01
 E= -1352.41303622781     Delta-E=       -0.000005214867 Rises=F Damp=F
 DIIS: error= 2.14D-05 at cycle  11 NSaved=  11.
 NSaved=11 IEnMin=11 EnMin= -1352.41303622781     IErMin=11 ErrMin= 2.14D-05
 ErrMax= 2.14D-05  0.00D+00 EMaxC= 1.00D-01 BMatC= 1.15D-06 BMatP= 2.23D-05
 IDIUse=1 WtCom= 1.00D+00 WtEn= 0.00D+00
 Coeff-Com: -0.176D-03 0.143D-03-0.745D-03 0.721D-05 0.725D-04-0.177D-02
 Coeff-Com: -0.101D-01 0.598D-02 0.133D+00 0.243D+00 0.630D+00
 Coeff:     -0.176D-03 0.143D-03-0.745D-03 0.721D-05 0.725D-04-0.177D-02
 Coeff:     -0.101D-01 0.598D-02 0.133D+00 0.243D+00 0.630D+00
 Gap=     0.067 Goal=   None    Shift=    0.000
 Gap=     0.067 Goal=   None    Shift=    0.000
 RMSDP=1.34D-05 MaxDP=8.17D-04 DE=-5.21D-06 OVMax= 1.31D-04

 Cycle  12  Pass 1  IDiag  1:
 RMSU=  9.15D-06    CP:  1.20D+00  7.59D-01  7.85D-01  1.79D-01  4.82D-01
                    CP:  7.95D-01  8.65D-01  7.62D-01  9.56D-01  8.61D-01
                    CP:  1.00D+00
 E= -1352.41303644942     Delta-E=       -0.000000221605 Rises=F Damp=F
 DIIS: error= 7.20D-06 at cycle  12 NSaved=  12.
 NSaved=12 IEnMin=12 EnMin= -1352.41303644942     IErMin=12 ErrMin= 7.20D-06
 ErrMax= 7.20D-06  0.00D+00 EMaxC= 1.00D-01 BMatC= 1.70D-07 BMatP= 1.15D-06
 IDIUse=1 WtCom= 1.00D+00 WtEn= 0.00D+00
 Coeff-Com: -0.477D-05-0.912D-05-0.297D-03 0.414D-05 0.103D-03-0.146D-02
 Coeff-Com: -0.492D-02-0.242D-02 0.263D-01 0.743D-01 0.350D+00 0.559D+00
 Coeff:     -0.477D-05-0.912D-05-0.297D-03 0.414D-05 0.103D-03-0.146D-02
 Coeff:     -0.492D-02-0.242D-02 0.263D-01 0.743D-01 0.350D+00 0.559D+00
 Gap=     0.067 Goal=   None    Shift=    0.000
 Gap=     0.067 Goal=   None    Shift=    0.000
 RMSDP=7.41D-06 MaxDP=6.55D-04 DE=-2.22D-07 OVMax= 1.53D-04

 Cycle  13  Pass 1  IDiag  1:
 RMSU=  4.15D-06    CP:  1.20D+00  7.59D-01  7.85D-01  1.79D-01  4.82D-01
                    CP:  7.95D-01  8.66D-01  7.61D-01  9.63D-01  8.68D-01
                    CP:  1.01D+00  9.71D-01
 E= -1352.41303649134     Delta-E=       -0.000000041921 Rises=F Damp=F
 DIIS: error= 2.21D-06 at cycle  13 NSaved=  13.
 NSaved=13 IEnMin=13 EnMin= -1352.41303649134     IErMin=13 ErrMin= 2.21D-06
 ErrMax= 2.21D-06  0.00D+00 EMaxC= 1.00D-01 BMatC= 2.01D-08 BMatP= 1.70D-07
 IDIUse=1 WtCom= 1.00D+00 WtEn= 0.00D+00
 Coeff-Com:  0.212D-04-0.225D-04-0.103D-03 0.199D-06 0.472D-04-0.724D-03
 Coeff-Com: -0.175D-02-0.221D-02-0.245D-02 0.113D-01 0.128D+00 0.328D+00
 Coeff-Com:  0.540D+00
 Coeff:      0.212D-04-0.225D-04-0.103D-03 0.199D-06 0.472D-04-0.724D-03
 Coeff:     -0.175D-02-0.221D-02-0.245D-02 0.113D-01 0.128D+00 0.328D+00
 Coeff:      0.540D+00
 Gap=     0.067 Goal=   None    Shift=    0.000
 Gap=     0.067 Goal=   None    Shift=    0.000
 RMSDP=2.64D-06 MaxDP=1.64D-04 DE=-4.19D-08 OVMax= 4.30D-05

 Cycle  14  Pass 1  IDiag  1:
 RMSU=  8.85D-07    CP:  1.20D+00  7.59D-01  7.85D-01  1.79D-01  4.82D-01
                    CP:  7.95D-01  8.66D-01  7.61D-01  9.65D-01  8.75D-01
                    CP:  1.03D+00  1.01D+00  6.24D-01
 E= -1352.41303649579     Delta-E=       -0.000000004451 Rises=F Damp=F
 DIIS: error= 8.08D-07 at cycle  14 NSaved=  14.
 NSaved=14 IEnMin=14 EnMin= -1352.41303649579     IErMin=14 ErrMin= 8.08D-07
 ErrMax= 8.08D-07  0.00D+00 EMaxC= 1.00D-01 BMatC= 2.85D-09 BMatP= 2.01D-08
 IDIUse=1 WtCom= 1.00D+00 WtEn= 0.00D+00
 Coeff-Com:  0.975D-05-0.104D-04-0.103D-04-0.109D-06 0.147D-04-0.160D-03
 Coeff-Com: -0.262D-03-0.608D-03-0.443D-02-0.337D-02 0.248D-01 0.108D+00
 Coeff-Com:  0.303D+00 0.573D+00
 Coeff:      0.975D-05-0.104D-04-0.103D-04-0.109D-06 0.147D-04-0.160D-03
 Coeff:     -0.262D-03-0.608D-03-0.443D-02-0.337D-02 0.248D-01 0.108D+00
 Coeff:      0.303D+00 0.573D+00
 Gap=     0.067 Goal=   None    Shift=    0.000
 Gap=     0.067 Goal=   None    Shift=    0.000
 RMSDP=1.05D-06 MaxDP=7.65D-05 DE=-4.45D-09 OVMax= 1.68D-05

 Cycle  15  Pass 1  IDiag  1:
 RMSU=  4.01D-07    CP:  1.20D+00  7.59D-01  7.85D-01  1.79D-01  4.82D-01
                    CP:  7.95D-01  8.66D-01  7.61D-01  9.65D-01  8.78D-01
                    CP:  1.05D+00  1.00D+00  7.32D-01  7.61D-01
 E= -1352.41303649641     Delta-E=       -0.000000000621 Rises=F Damp=F
 DIIS: error= 4.32D-07 at cycle  15 NSaved=  15.
 NSaved=15 IEnMin=15 EnMin= -1352.41303649641     IErMin=15 ErrMin= 4.32D-07
 ErrMax= 4.32D-07  0.00D+00 EMaxC= 1.00D-01 BMatC= 5.37D-10 BMatP= 2.85D-09
 IDIUse=1 WtCom= 1.00D+00 WtEn= 0.00D+00
 Coeff-Com:  0.287D-05-0.363D-05 0.864D-05-0.140D-07-0.232D-06 0.140D-04
 Coeff-Com:  0.708D-04 0.106D-04-0.239D-02-0.335D-02-0.259D-03 0.233D-01
 Coeff-Com:  0.102D+00 0.314D+00 0.566D+00
 Coeff:      0.287D-05-0.363D-05 0.864D-05-0.140D-07-0.232D-06 0.140D-04
 Coeff:      0.708D-04 0.106D-04-0.239D-02-0.335D-02-0.259D-03 0.233D-01
 Coeff:      0.102D+00 0.314D+00 0.566D+00
 Gap=     0.067 Goal=   None    Shift=    0.000
 Gap=     0.067 Goal=   None    Shift=    0.000
 RMSDP=4.52D-07 MaxDP=5.36D-05 DE=-6.21D-10 OVMax= 5.10D-06

 Cycle  16  Pass 1  IDiag  1:
 RMSU=  1.46D-07    CP:  1.20D+00  7.59D-01  7.85D-01  1.79D-01  4.82D-01
                    CP:  7.95D-01  8.66D-01  7.61D-01  9.65D-01  8.78D-01
                    CP:  1.05D+00  1.02D+00  7.00D-01  9.05D-01  7.49D-01
 E= -1352.41303649649     Delta-E=       -0.000000000079 Rises=F Damp=F
 DIIS: error= 1.95D-07 at cycle  16 NSaved=  16.
 NSaved=16 IEnMin=16 EnMin= -1352.41303649649     IErMin=16 ErrMin= 1.95D-07
 ErrMax= 1.95D-07  0.00D+00 EMaxC= 1.00D-01 BMatC= 1.47D-10 BMatP= 5.37D-10
 IDIUse=1 WtCom= 1.00D+00 WtEn= 0.00D+00
 Coeff-Com:  0.186D-05-0.239D-05 0.992D-05-0.159D-07-0.282D-05 0.326D-04
 Coeff-Com:  0.558D-04 0.111D-03-0.872D-03-0.149D-02-0.410D-02-0.421D-02
 Coeff-Com:  0.809D-02 0.946D-01 0.348D+00 0.560D+00
 Coeff:      0.186D-05-0.239D-05 0.992D-05-0.159D-07-0.282D-05 0.326D-04
 Coeff:      0.558D-04 0.111D-03-0.872D-03-0.149D-02-0.410D-02-0.421D-02
 Coeff:      0.809D-02 0.946D-01 0.348D+00 0.560D+00
 Gap=     0.067 Goal=   None    Shift=    0.000
 Gap=     0.067 Goal=   None    Shift=    0.000
 RMSDP=1.59D-07 MaxDP=9.55D-06 DE=-7.89D-11 OVMax= 2.80D-06

 Cycle  17  Pass 1  IDiag  1:
 RMSU=  5.25D-08    CP:  1.20D+00  7.59D-01  7.85D-01  1.79D-01  4.82D-01
                    CP:  7.95D-01  8.66D-01  7.61D-01  9.65D-01  8.78D-01
                    CP:  1.05D+00  1.02D+00  7.19D-01  8.79D-01  9.00D-01
                    CP:  9.17D-01
 E= -1352.41303649653     Delta-E=       -0.000000000038 Rises=F Damp=F
 DIIS: error= 9.83D-08 at cycle  17 NSaved=  17.
 NSaved=17 IEnMin=17 EnMin= -1352.41303649653     IErMin=17 ErrMin= 9.83D-08
 ErrMax= 9.83D-08  0.00D+00 EMaxC= 1.00D-01 BMatC= 2.47D-11 BMatP= 1.47D-10
 IDIUse=1 WtCom= 1.00D+00 WtEn= 0.00D+00
 Coeff-Com:  0.666D-06-0.539D-06 0.557D-05-0.697D-08-0.201D-05 0.179D-04
 Coeff-Com:  0.210D-04 0.722D-04-0.234D-03-0.367D-03-0.186D-02-0.437D-02
 Coeff-Com: -0.886D-02 0.104D-01 0.103D+00 0.275D+00 0.628D+00
 Coeff:      0.666D-06-0.539D-06 0.557D-05-0.697D-08-0.201D-05 0.179D-04
 Coeff:      0.210D-04 0.722D-04-0.234D-03-0.367D-03-0.186D-02-0.437D-02
 Coeff:     -0.886D-02 0.104D-01 0.103D+00 0.275D+00 0.628D+00
 Gap=     0.067 Goal=   None    Shift=    0.000
 Gap=     0.067 Goal=   None    Shift=    0.000
 RMSDP=7.47D-08 MaxDP=5.82D-06 DE=-3.80D-11 OVMax= 1.37D-06

 Cycle  18  Pass 1  IDiag  1:
 RMSU=  2.03D-08    CP:  1.20D+00  7.59D-01  7.85D-01  1.79D-01  4.82D-01
                    CP:  7.95D-01  8.66D-01  7.61D-01  9.65D-01  8.78D-01
                    CP:  1.05D+00  1.02D+00  7.16D-01  8.99D-01  9.00D-01
                    CP:  1.01D+00  1.06D+00
 E= -1352.41303649651     Delta-E=        0.000000000020 Rises=F Damp=F
 DIIS: error= 3.51D-08 at cycle  18 NSaved=  18.
 NSaved=18 IEnMin=17 EnMin= -1352.41303649653     IErMin=18 ErrMin= 3.51D-08
 ErrMax= 3.51D-08  0.00D+00 EMaxC= 1.00D-01 BMatC= 4.90D-12 BMatP= 2.47D-11
 IDIUse=1 WtCom= 1.00D+00 WtEn= 0.00D+00
 Coeff-Com:  0.213D-06-0.207D-06 0.109D-05 0.372D-08-0.533D-06 0.241D-05
 Coeff-Com: -0.245D-05 0.165D-04 0.715D-04 0.199D-03 0.382D-04-0.134D-02
 Coeff-Com: -0.777D-02-0.201D-01-0.440D-01-0.181D-01 0.338D+00 0.753D+00
 Coeff:      0.213D-06-0.207D-06 0.109D-05 0.372D-08-0.533D-06 0.241D-05
 Coeff:     -0.245D-05 0.165D-04 0.715D-04 0.199D-03 0.382D-04-0.134D-02
 Coeff:     -0.777D-02-0.201D-01-0.440D-01-0.181D-01 0.338D+00 0.753D+00
 Gap=     0.067 Goal=   None    Shift=    0.000
 Gap=     0.067 Goal=   None    Shift=    0.000
 RMSDP=7.71D-08 MaxDP=5.94D-06 DE= 2.00D-11 OVMax= 1.09D-06

 Cycle  19  Pass 1  IDiag  1:
 RMSU=  1.30D-08    CP:  1.20D+00  7.59D-01  7.85D-01  1.79D-01  4.82D-01
                    CP:  7.95D-01  8.66D-01  7.61D-01  9.65D-01  8.78D-01
                    CP:  1.05D+00  1.02D+00  7.18D-01  9.04D-01  9.46D-01
                    CP:  1.06D+00  1.18D+00  1.21D+00
 E= -1352.41303649654     Delta-E=       -0.000000000029 Rises=F Damp=F
 DIIS: error= 1.43D-08 at cycle  19 NSaved=  19.
 NSaved=19 IEnMin=19 EnMin= -1352.41303649654     IErMin=19 ErrMin= 1.43D-08
 ErrMax= 1.43D-08  0.00D+00 EMaxC= 1.00D-01 BMatC= 4.27D-13 BMatP= 4.90D-12
 IDIUse=1 WtCom= 1.00D+00 WtEn= 0.00D+00
 Coeff-Com:  0.139D-06-0.246D-06 0.153D-06 0.482D-08-0.114D-06 0.107D-07
 Coeff-Com: -0.202D-05 0.315D-05 0.373D-04 0.121D-03 0.213D-03-0.113D-03
 Coeff-Com: -0.251D-02-0.977D-02-0.313D-01-0.350D-01 0.110D+00 0.438D+00
 Coeff-Com:  0.530D+00
 Coeff:      0.139D-06-0.246D-06 0.153D-06 0.482D-08-0.114D-06 0.107D-07
 Coeff:     -0.202D-05 0.315D-05 0.373D-04 0.121D-03 0.213D-03-0.113D-03
 Coeff:     -0.251D-02-0.977D-02-0.313D-01-0.350D-01 0.110D+00 0.438D+00
 Coeff:      0.530D+00
 Gap=     0.067 Goal=   None    Shift=    0.000
 Gap=     0.067 Goal=   None    Shift=    0.000
 RMSDP=1.58D-08 MaxDP=1.38D-06 DE=-2.93D-11 OVMax= 3.23D-07

 Cycle  20  Pass 1  IDiag  1:
 RMSU=  4.27D-09    CP:  1.20D+00  7.59D-01  7.85D-01  1.79D-01  4.82D-01
                    CP:  7.95D-01  8.66D-01  7.61D-01  9.65D-01  8.78D-01
                    CP:  1.05D+00  1.02D+00  7.17D-01  9.04D-01  9.46D-01
                    CP:  1.08D+00  1.21D+00  1.31D+00  8.66D-01
 E= -1352.41303649656     Delta-E=       -0.000000000027 Rises=F Damp=F
 DIIS: error= 4.10D-09 at cycle  20 NSaved=  20.
 NSaved=20 IEnMin=20 EnMin= -1352.41303649656     IErMin=20 ErrMin= 4.10D-09
 ErrMax= 4.10D-09  0.00D+00 EMaxC= 1.00D-01 BMatC= 5.33D-14 BMatP= 4.27D-13
 IDIUse=1 WtCom= 1.00D+00 WtEn= 0.00D+00
 Coeff-Com:  0.850D-08-0.213D-07-0.110D-06 0.793D-09 0.184D-07-0.480D-06
 Coeff-Com: -0.834D-06-0.878D-06 0.762D-05 0.350D-04 0.123D-03 0.202D-03
 Coeff-Com:  0.168D-03-0.183D-02-0.994D-02-0.152D-01-0.930D-02 0.968D-01
 Coeff-Com:  0.266D+00 0.673D+00
 Coeff:      0.850D-08-0.213D-07-0.110D-06 0.793D-09 0.184D-07-0.480D-06
 Coeff:     -0.834D-06-0.878D-06 0.762D-05 0.350D-04 0.123D-03 0.202D-03
 Coeff:      0.168D-03-0.183D-02-0.994D-02-0.152D-01-0.930D-02 0.968D-01
 Coeff:      0.266D+00 0.673D+00
 Gap=     0.067 Goal=   None    Shift=    0.000
 Gap=     0.067 Goal=   None    Shift=    0.000
 RMSDP=3.36D-09 MaxDP=2.29D-07 DE=-2.71D-11 OVMax= 9.97D-08

 Error on total polarization charges =  0.02739
 SCF Done:  E(UB3LYP) =  -1352.41303650     A.U. after   20 cycles
            NFock= 20  Conv=0.34D-08     -V/T= 2.0033
 <Sx>= 0.0000 <Sy>= 0.0000 <Sz>= 0.0000 <S**2>=-0.0000 S=-0.0000
 <L.S>=  0.00000000000    
 KE= 1.347990253755D+03 PE=-6.674567939225D+03 EE= 2.245777724311D+03
 Annihilation of the first spin contaminant:
 S**2 before annihilation    -0.0000,   after     0.0000
 Leave Link  502 at Tue Jan 16 06:34:58 2024, MaxMem=  4026531840 cpu:            2331.2 elap:             294.4
 (Enter /sysapps/ubuntu-applications/gaussian/Gaussian/AVX2/g16/l601.exe)
 Copying SCF densities to generalized density rwf, IOpCl= 1 IROHF=0.

 **********************************************************************

            Population analysis using the SCF density.

 **********************************************************************

 Orbital symmetries:
 Alpha Orbitals:
       Occupied  (A) (A) (A) (A) (A) (A) (A) (A) (A) (A) (A) (A)
                 (A) (A) (A) (A) (A) (A) (A) (A) (A) (A) (A) (A)
                 (A) (A) (A) (A) (A) (A) (A) (A) (A) (A) (A) (A)
                 (A) (A) (A) (A) (A) (A) (A) (A) (A) (A) (A) (A)
                 (A) (A) (A) (A) (A) (A) (A) (A) (A) (A) (A) (A)
                 (A) (A) (A) (A) (A) (A) (A) (A) (A) (A) (A) (A)
                 (A) (A) (A) (A) (A) (A) (A)
       Virtual   (A) (A) (A) (A) (A) (A) (A) (A) (A) (A) (A) (A)
                 (A) (A) (A) (A) (A) (A) (A) (A) (A) (A) (A) (A)
                 (A) (A) (A) (A) (A) (A) (A) (A) (A) (A) (A) (A)
                 (A) (A) (A) (A) (A) (A) (A) (A) (A) (A) (A) (A)
                 (A) (A) (A) (A) (A) (A) (A) (A) (A) (A) (A) (A)
                 (A) (A) (A) (A) (A) (A) (A) (A) (A) (A) (A) (A)
                 (A) (A) (A) (A) (A) (A) (A) (A) (A) (A) (A) (A)
                 (A) (A) (A) (A) (A) (A) (A) (A) (A) (A) (A) (A)
                 (A) (A) (A) (A) (A) (A) (A) (A) (A) (A) (A) (A)
                 (A) (A) (A) (A) (A) (A) (A) (A) (A) (A) (A) (A)
                 (A) (A) (A) (A) (A) (A) (A) (A) (A) (A) (A) (A)
                 (A) (A) (A) (A) (A) (A) (A) (A) (A) (A) (A) (A)
                 (A) (A) (A) (A) (A) (A) (A) (A) (A) (A) (A) (A)
                 (A) (A) (A) (A) (A) (A) (A) (A) (A) (A) (A) (A)
                 (A) (A) (A) (A) (A) (A) (A) (A) (A) (A) (A) (A)
                 (A) (A) (A) (A) (A) (A) (A) (A) (A) (A) (A) (A)
                 (A) (A) (A) (A) (A) (A) (A) (A) (A) (A) (A) (A)
                 (A) (A) (A) (A) (A) (A) (A) (A) (A) (A) (A) (A)
                 (A) (A) (A) (A) (A) (A) (A) (A) (A) (A) (A) (A)
                 (A) (A) (A) (A) (A) (A) (A) (A) (A) (A) (A) (A)
                 (A) (A) (A) (A) (A) (A) (A) (A) (A) (A) (A) (A)
                 (A) (A) (A) (A) (A) (A) (A) (A) (A) (A) (A) (A)
                 (A) (A) (A) (A) (A) (A) (A) (A) (A) (A) (A) (A)
                 (A) (A) (A) (A) (A) (A) (A) (A) (A) (A) (A) (A)
                 (A) (A) (A) (A) (A) (A) (A) (A) (A) (A) (A) (A)
                 (A) (A) (A) (A) (A) (A) (A) (A) (A) (A) (A) (A)
                 (A) (A) (A) (A) (A) (A) (A) (A) (A) (A) (A) (A)
                 (A) (A) (A) (A) (A) (A) (A) (A) (A) (A) (A) (A)
                 (A) (A) (A) (A) (A) (A) (A) (A) (A) (A) (A) (A)
                 (A) (A) (A) (A) (A) (A) (A) (A) (A) (A) (A) (A)
                 (A) (A) (A) (A) (A) (A) (A) (A) (A) (A) (A) (A)
                 (A) (A) (A) (A) (A) (A) (A) (A) (A) (A) (A) (A)
                 (A) (A) (A) (A) (A) (A) (A) (A) (A) (A) (A) (A)
                 (A) (A) (A) (A) (A) (A) (A) (A) (A) (A) (A) (A)
                 (A) (A) (A) (A) (A) (A) (A) (A) (A) (A) (A) (A)
                 (A) (A) (A) (A) (A) (A) (A) (A) (A) (A) (A) (A)
                 (A) (A) (A) (A) (A) (A) (A) (A) (A) (A) (A) (A)
                 (A) (A) (A) (A) (A) (A) (A) (A) (A) (A)
 Beta  Orbitals:
       Occupied  (A) (A) (A) (A) (A) (A) (A) (A) (A) (A) (A) (A)
                 (A) (A) (A) (A) (A) (A) (A) (A) (A) (A) (A) (A)
                 (A) (A) (A) (A) (A) (A) (A) (A) (A) (A) (A) (A)
                 (A) (A) (A) (A) (A) (A) (A) (A) (A) (A) (A) (A)
                 (A) (A) (A) (A) (A) (A) (A) (A) (A) (A) (A) (A)
                 (A) (A) (A) (A) (A) (A) (A) (A) (A) (A) (A) (A)
                 (A) (A) (A) (A) (A) (A) (A)
       Virtual   (A) (A) (A) (A) (A) (A) (A) (A) (A) (A) (A) (A)
                 (A) (A) (A) (A) (A) (A) (A) (A) (A) (A) (A) (A)
                 (A) (A) (A) (A) (A) (A) (A) (A) (A) (A) (A) (A)
                 (A) (A) (A) (A) (A) (A) (A) (A) (A) (A) (A) (A)
                 (A) (A) (A) (A) (A) (A) (A) (A) (A) (A) (A) (A)
                 (A) (A) (A) (A) (A) (A) (A) (A) (A) (A) (A) (A)
                 (A) (A) (A) (A) (A) (A) (A) (A) (A) (A) (A) (A)
                 (A) (A) (A) (A) (A) (A) (A) (A) (A) (A) (A) (A)
                 (A) (A) (A) (A) (A) (A) (A) (A) (A) (A) (A) (A)
                 (A) (A) (A) (A) (A) (A) (A) (A) (A) (A) (A) (A)
                 (A) (A) (A) (A) (A) (A) (A) (A) (A) (A) (A) (A)
                 (A) (A) (A) (A) (A) (A) (A) (A) (A) (A) (A) (A)
                 (A) (A) (A) (A) (A) (A) (A) (A) (A) (A) (A) (A)
                 (A) (A) (A) (A) (A) (A) (A) (A) (A) (A) (A) (A)
                 (A) (A) (A) (A) (A) (A) (A) (A) (A) (A) (A) (A)
                 (A) (A) (A) (A) (A) (A) (A) (A) (A) (A) (A) (A)
                 (A) (A) (A) (A) (A) (A) (A) (A) (A) (A) (A) (A)
                 (A) (A) (A) (A) (A) (A) (A) (A) (A) (A) (A) (A)
                 (A) (A) (A) (A) (A) (A) (A) (A) (A) (A) (A) (A)
                 (A) (A) (A) (A) (A) (A) (A) (A) (A) (A) (A) (A)
                 (A) (A) (A) (A) (A) (A) (A) (A) (A) (A) (A) (A)
                 (A) (A) (A) (A) (A) (A) (A) (A) (A) (A) (A) (A)
                 (A) (A) (A) (A) (A) (A) (A) (A) (A) (A) (A) (A)
                 (A) (A) (A) (A) (A) (A) (A) (A) (A) (A) (A) (A)
                 (A) (A) (A) (A) (A) (A) (A) (A) (A) (A) (A) (A)
                 (A) (A) (A) (A) (A) (A) (A) (A) (A) (A) (A) (A)
                 (A) (A) (A) (A) (A) (A) (A) (A) (A) (A) (A) (A)
                 (A) (A) (A) (A) (A) (A) (A) (A) (A) (A) (A) (A)
                 (A) (A) (A) (A) (A) (A) (A) (A) (A) (A) (A) (A)
                 (A) (A) (A) (A) (A) (A) (A) (A) (A) (A) (A) (A)
                 (A) (A) (A) (A) (A) (A) (A) (A) (A) (A) (A) (A)
                 (A) (A) (A) (A) (A) (A) (A) (A) (A) (A) (A) (A)
                 (A) (A) (A) (A) (A) (A) (A) (A) (A) (A) (A) (A)
                 (A) (A) (A) (A) (A) (A) (A) (A) (A) (A) (A) (A)
                 (A) (A) (A) (A) (A) (A) (A) (A) (A) (A) (A) (A)
                 (A) (A) (A) (A) (A) (A) (A) (A) (A) (A) (A) (A)
                 (A) (A) (A) (A) (A) (A) (A) (A) (A) (A) (A) (A)
                 (A) (A) (A) (A) (A) (A) (A) (A) (A) (A)
 The electronic state is 1-A.
 Alpha  occ. eigenvalues --  -89.06765 -19.14955 -19.12214 -19.12029 -19.04580
 Alpha  occ. eigenvalues --  -19.02395 -10.21614 -10.20221 -10.19276 -10.18130
 Alpha  occ. eigenvalues --  -10.18000 -10.16488 -10.16161 -10.15895 -10.15738
 Alpha  occ. eigenvalues --  -10.15640 -10.15365 -10.15310 -10.15306 -10.15223
 Alpha  occ. eigenvalues --  -10.14098  -8.12887  -6.09227  -6.09127  -6.08920
 Alpha  occ. eigenvalues --   -1.12736  -1.01859  -1.00749  -0.96981  -0.94343
 Alpha  occ. eigenvalues --   -0.84970  -0.83634  -0.77977  -0.75055  -0.73469
 Alpha  occ. eigenvalues --   -0.73321  -0.70493  -0.66162  -0.64051  -0.61202
 Alpha  occ. eigenvalues --   -0.58952  -0.57208  -0.54556  -0.53502  -0.51700
 Alpha  occ. eigenvalues --   -0.50903  -0.47892  -0.47520  -0.45326  -0.44992
 Alpha  occ. eigenvalues --   -0.44367  -0.44059  -0.43569  -0.41944  -0.40846
 Alpha  occ. eigenvalues --   -0.39891  -0.39496  -0.39177  -0.38756  -0.38305
 Alpha  occ. eigenvalues --   -0.36720  -0.35580  -0.34490  -0.34091  -0.33625
 Alpha  occ. eigenvalues --   -0.33156  -0.32852  -0.32059  -0.31766  -0.31266
 Alpha  occ. eigenvalues --   -0.30823  -0.28457  -0.25140  -0.24076  -0.23619
 Alpha  occ. eigenvalues --   -0.23111  -0.21973  -0.20331  -0.11908
 Alpha virt. eigenvalues --   -0.05242  -0.02265  -0.00274   0.00387   0.00701
 Alpha virt. eigenvalues --    0.01330   0.01642   0.02370   0.02507   0.03216
 Alpha virt. eigenvalues --    0.03566   0.03985   0.04679   0.04982   0.05245
 Alpha virt. eigenvalues --    0.05956   0.06035   0.06624   0.06887   0.07270
 Alpha virt. eigenvalues --    0.07811   0.08252   0.08478   0.08970   0.09657
 Alpha virt. eigenvalues --    0.09673   0.09886   0.10086   0.10385   0.10944
 Alpha virt. eigenvalues --    0.11422   0.11659   0.11930   0.12129   0.12466
 Alpha virt. eigenvalues --    0.12878   0.12920   0.13038   0.13694   0.13883
 Alpha virt. eigenvalues --    0.13984   0.14134   0.14499   0.14739   0.14965
 Alpha virt. eigenvalues --    0.15673   0.15944   0.16180   0.16416   0.16962
 Alpha virt. eigenvalues --    0.17356   0.17954   0.18200   0.18602   0.18913
 Alpha virt. eigenvalues --    0.19270   0.19512   0.19652   0.19982   0.20091
 Alpha virt. eigenvalues --    0.20570   0.20940   0.22140   0.22282   0.22796
 Alpha virt. eigenvalues --    0.23008   0.23624   0.23897   0.24806   0.24951
 Alpha virt. eigenvalues --    0.25236   0.25436   0.25862   0.26158   0.26330
 Alpha virt. eigenvalues --    0.26674   0.27172   0.27483   0.27798   0.28124
 Alpha virt. eigenvalues --    0.28169   0.28677   0.29030   0.30219   0.30363
 Alpha virt. eigenvalues --    0.30583   0.30847   0.31007   0.31576   0.31824
 Alpha virt. eigenvalues --    0.32054   0.32219   0.32560   0.32933   0.33397
 Alpha virt. eigenvalues --    0.33665   0.34014   0.34330   0.35190   0.35734
 Alpha virt. eigenvalues --    0.35931   0.36210   0.36329   0.36906   0.37517
 Alpha virt. eigenvalues --    0.37890   0.38062   0.38622   0.39195   0.40122
 Alpha virt. eigenvalues --    0.40765   0.41072   0.42067   0.42579   0.43422
 Alpha virt. eigenvalues --    0.43695   0.44081   0.45080   0.45561   0.46477
 Alpha virt. eigenvalues --    0.47303   0.48049   0.48807   0.50369   0.50694
 Alpha virt. eigenvalues --    0.51228   0.52523   0.53022   0.54686   0.55821
 Alpha virt. eigenvalues --    0.56056   0.57417   0.57723   0.58138   0.59420
 Alpha virt. eigenvalues --    0.59606   0.59767   0.60007   0.60670   0.60787
 Alpha virt. eigenvalues --    0.61618   0.62466   0.63106   0.64674   0.65119
 Alpha virt. eigenvalues --    0.65417   0.66113   0.66514   0.67235   0.67287
 Alpha virt. eigenvalues --    0.67412   0.68346   0.69184   0.69629   0.70026
 Alpha virt. eigenvalues --    0.70397   0.70512   0.72313   0.73207   0.75190
 Alpha virt. eigenvalues --    0.75238   0.75543   0.76109   0.76754   0.77755
 Alpha virt. eigenvalues --    0.79079   0.79630   0.80693   0.80799   0.82353
 Alpha virt. eigenvalues --    0.83627   0.84799   0.86520   0.87270   0.87824
 Alpha virt. eigenvalues --    0.88090   0.89504   0.91439   0.91724   0.92519
 Alpha virt. eigenvalues --    0.93072   0.94130   0.94278   0.95564   0.95784
 Alpha virt. eigenvalues --    0.96434   0.97168   0.97503   0.98487   1.00114
 Alpha virt. eigenvalues --    1.00951   1.01155   1.01949   1.02178   1.02833
 Alpha virt. eigenvalues --    1.03022   1.04335   1.04519   1.05012   1.06545
 Alpha virt. eigenvalues --    1.07390   1.07964   1.08656   1.09538   1.10718
 Alpha virt. eigenvalues --    1.11773   1.12724   1.14320   1.14725   1.15672
 Alpha virt. eigenvalues --    1.16244   1.16908   1.18095   1.18563   1.19439
 Alpha virt. eigenvalues --    1.20252   1.20976   1.21156   1.22941   1.25274
 Alpha virt. eigenvalues --    1.25314   1.26016   1.27589   1.28201   1.28628
 Alpha virt. eigenvalues --    1.30073   1.30732   1.32565   1.32931   1.34142
 Alpha virt. eigenvalues --    1.36850   1.37134   1.38359   1.40481   1.42378
 Alpha virt. eigenvalues --    1.45664   1.45779   1.50040   1.50645   1.51729
 Alpha virt. eigenvalues --    1.52865   1.53495   1.53997   1.54610   1.55564
 Alpha virt. eigenvalues --    1.56224   1.56434   1.57965   1.58120   1.58531
 Alpha virt. eigenvalues --    1.60448   1.61445   1.63719   1.64116   1.64197
 Alpha virt. eigenvalues --    1.65492   1.67287   1.69404   1.70151   1.71598
 Alpha virt. eigenvalues --    1.71944   1.72731   1.73844   1.74361   1.75851
 Alpha virt. eigenvalues --    1.76203   1.76832   1.77511   1.77620   1.80697
 Alpha virt. eigenvalues --    1.80913   1.82071   1.84813   1.85244   1.85373
 Alpha virt. eigenvalues --    1.87877   1.90396   1.92011   1.92442   1.93854
 Alpha virt. eigenvalues --    1.94374   1.95319   1.95454   1.96157   1.97778
 Alpha virt. eigenvalues --    1.98887   1.99284   1.99590   2.00162   2.00574
 Alpha virt. eigenvalues --    2.02952   2.04292   2.04775   2.07006   2.07896
 Alpha virt. eigenvalues --    2.09376   2.09753   2.12272   2.13221   2.13586
 Alpha virt. eigenvalues --    2.17589   2.18231   2.19780   2.21288   2.24291
 Alpha virt. eigenvalues --    2.26428   2.29166   2.30562   2.35042   2.35644
 Alpha virt. eigenvalues --    2.36534   2.40333   2.41593   2.42972   2.43901
 Alpha virt. eigenvalues --    2.45368   2.48760   2.49134   2.49694   2.50248
 Alpha virt. eigenvalues --    2.54062   2.55039   2.58081   2.60949   2.61897
 Alpha virt. eigenvalues --    2.64439   2.65782   2.67969   2.68638   2.71983
 Alpha virt. eigenvalues --    2.73013   2.73256   2.75052   2.76298   2.77157
 Alpha virt. eigenvalues --    2.77968   2.79105   2.79312   2.79697   2.79926
 Alpha virt. eigenvalues --    2.80219   2.81465   2.81702   2.82962   2.83127
 Alpha virt. eigenvalues --    2.84160   2.85334   2.85820   2.86747   2.87367
 Alpha virt. eigenvalues --    2.89239   2.89804   2.90178   2.90562   2.92207
 Alpha virt. eigenvalues --    2.92337   2.93900   2.95042   2.96381   2.98668
 Alpha virt. eigenvalues --    2.99293   2.99632   3.00733   3.02534   3.04863
 Alpha virt. eigenvalues --    3.06172   3.09102   3.11587   3.12848   3.14174
 Alpha virt. eigenvalues --    3.15080   3.16049   3.18051   3.20977   3.22946
 Alpha virt. eigenvalues --    3.24438   3.27582   3.29302   3.32162   3.34522
 Alpha virt. eigenvalues --    3.35709   3.36482   3.37705   3.37866   3.45024
 Alpha virt. eigenvalues --    3.48126   3.50084   3.53132   3.53637   3.56568
 Alpha virt. eigenvalues --    3.57217   3.58571   3.59274   3.59916   3.61360
 Alpha virt. eigenvalues --    3.68276   3.78349   3.79749   3.80627   3.82784
 Alpha virt. eigenvalues --    3.87513   3.90946   4.05666   4.05936   4.08009
 Alpha virt. eigenvalues --    4.11572   4.20626   4.23134   4.31548   4.35640
 Alpha virt. eigenvalues --    4.51364   4.82470   4.83689   4.85824   4.99760
 Alpha virt. eigenvalues --    5.02086   5.06217   5.08679   5.10647   5.11915
 Alpha virt. eigenvalues --    5.14213   5.14376   5.19517   5.29401   5.30971
 Alpha virt. eigenvalues --    5.33588   5.53625   5.78665   5.86021   8.18685
 Alpha virt. eigenvalues --   17.32153  17.46404  17.52638  23.54385  23.71505
 Alpha virt. eigenvalues --   23.87848  23.91819  23.92661  23.94606  23.95447
 Alpha virt. eigenvalues --   23.97271  23.99362  24.02737  24.05763  24.11557
 Alpha virt. eigenvalues --   24.13351  24.19984  24.20690  49.88625  49.88980
 Alpha virt. eigenvalues --   49.94527  50.09249  50.15360 189.30076
  Beta  occ. eigenvalues --  -89.06765 -19.14955 -19.12214 -19.12029 -19.04580
  Beta  occ. eigenvalues --  -19.02395 -10.21614 -10.20221 -10.19276 -10.18130
  Beta  occ. eigenvalues --  -10.18000 -10.16488 -10.16161 -10.15895 -10.15738
  Beta  occ. eigenvalues --  -10.15640 -10.15365 -10.15310 -10.15306 -10.15223
  Beta  occ. eigenvalues --  -10.14098  -8.12887  -6.09227  -6.09127  -6.08920
  Beta  occ. eigenvalues --   -1.12736  -1.01859  -1.00749  -0.96981  -0.94343
  Beta  occ. eigenvalues --   -0.84970  -0.83634  -0.77977  -0.75055  -0.73469
  Beta  occ. eigenvalues --   -0.73321  -0.70493  -0.66162  -0.64051  -0.61202
  Beta  occ. eigenvalues --   -0.58952  -0.57208  -0.54556  -0.53502  -0.51700
  Beta  occ. eigenvalues --   -0.50903  -0.47892  -0.47520  -0.45326  -0.44992
  Beta  occ. eigenvalues --   -0.44367  -0.44059  -0.43569  -0.41944  -0.40846
  Beta  occ. eigenvalues --   -0.39891  -0.39496  -0.39177  -0.38756  -0.38305
  Beta  occ. eigenvalues --   -0.36720  -0.35580  -0.34490  -0.34091  -0.33625
  Beta  occ. eigenvalues --   -0.33156  -0.32852  -0.32059  -0.31766  -0.31266
  Beta  occ. eigenvalues --   -0.30823  -0.28457  -0.25140  -0.24076  -0.23619
  Beta  occ. eigenvalues --   -0.23111  -0.21973  -0.20331  -0.11908
  Beta virt. eigenvalues --   -0.05242  -0.02265  -0.00274   0.00387   0.00701
  Beta virt. eigenvalues --    0.01330   0.01642   0.02370   0.02507   0.03216
  Beta virt. eigenvalues --    0.03566   0.03985   0.04679   0.04982   0.05245
  Beta virt. eigenvalues --    0.05956   0.06035   0.06624   0.06887   0.07270
  Beta virt. eigenvalues --    0.07811   0.08252   0.08478   0.08970   0.09657
  Beta virt. eigenvalues --    0.09673   0.09886   0.10086   0.10385   0.10944
  Beta virt. eigenvalues --    0.11422   0.11659   0.11930   0.12129   0.12466
  Beta virt. eigenvalues --    0.12878   0.12920   0.13038   0.13694   0.13883
  Beta virt. eigenvalues --    0.13984   0.14134   0.14499   0.14739   0.14965
  Beta virt. eigenvalues --    0.15673   0.15944   0.16180   0.16416   0.16962
  Beta virt. eigenvalues --    0.17356   0.17954   0.18200   0.18602   0.18913
  Beta virt. eigenvalues --    0.19270   0.19512   0.19652   0.19982   0.20091
  Beta virt. eigenvalues --    0.20570   0.20940   0.22140   0.22282   0.22796
  Beta virt. eigenvalues --    0.23008   0.23624   0.23897   0.24806   0.24951
  Beta virt. eigenvalues --    0.25236   0.25436   0.25862   0.26158   0.26330
  Beta virt. eigenvalues --    0.26674   0.27172   0.27483   0.27798   0.28124
  Beta virt. eigenvalues --    0.28169   0.28677   0.29030   0.30219   0.30363
  Beta virt. eigenvalues --    0.30583   0.30847   0.31007   0.31576   0.31824
  Beta virt. eigenvalues --    0.32054   0.32219   0.32560   0.32933   0.33397
  Beta virt. eigenvalues --    0.33665   0.34014   0.34330   0.35190   0.35734
  Beta virt. eigenvalues --    0.35931   0.36210   0.36329   0.36906   0.37517
  Beta virt. eigenvalues --    0.37890   0.38062   0.38622   0.39195   0.40122
  Beta virt. eigenvalues --    0.40765   0.41072   0.42067   0.42579   0.43422
  Beta virt. eigenvalues --    0.43695   0.44081   0.45080   0.45561   0.46477
  Beta virt. eigenvalues --    0.47303   0.48049   0.48807   0.50369   0.50694
  Beta virt. eigenvalues --    0.51228   0.52523   0.53022   0.54686   0.55821
  Beta virt. eigenvalues --    0.56056   0.57417   0.57723   0.58138   0.59420
  Beta virt. eigenvalues --    0.59606   0.59767   0.60007   0.60670   0.60787
  Beta virt. eigenvalues --    0.61618   0.62466   0.63106   0.64674   0.65119
  Beta virt. eigenvalues --    0.65417   0.66113   0.66514   0.67235   0.67287
  Beta virt. eigenvalues --    0.67412   0.68346   0.69184   0.69629   0.70026
  Beta virt. eigenvalues --    0.70397   0.70512   0.72313   0.73207   0.75190
  Beta virt. eigenvalues --    0.75238   0.75543   0.76109   0.76754   0.77755
  Beta virt. eigenvalues --    0.79079   0.79630   0.80693   0.80799   0.82353
  Beta virt. eigenvalues --    0.83627   0.84799   0.86520   0.87270   0.87824
  Beta virt. eigenvalues --    0.88090   0.89504   0.91439   0.91724   0.92519
  Beta virt. eigenvalues --    0.93072   0.94130   0.94278   0.95564   0.95784
  Beta virt. eigenvalues --    0.96434   0.97168   0.97503   0.98487   1.00114
  Beta virt. eigenvalues --    1.00951   1.01155   1.01949   1.02178   1.02833
  Beta virt. eigenvalues --    1.03022   1.04335   1.04519   1.05012   1.06545
  Beta virt. eigenvalues --    1.07390   1.07964   1.08656   1.09538   1.10718
  Beta virt. eigenvalues --    1.11773   1.12724   1.14320   1.14725   1.15672
  Beta virt. eigenvalues --    1.16244   1.16908   1.18095   1.18563   1.19439
  Beta virt. eigenvalues --    1.20252   1.20976   1.21156   1.22941   1.25274
  Beta virt. eigenvalues --    1.25314   1.26016   1.27589   1.28201   1.28628
  Beta virt. eigenvalues --    1.30073   1.30732   1.32565   1.32931   1.34142
  Beta virt. eigenvalues --    1.36850   1.37134   1.38359   1.40481   1.42378
  Beta virt. eigenvalues --    1.45664   1.45779   1.50040   1.50645   1.51729
  Beta virt. eigenvalues --    1.52865   1.53495   1.53997   1.54610   1.55564
  Beta virt. eigenvalues --    1.56224   1.56434   1.57965   1.58120   1.58531
  Beta virt. eigenvalues --    1.60448   1.61445   1.63719   1.64116   1.64197
  Beta virt. eigenvalues --    1.65492   1.67287   1.69404   1.70151   1.71598
  Beta virt. eigenvalues --    1.71944   1.72731   1.73844   1.74361   1.75851
  Beta virt. eigenvalues --    1.76203   1.76832   1.77511   1.77620   1.80697
  Beta virt. eigenvalues --    1.80913   1.82071   1.84813   1.85244   1.85373
  Beta virt. eigenvalues --    1.87877   1.90396   1.92011   1.92442   1.93854
  Beta virt. eigenvalues --    1.94374   1.95319   1.95454   1.96157   1.97778
  Beta virt. eigenvalues --    1.98887   1.99284   1.99590   2.00162   2.00574
  Beta virt. eigenvalues --    2.02952   2.04292   2.04775   2.07006   2.07896
  Beta virt. eigenvalues --    2.09376   2.09753   2.12272   2.13221   2.13586
  Beta virt. eigenvalues --    2.17589   2.18231   2.19780   2.21288   2.24291
  Beta virt. eigenvalues --    2.26428   2.29166   2.30562   2.35042   2.35644
  Beta virt. eigenvalues --    2.36534   2.40333   2.41593   2.42972   2.43901
  Beta virt. eigenvalues --    2.45368   2.48760   2.49134   2.49694   2.50248
  Beta virt. eigenvalues --    2.54062   2.55039   2.58081   2.60949   2.61897
  Beta virt. eigenvalues --    2.64439   2.65782   2.67969   2.68638   2.71983
  Beta virt. eigenvalues --    2.73013   2.73256   2.75052   2.76298   2.77157
  Beta virt. eigenvalues --    2.77968   2.79105   2.79312   2.79697   2.79926
  Beta virt. eigenvalues --    2.80219   2.81465   2.81702   2.82962   2.83127
  Beta virt. eigenvalues --    2.84160   2.85334   2.85820   2.86747   2.87367
  Beta virt. eigenvalues --    2.89239   2.89804   2.90178   2.90562   2.92207
  Beta virt. eigenvalues --    2.92337   2.93900   2.95042   2.96381   2.98668
  Beta virt. eigenvalues --    2.99293   2.99632   3.00733   3.02534   3.04863
  Beta virt. eigenvalues --    3.06172   3.09102   3.11587   3.12848   3.14174
  Beta virt. eigenvalues --    3.15080   3.16049   3.18051   3.20977   3.22946
  Beta virt. eigenvalues --    3.24438   3.27582   3.29302   3.32162   3.34522
  Beta virt. eigenvalues --    3.35709   3.36482   3.37705   3.37866   3.45024
  Beta virt. eigenvalues --    3.48126   3.50084   3.53132   3.53637   3.56568
  Beta virt. eigenvalues --    3.57217   3.58571   3.59274   3.59916   3.61360
  Beta virt. eigenvalues --    3.68276   3.78349   3.79749   3.80627   3.82784
  Beta virt. eigenvalues --    3.87513   3.90946   4.05666   4.05936   4.08009
  Beta virt. eigenvalues --    4.11572   4.20626   4.23134   4.31548   4.35640
  Beta virt. eigenvalues --    4.51364   4.82470   4.83689   4.85824   4.99760
  Beta virt. eigenvalues --    5.02086   5.06217   5.08679   5.10647   5.11915
  Beta virt. eigenvalues --    5.14213   5.14376   5.19517   5.29401   5.30971
  Beta virt. eigenvalues --    5.33588   5.53625   5.78665   5.86021   8.18685
  Beta virt. eigenvalues --   17.32153  17.46404  17.52638  23.54385  23.71505
  Beta virt. eigenvalues --   23.87848  23.91819  23.92661  23.94606  23.95447
  Beta virt. eigenvalues --   23.97271  23.99362  24.02737  24.05763  24.11557
  Beta virt. eigenvalues --   24.13351  24.19984  24.20690  49.88625  49.88980
  Beta virt. eigenvalues --   49.94527  50.09249  50.15360 189.30076
          Condensed to atoms (all electrons):
               1          2          3          4          5          6
     1  C   12.309329  -2.835048  -1.094311  -3.157056  -4.497904   3.718650
     2  C   -2.835048   9.537360   0.467676   1.601374   2.798220  -1.607386
     3  C   -1.094311   0.467676   7.810949   2.163098  -0.806111  -0.837743
     4  C   -3.157056   1.601374   2.163098  26.108895   2.933053  -3.242183
     5  C   -4.497904   2.798220  -0.806111   2.933053  22.534745  -2.879527
     6  C    3.718650  -1.607386  -0.837743  -3.242183  -2.879527  11.388204
     7  C    1.397298  -2.735784   0.358226  -4.264218  -2.831791   0.670390
     8  C    0.556070  -0.724701  -0.032349  -8.931380  -4.911867  -0.623046
     9  C    0.010358  -0.781148  -0.549187  -8.657385  -4.398326   1.013635
    10  C   -0.606766   0.033510  -0.885333  -1.072266   0.901099  -0.942372
    11  C   -0.097718   0.333556  -0.242382   0.948029  -0.574257  -0.227957
    12  C   -0.008228  -0.183138  -0.213580  -1.920813  -1.804242  -0.234691
    13  C   -0.160283   0.034794   0.033203   0.987020   0.863076  -0.360360
    14  O    0.161548   0.072393  -0.005459  -0.275436  -0.230962  -0.024649
    15  O   -0.009963  -0.011200   0.070894  -0.199020  -0.443154   0.183303
    16  H    0.468069  -0.189882  -0.012093  -0.204673   0.008928   0.066306
    17  H   -0.131509   0.513159  -0.042761   0.027726   0.011565  -0.004827
    18  H   -0.010917  -0.059238   0.428470  -0.035382   0.032102  -0.076058
    19  H   -0.000273   0.000124  -0.000514  -0.001822   0.019329   0.000813
    20  H    0.056603  -0.011060  -0.082129   0.068063  -0.096769   0.419139
    21  H   -0.024304   0.003776   0.000000  -0.068224   0.023570  -0.008464
    22  H   -0.003697   0.003573  -0.003008   0.008888  -0.043206  -0.017443
    23  C   -0.069163   0.238859  -0.031569   3.065352  -0.912003  -0.381497
    24  S   -0.003452  -0.006351  -0.000425  -0.193161  -0.106335  -0.007514
    25  O    0.001654   0.000332  -0.000023   0.009378  -0.002856  -0.000164
    26  O   -0.000297  -0.000056   0.000003  -0.008029   0.000626  -0.000126
    27  O   -0.000536  -0.000136   0.000042  -0.007213   0.002599   0.001059
    28  C    0.000169  -0.000020  -0.000000  -0.004477   0.000165   0.000105
    29  H    0.000013   0.000017   0.000006   0.000775   0.000027   0.000007
    30  H   -0.000022  -0.000003  -0.000005  -0.000707  -0.000421  -0.000022
    31  H   -0.000007  -0.000009  -0.000004  -0.000054   0.000031   0.000020
               7          8          9         10         11         12
     1  C    1.397298   0.556070   0.010358  -0.606766  -0.097718  -0.008228
     2  C   -2.735784  -0.724701  -0.781148   0.033510   0.333556  -0.183138
     3  C    0.358226  -0.032349  -0.549187  -0.885333  -0.242382  -0.213580
     4  C   -4.264218  -8.931380  -8.657385  -1.072266   0.948029  -1.920813
     5  C   -2.831791  -4.911867  -4.398326   0.901099  -0.574257  -1.804242
     6  C    0.670390  -0.623046   1.013635  -0.942372  -0.227957  -0.234691
     7  C   16.290341  -3.548654   0.372332   0.542780  -6.663103   0.224801
     8  C   -3.548654  33.026518   6.570782  -0.772346   7.845533  -2.101501
     9  C    0.372332   6.570782  22.539988  -0.217901   0.534393   3.224488
    10  C    0.542780  -0.772346  -0.217901  15.092129  -2.170016  -3.121632
    11  C   -6.663103   7.845533   0.534393  -2.170016  23.799813  -2.263660
    12  C    0.224801  -2.101501   3.224488  -3.121632  -2.263660  18.546711
    13  C    2.985111  -8.896066  -6.651786   1.908937 -13.326951   3.404917
    14  O    0.692272  -0.515661  -0.273881  -0.018642   0.201498  -0.023612
    15  O   -0.004170  -0.199211  -0.478890   0.850983  -0.027998   0.118829
    16  H    0.124011   0.040910   0.042243   0.005908  -0.002436   0.006781
    17  H   -0.019818  -0.000847  -0.013961  -0.015365   0.002443  -0.002658
    18  H   -0.005936  -0.005201   0.013988   0.033290   0.001129   0.003443
    19  H   -0.016755  -0.003639  -0.071130  -0.000582   0.035280  -0.114090
    20  H    0.018202   0.004136  -0.016946   0.023953  -0.006122  -0.028027
    21  H    0.016733  -0.018993   0.086739   0.014812   0.276463   0.005569
    22  H    0.005377   0.034832   0.041353   0.058145  -0.015587   0.429253
    23  C    3.441705 -11.383365  -7.120956  -3.240391  -3.067621  -8.278302
    24  S   -0.314474   0.371576  -0.077377  -0.026307   0.419519   0.392845
    25  O    0.106376  -0.419174   0.013893   0.015436  -0.977808   0.223237
    26  O   -0.061081   0.229814   0.004909  -0.016216   0.723654  -0.316892
    27  O   -0.059751   0.088889   0.085474   0.023066   0.372085   0.137799
    28  C   -0.006754   0.001028   0.042038   0.003444   0.069995   0.048568
    29  H    0.006148  -0.015914   0.000356   0.001404  -0.025150   0.007198
    30  H   -0.001787  -0.002068  -0.002379  -0.000612   0.000198   0.002991
    31  H   -0.002724   0.012634  -0.000676  -0.001944   0.021730  -0.007610
              13         14         15         16         17         18
     1  C   -0.160283   0.161548  -0.009963   0.468069  -0.131509  -0.010917
     2  C    0.034794   0.072393  -0.011200  -0.189882   0.513159  -0.059238
     3  C    0.033203  -0.005459   0.070894  -0.012093  -0.042761   0.428470
     4  C    0.987020  -0.275436  -0.199020  -0.204673   0.027726  -0.035382
     5  C    0.863076  -0.230962  -0.443154   0.008928   0.011565   0.032102
     6  C   -0.360360  -0.024649   0.183303   0.066306  -0.004827  -0.076058
     7  C    2.985111   0.692272  -0.004170   0.124011  -0.019818  -0.005936
     8  C   -8.896066  -0.515661  -0.199211   0.040910  -0.000847  -0.005201
     9  C   -6.651786  -0.273881  -0.478890   0.042243  -0.013961   0.013988
    10  C    1.908937  -0.018642   0.850983   0.005908  -0.015365   0.033290
    11  C  -13.326951   0.201498  -0.027998  -0.002436   0.002443   0.001129
    12  C    3.404917  -0.023612   0.118829   0.006781  -0.002658   0.003443
    13  C   31.303923   0.007426   0.136512  -0.007782   0.000086   0.000298
    14  O    0.007426   8.548838  -0.000240  -0.002220   0.002657  -0.000264
    15  O    0.136512  -0.000240   8.673576   0.000399  -0.000309   0.002442
    16  H   -0.007782  -0.002220   0.000399   0.533975  -0.015008   0.000730
    17  H    0.000086   0.002657  -0.000309  -0.015008   0.534561  -0.014207
    18  H    0.000298  -0.000264   0.002442   0.000730  -0.014207   0.536870
    19  H    0.440812  -0.000395   0.003729   0.000034   0.000004  -0.000004
    20  H   -0.011807   0.000355   0.002432   0.001671   0.000494  -0.014613
    21  H    0.075418  -0.001228   0.000534  -0.000064  -0.000127  -0.000025
    22  H   -0.123756   0.000487  -0.003644  -0.000170   0.000005  -0.000092
    23  C   -6.846004   0.207069  -0.027570  -0.019745   0.000322   0.000086
    24  S    0.635700   0.020090  -0.000417   0.000391  -0.000086  -0.000011
    25  O    1.088611  -0.000612   0.000007  -0.000085   0.000002  -0.000000
    26  O   -1.299509   0.000065  -0.000001   0.000013  -0.000000   0.000000
    27  O    0.210505  -0.000120  -0.000005  -0.000009   0.000001  -0.000001
    28  C    0.083268   0.000206  -0.000005   0.000002  -0.000000  -0.000000
    29  H    0.049481  -0.000054   0.000001  -0.000007   0.000000  -0.000000
    30  H    0.003358   0.000005   0.000003   0.000001  -0.000000  -0.000000
    31  H   -0.062910  -0.000007  -0.000001   0.000004  -0.000000   0.000000
              19         20         21         22         23         24
     1  C   -0.000273   0.056603  -0.024304  -0.003697  -0.069163  -0.003452
     2  C    0.000124  -0.011060   0.003776   0.003573   0.238859  -0.006351
     3  C   -0.000514  -0.082129   0.000000  -0.003008  -0.031569  -0.000425
     4  C   -0.001822   0.068063  -0.068224   0.008888   3.065352  -0.193161
     5  C    0.019329  -0.096769   0.023570  -0.043206  -0.912003  -0.106335
     6  C    0.000813   0.419139  -0.008464  -0.017443  -0.381497  -0.007514
     7  C   -0.016755   0.018202   0.016733   0.005377   3.441705  -0.314474
     8  C   -0.003639   0.004136  -0.018993   0.034832 -11.383365   0.371576
[...]
     9  C    0.714961   0.000000
    10  C   -0.400204   0.000000
    11  C    0.103448  -0.000000
    12  C   -0.154754  -0.000000
    13  C   -0.505238  -0.000000
    14  O   -0.541466  -0.000000
    15  O   -0.637846  -0.000000
    16  H    0.153800   0.000000
    17  H    0.168461  -0.000000
    18  H    0.169104   0.000000
    19  H    0.210205  -0.000000
    20  H    0.155241   0.000000
    21  H    0.204529   0.000000
    22  H    0.146966  -0.000000
    23  C   -1.117626   0.000000
    24  S    0.303085  -0.000000
    25  O   -0.273845   0.000000
    26  O   -0.301284  -0.000000
    27  O   -0.144010   0.000000
    28  C   -0.141992   0.000000
    29  H    0.159442   0.000000
    30  H    0.170097   0.000000
    31  H    0.159578  -0.000000
 Sum of Mulliken charges =  -2.00000   0.00000
 Mulliken charges and spin densities with hydrogens summed into heavy atoms:
               1          2
     1  C    0.185490  -0.000000
     2  C   -0.325101   0.000000
     3  C   -0.324479  -0.000000
     4  C    0.321851  -0.000000
     5  C    0.410596   0.000000
     6  C    0.169640  -0.000000
     7  C   -0.715304   0.000000
     8  C    0.323263  -0.000000
     9  C    0.714961   0.000000
    10  C   -0.400204   0.000000
    11  C    0.307977  -0.000000
    12  C   -0.007788  -0.000000
    13  C   -0.295033  -0.000000
    14  O   -0.541466  -0.000000
    15  O   -0.637846  -0.000000
    23  C   -1.117626   0.000000
    24  S    0.303085  -0.000000
    25  O   -0.273845   0.000000
    26  O   -0.301284  -0.000000
    27  O   -0.144010   0.000000
    28  C    0.347124   0.000000
 Electronic spatial extent (au):  <R**2>=           8126.9440
 Charge=             -2.0000 electrons
 Dipole moment (field-independent basis, Debye):
    X=              5.6462    Y=             -2.1491    Z=              2.8932  Tot=              6.6984
 Quadrupole moment (field-independent basis, Debye-Ang):
   XX=           -200.4807   YY=           -186.7921   ZZ=           -142.7885
   XY=             14.1778   XZ=             15.4159   YZ=             -4.1262
 Traceless Quadrupole moment (field-independent basis, Debye-Ang):
   XX=            -23.7936   YY=            -10.1050   ZZ=             33.8986
   XY=             14.1778   XZ=             15.4159   YZ=             -4.1262
 Octapole moment (field-independent basis, Debye-Ang**2):
  XXX=             75.2667  YYY=            -32.4897  ZZZ=              6.7252  XYY=             92.4688
  XXY=            -59.5573  XXZ=             79.5674  XZZ=             31.2961  YZZ=             -5.4348
  YYZ=              7.8942  XYZ=             -1.6189
 Hexadecapole moment (field-independent basis, Debye-Ang**3):
 XXXX=          -9512.7865 YYYY=          -2123.2903 ZZZZ=           -416.2516 XXXY=             25.9157
 XXXZ=            401.9813 YYYX=            185.2691 YYYZ=            -30.6132 ZZZX=             56.2843
 ZZZY=             -2.1201 XXYY=          -2076.1369 XXZZ=          -1689.5555 YYZZ=           -387.4420
 XXYZ=            -32.0132 YYXZ=             34.8997 ZZXY=            -21.8090
 N-N= 1.728386924662D+03 E-N=-6.674567940232D+03  KE= 1.347990253755D+03
                          Isotropic Fermi Contact Couplings
        Atom                 a.u.       MegaHertz       Gauss      10(-4) cm-1
     1  C(13)              0.00000       0.00000       0.00000       0.00000
     2  C(13)              0.00000       0.00000       0.00000       0.00000
     3  C(13)             -0.00000      -0.00000      -0.00000      -0.00000
     4  C(13)              0.00000       0.00000       0.00000       0.00000
     5  C(13)             -0.00000      -0.00000      -0.00000      -0.00000
     6  C(13)              0.00000       0.00000       0.00000       0.00000
     7  C(13)              0.00000       0.00000       0.00000       0.00000
     8  C(13)              0.00000       0.00000       0.00000       0.00000
     9  C(13)              0.00000       0.00000       0.00000       0.00000
    10  C(13)             -0.00000      -0.00000      -0.00000      -0.00000
    11  C(13)              0.00000       0.00000       0.00000       0.00000
    12  C(13)              0.00000       0.00000       0.00000       0.00000
    13  C(13)              0.00000       0.00000       0.00000       0.00000
    14  O(17)              0.00000      -0.00000      -0.00000      -0.00000
    15  O(17)             -0.00000       0.00000       0.00000       0.00000
    16  H(1)              -0.00000      -0.00000      -0.00000      -0.00000
    17  H(1)              -0.00000      -0.00000      -0.00000      -0.00000
    18  H(1)               0.00000       0.00000       0.00000       0.00000
    19  H(1)              -0.00000      -0.00000      -0.00000      -0.00000
    20  H(1)               0.00000       0.00000       0.00000       0.00000
    21  H(1)               0.00000       0.00000       0.00000       0.00000
    22  H(1)              -0.00000      -0.00000      -0.00000      -0.00000
    23  C(13)              0.00000       0.00000       0.00000       0.00000
    24  S(33)             -0.00000      -0.00000      -0.00000      -0.00000
    25  O(17)              0.00000      -0.00000      -0.00000      -0.00000
    26  O(17)              0.00000      -0.00000      -0.00000      -0.00000
    27  O(17)              0.00000      -0.00000      -0.00000      -0.00000
    28  C(13)              0.00000       0.00000       0.00000       0.00000
    29  H(1)               0.00000       0.00000       0.00000       0.00000
    30  H(1)              -0.00000      -0.00000      -0.00000      -0.00000
    31  H(1)               0.00000       0.00000       0.00000       0.00000
 --------------------------------------------------------
       Center         ----  Spin Dipole Couplings  ----
                      3XX-RR        3YY-RR        3ZZ-RR
 --------------------------------------------------------
     1   Atom       -0.000000      0.000000     -0.000000
     2   Atom       -0.000000      0.000000     -0.000000
     3   Atom       -0.000000      0.000000     -0.000000
     4   Atom       -0.000000      0.000000      0.000000
     5   Atom       -0.000000      0.000000      0.000000
     6   Atom        0.000000     -0.000000      0.000000
     7   Atom        0.000000     -0.000000      0.000000
     8   Atom        0.000000     -0.000000     -0.000000
     9   Atom       -0.000000     -0.000000      0.000000
    10   Atom        0.000000     -0.000000     -0.000000
    11   Atom       -0.000000     -0.000000      0.000000
    12   Atom        0.000000     -0.000000      0.000000
    13   Atom        0.000000     -0.000000      0.000000
    14   Atom        0.000000     -0.000000     -0.000000
    15   Atom       -0.000000      0.000000     -0.000000
    16   Atom        0.000000     -0.000000     -0.000000
    17   Atom        0.000000     -0.000000     -0.000000
    18   Atom        0.000000     -0.000000     -0.000000
    19   Atom       -0.000000     -0.000000      0.000000
    20   Atom        0.000000     -0.000000      0.000000
    21   Atom       -0.000000      0.000000      0.000000
    22   Atom       -0.000000     -0.000000      0.000000
    23   Atom       -0.000000     -0.000000      0.000000
    24   Atom       -0.000000      0.000000     -0.000000
    25   Atom        0.000000     -0.000000      0.000000
    26   Atom       -0.000000      0.000000      0.000000
    27   Atom        0.000000     -0.000000      0.000000
    28   Atom       -0.000000      0.000000      0.000000
    29   Atom       -0.000000     -0.000000      0.000000
    30   Atom       -0.000000      0.000000      0.000000
    31   Atom       -0.000000      0.000000     -0.000000
 --------------------------------------------------------
                        XY            XZ            YZ
 --------------------------------------------------------
     1   Atom        0.000000     -0.000000     -0.000000
     2   Atom       -0.000000      0.000000     -0.000000
     3   Atom        0.000000      0.000000      0.000000
     4   Atom        0.000000     -0.000000     -0.000000
     5   Atom        0.000000      0.000000     -0.000000
     6   Atom        0.000000      0.000000     -0.000000
     7   Atom       -0.000000      0.000000      0.000000
     8   Atom        0.000000     -0.000000      0.000000
     9   Atom       -0.000000     -0.000000     -0.000000
    10   Atom       -0.000000     -0.000000     -0.000000
    11   Atom        0.000000      0.000000      0.000000
    12   Atom       -0.000000      0.000000     -0.000000
    13   Atom       -0.000000     -0.000000     -0.000000
    14   Atom       -0.000000      0.000000     -0.000000
    15   Atom        0.000000      0.000000     -0.000000
    16   Atom       -0.000000     -0.000000     -0.000000
    17   Atom       -0.000000     -0.000000      0.000000
    18   Atom       -0.000000     -0.000000      0.000000
    19   Atom        0.000000      0.000000      0.000000
    20   Atom        0.000000      0.000000      0.000000
    21   Atom       -0.000000      0.000000     -0.000000
    22   Atom        0.000000      0.000000      0.000000
    23   Atom       -0.000000     -0.000000     -0.000000
    24   Atom       -0.000000     -0.000000      0.000000
    25   Atom       -0.000000      0.000000      0.000000
    26   Atom       -0.000000     -0.000000      0.000000
    27   Atom       -0.000000      0.000000      0.000000
    28   Atom        0.000000     -0.000000     -0.000000
    29   Atom       -0.000000      0.000000      0.000000
    30   Atom        0.000000     -0.000000      0.000000
    31   Atom        0.000000      0.000000     -0.000000
 --------------------------------------------------------


 ---------------------------------------------------------------------------------
              Anisotropic Spin Dipole Couplings in Principal Axis System
 ---------------------------------------------------------------------------------

       Atom             a.u.   MegaHertz   Gauss  10(-4) cm-1        Axes

              Baa    -0.0000    -0.000    -0.000    -0.000  0.7900 -0.6087  0.0738
     1 C(13)  Bbb    -0.0000    -0.000    -0.000    -0.000  0.0334  0.1628  0.9861
              Bcc     0.0000     0.000     0.000     0.000  0.6123  0.7765 -0.1489
 
              Baa    -0.0000    -0.000    -0.000    -0.000 -0.3290 -0.0490  0.9431
     2 C(13)  Bbb    -0.0000    -0.000    -0.000    -0.000  0.9130  0.2387  0.3309
              Bcc     0.0000     0.000     0.000     0.000 -0.2413  0.9699 -0.0338
 
              Baa    -0.0000    -0.000    -0.000    -0.000  0.8506 -0.5201 -0.0776
     3 C(13)  Bbb    -0.0000    -0.000    -0.000    -0.000  0.0151 -0.1233  0.9923
              Bcc     0.0000     0.000     0.000     0.000  0.5256  0.8452  0.0970
 
              Baa    -0.0000    -0.000    -0.000    -0.000  0.9784 -0.1640  0.1257
     4 C(13)  Bbb     0.0000     0.000     0.000     0.000  0.0182  0.6742  0.7383
              Bcc     0.0000     0.000     0.000     0.000  0.2059  0.7201 -0.6626
 
              Baa    -0.0000    -0.000    -0.000    -0.000  0.8759 -0.4700 -0.1090
     5 C(13)  Bbb     0.0000     0.000     0.000     0.000  0.3165  0.3894  0.8650
              Bcc     0.0000     0.000     0.000     0.000  0.3641  0.7921 -0.4898
 
              Baa    -0.0000    -0.000    -0.000    -0.000 -0.2426  0.9609  0.1334
     6 C(13)  Bbb     0.0000     0.000     0.000     0.000 -0.1752 -0.1786  0.9682
              Bcc     0.0000     0.000     0.000     0.000  0.9542  0.2115  0.2117
 
              Baa    -0.0000    -0.000    -0.000    -0.000  0.3030  0.9009 -0.3107
     7 C(13)  Bbb     0.0000     0.000     0.000     0.000  0.9419 -0.3328 -0.0463
              Bcc     0.0000     0.000     0.000     0.000  0.1451  0.2787  0.9494
 
              Baa    -0.0000    -0.000    -0.000    -0.000 -0.2442  0.7828 -0.5724
     8 C(13)  Bbb    -0.0000    -0.000    -0.000    -0.000  0.0358  0.5971  0.8013
              Bcc     0.0000     0.000     0.000     0.000  0.9691  0.1752 -0.1739
 
              Baa    -0.0000    -0.000    -0.000    -0.000  0.6060  0.6526  0.4549
     9 C(13)  Bbb     0.0000     0.000     0.000     0.000 -0.4497 -0.1907  0.8726
              Bcc     0.0000     0.000     0.000     0.000 -0.6562  0.7333 -0.1779
 
              Baa    -0.0000    -0.000    -0.000    -0.000  0.6265  0.6987  0.3454
    10 C(13)  Bbb    -0.0000    -0.000    -0.000    -0.000 -0.0596 -0.3989  0.9151
              Bcc     0.0000     0.000     0.000     0.000  0.7772 -0.5938 -0.2083
 
              Baa    -0.0000    -0.000    -0.000    -0.000 -0.4110  0.8994 -0.1488
    11 C(13)  Bbb     0.0000     0.000     0.000     0.000  0.8559  0.3244 -0.4028
              Bcc     0.0000     0.000     0.000     0.000  0.3140  0.2929  0.9031
 
              Baa    -0.0000    -0.000    -0.000    -0.000  0.0276  0.8730  0.4870
    12 C(13)  Bbb    -0.0000    -0.000    -0.000    -0.000 -0.6577 -0.3510  0.6665
              Bcc     0.0000     0.000     0.000     0.000  0.7528 -0.3387  0.5645
 
              Baa    -0.0000    -0.000    -0.000    -0.000  0.5672  0.6649  0.4859
    13 C(13)  Bbb    -0.0000    -0.000    -0.000    -0.000 -0.4968  0.7468 -0.4420
              Bcc     0.0000     0.000     0.000     0.000 -0.6568  0.0093  0.7540
 
              Baa    -0.0000     0.000     0.000     0.000  0.3850  0.9227  0.0213
    14 O(17)  Bbb    -0.0000     0.000     0.000     0.000 -0.0961  0.0171  0.9952
              Bcc     0.0000    -0.000    -0.000    -0.000  0.9179 -0.3852  0.0953
 
              Baa    -0.0000     0.000     0.000     0.000  0.7415 -0.5415 -0.3962
    15 O(17)  Bbb    -0.0000     0.000     0.000     0.000  0.2678 -0.3025  0.9148
              Bcc     0.0000    -0.000    -0.000    -0.000  0.6152  0.7844  0.0792
 
              Baa    -0.0000    -0.000    -0.000    -0.000  0.1493  0.3680  0.9178
    16 H(1)   Bbb    -0.0000    -0.000    -0.000    -0.000  0.1612  0.9067 -0.3898
              Bcc     0.0000     0.000     0.000     0.000  0.9756 -0.2062 -0.0761
 
              Baa    -0.0000    -0.000    -0.000    -0.000  0.6769  0.7280 -0.1090
    17 H(1)   Bbb    -0.0000    -0.000    -0.000    -0.000  0.1764 -0.0167  0.9842
              Bcc     0.0000     0.000     0.000     0.000  0.7146 -0.6854 -0.1397
 
              Baa    -0.0000    -0.000    -0.000    -0.000  0.0678 -0.0665  0.9955
    18 H(1)   Bbb    -0.0000    -0.000    -0.000    -0.000  0.0343  0.9973  0.0643
              Bcc     0.0000     0.000     0.000     0.000  0.9971 -0.0298 -0.0699
 
              Baa    -0.0000    -0.000    -0.000    -0.000 -0.1693  0.9855 -0.0108
    19 H(1)   Bbb    -0.0000    -0.000    -0.000    -0.000  0.9554  0.1614 -0.2472
              Bcc     0.0000     0.000     0.000     0.000  0.2419  0.0522  0.9689
 
              Baa    -0.0000    -0.000    -0.000    -0.000 -0.4435  0.8932 -0.0744
    20 H(1)   Bbb     0.0000     0.000     0.000     0.000 -0.0831  0.0417  0.9957
              Bcc     0.0000     0.000     0.000     0.000  0.8924  0.4478  0.0558
 
              Baa    -0.0000    -0.000    -0.000    -0.000  0.9347  0.3425 -0.0952
    21 H(1)   Bbb     0.0000     0.000     0.000     0.000  0.0681  0.0904  0.9936
              Bcc     0.0000     0.000     0.000     0.000 -0.3489  0.9352 -0.0611
 
              Baa    -0.0000    -0.000    -0.000    -0.000  0.7516 -0.6589  0.0319
    22 H(1)   Bbb     0.0000     0.000     0.000     0.000  0.5689  0.6230 -0.5368
              Bcc     0.0000     0.000     0.000     0.000  0.3338  0.4216  0.8431
 
              Baa    -0.0000    -0.000    -0.000    -0.000  0.5605  0.6786  0.4747
    23 C(13)  Bbb     0.0000     0.000     0.000     0.000  0.7933 -0.2755 -0.5429
              Bcc     0.0000     0.000     0.000     0.000  0.2377 -0.6809  0.6928
 
              Baa    -0.0000    -0.000    -0.000    -0.000  0.8243  0.3281  0.4614
    24 S(33)  Bbb    -0.0000    -0.000    -0.000    -0.000 -0.2356 -0.5422  0.8065
              Bcc     0.0000     0.000     0.000     0.000 -0.5148  0.7735  0.3697
 
              Baa    -0.0000     0.000     0.000     0.000  0.6617  0.6134 -0.4312
    25 O(17)  Bbb     0.0000    -0.000    -0.000    -0.000 -0.2287  0.7128  0.6630
              Bcc     0.0000    -0.000    -0.000    -0.000  0.7141 -0.3400  0.6120
 
              Baa    -0.0000     0.000     0.000     0.000  0.7931 -0.3053  0.5270
    26 O(17)  Bbb    -0.0000     0.000     0.000     0.000  0.5638  0.6953 -0.4457
              Bcc     0.0000    -0.000    -0.000    -0.000 -0.2304  0.6506  0.7236
 
              Baa    -0.0000     0.000     0.000     0.000  0.3384  0.8285 -0.4462
    27 O(17)  Bbb     0.0000    -0.000    -0.000    -0.000 -0.4202  0.5573  0.7161
              Bcc     0.0000    -0.000    -0.000    -0.000  0.8420 -0.0549  0.5367
 
              Baa    -0.0000    -0.000    -0.000    -0.000  0.4835  0.5351  0.6927
    28 C(13)  Bbb    -0.0000    -0.000    -0.000    -0.000  0.8547 -0.4596 -0.2415
              Bcc     0.0000     0.000     0.000     0.000  0.1891  0.7088 -0.6795
 
              Baa    -0.0000    -0.000    -0.000    -0.000  0.9517  0.1735 -0.2533
    29 H(1)   Bbb    -0.0000    -0.000    -0.000    -0.000 -0.2292  0.9504 -0.2103
              Bcc     0.0000     0.000     0.000     0.000  0.2042  0.2582  0.9443
 
              Baa    -0.0000    -0.000    -0.000    -0.000  0.7494 -0.5208  0.4087
    30 H(1)   Bbb    -0.0000    -0.000    -0.000    -0.000  0.6620  0.5970 -0.4532
              Bcc     0.0000     0.000     0.000     0.000 -0.0080  0.6102  0.7922
 
              Baa    -0.0000    -0.000    -0.000    -0.000 -0.6056  0.5129  0.6084
    31 H(1)   Bbb     0.0000     0.000     0.000     0.000  0.7060 -0.0064  0.7082
              Bcc     0.0000     0.000     0.000     0.000  0.3671  0.8584 -0.3582
 

 ---------------------------------------------------------------------------------

 No NMR shielding tensors so no spin-rotation constants.
 Leave Link  601 at Tue Jan 16 06:34:59 2024, MaxMem=  4026531840 cpu:               7.5 elap:               1.2
 (Enter /sysapps/ubuntu-applications/gaussian/Gaussian/AVX2/g16/l9999.exe)
 1\1\GINC-ACIDSCN027\SP\UB3LYP\6-311++G(d,p)\C15H10O5S1(2-)\SELHAJJ1\16
 -Jan-2024\0\\#P UB3LYP/6-311++G(d,p) SCRF=(PCM,Solvent=n,n-DiMethylFor
 mamide)\\Reduced\\-2,1\C,0,5.025098,-2.373804,0.578119\C,0,5.830999,-1
 .692709,-0.315222\C,0,5.231007,-0.894812,-1.321274\C,0,3.615997,-2.300
 077,0.519629\C,0,3.004232,-1.491863,-0.499401\C,0,3.856043,-0.804619,-
 1.400921\C,0,2.826188,-3.045426,1.500934\C,0,1.381883,-2.902507,1.3477
 91\C,0,0.782923,-2.073461,0.301452\C,0,1.556273,-1.345743,-0.650502\C,
 0,0.550686,-3.587466,2.233625\C,0,-0.64395,-2.007808,0.253873\C,0,-1.4
 55154,-2.672666,1.130388\O,0,3.368139,-3.752168,2.400661\O,0,1.054332,
 -0.612517,-1.57805\H,0,5.44755,-2.993923,1.3624\H,0,6.914196,-1.767583
 ,-0.248029\H,0,5.855839,-0.353813,-2.02982\H,0,-2.533994,-2.590623,1.0
 86112\H,0,3.365126,-0.202826,-2.158846\H,0,1.020596,-4.200165,2.994026
 \H,0,-1.068043,-1.382213,-0.524936\C,0,-0.841934,-3.476014,2.161185\S,
 0,-1.827197,-4.40535,3.212911\O,0,-1.133055,-4.85883,4.429696\O,0,-3.1
 78455,-3.830665,3.368261\O,0,-2.103046,-5.85424,2.312548\C,0,-2.988233
 ,-6.786173,2.925053\H,0,-2.598335,-7.128735,3.890864\H,0,-3.058866,-7.
 639216,2.242001\H,0,-3.984597,-6.352026,3.067831\\Version=ES64L-G16Rev
 A.03\State=1-A\HF=-1352.4130365\S2=0.\S2-1=0.\S2A=0.\RMSD=3.363e-09\Di
 pole=-1.1969732,-2.2389939,0.7066316\Quadrupole=-3.7987298,13.0290588,
 -9.230329,-0.3691999,9.9954134,22.7908944\PG=C01 [X(C15H10O5S1)]\\@


 If fifty million people say a stupid thing,
 it is still a stupid thing.
                   -- Anatole France
 Job cpu time:       0 days  0 hours 39 minutes 30.0 seconds.
 Elapsed time:       0 days  0 hours  5 minutes  0.5 seconds.
 File lengths (MBytes):  RWF=    399 Int=      0 D2E=      0 Chk=     22 Scr=      1
 Normal termination of Gaussian 16 at Tue Jan 16 06:34:59 2024.
