
Running Job 1 of 1 123-an-SM12.in
qchem 123-an-SM12.in_1674828.0 /expanse/lustre/scratch/selhajj/temp_project/qcscratch/28445624/qchem1674828/ 0
/cm/shared/apps/spack/cpu/opt/spack/linux-centos8-zen2/gcc-10.2.0/qchem-5.4-akfmr7b3t57bfs6qan3padb2wnb2i7cl/exe/qcprog.exe_s 123-an-SM12.in_1674828.0 /expanse/lustre/scratch/selhajj/temp_project/qcscratch/28445624/qchem1674828/
                  Welcome to Q-Chem
     A Quantum Leap Into The Future Of Chemistry


 Q-Chem 5.4, Q-Chem, Inc., Pleasanton, CA (2021)

 License issued to: University of California, San Diego (site)

 E. Epifanovsky,  A. T. B. Gilbert,  Xintian Feng,  Joonho Lee,  Yuezhi Mao,  
 N. Mardirossian,  P. Pokhilko,  A. White,  M. Wormit,  M. P. Coons,  
 A. L. Dempwolff,  Zhengting Gan,  D. Hait,  P. R. Horn,  L. D. Jacobson,  
 I. Kaliman,  J. Kussmann,  A. W. Lange,  Ka Un Lao,  D. S. Levine,  Jie Liu,  
 S. C. McKenzie,  A. F. Morrison,  K. Nanda,  F. Plasser,  D. R. Rehn,  
 M. L. Vidal,  Zhi-Qiang You,  Ying Zhu,  B. Alam,  B. Albrecht,  
 A. Aldossary,  E. Alguire,  J. H. Andersen,  D. Barton,  K. Begam,  A. Behn,  
 Y. A. Bernard,  E. J. Berquist,  H. Burton,  A. Carreras,  K. Carter-Fenk,  
 R. Chakraborty,  A. D. Chien,  K. D. Closser,  V. Cofer-Shabica,  
 S. Dasgupta,  Jia Deng,  M. de Wergifosse,  M. Diedenhofen,  Hainam Do,  
 S. Ehlert,  Po-Tung Fang,  S. Fatehi,  Qingguo Feng,  J. Gayvert,  
 Qinghui Ge,  G. Gidofalvi,  M. Goldey,  J. Gomes,  C. Gonzalez-Espinoza,  
 S. Gulania,  A. Gunina,  M. W. D. Hanson-Heine,  P. H. P. Harbach,  
 A. W. Hauser,  M. F. Herbst,  M. Hernandez Vera,  M. Hodecker,  
 Z. C. Holden,  S. Houck,  Xunkun Huang,  Kerwin Hui,  B. C. Huynh,  
 M. Ivanov,  Hyunjun Ji,  Hanjie Jiang,  B. Kaduk,  S. Kaehler,  
 K. Khistyaev,  Jaehoon Kim,  P. Klunzinger,  Z. Koczor-Benda,  
 Joong Hoon Koh,  D. Kosenkov,  L. Koulias,  T. Kowalczyk,  C. M. Krauter,  
 K. Kue,  A. Kunitsa,  T. Kus,  A. Landau,  K. V. Lawler,  D. Lefrancois,  
 S. Lehtola,  Rain Li,  Yi-Pei Li,  Jiashu Liang,  M. Liebenthal,  
 Hung-Hsuan Lin,  You-Sheng Lin,  Fenglai Liu,  Kuan-Yu Liu,  
 M. Loipersberger,  A. Luenser,  A. Manjanath,  P. Manohar,  E. Mansoor,  
 S. F. Manzer,  Shan-Ping Mao,  A. V. Marenich,  T. Markovich,  S. Mason,  
 S. A. Maurer,  P. F. McLaughlin,  M. F. S. J. Menger,  J.-M. Mewes,  
 S. A. Mewes,  P. Morgante,  J. W. Mullinax,  T. S. Nguyen-Beck,  
 K. J. Oosterbaan,  G. Paran,  Alexander C. Paul,  Suranjan K. Paul,  
 F. Pavosevic,  Zheng Pei,  S. Prager,  E. I. Proynov,  E. Ramos,  B. Rana,  
 A. E. Rask,  A. Rettig,  R. M. Richard,  F. Rob,  E. Rossomme,  T. Scheele,  
 M. Scheurer,  M. Schneider,  N. Sergueev,  S. M. Sharada,  W. Skomorowski,  
 D. W. Small,  C. J. Stein,  Yu-Chuan Su,  E. J. Sundstrom,  Zhen Tao,  
 J. Thirman,  T. Tsuchimochi,  N. M. Tubman,  S. P. Veccham,  O. Vydrov,  
 J. Wenzel,  J. Witte,  A. Yamada,  Kun Yao,  S. Yeganeh,  S. R. Yost,  
 A. Zech,  Igor Ying Zhang,  Xing Zhang,  Yu Zhang,  D. Zuev,  
 A. Aspuru-Guzik,  A. T. Bell,  N. A. Besley,  K. B. Bravaya,  B. R. Brooks,  
 D. Casanova,  Jeng-Da Chai,  S. Coriani,  C. J. Cramer,  
 A. E. DePrince, III,  R. A. DiStasio Jr.,  A. Dreuw,  B. D. Dunietz,  
 T. R. Furlani,  W. A. Goddard III,  S. Grimme,  S. Hammes-Schiffer,  
 T. Head-Gordon,  W. J. Hehre,  Chao-Ping Hsu,  T.-C. Jagau,  Yousung Jung,  
 A. Klamt,  Jing Kong,  D. S. Lambrecht,  WanZhen Liang,  N. J. Mayhall,  
 C. W. McCurdy,  J. B. Neaton,  C. Ochsenfeld,  J. A. Parkhill,  R. Peverati,  
 V. A. Rassolov,  Yihan Shao,  L. V. Slipchenko,  T. Stauch,  R. P. Steele,  
 J. E. Subotnik,  A. J. W. Thom,  A. Tkatchenko,  D. G. Truhlar,  
 T. Van Voorhis,  T. A. Wesolowski,  K. B. Whaley,  H. L. Woodcock III,  
 P. M. Zimmerman,  S. Faraji,  P. M. W. Gill,  M. Head-Gordon,  
 J. M. Herbert,  A. I. Krylov

 Contributors to earlier versions of Q-Chem not listed above: 
 R. D. Adamson,  B. Austin,  R. Baer,  J. Baker,  G. J. O. Beran,  
 K. Brandhorst,  S. T. Brown,  E. F. C. Byrd,  A. K. Chakraborty,  
 G. K. L. Chan,  Chun-Min Chang,  Yunqing Chen,  C.-L. Cheng,  
 Siu Hung Chien,  D. M. Chipman,  D. L. Crittenden,  H. Dachsel,  
 R. J. Doerksen,  A. D. Dutoi,  R. G. Edgar,  J. Fosso-Tande,  
 L. Fusti-Molnar,  D. Ghosh,  A. Ghysels,  A. Golubeva-Zadorozhnaya,  
 J. Gonthier,  M. S. Gordon,  S. R. Gwaltney,  G. Hawkins,  J. E. Herr,  
 A. Heyden,  S. Hirata,  E. G. Hohenstein,  G. Kedziora,  F. J. Keil,  
 C. Kelley,  Jihan Kim,  R. A. King,  R. Z. Khaliullin,  P. P. Korambath,  
 W. Kurlancheek,  A. Laurent,  A. M. Lee,  M. S. Lee,  S. V. Levchenko,  
 Ching Yeh Lin,  D. Liotard,  E. Livshits,  R. C. Lochan,  I. Lotan,  
 L. A. Martinez-Martinez,  P. E. Maslen,  N. Nair,  D. P. O'Neill,  
 D. Neuhauser,  E. Neuscamman,  C. M. Oana,  R. Olivares-Amaya,  R. Olson,  
 T. M. Perrine,  B. Peters,  P. A. Pieniazek,  A. Prociuk,  Y. M. Rhee,  
 J. Ritchie,  M. A. Rohrdanz,  E. Rosta,  N. J. Russ,  H. F. Schaefer III,  
 M. W. Schmidt,  N. E. Schultz,  S. Sharma,  N. Shenvi,  C. D. Sherrill,  
 A. C. Simmonett,  A. Sodt,  T. Stein,  D. Stuck,  K. S. Thanthiriwatte,  
 V. Vanovschi,  L. Vogt,  Tao Wang,  A. Warshel,  M. A. Watson,  
 C. F. Williams,  Q. Wu,  X. Xu,  Jun Yang,  W. Zhang,  Yan Zhao

 Please cite Q-Chem as follows:
 Y. Shao et al., Mol. Phys. 113, 184-215 (2015)
 DOI: 10.1080/00268976.2014.952696

 Q-Chem 5.4.0 for Intel X86 EM64T Linux

 Parts of Q-Chem use Armadillo 9.800.1 (Horizon Scraper).
 http://arma.sourceforge.net/

 Q-Chem begins on Sat Feb  3 11:23:27 2024  

 Host: 
0

     Scratch files written to /expanse/lustre/scratch/selhajj/temp_project/qcscratch/28445624/qchem1674828//
 May1621 |scratch|qcdevops|jenkins|workspace|build_RNUM    
 Processing $rem in /cm/shared/apps/spack/cpu/opt/spack/linux-centos8-zen2/gcc-10.2.0/qchem-5.4-akfmr7b3t57bfs6qan3padb2wnb2i7cl/config/preferences:
 Processing $rem in /home/selhajj/.qchemrc:
 Symmetry turned off for PCM/SM12/SMD calculation
 Method-specific promolecule density matrix will be built for SM12 calculation

 Checking the input file for inconsistencies... 	...done.

--------------------------------------------------------------
User input:
--------------------------------------------------------------
$molecule
-2 1
C                 -2.8843430000     -1.9256500000     -0.1399690000
C                 -2.3917450000     -0.4940100000     -0.0503840000
C                 -3.3514160000      0.4996790000      0.0495630000
C                 -2.9957740000      1.8747440000      0.1380710000
C                 -1.6678480000      2.2241300000      0.1236060000
C                 -0.6322060000      1.2569960000      0.0233770000
C                  0.7284020000      1.7460540000      0.0179440000
O                  1.0207300000      3.0016830000      0.0989360000
C                  1.7355600000      0.7202780000     -0.0853430000
C                  3.1082530000      1.0848350000     -0.1003040000
C                  4.1194270000      0.1519860000     -0.1968450000
C                  3.7904770000     -1.2326100000     -0.2856410000
C                  2.4653880000     -1.6186260000     -0.2736850000
C                  1.3993560000     -0.6867970000     -0.1756110000
C                  0.0372440000     -1.1821670000     -0.1704800000
O                 -0.2093850000     -2.4479010000     -0.2532060000
C                 -0.9881120000     -0.1621640000     -0.0676740000
H                 -3.9843070000     -1.9377750000     -0.1088890000
H                 -2.4865440000     -2.5394440000      0.6709340000
H                 -2.5367710000     -2.4140540000     -1.0527850000
H                 -4.4031650000      0.2149510000      0.0598890000
H                 -3.7724310000      2.6346710000      0.2158680000
H                 -1.3448710000      3.2585020000      0.1883500000
H                  3.3215750000      2.1475360000     -0.0309530000
H                  5.1619260000      0.4683670000     -0.2053660000
H                  4.5803790000     -1.9788840000     -0.3622880000
H                  2.1802020000     -2.6643340000     -0.3397380000
$end

$rem
BASIS  =  6-311++G(d,p)
GUI  =  2
JOB_TYPE  =  SP
METHOD  =  B3LYP
SCF_CONVERGENCE  = 8
SOLVENT_METHOD = sm12
$end

$smx
solvent dimethylformamide
charges CM5
$end





--------------------------------------------------------------
 ----------------------------------------------------------------
             Standard Nuclear Orientation (Angstroms)
    I     Atom           X                Y                Z
 ----------------------------------------------------------------
    1      C      -2.8843430000    -1.9256500000    -0.1399690000
    2      C      -2.3917450000    -0.4940100000    -0.0503840000
    3      C      -3.3514160000     0.4996790000     0.0495630000
    4      C      -2.9957740000     1.8747440000     0.1380710000
    5      C      -1.6678480000     2.2241300000     0.1236060000
    6      C      -0.6322060000     1.2569960000     0.0233770000
    7      C       0.7284020000     1.7460540000     0.0179440000
    8      O       1.0207300000     3.0016830000     0.0989360000
    9      C       1.7355600000     0.7202780000    -0.0853430000
   10      C       3.1082530000     1.0848350000    -0.1003040000
   11      C       4.1194270000     0.1519860000    -0.1968450000
   12      C       3.7904770000    -1.2326100000    -0.2856410000
   13      C       2.4653880000    -1.6186260000    -0.2736850000
   14      C       1.3993560000    -0.6867970000    -0.1756110000
   15      C       0.0372440000    -1.1821670000    -0.1704800000
   16      O      -0.2093850000    -2.4479010000    -0.2532060000
   17      C      -0.9881120000    -0.1621640000    -0.0676740000
   18      H      -3.9843070000    -1.9377750000    -0.1088890000
   19      H      -2.4865440000    -2.5394440000     0.6709340000
   20      H      -2.5367710000    -2.4140540000    -1.0527850000
   21      H      -4.4031650000     0.2149510000     0.0598890000
   22      H      -3.7724310000     2.6346710000     0.2158680000
   23      H      -1.3448710000     3.2585020000     0.1883500000
   24      H       3.3215750000     2.1475360000    -0.0309530000
   25      H       5.1619260000     0.4683670000    -0.2053660000
   26      H       4.5803790000    -1.9788840000    -0.3622880000
   27      H       2.1802020000    -2.6643340000    -0.3397380000
 ----------------------------------------------------------------
 Nuclear Repulsion Energy =        1093.07910615 hartrees
 There are       59 alpha and       59 beta electrons
 Requested basis set is 6-311++G(d,p)
 There are 152 shells and 444 basis functions

 Total QAlloc Memory Limit   8000 MB
 Mega-Array Size       188 MB
 MEM_STATIC part       192 MB
 A cutoff of  1.0D-11 yielded   9158 shell pairs
 There are     81319 function pairs (     87270 Cartesian)
 Smallest overlap matrix eigenvalue = 4.85E-08

 Q-Chem warning in module stvman/mkSTV.C, line 323:

 Overlap eigenvalue is smaller than square root of threshold
 Use THRESH >= 12 to get rid of this warning

 Linear dependence detected in AO basis
 Tighter screening thresholds may be required for diffuse basis sets
 Use S2THRESH > 14 and THRESH = 14 in case of SCF convergence issues
 Number of orthogonalized atomic orbitals = 437
 Maximum deviation from orthogonality = 2.016E-10

 Scale SEOQF with 1.000000e-02/1.000000e-01/1.000000e-01

 Standard Electronic Orientation quadrupole field applied
 Nucleus-field energy     =     0.0000000248 hartrees
 ================ Generating on-the-fly Promolecule Density  ================
Attempting to make child job directory: /expanse/lustre/scratch/selhajj/temp_project/qcscratch/28445624/qchem1674828//Frg1/
Attempting to make child job directory: /expanse/lustre/scratch/selhajj/temp_project/qcscratch/28445624/qchem1674828//Frg2/
Attempting to make child job directory: /expanse/lustre/scratch/selhajj/temp_project/qcscratch/28445624/qchem1674828//Frg3/
Creating input file /expanse/lustre/scratch/selhajj/temp_project/qcscratch/28445624/qchem1674828/Frg1.input
using default PutDataFrgm: nothing
calling putenv with: QCSCRATCH=/expanse/lustre/scratch/selhajj/temp_project/qcscratch/28445624/qchem1674828/ 
Spawning Job For Fragment 0
Done Job For Fragment 0
calling putenv with: QCSCRATCH=/expanse/lustre/scratch/selhajj/temp_project/qcscratch/28445624 
calling putenv with: QCTHREADS=8 
Creating input file /expanse/lustre/scratch/selhajj/temp_project/qcscratch/28445624/qchem1674828/Frg2.input
using default PutDataFrgm: nothing
calling putenv with: QCSCRATCH=/expanse/lustre/scratch/selhajj/temp_project/qcscratch/28445624/qchem1674828/ 
Spawning Job For Fragment 1
Done Job For Fragment 1
calling putenv with: QCSCRATCH=/expanse/lustre/scratch/selhajj/temp_project/qcscratch/28445624 
calling putenv with: QCTHREADS=8 
Creating input file /expanse/lustre/scratch/selhajj/temp_project/qcscratch/28445624/qchem1674828/Frg3.input
using default PutDataFrgm: nothing
calling putenv with: QCSCRATCH=/expanse/lustre/scratch/selhajj/temp_project/qcscratch/28445624/qchem1674828/ 
Spawning Job For Fragment 2
Done Job For Fragment 2
calling putenv with: QCSCRATCH=/expanse/lustre/scratch/selhajj/temp_project/qcscratch/28445624 
calling putenv with: QCTHREADS=8 
 Time for running child jobs:  CPU 0.01 s  wall 27.21 s
 ============= Method Specific Promolecule Density Constructed =============
 Guess from superposition of atomic densities
 Warning:  Energy on first SCF cycle will be non-variational
 SAD guess density has 116.000000 electrons

 -----------------------------------------------------------------------
  General SCF calculation program by
  Eric Jon Sundstrom, Paul Horn, Yuezhi Mao, Dmitri Zuev, Alec White,
  David Stuck, Shaama M.S., Shane Yost, Joonho Lee, David Small,
  Daniel Levine, Susi Lehtola, Hugh Burton, Evgeny Epifanovsky,
  Bang C. Huynh
 -----------------------------------------------------------------------
 Exchange:     0.2000 Hartree-Fock + 0.0800 Slater + 0.7200 B88
 Correlation:  0.1900 VWN1RPA + 0.8100 LYP
 Using SG-1 standard quadrature grid
 using 8 threads for integral computing
 -------------------------------------------------------
 OpenMP Integral computing Module                
 Release: version 1.0, May 2013, Q-Chem Inc. Pittsburgh 
 -------------------------------------------------------
 
 SM12 calculation using CM5 charges
 Citation of the SM12 model:
 Marenich, A.V.; Cramer, C.J.; Truhlar, D.G.
 J. Chem. Theory Comput. 2013, 9, 609-612.
 iSolventCode=          91
 Solvent: dimethylformamide                                               
 
Hirshfeld: reading atomic densities from disk.
warning:  vdwdata pointer should have been initialzed before dftman
 Inaccurate integrated density:
   Number of electrons =   118
   Numerical integral  =   116.004016033837
   Relative error      =    -1.6915118357 %

 Charges (in A.U.) from CM5PAC (Nov. 11, 2011)
 -----------------------------------------------
 Center     Atomic      CM5         Hirshfeld
 Number     Number      Charge      Charge
 -----------------------------------------------
    1          6       -0.145809   -0.003976
    2          6       -0.016206   -0.002873
    3          6       -0.055316   -0.002295
    4          6       -0.057602   -0.003044
    5          6       -0.052047   -0.000784
    6          6       -0.002269   -0.000335
    7          6        0.034299    0.006766
    8          8       -0.061575   -0.017219
    9          6       -0.002509   -0.000536
   10          6       -0.052061   -0.000770
   11          6       -0.057617   -0.003061
   12          6       -0.057643   -0.003075
   13          6       -0.051936   -0.000692
   14          6       -0.002277   -0.000350
   15          6        0.034538    0.006758
   16          8       -0.068402   -0.019427
   17          6        0.000513    0.000182
   18          1        0.054146    0.002391
   19          1        0.061086    0.004891
   20          1        0.061008    0.004832
   21          1        0.059060    0.002989
   22          1        0.057949    0.003034
   23          1        0.067529    0.005580
   24          1        0.066273    0.005432
   25          1        0.057887    0.003022
   26          1        0.057889    0.003013
   27          1        0.067078    0.005533
 -----------------------------------------------

 Dipole moment (in Debye)
 -----------------------------------------------
                 X        Y        Z     Total
 -----------------------------------------------
 CM5         -0.1539  -0.0960  -0.0012   0.1814
 Hirshfeld   -0.0393  -0.0305   0.0007   0.0497
 -----------------------------------------------

 A restricted SCF calculation will be
 performed using DIIS
 SCF converges when DIIS error is below 1.0e-08
 ---------------------------------------
  Cycle       Energy         DIIS error
 ---------------------------------------
Hirshfeld: reading atomic densities from disk.

 Charges (in A.U.) from CM5PAC (Nov. 11, 2011)
 -----------------------------------------------
 Center     Atomic      CM5         Hirshfeld
 Number     Number      Charge      Charge
 -----------------------------------------------
    1          6       -0.428919   -0.287086
    2          6       -0.040090   -0.026757
    3          6       -0.231772   -0.178750
    4          6       -0.211483   -0.156925
    5          6       -0.224869   -0.173606
    6          6       -0.116155   -0.114221
    7          6        0.109281    0.081748
    8          8       -0.748746   -0.704391
    9          6       -0.118632   -0.116659
   10          6       -0.201753   -0.150461
   11          6       -0.203027   -0.148471
   12          6       -0.205879   -0.151312
   13          6       -0.203349   -0.152104
   14          6       -0.118530   -0.116603
   15          6        0.126891    0.099111
   16          8       -0.729848   -0.680874
   17          6       -0.095288   -0.095619
   18          1        0.158402    0.106647
   19          1        0.147773    0.091578
   20          1        0.147794    0.091618
   21          1        0.172121    0.116050
   22          1        0.177364    0.122449
   23          1        0.160866    0.098917
   24          1        0.163164    0.102323
   25          1        0.176110    0.121245
   26          1        0.175608    0.120732
   27          1        0.161537    0.099993
 -----------------------------------------------

 Dipole moment (in Debye)
 -----------------------------------------------
                 X        Y        Z     Total
 -----------------------------------------------
 CM5         -3.6855  -3.5722   0.6698   5.1761
 Hirshfeld   -3.5709  -3.5067   0.6717   5.0497
 -----------------------------------------------

    1    -732.1239279664      3.12e-02  
Hirshfeld: reading atomic densities from disk.

 Charges (in A.U.) from CM5PAC (Nov. 11, 2011)
 -----------------------------------------------
 Center     Atomic      CM5         Hirshfeld
 Number     Number      Charge      Charge
 -----------------------------------------------
    1          6       -0.187320   -0.045487
    2          6       -0.014812   -0.001479
    3          6       -0.190068   -0.137047
    4          6       -0.351433   -0.296875
    5          6       -0.272797   -0.221534
    6          6        0.093169    0.095103
    7          6       -0.018495   -0.046029
    8          8        1.627121    1.671476
    9          6        0.097956    0.099929
   10          6       -0.257947   -0.206655
   11          6       -0.284733   -0.230176
   12          6       -0.265268   -0.210700
   13          6       -0.216330   -0.165086
   14          6        0.111425    0.113352
   15          6        0.038097    0.010317
   16          8        1.800824    1.849799
   17          6        0.082539    0.082208
   18          1       -0.317881   -0.369636
   19          1       -0.133607   -0.189801
   20          1       -0.133886   -0.190062
   21          1       -0.348812   -0.404883
   22          1       -0.553971   -0.608886
   23          1       -0.582653   -0.644602
   24          1       -0.522479   -0.583320
   25          1       -0.382553   -0.437418
   26          1       -0.359076   -0.413951
   27          1       -0.451307   -0.512851
 -----------------------------------------------

 Dipole moment (in Debye)
 -----------------------------------------------
                 X        Y        Z     Total
 -----------------------------------------------
 CM5          3.2329  -8.0937   0.1580   8.7169
 Hirshfeld    3.3475  -8.0281   0.1600   8.6996
 -----------------------------------------------

    2    -727.7588193195      4.30e-03  
Hirshfeld: reading atomic densities from disk.

 Charges (in A.U.) from CM5PAC (Nov. 11, 2011)
 -----------------------------------------------
 Center     Atomic      CM5         Hirshfeld
 Number     Number      Charge      Charge
 -----------------------------------------------
    1          6       -0.125783    0.016050
    2          6       -0.023689   -0.010357
    3          6       -0.026101    0.026920
    4          6       -0.035490    0.019068
    5          6       -0.068570   -0.017307
    6          6       -0.060637   -0.058703
    7          6       -0.072663   -0.100197
    8          8       -0.813542   -0.769187
    9          6       -0.057763   -0.055790
   10          6       -0.064114   -0.012823
   11          6       -0.029671    0.024885
   12          6       -0.027958    0.026610
   13          6       -0.063645   -0.012401
   14          6       -0.058886   -0.056959
   15          6       -0.081147   -0.108927
   16          8       -0.820479   -0.771504
   17          6       -0.059923   -0.060254
   18          1        0.050510   -0.001245
   19          1        0.045534   -0.010661
   20          1        0.045474   -0.010702
   21          1        0.047869   -0.008202
   22          1        0.047372   -0.007543
   23          1        0.047689   -0.014260
   24          1        0.050881   -0.009960
   25          1        0.051279   -0.003586
   26          1        0.051099   -0.003777
   27          1        0.050630   -0.010915
 -----------------------------------------------

 Dipole moment (in Debye)
 -----------------------------------------------
                 X        Y        Z     Total
 -----------------------------------------------
 CM5         -3.6589  -2.7975   0.7250   4.6625
 Hirshfeld   -3.5442  -2.7320   0.7269   4.5337
 -----------------------------------------------

    3    -722.5297239104      1.15e-02  
Hirshfeld: reading atomic densities from disk.

 Charges (in A.U.) from CM5PAC (Nov. 11, 2011)
 -----------------------------------------------
 Center     Atomic      CM5         Hirshfeld
 Number     Number      Charge      Charge
 -----------------------------------------------
    1          6       -0.234454   -0.092621
    2          6       -0.031884   -0.018551
    3          6       -0.163188   -0.110166
    4          6       -0.155285   -0.100727
    5          6       -0.137476   -0.086213
    6          6       -0.096096   -0.094162
    7          6        0.031930    0.004396
    8          8       -0.644231   -0.599876
    9          6       -0.093887   -0.091914
   10          6       -0.125642   -0.074351
   11          6       -0.149077   -0.094521
   12          6       -0.152671   -0.098103
   13          6       -0.123763   -0.072519
   14          6       -0.093279   -0.091352
   15          6        0.049162    0.021382
   16          8       -0.620636   -0.571662
   17          6       -0.081135   -0.081467
   18          1        0.074428    0.022673
   19          1        0.078235    0.022040
   20          1        0.078190    0.022014
   21          1        0.083262    0.027191
   22          1        0.086388    0.031473
   23          1        0.078370    0.016422
   24          1        0.081560    0.020719
   25          1        0.089391    0.034526
   26          1        0.088789    0.033913
   27          1        0.081319    0.019774
 -----------------------------------------------

 Dipole moment (in Debye)
 -----------------------------------------------
                 X        Y        Z     Total
 -----------------------------------------------
 CM5         -3.4616  -3.4384   0.6742   4.9254
 Hirshfeld   -3.3470  -3.3729   0.6761   4.7996
 -----------------------------------------------

    4    -727.9233518059      3.59e-03  
Hirshfeld: reading atomic densities from disk.

 Charges (in A.U.) from CM5PAC (Nov. 11, 2011)
 -----------------------------------------------
 Center     Atomic      CM5         Hirshfeld
 Number     Number      Charge      Charge
 -----------------------------------------------
    1          6       -0.267089   -0.125255
    2          6       -0.038621   -0.025289
    3          6       -0.127740   -0.074719
    4          6       -0.133594   -0.079036
    5          6       -0.150231   -0.098968
    6          6       -0.072530   -0.070596
    7          6       -0.013181   -0.040714
    8          8       -0.534302   -0.489946
    9          6       -0.067386   -0.065412
   10          6       -0.141977   -0.090685
   11          6       -0.128104   -0.073547
   12          6       -0.125181   -0.070613
   13          6       -0.144001   -0.092757
   14          6       -0.071378   -0.069451
   15          6       -0.025427   -0.053207
   16          8       -0.516598   -0.467624
   17          6       -0.077040   -0.077372
   18          1        0.063250    0.011495
   19          1        0.075187    0.018992
   20          1        0.075142    0.018966
   21          1        0.058436    0.002365
   22          1        0.058756    0.003841
   23          1        0.058254   -0.003694
   24          1        0.060431   -0.000410
   25          1        0.061023    0.006158
   26          1        0.060450    0.005575
   27          1        0.061740    0.000195
 -----------------------------------------------

 Dipole moment (in Debye)
 -----------------------------------------------
                 X        Y        Z     Total
 -----------------------------------------------
 CM5         -3.1662  -2.7617   0.7146   4.2617
 Hirshfeld   -3.0516  -2.6962   0.7166   4.1346
 -----------------------------------------------

    5    -728.1930542071      1.23e-03  
Hirshfeld: reading atomic densities from disk.

 Charges (in A.U.) from CM5PAC (Nov. 11, 2011)
 -----------------------------------------------
 Center     Atomic      CM5         Hirshfeld
 Number     Number      Charge      Charge
 -----------------------------------------------
    1          6       -0.224799   -0.082966
    2          6       -0.027758   -0.014426
    3          6       -0.177291   -0.124270
    4          6       -0.168520   -0.113962
    5          6       -0.136555   -0.085292
    6          6       -0.082058   -0.080124
    7          6        0.022099   -0.005435
    8          8       -0.548763   -0.504408
    9          6       -0.080963   -0.078990
   10          6       -0.128034   -0.076742
   11          6       -0.164345   -0.109789
   12          6       -0.171629   -0.117061
   13          6       -0.123429   -0.072184
   14          6       -0.076733   -0.074806
   15          6        0.052703    0.024923
   16          8       -0.494614   -0.445640
   17          6       -0.068011   -0.068343
   18          1        0.050387   -0.001369
   19          1        0.065176    0.008982
   20          1        0.065131    0.008955
   21          1        0.057711    0.001640
   22          1        0.060126    0.005211
   23          1        0.056594   -0.005355
   24          1        0.059225   -0.001616
   25          1        0.062502    0.007637
   26          1        0.060886    0.006010
   27          1        0.059238   -0.002307
 -----------------------------------------------

 Dipole moment (in Debye)
 -----------------------------------------------
                 X        Y        Z     Total
 -----------------------------------------------
 CM5         -3.4261  -3.6460   0.6593   5.0464
 Hirshfeld   -3.3115  -3.5805   0.6613   4.9217
 -----------------------------------------------

    6    -728.2275039333      5.34e-04  
Hirshfeld: reading atomic densities from disk.

 Charges (in A.U.) from CM5PAC (Nov. 11, 2011)
 -----------------------------------------------
 Center     Atomic      CM5         Hirshfeld
 Number     Number      Charge      Charge
 -----------------------------------------------
    1          6       -0.239416   -0.097583
    2          6       -0.038284   -0.024951
    3          6       -0.160018   -0.106996
    4          6       -0.159790   -0.105232
    5          6       -0.141890   -0.090627
    6          6       -0.087047   -0.085113
    7          6        0.022654   -0.004879
    8          8       -0.515199   -0.470843
    9          6       -0.082696   -0.080723
   10          6       -0.133282   -0.081991
   11          6       -0.155836   -0.101280
   12          6       -0.156033   -0.101465
   13          6       -0.133746   -0.082501
   14          6       -0.085626   -0.083698
   15          6        0.025005   -0.002775
   16          8       -0.493389   -0.444415
   17          6       -0.081045   -0.081376
   18          1        0.055403    0.003648
   19          1        0.068498    0.012303
   20          1        0.068451    0.012275
   21          1        0.059097    0.003026
   22          1        0.060536    0.005621
   23          1        0.057377   -0.004572
   24          1        0.059614   -0.001226
   25          1        0.062471    0.007606
   26          1        0.061540    0.006665
   27          1        0.060919   -0.000626
 -----------------------------------------------

 Dipole moment (in Debye)
 -----------------------------------------------
                 X        Y        Z     Total
 -----------------------------------------------
 CM5         -3.2292  -2.9518   0.7031   4.4312
 Hirshfeld   -3.1146  -2.8863   0.7050   4.3045
 -----------------------------------------------

    7    -728.2375300231      2.42e-04  
Hirshfeld: reading atomic densities from disk.

 Charges (in A.U.) from CM5PAC (Nov. 11, 2011)
 -----------------------------------------------
 Center     Atomic      CM5         Hirshfeld
 Number     Number      Charge      Charge
 -----------------------------------------------
    1          6       -0.243321   -0.101488
    2          6       -0.033995   -0.020662
    3          6       -0.164225   -0.111203
    4          6       -0.160346   -0.105788
    5          6       -0.144798   -0.093535
    6          6       -0.082550   -0.080616
    7          6        0.015156   -0.012377
    8          8       -0.527641   -0.483286
    9          6       -0.079391   -0.077417
   10          6       -0.135972   -0.084680
   11          6       -0.156076   -0.101520
   12          6       -0.159772   -0.105205
   13          6       -0.133866   -0.082621
   14          6       -0.079073   -0.077146
   15          6        0.029479    0.001699
   16          8       -0.484398   -0.435424
   17          6       -0.074368   -0.074700
   18          1        0.055316    0.003561
   19          1        0.068900    0.012705
   20          1        0.068856    0.012680
   21          1        0.058589    0.002518
   22          1        0.060666    0.005751
   23          1        0.057389   -0.004559
   24          1        0.059686   -0.001155
   25          1        0.062557    0.007692
   26          1        0.061187    0.006311
   27          1        0.060282   -0.001263
 -----------------------------------------------

 Dipole moment (in Debye)
 -----------------------------------------------
                 X        Y        Z     Total
 -----------------------------------------------
 CM5         -3.3200  -3.3198   0.6795   4.7440
 Hirshfeld   -3.2053  -3.2543   0.6815   4.6184
 -----------------------------------------------

    8    -728.2367490974      9.91e-05  
Hirshfeld: reading atomic densities from disk.

 Charges (in A.U.) from CM5PAC (Nov. 11, 2011)
 -----------------------------------------------
 Center     Atomic      CM5         Hirshfeld
 Number     Number      Charge      Charge
 -----------------------------------------------
    1          6       -0.242262   -0.100429
    2          6       -0.033697   -0.020364
    3          6       -0.164939   -0.111918
    4          6       -0.161932   -0.107374
    5          6       -0.143492   -0.092229
    6          6       -0.082420   -0.080486
    7          6        0.017537   -0.009996
    8          8       -0.524594   -0.480239
    9          6       -0.079176   -0.077203
   10          6       -0.134823   -0.083531
   11          6       -0.157615   -0.103059
   12          6       -0.160366   -0.105798
   13          6       -0.133263   -0.082018
   14          6       -0.079162   -0.077235
   15          6        0.029748    0.001967
   16          8       -0.489357   -0.440382
   17          6       -0.074568   -0.074900
   18          1        0.055111    0.003356
   19          1        0.068855    0.012660
   20          1        0.068811    0.012635
   21          1        0.058671    0.002600
   22          1        0.060586    0.005671
   23          1        0.057171   -0.004777
   24          1        0.059460   -0.001381
   25          1        0.062447    0.007582
   26          1        0.061179    0.006303
   27          1        0.060363   -0.001181
 -----------------------------------------------

 Dipole moment (in Debye)
 -----------------------------------------------
                 X        Y        Z     Total
 -----------------------------------------------
 CM5         -3.3006  -3.2109   0.6867   4.6557
 Hirshfeld   -3.1860  -3.1454   0.6887   4.5297
 -----------------------------------------------

    9    -728.2374940385      3.53e-05  
Hirshfeld: reading atomic densities from disk.

 Charges (in A.U.) from CM5PAC (Nov. 11, 2011)
 -----------------------------------------------
 Center     Atomic      CM5         Hirshfeld
 Number     Number      Charge      Charge
 -----------------------------------------------
    1          6       -0.241799   -0.099965
    2          6       -0.034278   -0.020945
    3          6       -0.164225   -0.111204
    4          6       -0.161024   -0.106466
    5          6       -0.143538   -0.092275
    6          6       -0.083276   -0.081342
    7          6        0.017412   -0.010122
    8          8       -0.525198   -0.480842
    9          6       -0.080015   -0.078041
   10          6       -0.134852   -0.083560
   11          6       -0.156876   -0.102319
   12          6       -0.159828   -0.105261
   13          6       -0.133285   -0.082040
   14          6       -0.080237   -0.078310
   15          6        0.029726    0.001946
   16          8       -0.487624   -0.438650
   17          6       -0.075507   -0.075839
   18          1        0.055066    0.003310
   19          1        0.068771    0.012576
   20          1        0.068727    0.012551
   21          1        0.058684    0.002613
   22          1        0.060603    0.005688
   23          1        0.057265   -0.004684
   24          1        0.059556   -0.001285
   25          1        0.062454    0.007589
   26          1        0.061161    0.006285
   27          1        0.060408   -0.001137
 -----------------------------------------------

 Dipole moment (in Debye)
 -----------------------------------------------
                 X        Y        Z     Total
 -----------------------------------------------
 CM5         -3.3096  -3.2362   0.6852   4.6793
 Hirshfeld   -3.1950  -3.1706   0.6871   4.5534
 -----------------------------------------------

   10    -728.2376807389      1.37e-05  
Hirshfeld: reading atomic densities from disk.

 Charges (in A.U.) from CM5PAC (Nov. 11, 2011)
 -----------------------------------------------
 Center     Atomic      CM5         Hirshfeld
 Number     Number      Charge      Charge
 -----------------------------------------------
    1          6       -0.241836   -0.100003
    2          6       -0.034364   -0.021031
    3          6       -0.164236   -0.111215
    4          6       -0.161096   -0.106538
    5          6       -0.143709   -0.092446
    6          6       -0.083089   -0.081155
    7          6        0.017451   -0.010083
    8          8       -0.525163   -0.480808
    9          6       -0.079821   -0.077848
   10          6       -0.135005   -0.083714
   11          6       -0.156954   -0.102397
   12          6       -0.159889   -0.105321
   13          6       -0.133370   -0.082125
   14          6       -0.079984   -0.078057
   15          6        0.029695    0.001915
   16          8       -0.487893   -0.438919
   17          6       -0.075189   -0.075520
   18          1        0.055103    0.003348
   19          1        0.068769    0.012574
   20          1        0.068725    0.012549
   21          1        0.058693    0.002622
   22          1        0.060622    0.005707
   23          1        0.057253   -0.004695
   24          1        0.059541   -0.001300
   25          1        0.062455    0.007590
   26          1        0.061154    0.006278
   27          1        0.060409   -0.001136
 -----------------------------------------------

 Dipole moment (in Debye)
 -----------------------------------------------
                 X        Y        Z     Total
 -----------------------------------------------
 CM5         -3.3111  -3.2334   0.6854   4.6785
 Hirshfeld   -3.1965  -3.1679   0.6874   4.5526
 -----------------------------------------------

   11    -728.2375391912      3.43e-06  
Hirshfeld: reading atomic densities from disk.

 Charges (in A.U.) from CM5PAC (Nov. 11, 2011)
 -----------------------------------------------
 Center     Atomic      CM5         Hirshfeld
 Number     Number      Charge      Charge
 -----------------------------------------------
    1          6       -0.241894   -0.100061
    2          6       -0.034226   -0.020893
    3          6       -0.164292   -0.111270
    4          6       -0.161112   -0.106554
    5          6       -0.143615   -0.092352
    6          6       -0.083121   -0.081186
    7          6        0.017374   -0.010159
    8          8       -0.525158   -0.480803
    9          6       -0.079854   -0.077881
   10          6       -0.134922   -0.083630
   11          6       -0.156954   -0.102398
   12          6       -0.159897   -0.105329
   13          6       -0.133320   -0.082076
   14          6       -0.080028   -0.078101
   15          6        0.029680    0.001900
   16          8       -0.487878   -0.438904
   17          6       -0.075281   -0.075612
   18          1        0.055117    0.003362
   19          1        0.068784    0.012589
   20          1        0.068740    0.012564
   21          1        0.058698    0.002627
   22          1        0.060630    0.005716
   23          1        0.057249   -0.004699
   24          1        0.059533   -0.001308
   25          1        0.062455    0.007590
   26          1        0.061152    0.006276
   27          1        0.060410   -0.001134
 -----------------------------------------------

 Dipole moment (in Debye)
 -----------------------------------------------
                 X        Y        Z     Total
 -----------------------------------------------
 CM5         -3.3112  -3.2337   0.6854   4.6787
 Hirshfeld   -3.1966  -3.1681   0.6874   4.5528
 -----------------------------------------------

   12    -728.2375607675      1.13e-06  
Hirshfeld: reading atomic densities from disk.

 Charges (in A.U.) from CM5PAC (Nov. 11, 2011)
 -----------------------------------------------
 Center     Atomic      CM5         Hirshfeld
 Number     Number      Charge      Charge
 -----------------------------------------------
    1          6       -0.241888   -0.100054
    2          6       -0.034268   -0.020935
    3          6       -0.164258   -0.111237
    4          6       -0.161087   -0.106529
    5          6       -0.143641   -0.092378
    6          6       -0.083109   -0.081175
    7          6        0.017406   -0.010128
    8          8       -0.525181   -0.480826
    9          6       -0.079849   -0.077875
   10          6       -0.134948   -0.083657
   11          6       -0.156950   -0.102394
   12          6       -0.159891   -0.105323
   13          6       -0.133332   -0.082088
   14          6       -0.080028   -0.078101
   15          6        0.029691    0.001911
   16          8       -0.487907   -0.438933
   17          6       -0.075269   -0.075601
   18          1        0.055120    0.003365
   19          1        0.068787    0.012592
   20          1        0.068743    0.012567
   21          1        0.058699    0.002628
   22          1        0.060634    0.005719
   23          1        0.057248   -0.004701
   24          1        0.059532   -0.001309
   25          1        0.062456    0.007591
   26          1        0.061150    0.006275
   27          1        0.060413   -0.001132
 -----------------------------------------------

 Dipole moment (in Debye)
 -----------------------------------------------
                 X        Y        Z     Total
 -----------------------------------------------
 CM5         -3.3121  -3.2335   0.6855   4.6792
 Hirshfeld   -3.1975  -3.1679   0.6874   4.5533
 -----------------------------------------------

   13    -728.2375566154      5.16e-07  
Hirshfeld: reading atomic densities from disk.

 Charges (in A.U.) from CM5PAC (Nov. 11, 2011)
 -----------------------------------------------
 Center     Atomic      CM5         Hirshfeld
 Number     Number      Charge      Charge
 -----------------------------------------------
    1          6       -0.241877   -0.100044
    2          6       -0.034259   -0.020927
    3          6       -0.164265   -0.111243
    4          6       -0.161092   -0.106534
    5          6       -0.143644   -0.092381
    6          6       -0.083116   -0.081182
    7          6        0.017392   -0.010142
    8          8       -0.525179   -0.480823
    9          6       -0.079850   -0.077877
   10          6       -0.134948   -0.083656
   11          6       -0.156945   -0.102389
   12          6       -0.159889   -0.105322
   13          6       -0.133332   -0.082087
   14          6       -0.080024   -0.078096
   15          6        0.029683    0.001903
   16          8       -0.487914   -0.438940
   17          6       -0.075261   -0.075593
   18          1        0.055121    0.003366
   19          1        0.068786    0.012591
   20          1        0.068743    0.012567
   21          1        0.058702    0.002631
   22          1        0.060639    0.005724
   23          1        0.057250   -0.004699
   24          1        0.059532   -0.001309
   25          1        0.062456    0.007591
   26          1        0.061150    0.006274
   27          1        0.060415   -0.001130
 -----------------------------------------------

 Dipole moment (in Debye)
 -----------------------------------------------
                 X        Y        Z     Total
 -----------------------------------------------
 CM5         -3.3122  -3.2336   0.6854   4.6794
 Hirshfeld   -3.1976  -3.1681   0.6874   4.5534
 -----------------------------------------------

   14    -728.2375561728      1.47e-07  
Hirshfeld: reading atomic densities from disk.

 Charges (in A.U.) from CM5PAC (Nov. 11, 2011)
 -----------------------------------------------
 Center     Atomic      CM5         Hirshfeld
 Number     Number      Charge      Charge
 -----------------------------------------------
    1          6       -0.241882   -0.100049
    2          6       -0.034263   -0.020930
    3          6       -0.164261   -0.111240
    4          6       -0.161089   -0.106531
    5          6       -0.143639   -0.092376
    6          6       -0.083110   -0.081176
    7          6        0.017397   -0.010137
    8          8       -0.525182   -0.480827
    9          6       -0.079849   -0.077876
   10          6       -0.134947   -0.083655
   11          6       -0.156949   -0.102393
   12          6       -0.159892   -0.105324
   13          6       -0.133331   -0.082086
   14          6       -0.080026   -0.078099
   15          6        0.029684    0.001904
   16          8       -0.487916   -0.438942
   17          6       -0.075265   -0.075597
   18          1        0.055122    0.003367
   19          1        0.068787    0.012592
   20          1        0.068744    0.012568
   21          1        0.058701    0.002630
   22          1        0.060638    0.005723
   23          1        0.057248   -0.004700
   24          1        0.059531   -0.001310
   25          1        0.062456    0.007591
   26          1        0.061149    0.006274
   27          1        0.060415   -0.001129
 -----------------------------------------------

 Dipole moment (in Debye)
 -----------------------------------------------
                 X        Y        Z     Total
 -----------------------------------------------
 CM5         -3.3123  -3.2335   0.6855   4.6794
 Hirshfeld   -3.1977  -3.1680   0.6874   4.5535
 -----------------------------------------------

   15    -728.2375553356      7.04e-08  
Hirshfeld: reading atomic densities from disk.

 Charges (in A.U.) from CM5PAC (Nov. 11, 2011)
 -----------------------------------------------
 Center     Atomic      CM5         Hirshfeld
 Number     Number      Charge      Charge
 -----------------------------------------------
    1          6       -0.241882   -0.100049
    2          6       -0.034261   -0.020928
    3          6       -0.164261   -0.111240
    4          6       -0.161088   -0.106530
    5          6       -0.143642   -0.092379
    6          6       -0.083112   -0.081178
    7          6        0.017396   -0.010138
    8          8       -0.525181   -0.480826
    9          6       -0.079849   -0.077876
   10          6       -0.134948   -0.083656
   11          6       -0.156948   -0.102391
   12          6       -0.159891   -0.105323
   13          6       -0.133331   -0.082086
   14          6       -0.080026   -0.078098
   15          6        0.029686    0.001906
   16          8       -0.487917   -0.438942
   17          6       -0.075265   -0.075597
   18          1        0.055122    0.003367
   19          1        0.068787    0.012593
   20          1        0.068744    0.012568
   21          1        0.058701    0.002630
   22          1        0.060638    0.005723
   23          1        0.057248   -0.004700
   24          1        0.059531   -0.001310
   25          1        0.062456    0.007591
   26          1        0.061149    0.006273
   27          1        0.060415   -0.001130
 -----------------------------------------------

 Dipole moment (in Debye)
 -----------------------------------------------
                 X        Y        Z     Total
 -----------------------------------------------
 CM5         -3.3123  -3.2335   0.6855   4.6794
 Hirshfeld   -3.1977  -3.1680   0.6874   4.5535
 -----------------------------------------------

   16    -728.2375555507      2.25e-08  
Hirshfeld: reading atomic densities from disk.

 Charges (in A.U.) from CM5PAC (Nov. 11, 2011)
 -----------------------------------------------
 Center     Atomic      CM5         Hirshfeld
 Number     Number      Charge      Charge
 -----------------------------------------------
    1          6       -0.241882   -0.100049
    2          6       -0.034261   -0.020929
    3          6       -0.164261   -0.111240
    4          6       -0.161088   -0.106530
    5          6       -0.143641   -0.092378
    6          6       -0.083111   -0.081177
    7          6        0.017397   -0.010137
    8          8       -0.525181   -0.480826
    9          6       -0.079849   -0.077876
   10          6       -0.134948   -0.083656
   11          6       -0.156948   -0.102392
   12          6       -0.159891   -0.105324
   13          6       -0.133331   -0.082086
   14          6       -0.080026   -0.078099
   15          6        0.029685    0.001905
   16          8       -0.487916   -0.438942
   17          6       -0.075265   -0.075596
   18          1        0.055122    0.003367
   19          1        0.068787    0.012593
   20          1        0.068744    0.012568
   21          1        0.058701    0.002630
   22          1        0.060638    0.005724
   23          1        0.057248   -0.004700
   24          1        0.059531   -0.001310
   25          1        0.062456    0.007591
   26          1        0.061149    0.006273
   27          1        0.060415   -0.001130
 -----------------------------------------------

 Dipole moment (in Debye)
 -----------------------------------------------
                 X        Y        Z     Total
 -----------------------------------------------
 CM5         -3.3124  -3.2335   0.6855   4.6794
 Hirshfeld   -3.1978  -3.1680   0.6874   4.5535
 -----------------------------------------------

   17    -728.2375554643      1.38e-08  
   18    -728.2375554710      3.16e-09  Convergence criterion met
 ---------------------------------------
 SCF time:   CPU 5364.19s  wall 677.00s 
(1)  E-EN(liq) elect-nuc energy of solute               -728.237555471 a.u.
(2)  G-P(liq) polarization free energy of solvation          -170.3563 kcal/mol
(3)  G-ENP(liq) elect-nuc-pol free energy of system     -728.509035472 a.u.
(4)  G-CDS(liq) cavity-dispersion-solvent structure 
     free energy                                               -8.3221 kcal/mol
(5)  G-P-CDS(liq) = G-P(liq) + G-CDS(liq) = (2) + (4)        -178.6784 kcal/mol
(6)  G-S(liq) free energy of system = (1) + (5)         -728.522297657 a.u.
 SCF   energy in the final basis set =     -728.5222976573
 Total energy in the final basis set =     -728.5222976573
 
 --------------------------------------------------------------
 
                    Orbital Energies (a.u.)
 --------------------------------------------------------------
 
 Alpha MOs
 -- Occupied --
-19.0285 -19.0285 -10.1930 -10.1872 -10.1834 -10.1755 -10.1742 -10.1716
-10.1699 -10.1696 -10.1669 -10.1644 -10.1642 -10.1616 -10.1556 -10.1553
-10.1549  -0.9470  -0.9427  -0.8459  -0.8430  -0.7735  -0.7655  -0.7438
 -0.7250  -0.6844  -0.6516  -0.6244  -0.6092  -0.5703  -0.5386  -0.5274
 -0.5104  -0.4621  -0.4573  -0.4532  -0.4467  -0.4207  -0.4181  -0.4076
 -0.3966  -0.3900  -0.3891  -0.3810  -0.3664  -0.3638  -0.3535  -0.3386
 -0.3337  -0.3320  -0.3171  -0.3154  -0.2521  -0.2409  -0.2372  -0.2334
 -0.2075  -0.2015  -0.1196
 -- Virtual --
 -0.0673  -0.0652  -0.0621  -0.0561  -0.0530  -0.0478  -0.0440  -0.0322
 -0.0266  -0.0230  -0.0212  -0.0113  -0.0034   0.0012   0.0061   0.0151
  0.0202   0.0248   0.0283   0.0311   0.0348   0.0389   0.0398   0.0428
  0.0451   0.0520   0.0549   0.0591   0.0603   0.0624   0.0690   0.0695
  0.0807   0.0824   0.0854   0.0872   0.0891   0.0906   0.0932   0.0976
  0.1017   0.1019   0.1140   0.1191   0.1222   0.1286   0.1304   0.1333
  0.1435   0.1446   0.1514   0.1592   0.1626   0.1656   0.1670   0.1706
  0.1828   0.1895   0.1914   0.1976   0.2085   0.2152   0.2157   0.2175
  0.2248   0.2296   0.2305   0.2382   0.2433   0.2486   0.2545   0.2627
  0.2652   0.2685   0.2731   0.2754   0.2815   0.2865   0.2926   0.2970
  0.2984   0.3029   0.3086   0.3121   0.3161   0.3174   0.3215   0.3266
  0.3336   0.3400   0.3450   0.3582   0.3641   0.3710   0.3871   0.4047
  0.4168   0.4188   0.4337   0.4450   0.4463   0.4774   0.4938   0.4995
  0.5146   0.5242   0.5344   0.5392   0.5439   0.5533   0.5585   0.5635
  0.5689   0.5694   0.5805   0.5878   0.5965   0.5994   0.6055   0.6143
  0.6206   0.6284   0.6419   0.6455   0.6479   0.6522   0.6556   0.6658
  0.6660   0.6717   0.6755   0.6902   0.6974   0.7016   0.7150   0.7177
  0.7302   0.7444   0.7455   0.7615   0.7704   0.7733   0.7789   0.7967
  0.8018   0.8048   0.8138   0.8214   0.8328   0.8421   0.8573   0.8659
  0.8908   0.8993   0.9142   0.9252   0.9303   0.9361   0.9440   0.9499
  0.9592   0.9638   0.9746   0.9868   0.9949   1.0026   1.0131   1.0228
  1.0312   1.0355   1.0532   1.0539   1.0694   1.0729   1.0974   1.1045
  1.1182   1.1325   1.1361   1.1567   1.1777   1.1819   1.1895   1.1933
  1.2160   1.2621   1.2700   1.2847   1.2958   1.3161   1.3250   1.3400
  1.3536   1.3770   1.3863   1.4218   1.4492   1.4694   1.4707   1.4884
  1.4957   1.4985   1.5154   1.5181   1.5243   1.5290   1.5422   1.5505
  1.5662   1.5707   1.5759   1.5797   1.6068   1.6194   1.6364   1.6436
  1.6616   1.6753   1.6823   1.7040   1.7129   1.7210   1.7231   1.7446
  1.7548   1.7738   1.7740   1.7906   1.8126   1.8279   1.8344   1.8608
  1.8772   1.8816   1.8887   1.9033   1.9087   1.9146   1.9384   1.9423
  1.9477   1.9527   1.9660   1.9731   1.9867   1.9896   2.0100   2.0136
  2.0336   2.0440   2.0733   2.0832   2.1033   2.1305   2.1320   2.1546
  2.1927   2.2021   2.2172   2.2439   2.2783   2.2878   2.3062   2.3230
  2.3372   2.3421   2.3784   2.4193   2.4210   2.4288   2.4682   2.4762
  2.4838   2.4983   2.5509   2.5658   2.5838   2.5844   2.5997   2.6308
  2.6501   2.6555   2.6714   2.7141   2.7159   2.7184   2.7269   2.7456
  2.7493   2.7508   2.7666   2.7750   2.7854   2.7907   2.7937   2.8118
  2.8120   2.8264   2.8305   2.8516   2.8534   2.8871   2.8893   2.8989
  2.9071   2.9233   2.9344   2.9588   2.9846   2.9948   3.0198   3.0522
  3.1030   3.1104   3.1238   3.1607   3.1793   3.1997   3.2223   3.2694
  3.2823   3.2935   3.3311   3.3478   3.3520   3.3679   3.3731   3.4380
  3.4397   3.4961   3.5110   3.5165   3.5566   3.5699   3.5795   3.5915
  3.6699   3.6880   3.7731   3.7926   3.8702   3.8898   3.9416   4.0364
  4.0536   4.0835   4.1413   4.2022   4.3121   4.3421   4.3708   4.5265
  4.8199   4.8381   4.8483   5.1325   5.1504   5.3238   5.3619   5.7932
  5.8657  23.5372  23.7067  23.8865  23.8993  23.9228  23.9473  23.9722
 23.9835  23.9861  23.9932  24.0408  24.1134  24.1230  24.1817  24.1878
 50.0941  50.1544
 --------------------------------------------------------------
 
          Ground-State Mulliken Net Atomic Charges

     Atom                 Charge (a.u.)
  ----------------------------------------
      1 C                     1.242045
      2 C                    -0.173954
      3 C                     2.018931
      4 C                     1.554960
      5 C                    -0.141153
      6 C                    -1.843779
      7 C                    -3.102833
      8 O                    -0.326724
      9 C                    -1.688299
     10 C                    -0.317610
     11 C                     1.811688
     12 C                     1.598123
     13 C                     0.047060
     14 C                    -1.348387
     15 C                    -2.726135
     16 O                    -0.248312
     17 C                    -0.776927
     18 H                     0.314518
     19 H                     0.120860
     20 H                     0.120950
     21 H                     0.278299
     22 H                     0.415169
     23 H                     0.101424
     24 H                     0.112935
     25 H                     0.410042
     26 H                     0.407732
     27 H                     0.139376
  ----------------------------------------
  Sum of atomic charges =    -2.000000

 -----------------------------------------------------------------
                    Cartesian Multipole Moments
 -----------------------------------------------------------------
    Charge (ESU x 10^10)
                -9.6064
    Dipole Moment (Debye)
         X      -3.4964      Y      -3.5289      Z       0.6666
       Tot       5.0122
    Quadrupole Moments (Debye-Ang)
        XX    -144.8234     XY      -5.1690     YY    -160.8157
        XZ       0.8346     YZ      -2.8466     ZZ    -114.6366
    Octopole Moments (Debye-Ang^2)
       XXX     -79.3139    XXY     -26.1138    XYY     -38.9345
       YYY     -94.6776    XXZ      11.5246    XYZ      -0.5934
       YYZ      10.9197    XZZ     -21.9620    YZZ     -19.2232
       ZZZ      27.0711
    Hexadecapole Moments (Debye-Ang^3)
      XXXX   -4267.0296   XXXY      85.3053   XXYY   -1041.8535
      XYYY     -35.4503   YYYY   -2308.5339   XXXZ      70.9123
      XXYZ     -17.4332   XYYZ      14.9868   YYYZ     -77.7092
      XXZZ    -770.7433   XYZZ      39.2331   YYZZ    -367.9523
      XZZZ      77.2947   YZZZ     -64.7278   ZZZZ    -185.6839
 -----------------------------------------------------------------
 Total job time:  708.19s(wall), 5370.49s(cpu) 
 Sat Feb  3 11:35:15 2024

        *************************************************************
        *                                                           *
        *  Thank you very much for using Q-Chem.  Have a nice day.  *
        *                                                           *
        *************************************************************


