 Entering Gaussian System, Link 0=g16
 Input=018-PCM.com
 Output=018-PCM.log
 Initial command:
 /sysapps/ubuntu-applications/gaussian/Gaussian/SSE_4/g16/l1.exe "/scratch/selhajj1/4304229/Gau-1472560.inp" -scrdir="/scratch/selhajj1/4304229/"
 Entering Link 1 = /sysapps/ubuntu-applications/gaussian/Gaussian/SSE_4/g16/l1.exe PID=   1472562.
  
 Copyright (c) 1988,1990,1992,1993,1995,1998,2003,2009,2016,
            Gaussian, Inc.  All Rights Reserved.
  
 This is part of the Gaussian(R) 16 program.  It is based on
 the Gaussian(R) 09 system (copyright 2009, Gaussian, Inc.),
 the Gaussian(R) 03 system (copyright 2003, Gaussian, Inc.),
 the Gaussian(R) 98 system (copyright 1998, Gaussian, Inc.),
 the Gaussian(R) 94 system (copyright 1995, Gaussian, Inc.),
 the Gaussian 92(TM) system (copyright 1992, Gaussian, Inc.),
 the Gaussian 90(TM) system (copyright 1990, Gaussian, Inc.),
 the Gaussian 88(TM) system (copyright 1988, Gaussian, Inc.),
 the Gaussian 86(TM) system (copyright 1986, Carnegie Mellon
 University), and the Gaussian 82(TM) system (copyright 1983,
 Carnegie Mellon University). Gaussian is a federally registered
 trademark of Gaussian, Inc.
  
 This software contains proprietary and confidential information,
 including trade secrets, belonging to Gaussian, Inc.
  
 This software is provided under written license and may be
 used, copied, transmitted, or stored only in accord with that
 written license.
  
 The following legend is applicable only to US Government
 contracts under FAR:
  
                    RESTRICTED RIGHTS LEGEND
  
 Use, reproduction and disclosure by the US Government is
 subject to restrictions as set forth in subparagraphs (a)
 and (c) of the Commercial Computer Software - Restricted
 Rights clause in FAR 52.227-19.
  
 Gaussian, Inc.
 340 Quinnipiac St., Bldg. 40, Wallingford CT 06492
  
  
 ---------------------------------------------------------------
 Warning -- This program may not be used in any manner that
 competes with the business of Gaussian, Inc. or will provide
 assistance to any competitor of Gaussian, Inc.  The licensee
 of this program is prohibited from giving any competitor of
 Gaussian, Inc. access to this program.  By using this program,
 the user acknowledges that Gaussian, Inc. is engaged in the
 business of creating and licensing software in the field of
 computational chemistry and represents and warrants to the
 licensee that it is not a competitor of Gaussian, Inc. and that
 it will not use this program in any manner prohibited above.
 ---------------------------------------------------------------
  

 Cite this work as:
 Gaussian 16, Revision A.03,
 M. J. Frisch, G. W. Trucks, H. B. Schlegel, G. E. Scuseria, 
 M. A. Robb, J. R. Cheeseman, G. Scalmani, V. Barone, 
 G. A. Petersson, H. Nakatsuji, X. Li, M. Caricato, A. V. Marenich, 
 J. Bloino, B. G. Janesko, R. Gomperts, B. Mennucci, H. P. Hratchian, 
 J. V. Ortiz, A. F. Izmaylov, J. L. Sonnenberg, D. Williams-Young, 
 F. Ding, F. Lipparini, F. Egidi, J. Goings, B. Peng, A. Petrone, 
 T. Henderson, D. Ranasinghe, V. G. Zakrzewski, J. Gao, N. Rega, 
 G. Zheng, W. Liang, M. Hada, M. Ehara, K. Toyota, R. Fukuda, 
 J. Hasegawa, M. Ishida, T. Nakajima, Y. Honda, O. Kitao, H. Nakai, 
 T. Vreven, K. Throssell, J. A. Montgomery, Jr., J. E. Peralta, 
 F. Ogliaro, M. J. Bearpark, J. J. Heyd, E. N. Brothers, K. N. Kudin, 
 V. N. Staroverov, T. A. Keith, R. Kobayashi, J. Normand, 
 K. Raghavachari, A. P. Rendell, J. C. Burant, S. S. Iyengar, 
 J. Tomasi, M. Cossi, J. M. Millam, M. Klene, C. Adamo, R. Cammi, 
 J. W. Ochterski, R. L. Martin, K. Morokuma, O. Farkas, 
 J. B. Foresman, and D. J. Fox, Gaussian, Inc., Wallingford CT, 2016.
 
 ******************************************
 Gaussian 16:  ES64L-G16RevA.03 25-Dec-2016
                21-Jan-2024 
 ******************************************
 %chk=018-PCM.chk
 %nproc=8
 Will use up to    8 processors via shared memory.
 %mem=30GB
 ----------------------------------------------------------------
 #P UB3LYP/6-311++G(d,p) SCRF=(PCM,Solvent=n,n-DiMethylFormamide)
 ----------------------------------------------------------------
 1/38=1,172=1/1;
 2/12=2,17=6,18=5,40=1/2;
 3/5=4,6=6,7=1111,11=2,25=1,30=1,70=2201,72=148,74=-5,116=2/1,2,3;
 4//1;
 5/5=2,38=5,53=148/2;
 6/7=2,8=2,9=2,10=2,28=1/1;
 99/5=1,9=1/99;
 Leave Link    1 at Sun Jan 21 06:50:45 2024, MaxMem=  4026531840 cpu:               0.4 elap:               0.1
 (Enter /sysapps/ubuntu-applications/gaussian/Gaussian/SSE_4/g16/l101.exe)
 ------------------
 Quinone PCM in DMF
 ------------------
 Symbolic Z-matrix:
 Charge =  0 Multiplicity = 1
 C                    -1.81117   0.11187   1.41269 
 C                    -2.88477   0.94714   0.76013 
 C                    -2.90634   0.79069  -0.57816 
 C                    -1.81428   0.05503  -1.31774 
 C                    -0.4502   -0.04359  -0.68087 
 C                    -0.52174  -0.12334   0.66243 
 O                    -2.04085  -0.45566  -2.39271 
 O                    -1.97838  -0.37592   2.50895 
 Cl                    0.76891  -0.60102   1.73401 
 Cl                   -4.19109   1.28323  -1.65012 
 C                     0.76669  -0.19776  -1.61541 
 C                     0.57923   0.67828  -2.88274 
 C                     2.08523   0.27689  -0.96057 
 C                     0.90407  -1.68369  -2.02487 
 C                    -3.86572   1.69944   1.68199 
 C                    -3.11236   2.25824   2.9184 
 C                    -4.5155    2.92117   0.9907 
 C                    -4.97388   0.72342   2.1444 
 H                    -0.25615   0.35485  -3.49828 
 H                     1.48847   0.61789  -3.48531 
 H                     0.43192   1.72976  -2.61584 
 H                     1.97953   1.2656   -0.506 
 H                     2.84611   0.35072  -1.7415 
 H                     2.45654  -0.40939  -0.20437 
 H                     1.0617   -2.31835  -1.14899 
 H                     1.76811  -1.80026  -2.68605 
 H                     0.01611  -2.03052  -2.55436 
 H                    -2.71379   1.47492   3.55789 
 H                    -3.8092    2.85725   3.50923 
 H                    -2.29089   2.91519   2.61487 
 H                    -3.77055   3.554     0.50086 
 H                    -5.00963   3.52338   1.75712 
 H                    -5.26642   2.64509   0.25545 
 H                    -4.55353  -0.11626   2.69878 
 H                    -5.53545   0.33559   1.29056 
 H                    -5.67487   1.25224   2.7973 
 
 ITRead=  0  0  0  0  0  0  0  0  0  0  0  0  0  0  0  0  0  0  0  0
 ITRead=  0  0  0  0  0  0  0  0  0  0  0  0  0  0  0  0
 MicOpt= -1 -1 -1 -1 -1 -1 -1 -1 -1 -1 -1 -1 -1 -1 -1 -1 -1 -1 -1 -1
 MicOpt= -1 -1 -1 -1 -1 -1 -1 -1 -1 -1 -1 -1 -1 -1 -1 -1
 NAtoms=     36 NQM=       36 NQMF=       0 NMMI=      0 NMMIF=      0
                NMic=       0 NMicF=      0.
                    Isotopes and Nuclear Properties:
 (Nuclear quadrupole moments (NQMom) in fm**2, nuclear magnetic moments (NMagM)
  in nuclear magnetons)

  Atom         1           2           3           4           5           6           7           8           9          10
 IAtWgt=          12          12          12          12          12          12          16          16          35          35
 AtmWgt=  12.0000000  12.0000000  12.0000000  12.0000000  12.0000000  12.0000000  15.9949146  15.9949146  34.9688527  34.9688527
 NucSpn=           0           0           0           0           0           0           0           0           3           3
 AtZEff=  -0.0000000  -0.0000000  -0.0000000  -0.0000000  -0.0000000  -0.0000000  -0.0000000  -0.0000000  -0.0000000  -0.0000000
 NQMom=    0.0000000   0.0000000   0.0000000   0.0000000   0.0000000   0.0000000   0.0000000   0.0000000  -8.1650000  -8.1650000
 NMagM=    0.0000000   0.0000000   0.0000000   0.0000000   0.0000000   0.0000000   0.0000000   0.0000000   0.8218740   0.8218740
 AtZNuc=   6.0000000   6.0000000   6.0000000   6.0000000   6.0000000   6.0000000   8.0000000   8.0000000  17.0000000  17.0000000

  Atom        11          12          13          14          15          16          17          18          19          20
 IAtWgt=          12          12          12          12          12          12          12          12           1           1
 AtmWgt=  12.0000000  12.0000000  12.0000000  12.0000000  12.0000000  12.0000000  12.0000000  12.0000000   1.0078250   1.0078250
 NucSpn=           0           0           0           0           0           0           0           0           1           1
 AtZEff=  -0.0000000  -0.0000000  -0.0000000  -0.0000000  -0.0000000  -0.0000000  -0.0000000  -0.0000000  -0.0000000  -0.0000000
 NQMom=    0.0000000   0.0000000   0.0000000   0.0000000   0.0000000   0.0000000   0.0000000   0.0000000   0.0000000   0.0000000
 NMagM=    0.0000000   0.0000000   0.0000000   0.0000000   0.0000000   0.0000000   0.0000000   0.0000000   2.7928460   2.7928460
 AtZNuc=   6.0000000   6.0000000   6.0000000   6.0000000   6.0000000   6.0000000   6.0000000   6.0000000   1.0000000   1.0000000

  Atom        21          22          23          24          25          26          27          28          29          30
 IAtWgt=           1           1           1           1           1           1           1           1           1           1
 AtmWgt=   1.0078250   1.0078250   1.0078250   1.0078250   1.0078250   1.0078250   1.0078250   1.0078250   1.0078250   1.0078250
 NucSpn=           1           1           1           1           1           1           1           1           1           1
 AtZEff=  -0.0000000  -0.0000000  -0.0000000  -0.0000000  -0.0000000  -0.0000000  -0.0000000  -0.0000000  -0.0000000  -0.0000000
 NQMom=    0.0000000   0.0000000   0.0000000   0.0000000   0.0000000   0.0000000   0.0000000   0.0000000   0.0000000   0.0000000
 NMagM=    2.7928460   2.7928460   2.7928460   2.7928460   2.7928460   2.7928460   2.7928460   2.7928460   2.7928460   2.7928460
 AtZNuc=   1.0000000   1.0000000   1.0000000   1.0000000   1.0000000   1.0000000   1.0000000   1.0000000   1.0000000   1.0000000

  Atom        31          32          33          34          35          36
 IAtWgt=           1           1           1           1           1           1
 AtmWgt=   1.0078250   1.0078250   1.0078250   1.0078250   1.0078250   1.0078250
 NucSpn=           1           1           1           1           1           1
 AtZEff=  -0.0000000  -0.0000000  -0.0000000  -0.0000000  -0.0000000  -0.0000000
 NQMom=    0.0000000   0.0000000   0.0000000   0.0000000   0.0000000   0.0000000
 NMagM=    2.7928460   2.7928460   2.7928460   2.7928460   2.7928460   2.7928460
 AtZNuc=   1.0000000   1.0000000   1.0000000   1.0000000   1.0000000   1.0000000
 Leave Link  101 at Sun Jan 21 06:50:45 2024, MaxMem=  4026531840 cpu:               1.6 elap:               0.2
 (Enter /sysapps/ubuntu-applications/gaussian/Gaussian/SSE_4/g16/l202.exe)
                          Input orientation:                          
 ---------------------------------------------------------------------
 Center     Atomic      Atomic             Coordinates (Angstroms)
 Number     Number       Type             X           Y           Z
 ---------------------------------------------------------------------
      1          6           0       -1.811172    0.111871    1.412685
      2          6           0       -2.884766    0.947141    0.760128
      3          6           0       -2.906338    0.790693   -0.578156
      4          6           0       -1.814277    0.055029   -1.317741
      5          6           0       -0.450198   -0.043593   -0.680872
      6          6           0       -0.521741   -0.123336    0.662432
      7          8           0       -2.040846   -0.455661   -2.392707
      8          8           0       -1.978376   -0.375921    2.508953
      9         17           0        0.768908   -0.601016    1.734013
     10         17           0       -4.191095    1.283234   -1.650120
     11          6           0        0.766690   -0.197763   -1.615412
     12          6           0        0.579233    0.678281   -2.882735
     13          6           0        2.085233    0.276889   -0.960574
     14          6           0        0.904065   -1.683690   -2.024871
     15          6           0       -3.865717    1.699435    1.681989
     16          6           0       -3.112359    2.258240    2.918404
     17          6           0       -4.515496    2.921172    0.990698
     18          6           0       -4.973879    0.723419    2.144395
     19          1           0       -0.256146    0.354846   -3.498284
     20          1           0        1.488474    0.617885   -3.485307
     21          1           0        0.431924    1.729759   -2.615837
     22          1           0        1.979526    1.265602   -0.506003
     23          1           0        2.846107    0.350715   -1.741498
     24          1           0        2.456543   -0.409394   -0.204365
     25          1           0        1.061700   -2.318352   -1.148990
     26          1           0        1.768113   -1.800255   -2.686054
     27          1           0        0.016107   -2.030520   -2.554362
     28          1           0       -2.713785    1.474919    3.557885
     29          1           0       -3.809200    2.857249    3.509233
     30          1           0       -2.290886    2.915186    2.614872
     31          1           0       -3.770553    3.554002    0.500857
     32          1           0       -5.009628    3.523377    1.757118
     33          1           0       -5.266416    2.645086    0.255453
     34          1           0       -4.553532   -0.116257    2.698784
     35          1           0       -5.535449    0.335586    1.290557
     36          1           0       -5.674868    1.252243    2.797298
 ---------------------------------------------------------------------
                    Distance matrix (angstroms):
                    1          2          3          4          5
     1  C    0.000000
     2  C    1.508678   0.000000
     3  C    2.371421   1.347570   0.000000
     4  C    2.731019   2.501869   1.510227   0.000000
     5  C    2.501879   2.997525   2.595998   1.508655   0.000000
     6  C    1.510243   2.596026   2.839157   2.371402   1.347569
     7  O    3.854329   3.552523   2.365390   1.211482   2.372834
     8  O    1.211487   2.372852   3.428169   3.854378   3.552570
     9  Cl   2.695973   4.085900   4.559650   4.051721   2.761994
    10  Cl   4.051777   2.762019   1.744220   2.695965   4.085856
    11  C    3.988811   4.504123   3.942598   2.610345   1.542060
    12  C    4.948281   5.034086   4.180063   2.926865   2.535553
    13  C    4.565256   5.301975   5.032496   3.922113   2.570866
    14  C    4.734273   5.388203   4.768095   3.303416   2.516005
    15  C    2.610371   1.542089   2.618105   3.988842   4.504112
    16  C    2.926974   2.535534   3.797640   4.948139   5.033917
    17  C    3.922195   2.570844   3.096713   4.565112   5.301945
    18  C    3.303348   2.516076   3.419289   4.734577   5.388333
    19  H    5.157011   5.039298   3.967446   2.696744   2.852055
    20  H    5.927397   6.103880   5.272169   3.990403   3.472875
    21  H    4.886515   4.796881   4.022186   3.087911   2.768936
    22  H    4.402482   5.036451   4.909421   4.064154   2.765525
    23  H    5.629935   6.281462   5.885369   4.688942   3.485116
    24  H    4.593469   5.594642   5.508214   4.437927   2.968167
    25  H    4.552094   5.466514   5.073198   3.732648   2.771191
    26  H    5.767770   6.408872   5.745149   4.260033   3.468071
    27  H    4.864797   5.316707   4.517225   3.037935   2.770430
    28  H    2.697127   2.852232   4.196675   5.157221   5.039520
    29  H    3.990580   3.472847   4.668250   5.927211   6.103668
    30  H    3.087710   2.768749   3.884286   4.886011   4.796294
    31  H    4.064341   2.765423   3.089824   4.401946   5.036262
    32  H    4.689043   3.485114   4.164720   5.629784   6.281359
    33  H    4.437913   2.968159   3.115067   4.593539   5.594788
    34  H    3.037537   2.770195   3.778114   4.864702   5.316456
    35  H    3.732988   2.771547   3.257520   4.552917   5.467183
    36  H    4.259783   3.468114   4.389929   5.768105   6.408903
                    6          7          8          9         10
     6  C    0.000000
     7  O    3.428118   0.000000
     8  O    2.365423   4.902707   0.000000
     9  Cl   1.744201   4.994563   2.863349   0.000000
    10  Cl   4.559659   2.863348   4.994678   6.293201   0.000000
    11  C    2.618046   2.924544   4.957571   3.373613   5.174378
    12  C    3.797755   2.896682   6.059951   4.794470   4.964004
    13  C    3.096876   4.428562   5.383001   3.124776   6.393786
    14  C    3.418951   3.211831   5.529402   3.914034   5.907938
    15  C    3.942609   4.957594   2.924556   5.174411   3.373729
    16  C    4.180026   6.059810   2.896959   4.964107   4.794342
    17  C    5.032581   5.382780   4.428645   6.394001   3.124419
    18  C    4.768096   5.529756   3.211618   5.907804   3.914650
    19  H    4.196517   2.250417   6.291820   5.416765   4.445384
    20  H    4.668416   3.847386   6.995559   5.407846   6.005673
    21  H    3.884647   3.307633   6.042095   4.946440   4.743870
    22  H    3.090425   4.762960   5.239231   3.157140   6.275817
    23  H    4.164853   4.995661   6.470701   4.159294   7.099307
    24  H    3.115019   5.001749   5.199204   2.577235   7.010441
    25  H    3.256782   3.826518   5.137669   3.368483   6.388616
    26  H    4.389516   4.049957   6.561479   4.687598   6.789199
    27  H    3.778147   2.595644   5.687954   4.582614   5.431314
    28  H    3.967761   6.292021   2.250932   4.445803   5.416872
    29  H    5.272148   6.995380   3.847839   6.005837   5.407614
    30  H    4.021755   6.041604   3.307607   4.743620   4.946132
    31  H    4.909552   5.238511   4.763260   6.276269   3.155938
    32  H    5.885404   6.470507   4.995825   7.099481   4.159027
    33  H    5.508333   5.199200   5.001595   7.010596   2.577240
    34  H    4.516870   5.687888   2.595167   5.430851   4.582892
    35  H    5.073699   5.138556   3.826683   6.388959   3.369407
    36  H    5.744962   6.561951   4.049458   6.788770   4.688504
                   11         12         13         14         15
    11  C    0.000000
    12  C    1.551999   0.000000
    13  C    1.546824   2.474642   0.000000
    14  C    1.547420   2.533842   2.524234   0.000000
    15  C    5.994281   6.452677   6.664877   6.923667   0.000000
    16  C    6.452477   7.055305   6.781385   7.490423   1.551945
    17  C    6.664912   6.781615   7.373555   7.724639   1.546848
    18  C    6.923789   7.490736   7.724719   7.597840   1.547401
    19  H    2.212866   1.086908   3.453709   2.769957   6.455397
    20  H    2.163969   1.092456   2.616615   2.787769   7.519179
    21  H    2.197330   1.094779   2.753935   3.496254   6.077989
    22  H    2.200726   2.820394   1.093326   3.487392   6.256388
    23  H    2.154229   2.558992   1.092805   2.826770   7.654273
    24  H    2.211661   3.446882   1.086604   2.710767   6.926504
    25  H    2.191228   3.495491   2.796140   1.093075   6.959633
    26  H    2.171889   2.755950   2.718892   1.094225   7.941516
    27  H    2.191803   2.786134   3.485051   1.090468   6.850386
    28  H    6.455585   7.277375   6.699427   7.364293   2.212768
    29  H    7.518900   8.053788   7.834652   8.570957   2.163920
    30  H    6.077378   6.592800   6.236573   7.272179   2.197365
    31  H    6.256270   6.216036   6.867713   7.460883   2.200806
    32  H    7.654194   7.801165   8.262118   8.740066   2.154284
    33  H    6.926781   6.920127   7.818812   7.874834   2.211610
    34  H    6.850087   7.624298   7.590696   7.386144   2.191734
    35  H    6.960321   7.411015   7.946435   7.519101   2.191189
    36  H    7.941549   8.467939   8.677101   8.669220   2.171848
                   16         17         18         19         20
    16  C    0.000000
    17  C    2.474737   0.000000
    18  C    2.533776   2.524134   0.000000
    19  H    7.277001   6.699183   7.364284   0.000000
    20  H    8.053940   7.835012   8.571271   1.764386   0.000000
    21  H    6.593107   6.237269   7.272911   1.772721   1.763105
    22  H    6.216043   6.867775   7.461127   3.844665   3.088191
    23  H    7.801068   8.262284   8.740209   3.565149   2.226077
    24  H    6.919583   7.818579   7.874713   4.335049   3.571700
    25  H    7.410240   7.945816   7.518442   3.794982   3.776506
    26  H    8.467605   8.677218   8.669292   3.066236   2.562109
    27  H    7.624430   7.590924   7.386640   2.579744   3.169948
    28  H    1.086917   3.453731   2.769608   7.555400   8.246214
    29  H    1.092464   2.616478   2.787919   8.245696   9.055589
    30  H    1.094773   2.754427   3.496233   6.932978   7.534808
    31  H    2.820772   1.093324   3.487321   6.211182   7.222718
    32  H    2.559060   1.092802   2.826840   7.762373   8.840262
    33  H    3.446871   1.086595   2.710440   6.666224   7.983193
    34  H    2.786297   3.484965   1.090456   7.555999   8.676853
    35  H    3.495404   2.795617   1.093076   7.127721   8.498474
    36  H    2.755567   2.719057   1.094222   8.354772   9.549189
                   21         22         23         24         25
    21  H    0.000000
    22  H    2.657426   0.000000
    23  H    2.914534   1.764774   0.000000
    24  H    3.806607   1.767524   1.758495   0.000000
    25  H    4.351489   3.755072   3.264827   2.545982   0.000000
    26  H    3.775093   3.767864   2.584749   2.926980   1.769183
    27  H    3.783699   4.349162   3.786810   3.755831   1.775157
    28  H    6.933633   6.211777   7.762712   6.666142   7.127262
    29  H    7.534909   7.222521   8.840023   7.982562   8.497738
    30  H    6.014919   5.540524   7.207161   6.445077   7.266114
    31  H    5.540980   6.270084   7.685662   7.415023   7.781851
    32  H    7.207655   7.685541   9.166170   8.663591   8.912479
    33  H    6.446178   7.415286   8.664005   8.317775   8.164143
    34  H    7.517163   7.406824   8.642270   7.593112   7.154398
    35  H    7.267267   7.782506   8.913140   8.164663   7.517789
    36  H    8.174531   8.336769   9.696414   8.825580   8.585085
                   26         27         28         29         30
    26  H    0.000000
    27  H    1.771973   0.000000
    28  H    8.354696   7.556453   0.000000
    29  H    9.548840   8.677007   1.764408   0.000000
    30  H    8.173780   7.516861   1.772706   1.763098   0.000000
    31  H    8.336743   7.406757   3.845096   3.088249   2.658300
    32  H    9.696422   8.642491   3.565086   2.225907   2.914995
    33  H    8.825991   7.593510   4.334890   3.571495   3.807045
    34  H    8.473224   7.220910   2.579644   3.170583   3.783683
    35  H    8.585876   7.155532   3.794818   3.776406   4.351475
    36  H    9.735649   8.473724   3.065304   2.561955   3.774916
                   31         32         33         34         35
    31  H    0.000000
    32  H    1.764777   0.000000
    33  H    1.767472   1.758503   0.000000
    34  H    4.349108   3.787043   3.755407   0.000000
    35  H    3.754555   3.264380   2.545115   1.775226   0.000000
    36  H    3.768043   2.585066   2.927084   1.771974   1.769171
                   36
    36  H    0.000000
 Stoichiometry    C14H18Cl2O2
 Framework group  C1[X(C14H18Cl2O2)]
 Deg. of freedom   102
 Full point group                 C1      NOp   1
 Largest Abelian subgroup         C1      NOp   1
 Largest concise Abelian subgroup C1      NOp   1
                         Standard orientation:                         
 ---------------------------------------------------------------------
 Center     Atomic      Atomic             Coordinates (Angstroms)
 Number     Number       Type             X           Y           Z
 ---------------------------------------------------------------------
      1          6           0       -0.571339   -1.240252   -0.416956
      2          6           0       -1.494398   -0.114511   -0.021000
      3          6           0       -0.907303    1.091785   -0.147943
      4          6           0        0.571342    1.240221   -0.416938
      5          6           0        1.494365    0.114516   -0.020885
      6          6           0        0.907305   -1.091792   -0.147875
      7          8           0        0.997838    2.239025   -0.953763
      8          8           0       -0.997833   -2.239125   -0.953667
      9         17           0        1.718642   -2.635783   -0.139913
     10         17           0       -1.718586    2.635825   -0.139915
     11          6           0        2.960037    0.470042    0.300602
     12          6           0        3.024848    1.815369    1.071703
     13          6           0        3.641233   -0.577124    1.212786
     14          6           0        3.752822    0.589437   -1.022933
     15          6           0       -2.960060   -0.470092    0.300613
     16          6           0       -3.024720   -1.815066    1.072234
     17          6           0       -3.641357    0.577522    1.212247
     18          6           0       -3.752902   -0.590093   -1.022811
     19          1           0        2.683777    2.658529    0.476623
     20          1           0        4.061783    2.001219    1.360987
     21          1           0        2.430967    1.771242    1.990343
     22          1           0        3.026553   -0.816867    2.084597
     23          1           0        4.580538   -0.152865    1.576010
     24          1           0        3.877567   -1.503142    0.695733
     25          1           0        3.741724   -0.355242   -1.572724
     26          1           0        4.794962    0.838751   -0.801309
     27          1           0        3.339861    1.371587   -1.660762
     28          1           0       -2.684059   -2.658463    0.477239
     29          1           0       -4.061564   -2.000644    1.362050
     30          1           0       -2.430420   -1.770813    1.990590
     31          1           0       -3.026617    0.818090    2.083786
     32          1           0       -4.580516    0.153331    1.575920
     33          1           0       -3.877935    1.503112    0.694555
     34          1           0       -3.339503   -1.372067   -1.660550
     35          1           0       -3.742480    0.354579   -1.572631
     36          1           0       -4.794853   -0.840034   -0.801023
 ---------------------------------------------------------------------
 Rotational constants (GHZ):           0.4982637           0.2777176           0.2016356
 Leave Link  202 at Sun Jan 21 06:50:45 2024, MaxMem=  4026531840 cpu:               0.3 elap:               0.1
 (Enter /sysapps/ubuntu-applications/gaussian/Gaussian/SSE_4/g16/l301.exe)
 Standard basis: 6-311++G(d,p) (5D, 7F)
 Ernie: Thresh=  0.10000D-02 Tol=  0.10000D-05 Strict=F.
 There are   556 symmetry adapted cartesian basis functions of A   symmetry.
 There are   538 symmetry adapted basis functions of A   symmetry.
   538 basis functions,   844 primitive gaussians,   556 cartesian basis functions
    76 alpha electrons       76 beta electrons
       nuclear repulsion energy      1675.0802156166 Hartrees.
 IExCor=  402 DFT=T Ex+Corr=B3LYP ExCW=0 ScaHFX=  0.200000
 ScaDFX=  0.800000  0.720000  1.000000  0.810000 ScalE2=  1.000000  1.000000
 IRadAn=      5 IRanWt=     -1 IRanGd=            0 ICorTp=0 IEmpDi=  4
 NAtoms=   36 NActive=   36 NUniq=   36 SFac= 1.00D+00 NAtFMM=   60 NAOKFM=F Big=F
 Integral buffers will be    131072 words long.
 Raffenetti 2 integral format.
 Two-electron integral symmetry is turned on.
 ------------------------------------------------------------------------------
 Polarizable Continuum Model (PCM)
 =================================
 Model                : PCM.
 Atomic radii         : UFF (Universal Force Field).
 Polarization charges : Total charges.
 Charge compensation  : None.
 Solution method      : On-the-fly selection.
 Cavity type          : Scaled VdW (van der Waals Surface) (Alpha=1.100).
 Cavity algorithm     : GePol (No added spheres)
                        Default sphere list used, NSphG=   36.
                        Lebedev-Laikov grids with approx.  5.0 points / Ang**2.
                        Smoothing algorithm: York/Karplus (Gamma=1.0000).
                        Polarization charges: spherical gaussians, with
                                              point-specific exponents (IZeta= 3).
                        Self-potential: point-specific (ISelfS= 7).
                        Self-field    : sphere-specific E.n sum rule (ISelfD= 2).
 Solvent              : n,n-DiMethylFormamide, Eps=  37.219000 Eps(inf)=   2.046330
 ------------------------------------------------------------------------------
 GePol: Number of generator spheres                  =      36
 GePol: Total number of spheres                      =      36
 GePol: Number of exposed spheres                    =      36 (100.00%)
 GePol: Number of points                             =    2473
 GePol: Average weight of points                     =       0.14
 GePol: Minimum weight of points                     =   0.13D-10
 GePol: Maximum weight of points                     =    0.21616
 GePol: Number of points with low weight             =     154
 GePol: Fraction of low-weight points (<1% of avg)   =       6.23%
 GePol: Cavity surface area                          =    338.047 Ang**2
 GePol: Cavity volume                                =    384.399 Ang**3
 Leave Link  301 at Sun Jan 21 06:50:45 2024, MaxMem=  4026531840 cpu:               0.7 elap:               0.1
 (Enter /sysapps/ubuntu-applications/gaussian/Gaussian/SSE_4/g16/l302.exe)
 NPDir=0 NMtPBC=     1 NCelOv=     1 NCel=       1 NClECP=     1 NCelD=      1
         NCelK=      1 NCelE2=     1 NClLst=     1 CellRange=     0.0.
 One-electron integrals computed using PRISM.
 One-electron integral symmetry used in STVInt
 NBasis=   538 RedAO= T EigKep=  1.55D-06  NBF=   538
 NBsUse=   535 1.00D-06 EigRej=  6.44D-07 NBFU=   535
 Precomputing XC quadrature grid using
 IXCGrd= 4 IRadAn=           5 IRanWt=          -1 IRanGd=           0 AccXCQ= 0.00D+00.
 Generated NRdTot=       0 NPtTot=           0 NUsed=           0 NTot=          32
 NSgBfM=   553   553   553   553   553 MxSgAt=    36 MxSgA2=    36.
 Leave Link  302 at Sun Jan 21 06:50:46 2024, MaxMem=  4026531840 cpu:               7.5 elap:               1.0
 (Enter /sysapps/ubuntu-applications/gaussian/Gaussian/SSE_4/g16/l303.exe)
 DipDrv:  MaxL=1.
 Leave Link  303 at Sun Jan 21 06:50:46 2024, MaxMem=  4026531840 cpu:               1.0 elap:               0.2
 (Enter /sysapps/ubuntu-applications/gaussian/Gaussian/SSE_4/g16/l401.exe)
 ExpMin= 3.60D-02 ExpMax= 1.06D+05 ExpMxC= 3.62D+03 IAcc=3 IRadAn=         5 AccDes= 0.00D+00
 Harris functional with IExCor=  402 and IRadAn=       5 diagonalized for initial guess.
 HarFok:  IExCor=  402 AccDes= 0.00D+00 IRadAn=         5 IDoV= 1 UseB2=F ITyADJ=14
 ICtDFT=  3500011 ScaDFX=  1.000000  1.000000  1.000000  1.000000
 FoFCou: FMM=F IPFlag=           0 FMFlag=      100000 FMFlg1=           0
         NFxFlg=           0 DoJE=T BraDBF=F KetDBF=T FulRan=T
         wScrn=  0.000000 ICntrl=       500 IOpCl=  0 I1Cent=   200000004 NGrid=           0
         NMat0=    1 NMatS0=      1 NMatT0=    0 NMatD0=    1 NMtDS0=    0 NMtDT0=    0
 Petite list used in FoFCou.
 Harris En= -1615.36520975759    
 JPrj=0 DoOrth=F DoCkMO=F.
 Initial guess <Sx>= 0.0000 <Sy>= 0.0000 <Sz>= 0.0000 <S**2>=-0.0000 S=-0.0000
 Leave Link  401 at Sun Jan 21 06:50:53 2024, MaxMem=  4026531840 cpu:              54.5 elap:               6.9
 (Enter /sysapps/ubuntu-applications/gaussian/Gaussian/SSE_4/g16/l502.exe)
 Integral symmetry usage will be decided dynamically.
 UHF open shell SCF:
 Using DIIS extrapolation, IDIIS=  1040.
 NGot=  4026531840 LenX=  4025903746 LenY=  4025594054
 Requested convergence on RMS density matrix=1.00D-08 within 128 cycles.
 Requested convergence on MAX density matrix=1.00D-06.
 Requested convergence on             energy=1.00D-06.
 No special actions if energy rises.
 Fock matrices will be formed incrementally for  20 cycles.

 Cycle   1  Pass 1  IDiag  1:
 FoFJK:  IHMeth= 1 ICntrl=       0 DoSepK=F KAlg= 0 I1Cent=           0 FoldK=F
 IRaf= 850000000 NMat=       1 IRICut=       1 DoRegI=T DoRafI=F ISym2E= 0 IDoP0=0 IntGTp=1.
 FoFCou: FMM=F IPFlag=           0 FMFlag=      100000 FMFlg1=           0
         NFxFlg=           0 DoJE=F BraDBF=F KetDBF=F FulRan=T
         wScrn=  0.000000 ICntrl=         0 IOpCl=  1 I1Cent=           0 NGrid=           0
         NMat0=    1 NMatS0=      1 NMatT0=    0 NMatD0=    1 NMtDS0=    0 NMtDT0=    0
 Symmetry not used in FoFCou.
 Inv3:  Mode=1 IEnd=    18347187.
 Iteration    1 A*A^-1 deviation from unit magnitude is 5.55D-15 for    680.
 Iteration    1 A*A^-1 deviation from orthogonality  is 4.67D-15 for   1463    680.
 Iteration    1 A^-1*A deviation from unit magnitude is 4.88D-15 for    680.
 Iteration    1 A^-1*A deviation from orthogonality  is 2.45D-15 for   2457   2443.
 E= -1614.70804708956    
 DIIS: error= 3.55D-02 at cycle   1 NSaved=   1.
 NSaved= 1 IEnMin= 1 EnMin= -1614.70804708956     IErMin= 1 ErrMin= 3.55D-02
 ErrMax= 3.55D-02  0.00D+00 EMaxC= 1.00D-01 BMatC= 3.10D+00 BMatP= 3.10D+00
 IDIUse=3 WtCom= 6.45D-01 WtEn= 3.55D-01
 Coeff-Com:  0.100D+01
 Coeff-En:   0.100D+01
 Coeff:      0.100D+01
 Gap=     0.191 Goal=   None    Shift=    0.000
 Gap=     0.191 Goal=   None    Shift=    0.000
 GapD=    0.191 DampG=1.000 DampE=0.500 DampFc=0.5000 IDamp=-1.
 Damping current iteration by 5.00D-01
 RMSDP=4.90D-02 MaxDP=5.24D+00              OVMax= 3.05D-01

 Cycle   2  Pass 1  IDiag  1:
 RMSU=  2.45D-02    CP:  1.02D+00
 E= -1614.89465556587     Delta-E=       -0.186608476316 Rises=F Damp=T
 DIIS: error= 1.14D-02 at cycle   2 NSaved=   2.
 NSaved= 2 IEnMin= 2 EnMin= -1614.89465556587     IErMin= 2 ErrMin= 1.14D-02
 ErrMax= 1.14D-02  0.00D+00 EMaxC= 1.00D-01 BMatC= 4.43D-01 BMatP= 3.10D+00
 IDIUse=3 WtCom= 8.86D-01 WtEn= 1.14D-01
 Coeff-Com:  0.194D+00 0.806D+00
 Coeff-En:   0.344D+00 0.656D+00
 Coeff:      0.211D+00 0.789D+00
 Gap=     0.182 Goal=   None    Shift=    0.000
 Gap=     0.182 Goal=   None    Shift=    0.000
 RMSDP=2.29D-02 MaxDP=2.66D+00 DE=-1.87D-01 OVMax= 2.81D-01

 Cycle   3  Pass 1  IDiag  1:
 RMSU=  6.55D-03    CP:  9.39D-01  1.42D-01
 E= -1615.29174887594     Delta-E=       -0.397093310064 Rises=F Damp=F
 DIIS: error= 1.47D-02 at cycle   3 NSaved=   3.
 NSaved= 3 IEnMin= 3 EnMin= -1615.29174887594     IErMin= 2 ErrMin= 1.14D-02
 ErrMax= 1.47D-02  0.00D+00 EMaxC= 1.00D-01 BMatC= 4.15D-01 BMatP= 4.43D-01
 IDIUse=3 WtCom= 8.53D-01 WtEn= 1.47D-01
 Coeff-Com:  0.475D-01 0.487D+00 0.465D+00
 Coeff-En:   0.000D+00 0.000D+00 0.100D+01
 Coeff:      0.405D-01 0.416D+00 0.544D+00
 Gap=     0.144 Goal=   None    Shift=    0.000
 Gap=     0.144 Goal=   None    Shift=    0.000
 RMSDP=1.30D-02 MaxDP=1.71D+00 DE=-3.97D-01 OVMax= 1.10D-01

 Cycle   4  Pass 1  IDiag  1:
 RMSU=  8.91D-03    CP:  1.05D+00  2.34D-01  1.15D+00
 E= -1615.34853787893     Delta-E=       -0.056789002994 Rises=F Damp=F
 DIIS: error= 8.54D-03 at cycle   4 NSaved=   4.
 NSaved= 4 IEnMin= 4 EnMin= -1615.34853787893     IErMin= 4 ErrMin= 8.54D-03
 ErrMax= 8.54D-03  0.00D+00 EMaxC= 1.00D-01 BMatC= 1.44D-01 BMatP= 4.15D-01
 IDIUse=3 WtCom= 9.15D-01 WtEn= 8.54D-02
 Coeff-Com: -0.655D-02 0.669D-01 0.377D+00 0.563D+00
 Coeff-En:   0.000D+00 0.000D+00 0.302D+00 0.698D+00
 Coeff:     -0.599D-02 0.612D-01 0.370D+00 0.574D+00
 Gap=     0.157 Goal=   None    Shift=    0.000
 Gap=     0.157 Goal=   None    Shift=    0.000
 RMSDP=7.42D-03 MaxDP=9.36D-01 DE=-5.68D-02 OVMax= 4.70D-02

 Cycle   5  Pass 1  IDiag  1:
 RMSU=  1.09D-03    CP:  9.74D-01  2.14D-01  1.12D+00  5.61D-01
 E= -1615.37677801189     Delta-E=       -0.028240132963 Rises=F Damp=F
 DIIS: error= 1.59D-03 at cycle   5 NSaved=   5.
 NSaved= 5 IEnMin= 5 EnMin= -1615.37677801189     IErMin= 5 ErrMin= 1.59D-03
 ErrMax= 1.59D-03  0.00D+00 EMaxC= 1.00D-01 BMatC= 6.23D-03 BMatP= 1.44D-01
 IDIUse=3 WtCom= 9.84D-01 WtEn= 1.59D-02
 Coeff-Com: -0.567D-02 0.161D-01 0.206D+00 0.354D+00 0.430D+00
 Coeff-En:   0.000D+00 0.000D+00 0.000D+00 0.000D+00 0.100D+01
 Coeff:     -0.558D-02 0.159D-01 0.203D+00 0.348D+00 0.439D+00
 Gap=     0.143 Goal=   None    Shift=    0.000
 Gap=     0.143 Goal=   None    Shift=    0.000
 RMSDP=1.23D-03 MaxDP=1.34D-01 DE=-2.82D-02 OVMax= 1.27D-02

 Cycle   6  Pass 1  IDiag  1:
 RMSU=  3.06D-04    CP:  9.84D-01  1.97D-01  1.16D+00  6.26D-01  7.37D-01
 E= -1615.37813181150     Delta-E=       -0.001353799608 Rises=F Damp=F
 DIIS: error= 3.53D-04 at cycle   6 NSaved=   6.
 NSaved= 6 IEnMin= 6 EnMin= -1615.37813181150     IErMin= 6 ErrMin= 3.53D-04
 ErrMax= 3.53D-04  0.00D+00 EMaxC= 1.00D-01 BMatC= 3.77D-04 BMatP= 6.23D-03
 IDIUse=3 WtCom= 9.96D-01 WtEn= 3.53D-03
 Coeff-Com: -0.997D-03-0.229D-02 0.531D-01 0.990D-01 0.220D+00 0.631D+00
 Coeff-En:   0.000D+00 0.000D+00 0.000D+00 0.000D+00 0.000D+00 0.100D+01
 Coeff:     -0.993D-03-0.228D-02 0.530D-01 0.987D-01 0.220D+00 0.632D+00
 Gap=     0.143 Goal=   None    Shift=    0.000
 Gap=     0.143 Goal=   None    Shift=    0.000
 RMSDP=1.90D-04 MaxDP=1.26D-02 DE=-1.35D-03 OVMax= 5.66D-03

 Cycle   7  Pass 1  IDiag  1:
 RMSU=  1.28D-04    CP:  9.84D-01  1.93D-01  1.15D+00  6.28D-01  6.98D-01
                    CP:  7.15D-01
 E= -1615.37820803828     Delta-E=       -0.000076226774 Rises=F Damp=F
 DIIS: error= 1.37D-04 at cycle   7 NSaved=   7.
 NSaved= 7 IEnMin= 7 EnMin= -1615.37820803828     IErMin= 7 ErrMin= 1.37D-04
 ErrMax= 1.37D-04  0.00D+00 EMaxC= 1.00D-01 BMatC= 6.18D-05 BMatP= 3.77D-04
 IDIUse=3 WtCom= 9.99D-01 WtEn= 1.37D-03
 Coeff-Com:  0.246D-03-0.338D-02 0.110D-01 0.212D-01 0.696D-01 0.355D+00
 Coeff-Com:  0.547D+00
 Coeff-En:   0.000D+00 0.000D+00 0.000D+00 0.000D+00 0.000D+00 0.781D-01
 Coeff-En:   0.922D+00
 Coeff:      0.246D-03-0.338D-02 0.109D-01 0.212D-01 0.695D-01 0.354D+00
 Coeff:      0.547D+00
 Gap=     0.143 Goal=   None    Shift=    0.000
 Gap=     0.143 Goal=   None    Shift=    0.000
 RMSDP=5.85D-05 MaxDP=5.20D-03 DE=-7.62D-05 OVMax= 6.16D-04

 Cycle   8  Pass 1  IDiag  1:
 RMSU=  2.30D-05    CP:  9.84D-01  1.92D-01  1.15D+00  6.28D-01  7.11D-01
                    CP:  8.03D-01  8.69D-01
 E= -1615.37822136414     Delta-E=       -0.000013325869 Rises=F Damp=F
 DIIS: error= 3.92D-05 at cycle   8 NSaved=   8.
 NSaved= 8 IEnMin= 8 EnMin= -1615.37822136414     IErMin= 8 ErrMin= 3.92D-05
 ErrMax= 3.92D-05  0.00D+00 EMaxC= 1.00D-01 BMatC= 3.14D-06 BMatP= 6.18D-05
 IDIUse=1 WtCom= 1.00D+00 WtEn= 0.00D+00
 Coeff-Com:  0.379D-03-0.108D-02-0.120D-02-0.358D-02-0.540D-02 0.689D-01
 Coeff-Com:  0.180D+00 0.762D+00
 Coeff:      0.379D-03-0.108D-02-0.120D-02-0.358D-02-0.540D-02 0.689D-01
 Coeff:      0.180D+00 0.762D+00
 Gap=     0.143 Goal=   None    Shift=    0.000
 Gap=     0.143 Goal=   None    Shift=    0.000
 RMSDP=2.08D-05 MaxDP=2.85D-03 DE=-1.33D-05 OVMax= 5.55D-04

 Cycle   9  Pass 1  IDiag  1:
 RMSU=  9.98D-06    CP:  9.84D-01  1.92D-01  1.15D+00  6.30D-01  7.14D-01
                    CP:  8.11D-01  8.80D-01  1.21D+00
 E= -1615.37822215605     Delta-E=       -0.000000791904 Rises=F Damp=F
 DIIS: error= 1.26D-05 at cycle   9 NSaved=   9.
 NSaved= 9 IEnMin= 9 EnMin= -1615.37822215605     IErMin= 9 ErrMin= 1.26D-05
 ErrMax= 1.26D-05  0.00D+00 EMaxC= 1.00D-01 BMatC= 3.55D-07 BMatP= 3.14D-06
 IDIUse=1 WtCom= 1.00D+00 WtEn= 0.00D+00
 Coeff-Com:  0.150D-03-0.249D-03-0.951D-03-0.279D-02-0.757D-02 0.456D-02
 Coeff-Com:  0.132D-01 0.275D+00 0.719D+00
 Coeff:      0.150D-03-0.249D-03-0.951D-03-0.279D-02-0.757D-02 0.456D-02
 Coeff:      0.132D-01 0.275D+00 0.719D+00
 Gap=     0.143 Goal=   None    Shift=    0.000
 Gap=     0.143 Goal=   None    Shift=    0.000
 RMSDP=8.18D-06 MaxDP=8.87D-04 DE=-7.92D-07 OVMax= 1.28D-04

 Cycle  10  Pass 1  IDiag  1:
 RMSU=  2.46D-06    CP:  9.84D-01  1.92D-01  1.15D+00  6.29D-01  7.14D-01
                    CP:  8.15D-01  8.87D-01  1.27D+00  9.13D-01
 E= -1615.37822224322     Delta-E=       -0.000000087176 Rises=F Damp=F
 DIIS: error= 3.30D-06 at cycle  10 NSaved=  10.
 NSaved=10 IEnMin=10 EnMin= -1615.37822224322     IErMin=10 ErrMin= 3.30D-06
 ErrMax= 3.30D-06  0.00D+00 EMaxC= 1.00D-01 BMatC= 3.43D-08 BMatP= 3.55D-07
 IDIUse=1 WtCom= 1.00D+00 WtEn= 0.00D+00
 Coeff-Com:  0.303D-04-0.224D-04-0.205D-03-0.751D-03-0.303D-02-0.310D-02
 Coeff-Com: -0.157D-01 0.446D-01 0.286D+00 0.692D+00
 Coeff:      0.303D-04-0.224D-04-0.205D-03-0.751D-03-0.303D-02-0.310D-02
 Coeff:     -0.157D-01 0.446D-01 0.286D+00 0.692D+00
 Gap=     0.143 Goal=   None    Shift=    0.000
 Gap=     0.143 Goal=   None    Shift=    0.000
 RMSDP=4.31D-06 MaxDP=5.88D-04 DE=-8.72D-08 OVMax= 5.09D-05

 Cycle  11  Pass 1  IDiag  1:
 RMSU=  1.58D-06    CP:  9.84D-01  1.92D-01  1.15D+00  6.29D-01  7.13D-01
                    CP:  8.17D-01  8.96D-01  1.26D+00  9.04D-01  7.47D-01
 E= -1615.37822225113     Delta-E=       -0.000000007907 Rises=F Damp=F
 DIIS: error= 1.15D-06 at cycle  11 NSaved=  11.
 NSaved=11 IEnMin=11 EnMin= -1615.37822225113     IErMin=11 ErrMin= 1.15D-06
 ErrMax= 1.15D-06  0.00D+00 EMaxC= 1.00D-01 BMatC= 4.18D-09 BMatP= 3.43D-08
 IDIUse=1 WtCom= 1.00D+00 WtEn= 0.00D+00
 Coeff-Com: -0.487D-05 0.215D-04 0.429D-04 0.349D-04-0.577D-03-0.155D-02
 Coeff-Com: -0.980D-02-0.143D-01 0.286D-01 0.307D+00 0.690D+00
 Coeff:     -0.487D-05 0.215D-04 0.429D-04 0.349D-04-0.577D-03-0.155D-02
 Coeff:     -0.980D-02-0.143D-01 0.286D-01 0.307D+00 0.690D+00
 Gap=     0.143 Goal=   None    Shift=    0.000
 Gap=     0.143 Goal=   None    Shift=    0.000
 RMSDP=1.19D-06 MaxDP=1.76D-04 DE=-7.91D-09 OVMax= 1.57D-05

 Cycle  12  Pass 1  IDiag  1:
 RMSU=  2.79D-07    CP:  9.84D-01  1.92D-01  1.15D+00  6.29D-01  7.14D-01
                    CP:  8.16D-01  8.94D-01  1.29D+00  9.33D-01  8.86D-01
                    CP:  7.79D-01
 E= -1615.37822225230     Delta-E=       -0.000000001165 Rises=F Damp=F
 DIIS: error= 2.08D-07 at cycle  12 NSaved=  12.
 NSaved=12 IEnMin=12 EnMin= -1615.37822225230     IErMin=12 ErrMin= 2.08D-07
 ErrMax= 2.08D-07  0.00D+00 EMaxC= 1.00D-01 BMatC= 1.31D-10 BMatP= 4.18D-09
 IDIUse=1 WtCom= 1.00D+00 WtEn= 0.00D+00
 Coeff-Com: -0.186D-05 0.481D-05 0.211D-04 0.415D-04-0.740D-04-0.165D-03
 Coeff-Com: -0.213D-02-0.525D-02-0.673D-02 0.538D-01 0.206D+00 0.754D+00
 Coeff:     -0.186D-05 0.481D-05 0.211D-04 0.415D-04-0.740D-04-0.165D-03
 Coeff:     -0.213D-02-0.525D-02-0.673D-02 0.538D-01 0.206D+00 0.754D+00
 Gap=     0.143 Goal=   None    Shift=    0.000
 Gap=     0.143 Goal=   None    Shift=    0.000
 RMSDP=1.98D-07 MaxDP=1.37D-05 DE=-1.16D-09 OVMax= 2.08D-06

 Cycle  13  Pass 1  IDiag  1:
 RMSU=  6.47D-08    CP:  9.84D-01  1.92D-01  1.15D+00  6.29D-01  7.14D-01
                    CP:  8.17D-01  8.94D-01  1.29D+00  9.33D-01  8.89D-01
                    CP:  7.92D-01  8.27D-01
 E= -1615.37822225229     Delta-E=        0.000000000005 Rises=F Damp=F
 DIIS: error= 4.65D-08 at cycle  13 NSaved=  13.
 NSaved=13 IEnMin=12 EnMin= -1615.37822225230     IErMin=13 ErrMin= 4.65D-08
 ErrMax= 4.65D-08  0.00D+00 EMaxC= 1.00D-01 BMatC= 8.57D-12 BMatP= 1.31D-10
 IDIUse=1 WtCom= 1.00D+00 WtEn= 0.00D+00
 Coeff-Com: -0.131D-06 0.791D-08 0.442D-05 0.116D-04 0.396D-05 0.460D-04
 Coeff-Com: -0.135D-03-0.827D-03-0.444D-02-0.249D-02 0.237D-01 0.270D+00
 Coeff-Com:  0.715D+00
 Coeff:     -0.131D-06 0.791D-08 0.442D-05 0.116D-04 0.396D-05 0.460D-04
 Coeff:     -0.135D-03-0.827D-03-0.444D-02-0.249D-02 0.237D-01 0.270D+00
 Coeff:      0.715D+00
 Gap=     0.143 Goal=   None    Shift=    0.000
 Gap=     0.143 Goal=   None    Shift=    0.000
 RMSDP=4.73D-08 MaxDP=4.63D-06 DE= 5.00D-12 OVMax= 4.50D-07

 Cycle  14  Pass 1  IDiag  1:
 RMSU=  1.08D-08    CP:  9.84D-01  1.92D-01  1.15D+00  6.29D-01  7.14D-01
                    CP:  8.17D-01  8.94D-01  1.29D+00  9.32D-01  8.92D-01
                    CP:  8.01D-01  8.66D-01  8.43D-01
 E= -1615.37822225212     Delta-E=        0.000000000169 Rises=F Damp=F
 DIIS: error= 1.51D-08 at cycle  14 NSaved=  14.
 NSaved=14 IEnMin=12 EnMin= -1615.37822225230     IErMin=14 ErrMin= 1.51D-08
 ErrMax= 1.51D-08  0.00D+00 EMaxC= 1.00D-01 BMatC= 6.69D-13 BMatP= 8.57D-12
 IDIUse=1 WtCom= 1.00D+00 WtEn= 0.00D+00
 Coeff-Com:  0.737D-07-0.257D-06 0.107D-05 0.293D-05 0.609D-05 0.295D-04
 Coeff-Com:  0.479D-04-0.662D-04-0.151D-02-0.404D-02-0.172D-02 0.757D-01
 Coeff-Com:  0.302D+00 0.629D+00
 Coeff:      0.737D-07-0.257D-06 0.107D-05 0.293D-05 0.609D-05 0.295D-04
 Coeff:      0.479D-04-0.662D-04-0.151D-02-0.404D-02-0.172D-02 0.757D-01
 Coeff:      0.302D+00 0.629D+00
 Gap=     0.143 Goal=   None    Shift=    0.000
 Gap=     0.143 Goal=   None    Shift=    0.000
 RMSDP=7.93D-09 MaxDP=7.42D-07 DE= 1.69D-10 OVMax= 9.59D-08

 Error on total polarization charges =  0.01949
 SCF Done:  E(UB3LYP) =  -1615.37822225     A.U. after   14 cycles
            NFock= 14  Conv=0.79D-08     -V/T= 2.0032
 <Sx>= 0.0000 <Sy>= 0.0000 <Sz>= 0.0000 <S**2>=-0.0000 S=-0.0000
 <L.S>= 0.000000000000E+00
 KE= 1.610146221206D+03 PE=-7.153946444753D+03 EE= 2.253341785678D+03
 Annihilation of the first spin contaminant:
 S**2 before annihilation    -0.0000,   after    -0.0000
 Leave Link  502 at Sun Jan 21 07:01:15 2024, MaxMem=  4026531840 cpu:            4971.6 elap:             622.3
 (Enter /sysapps/ubuntu-applications/gaussian/Gaussian/SSE_4/g16/l601.exe)
 Copying SCF densities to generalized density rwf, IOpCl= 1 IROHF=0.

 **********************************************************************

            Population analysis using the SCF density.

 **********************************************************************

 Orbital symmetries:
 Alpha Orbitals:
       Occupied  (A) (A) (A) (A) (A) (A) (A) (A) (A) (A) (A) (A)
                 (A) (A) (A) (A) (A) (A) (A) (A) (A) (A) (A) (A)
                 (A) (A) (A) (A) (A) (A) (A) (A) (A) (A) (A) (A)
                 (A) (A) (A) (A) (A) (A) (A) (A) (A) (A) (A) (A)
                 (A) (A) (A) (A) (A) (A) (A) (A) (A) (A) (A) (A)
                 (A) (A) (A) (A) (A) (A) (A) (A) (A) (A) (A) (A)
                 (A) (A) (A) (A)
       Virtual   (A) (A) (A) (A) (A) (A) (A) (A) (A) (A) (A) (A)
                 (A) (A) (A) (A) (A) (A) (A) (A) (A) (A) (A) (A)
                 (A) (A) (A) (A) (A) (A) (A) (A) (A) (A) (A) (A)
                 (A) (A) (A) (A) (A) (A) (A) (A) (A) (A) (A) (A)
                 (A) (A) (A) (A) (A) (A) (A) (A) (A) (A) (A) (A)
                 (A) (A) (A) (A) (A) (A) (A) (A) (A) (A) (A) (A)
                 (A) (A) (A) (A) (A) (A) (A) (A) (A) (A) (A) (A)
                 (A) (A) (A) (A) (A) (A) (A) (A) (A) (A) (A) (A)
                 (A) (A) (A) (A) (A) (A) (A) (A) (A) (A) (A) (A)
                 (A) (A) (A) (A) (A) (A) (A) (A) (A) (A) (A) (A)
                 (A) (A) (A) (A) (A) (A) (A) (A) (A) (A) (A) (A)
                 (A) (A) (A) (A) (A) (A) (A) (A) (A) (A) (A) (A)
                 (A) (A) (A) (A) (A) (A) (A) (A) (A) (A) (A) (A)
                 (A) (A) (A) (A) (A) (A) (A) (A) (A) (A) (A) (A)
                 (A) (A) (A) (A) (A) (A) (A) (A) (A) (A) (A) (A)
                 (A) (A) (A) (A) (A) (A) (A) (A) (A) (A) (A) (A)
                 (A) (A) (A) (A) (A) (A) (A) (A) (A) (A) (A) (A)
                 (A) (A) (A) (A) (A) (A) (A) (A) (A) (A) (A) (A)
                 (A) (A) (A) (A) (A) (A) (A) (A) (A) (A) (A) (A)
                 (A) (A) (A) (A) (A) (A) (A) (A) (A) (A) (A) (A)
                 (A) (A) (A) (A) (A) (A) (A) (A) (A) (A) (A) (A)
                 (A) (A) (A) (A) (A) (A) (A) (A) (A) (A) (A) (A)
                 (A) (A) (A) (A) (A) (A) (A) (A) (A) (A) (A) (A)
                 (A) (A) (A) (A) (A) (A) (A) (A) (A) (A) (A) (A)
                 (A) (A) (A) (A) (A) (A) (A) (A) (A) (A) (A) (A)
                 (A) (A) (A) (A) (A) (A) (A) (A) (A) (A) (A) (A)
                 (A) (A) (A) (A) (A) (A) (A) (A) (A) (A) (A) (A)
                 (A) (A) (A) (A) (A) (A) (A) (A) (A) (A) (A) (A)
                 (A) (A) (A) (A) (A) (A) (A) (A) (A) (A) (A) (A)
                 (A) (A) (A) (A) (A) (A) (A) (A) (A) (A) (A) (A)
                 (A) (A) (A) (A) (A) (A) (A) (A) (A) (A) (A) (A)
                 (A) (A) (A) (A) (A) (A) (A) (A) (A) (A) (A) (A)
                 (A) (A) (A) (A) (A) (A) (A) (A) (A) (A) (A) (A)
                 (A) (A) (A) (A) (A) (A) (A) (A) (A) (A) (A) (A)
                 (A) (A) (A) (A) (A) (A) (A) (A) (A) (A) (A) (A)
                 (A) (A) (A) (A) (A) (A) (A) (A) (A) (A) (A) (A)
                 (A) (A) (A) (A) (A) (A) (A) (A) (A) (A) (A) (A)
                 (A) (A) (A) (A) (A) (A) (A) (A) (A) (A) (A) (A)
                 (A) (A) (A)
 Beta  Orbitals:
       Occupied  (A) (A) (A) (A) (A) (A) (A) (A) (A) (A) (A) (A)
                 (A) (A) (A) (A) (A) (A) (A) (A) (A) (A) (A) (A)
                 (A) (A) (A) (A) (A) (A) (A) (A) (A) (A) (A) (A)
                 (A) (A) (A) (A) (A) (A) (A) (A) (A) (A) (A) (A)
                 (A) (A) (A) (A) (A) (A) (A) (A) (A) (A) (A) (A)
                 (A) (A) (A) (A) (A) (A) (A) (A) (A) (A) (A) (A)
                 (A) (A) (A) (A)
       Virtual   (A) (A) (A) (A) (A) (A) (A) (A) (A) (A) (A) (A)
                 (A) (A) (A) (A) (A) (A) (A) (A) (A) (A) (A) (A)
                 (A) (A) (A) (A) (A) (A) (A) (A) (A) (A) (A) (A)
                 (A) (A) (A) (A) (A) (A) (A) (A) (A) (A) (A) (A)
                 (A) (A) (A) (A) (A) (A) (A) (A) (A) (A) (A) (A)
                 (A) (A) (A) (A) (A) (A) (A) (A) (A) (A) (A) (A)
                 (A) (A) (A) (A) (A) (A) (A) (A) (A) (A) (A) (A)
                 (A) (A) (A) (A) (A) (A) (A) (A) (A) (A) (A) (A)
                 (A) (A) (A) (A) (A) (A) (A) (A) (A) (A) (A) (A)
                 (A) (A) (A) (A) (A) (A) (A) (A) (A) (A) (A) (A)
                 (A) (A) (A) (A) (A) (A) (A) (A) (A) (A) (A) (A)
                 (A) (A) (A) (A) (A) (A) (A) (A) (A) (A) (A) (A)
                 (A) (A) (A) (A) (A) (A) (A) (A) (A) (A) (A) (A)
                 (A) (A) (A) (A) (A) (A) (A) (A) (A) (A) (A) (A)
                 (A) (A) (A) (A) (A) (A) (A) (A) (A) (A) (A) (A)
                 (A) (A) (A) (A) (A) (A) (A) (A) (A) (A) (A) (A)
                 (A) (A) (A) (A) (A) (A) (A) (A) (A) (A) (A) (A)
                 (A) (A) (A) (A) (A) (A) (A) (A) (A) (A) (A) (A)
                 (A) (A) (A) (A) (A) (A) (A) (A) (A) (A) (A) (A)
                 (A) (A) (A) (A) (A) (A) (A) (A) (A) (A) (A) (A)
                 (A) (A) (A) (A) (A) (A) (A) (A) (A) (A) (A) (A)
                 (A) (A) (A) (A) (A) (A) (A) (A) (A) (A) (A) (A)
                 (A) (A) (A) (A) (A) (A) (A) (A) (A) (A) (A) (A)
                 (A) (A) (A) (A) (A) (A) (A) (A) (A) (A) (A) (A)
                 (A) (A) (A) (A) (A) (A) (A) (A) (A) (A) (A) (A)
                 (A) (A) (A) (A) (A) (A) (A) (A) (A) (A) (A) (A)
                 (A) (A) (A) (A) (A) (A) (A) (A) (A) (A) (A) (A)
                 (A) (A) (A) (A) (A) (A) (A) (A) (A) (A) (A) (A)
                 (A) (A) (A) (A) (A) (A) (A) (A) (A) (A) (A) (A)
                 (A) (A) (A) (A) (A) (A) (A) (A) (A) (A) (A) (A)
                 (A) (A) (A) (A) (A) (A) (A) (A) (A) (A) (A) (A)
                 (A) (A) (A) (A) (A) (A) (A) (A) (A) (A) (A) (A)
                 (A) (A) (A) (A) (A) (A) (A) (A) (A) (A) (A) (A)
                 (A) (A) (A) (A) (A) (A) (A) (A) (A) (A) (A) (A)
                 (A) (A) (A) (A) (A) (A) (A) (A) (A) (A) (A) (A)
                 (A) (A) (A) (A) (A) (A) (A) (A) (A) (A) (A) (A)
                 (A) (A) (A) (A) (A) (A) (A) (A) (A) (A) (A) (A)
                 (A) (A) (A) (A) (A) (A) (A) (A) (A) (A) (A) (A)
                 (A) (A) (A)
 The electronic state is 1-A.
 Alpha  occ. eigenvalues -- -101.57443-101.57442 -19.15078 -19.15078 -10.30438
 Alpha  occ. eigenvalues --  -10.30437 -10.27054 -10.27053 -10.23264 -10.23263
 Alpha  occ. eigenvalues --  -10.21396 -10.21395 -10.16529 -10.16528 -10.16244
 Alpha  occ. eigenvalues --  -10.16244 -10.16182 -10.16181  -9.48934  -9.48934
 Alpha  occ. eigenvalues --   -7.25404  -7.25403  -7.24442  -7.24441  -7.24333
 Alpha  occ. eigenvalues --   -7.24332  -1.09103  -1.08842  -0.91601  -0.90212
 Alpha  occ. eigenvalues --   -0.84894  -0.83843  -0.81321  -0.76242  -0.69935
 Alpha  occ. eigenvalues --   -0.69518  -0.69488  -0.69159  -0.69028  -0.64927
 Alpha  occ. eigenvalues --   -0.60101  -0.57707  -0.56215  -0.54732  -0.49954
 Alpha  occ. eigenvalues --   -0.49498  -0.48624  -0.47676  -0.45884  -0.45548
 Alpha  occ. eigenvalues --   -0.45412  -0.44976  -0.44496  -0.43697  -0.43496
 Alpha  occ. eigenvalues --   -0.42339  -0.40624  -0.39944  -0.38975  -0.38498
 Alpha  occ. eigenvalues --   -0.37803  -0.37689  -0.37370  -0.37127  -0.36397
 Alpha  occ. eigenvalues --   -0.36271  -0.34991  -0.34894  -0.34691  -0.34331
 Alpha  occ. eigenvalues --   -0.32672  -0.32150  -0.29779  -0.29663  -0.28404
 Alpha  occ. eigenvalues --   -0.27198
 Alpha virt. eigenvalues --   -0.12884  -0.05467  -0.02627  -0.01061  -0.00257
 Alpha virt. eigenvalues --    0.00245   0.01289   0.01481   0.02063   0.02156
 Alpha virt. eigenvalues --    0.02237   0.02690   0.03591   0.03795   0.04342
 Alpha virt. eigenvalues --    0.04493   0.04674   0.04916   0.05018   0.05633
 Alpha virt. eigenvalues --    0.06599   0.06850   0.07164   0.07168   0.07490
 Alpha virt. eigenvalues --    0.07540   0.07799   0.08376   0.08781   0.09476
 Alpha virt. eigenvalues --    0.09839   0.10358   0.10917   0.11152   0.11260
 Alpha virt. eigenvalues --    0.11904   0.12061   0.12110   0.12430   0.12555
 Alpha virt. eigenvalues --    0.12874   0.13104   0.13320   0.13656   0.13764
 Alpha virt. eigenvalues --    0.14049   0.14411   0.14597   0.14608   0.14723
 Alpha virt. eigenvalues --    0.15019   0.15130   0.15268   0.15474   0.15933
 Alpha virt. eigenvalues --    0.16185   0.16545   0.16547   0.17172   0.17254
 Alpha virt. eigenvalues --    0.17833   0.17945   0.18482   0.18514   0.18517
 Alpha virt. eigenvalues --    0.18773   0.19235   0.19549   0.19658   0.20165
 Alpha virt. eigenvalues --    0.20317   0.20685   0.20785   0.21440   0.21661
 Alpha virt. eigenvalues --    0.22613   0.22874   0.22929   0.23271   0.23373
 Alpha virt. eigenvalues --    0.23649   0.24196   0.24225   0.25086   0.25236
 Alpha virt. eigenvalues --    0.25457   0.26491   0.26942   0.27148   0.27736
 Alpha virt. eigenvalues --    0.28254   0.28406   0.28570   0.28958   0.28964
 Alpha virt. eigenvalues --    0.29411   0.29582   0.30702   0.31468   0.31842
 Alpha virt. eigenvalues --    0.31939   0.32545   0.32603   0.33166   0.33201
 Alpha virt. eigenvalues --    0.33723   0.33828   0.34201   0.34749   0.35018
 Alpha virt. eigenvalues --    0.35043   0.35805   0.36238   0.36747   0.37543
 Alpha virt. eigenvalues --    0.37795   0.38513   0.39086   0.39418   0.41222
 Alpha virt. eigenvalues --    0.41330   0.41639   0.42826   0.44481   0.44729
 Alpha virt. eigenvalues --    0.45773   0.46008   0.46711   0.47078   0.47461
 Alpha virt. eigenvalues --    0.47959   0.49361   0.50018   0.50621   0.51226
 Alpha virt. eigenvalues --    0.51494   0.52299   0.52334   0.53064   0.53730
 Alpha virt. eigenvalues --    0.53766   0.56870   0.57097   0.58509   0.58551
 Alpha virt. eigenvalues --    0.58745   0.59326   0.59420   0.60354   0.61029
 Alpha virt. eigenvalues --    0.61815   0.62556   0.63340   0.63401   0.64367
 Alpha virt. eigenvalues --    0.64597   0.65293   0.66145   0.66757   0.66970
 Alpha virt. eigenvalues --    0.66991   0.67919   0.68234   0.68469   0.68840
 Alpha virt. eigenvalues --    0.69225   0.69670   0.70370   0.70607   0.71386
 Alpha virt. eigenvalues --    0.71851   0.72984   0.73341   0.73644   0.73856
 Alpha virt. eigenvalues --    0.75090   0.76998   0.77211   0.77873   0.78222
 Alpha virt. eigenvalues --    0.79179   0.79414   0.79722   0.80008   0.80766
 Alpha virt. eigenvalues --    0.81939   0.82826   0.84393   0.85031   0.86021
 Alpha virt. eigenvalues --    0.87724   0.88061   0.88660   0.89608   0.89938
 Alpha virt. eigenvalues --    0.90158   0.91608   0.92001   0.92912   0.93538
 Alpha virt. eigenvalues --    0.93575   0.95139   0.96794   0.97105   0.98295
 Alpha virt. eigenvalues --    0.99260   0.99359   1.02267   1.02751   1.03967
 Alpha virt. eigenvalues --    1.06862   1.07652   1.08059   1.10507   1.11177
 Alpha virt. eigenvalues --    1.12714   1.14455   1.16180   1.16305   1.16860
 Alpha virt. eigenvalues --    1.18368   1.20151   1.21024   1.21864   1.22574
 Alpha virt. eigenvalues --    1.23342   1.24785   1.25927   1.26042   1.27093
 Alpha virt. eigenvalues --    1.29218   1.30115   1.32008   1.32019   1.36116
 Alpha virt. eigenvalues --    1.37939   1.38581   1.40838   1.43324   1.44426
 Alpha virt. eigenvalues --    1.44584   1.45096   1.45830   1.47480   1.48724
 Alpha virt. eigenvalues --    1.49824   1.50185   1.50508   1.50750   1.51827
 Alpha virt. eigenvalues --    1.52417   1.53238   1.54727   1.55186   1.56327
 Alpha virt. eigenvalues --    1.56503   1.56623   1.56951   1.57373   1.60751
 Alpha virt. eigenvalues --    1.61441   1.63048   1.63081   1.64164   1.64784
 Alpha virt. eigenvalues --    1.65913   1.66253   1.67271   1.67952   1.68463
 Alpha virt. eigenvalues --    1.68891   1.69841   1.71088   1.71539   1.72933
 Alpha virt. eigenvalues --    1.73869   1.74480   1.75860   1.76192   1.76709
 Alpha virt. eigenvalues --    1.76954   1.78215   1.79110   1.79643   1.79894
 Alpha virt. eigenvalues --    1.80641   1.80784   1.83972   1.84721   1.85205
 Alpha virt. eigenvalues --    1.85606   1.85849   1.88777   1.91582   1.94834
 Alpha virt. eigenvalues --    1.97798   1.98827   1.98900   2.00232   2.00615
 Alpha virt. eigenvalues --    2.01009   2.02551   2.04208   2.04703   2.08760
 Alpha virt. eigenvalues --    2.10982   2.11255   2.13041   2.13433   2.14178
 Alpha virt. eigenvalues --    2.16106   2.18069   2.18529   2.21338   2.22335
 Alpha virt. eigenvalues --    2.22657   2.24418   2.25321   2.25774   2.26433
 Alpha virt. eigenvalues --    2.29983   2.30457   2.31982   2.33662   2.37626
 Alpha virt. eigenvalues --    2.38497   2.41789   2.42771   2.42977   2.43672
 Alpha virt. eigenvalues --    2.44428   2.46525   2.46790   2.48172   2.50018
 Alpha virt. eigenvalues --    2.50745   2.52874   2.53151   2.53378   2.53690
 Alpha virt. eigenvalues --    2.53838   2.55323   2.55527   2.56233   2.56626
 Alpha virt. eigenvalues --    2.57196   2.57558   2.58962   2.60064   2.61085
 Alpha virt. eigenvalues --    2.61183   2.61938   2.64436   2.65112   2.66241
 Alpha virt. eigenvalues --    2.67000   2.69231   2.69720   2.71680   2.75378
 Alpha virt. eigenvalues --    2.75784   2.76652   2.78504   2.78804   2.80137
 Alpha virt. eigenvalues --    2.80741   2.81533   2.82132   2.83428   2.86648
 Alpha virt. eigenvalues --    2.87141   2.87950   2.88469   2.89832   2.91360
 Alpha virt. eigenvalues --    2.92694   2.99287   2.99671   3.00923   3.01309
 Alpha virt. eigenvalues --    3.03143   3.03858   3.04653   3.07082   3.09153
 Alpha virt. eigenvalues --    3.12419   3.13283   3.17784   3.18242   3.20219
 Alpha virt. eigenvalues --    3.21937   3.23511   3.23856   3.25589   3.28436
 Alpha virt. eigenvalues --    3.33994   3.37181   3.37219   3.40856   3.49892
 Alpha virt. eigenvalues --    3.56346   3.59964   3.65079   3.68025   3.77568
 Alpha virt. eigenvalues --    3.78404   3.78597   3.78809   3.79002   3.80684
 Alpha virt. eigenvalues --    3.80689   3.82239   3.82281   3.84249   3.84710
 Alpha virt. eigenvalues --    3.85117   3.86886   3.91611   4.01943   4.16188
 Alpha virt. eigenvalues --    4.22231   4.24446   4.24801   4.26156   4.33383
 Alpha virt. eigenvalues --    4.41592   4.51071   5.06334   5.10902   5.23808
 Alpha virt. eigenvalues --    5.26497   5.71734   5.75855   9.81649   9.81739
 Alpha virt. eigenvalues --   23.47008  23.61294  23.75547  23.77979  23.82415
 Alpha virt. eigenvalues --   23.85798  23.98032  23.98046  23.98940  23.99029
 Alpha virt. eigenvalues --   23.99516  23.99812  24.10564  24.14018  25.94996
 Alpha virt. eigenvalues --   25.96202  26.33867  26.35816  26.68251  26.72144
 Alpha virt. eigenvalues --   49.97693  50.01901 215.81704 215.82019
  Beta  occ. eigenvalues -- -101.57443-101.57442 -19.15078 -19.15078 -10.30438
  Beta  occ. eigenvalues --  -10.30437 -10.27054 -10.27053 -10.23264 -10.23263
  Beta  occ. eigenvalues --  -10.21396 -10.21395 -10.16529 -10.16528 -10.16244
  Beta  occ. eigenvalues --  -10.16244 -10.16182 -10.16181  -9.48934  -9.48934
  Beta  occ. eigenvalues --   -7.25404  -7.25403  -7.24442  -7.24441  -7.24333
  Beta  occ. eigenvalues --   -7.24332  -1.09103  -1.08842  -0.91601  -0.90212
  Beta  occ. eigenvalues --   -0.84894  -0.83843  -0.81321  -0.76242  -0.69935
  Beta  occ. eigenvalues --   -0.69518  -0.69488  -0.69159  -0.69028  -0.64927
  Beta  occ. eigenvalues --   -0.60101  -0.57707  -0.56215  -0.54732  -0.49954
  Beta  occ. eigenvalues --   -0.49498  -0.48624  -0.47676  -0.45884  -0.45548
  Beta  occ. eigenvalues --   -0.45412  -0.44976  -0.44496  -0.43697  -0.43496
  Beta  occ. eigenvalues --   -0.42339  -0.40624  -0.39944  -0.38975  -0.38498
  Beta  occ. eigenvalues --   -0.37803  -0.37689  -0.37370  -0.37127  -0.36397
  Beta  occ. eigenvalues --   -0.36271  -0.34991  -0.34894  -0.34691  -0.34331
  Beta  occ. eigenvalues --   -0.32672  -0.32150  -0.29779  -0.29663  -0.28404
  Beta  occ. eigenvalues --   -0.27198
  Beta virt. eigenvalues --   -0.12884  -0.05467  -0.02627  -0.01061  -0.00257
  Beta virt. eigenvalues --    0.00245   0.01289   0.01481   0.02063   0.02156
  Beta virt. eigenvalues --    0.02237   0.02690   0.03591   0.03795   0.04342
  Beta virt. eigenvalues --    0.04493   0.04674   0.04916   0.05018   0.05633
  Beta virt. eigenvalues --    0.06599   0.06850   0.07164   0.07168   0.07490
  Beta virt. eigenvalues --    0.07540   0.07799   0.08376   0.08781   0.09476
  Beta virt. eigenvalues --    0.09839   0.10358   0.10917   0.11152   0.11260
  Beta virt. eigenvalues --    0.11904   0.12061   0.12110   0.12430   0.12555
  Beta virt. eigenvalues --    0.12874   0.13104   0.13320   0.13656   0.13764
  Beta virt. eigenvalues --    0.14049   0.14411   0.14597   0.14608   0.14723
  Beta virt. eigenvalues --    0.15019   0.15130   0.15268   0.15474   0.15933
  Beta virt. eigenvalues --    0.16185   0.16545   0.16547   0.17172   0.17254
  Beta virt. eigenvalues --    0.17833   0.17945   0.18482   0.18514   0.18517
  Beta virt. eigenvalues --    0.18773   0.19235   0.19549   0.19658   0.20165
  Beta virt. eigenvalues --    0.20317   0.20685   0.20785   0.21440   0.21661
  Beta virt. eigenvalues --    0.22613   0.22874   0.22929   0.23271   0.23373
  Beta virt. eigenvalues --    0.23649   0.24196   0.24225   0.25086   0.25236
  Beta virt. eigenvalues --    0.25457   0.26491   0.26942   0.27148   0.27736
  Beta virt. eigenvalues --    0.28254   0.28406   0.28570   0.28958   0.28964
  Beta virt. eigenvalues --    0.29411   0.29582   0.30702   0.31468   0.31842
  Beta virt. eigenvalues --    0.31939   0.32545   0.32603   0.33166   0.33201
  Beta virt. eigenvalues --    0.33723   0.33828   0.34201   0.34749   0.35018
  Beta virt. eigenvalues --    0.35043   0.35805   0.36238   0.36747   0.37543
  Beta virt. eigenvalues --    0.37795   0.38513   0.39086   0.39418   0.41222
  Beta virt. eigenvalues --    0.41330   0.41639   0.42826   0.44481   0.44729
  Beta virt. eigenvalues --    0.45773   0.46008   0.46711   0.47078   0.47461
  Beta virt. eigenvalues --    0.47959   0.49361   0.50018   0.50621   0.51226
  Beta virt. eigenvalues --    0.51494   0.52299   0.52334   0.53064   0.53730
  Beta virt. eigenvalues --    0.53766   0.56870   0.57097   0.58509   0.58551
  Beta virt. eigenvalues --    0.58745   0.59326   0.59420   0.60354   0.61029
  Beta virt. eigenvalues --    0.61815   0.62556   0.63340   0.63401   0.64367
  Beta virt. eigenvalues --    0.64597   0.65293   0.66145   0.66757   0.66970
  Beta virt. eigenvalues --    0.66991   0.67919   0.68234   0.68469   0.68840
  Beta virt. eigenvalues --    0.69225   0.69670   0.70370   0.70607   0.71386
  Beta virt. eigenvalues --    0.71851   0.72984   0.73341   0.73644   0.73856
  Beta virt. eigenvalues --    0.75090   0.76998   0.77211   0.77873   0.78222
  Beta virt. eigenvalues --    0.79179   0.79414   0.79722   0.80008   0.80766
  Beta virt. eigenvalues --    0.81939   0.82826   0.84393   0.85031   0.86021
  Beta virt. eigenvalues --    0.87724   0.88061   0.88660   0.89608   0.89938
  Beta virt. eigenvalues --    0.90158   0.91608   0.92001   0.92912   0.93538
  Beta virt. eigenvalues --    0.93575   0.95139   0.96794   0.97105   0.98295
  Beta virt. eigenvalues --    0.99260   0.99359   1.02267   1.02751   1.03967
  Beta virt. eigenvalues --    1.06862   1.07652   1.08059   1.10507   1.11177
  Beta virt. eigenvalues --    1.12714   1.14455   1.16180   1.16305   1.16860
  Beta virt. eigenvalues --    1.18368   1.20151   1.21024   1.21864   1.22574
  Beta virt. eigenvalues --    1.23342   1.24785   1.25927   1.26042   1.27093
  Beta virt. eigenvalues --    1.29218   1.30115   1.32008   1.32019   1.36116
  Beta virt. eigenvalues --    1.37939   1.38581   1.40838   1.43324   1.44426
  Beta virt. eigenvalues --    1.44584   1.45096   1.45830   1.47480   1.48724
  Beta virt. eigenvalues --    1.49824   1.50185   1.50508   1.50750   1.51827
  Beta virt. eigenvalues --    1.52417   1.53238   1.54727   1.55186   1.56327
  Beta virt. eigenvalues --    1.56503   1.56623   1.56951   1.57373   1.60751
  Beta virt. eigenvalues --    1.61441   1.63048   1.63081   1.64164   1.64784
  Beta virt. eigenvalues --    1.65913   1.66253   1.67271   1.67952   1.68463
  Beta virt. eigenvalues --    1.68891   1.69841   1.71088   1.71539   1.72933
  Beta virt. eigenvalues --    1.73869   1.74480   1.75860   1.76192   1.76709
  Beta virt. eigenvalues --    1.76954   1.78215   1.79110   1.79643   1.79894
  Beta virt. eigenvalues --    1.80641   1.80784   1.83972   1.84721   1.85205
  Beta virt. eigenvalues --    1.85606   1.85849   1.88777   1.91582   1.94834
  Beta virt. eigenvalues --    1.97798   1.98827   1.98900   2.00232   2.00615
  Beta virt. eigenvalues --    2.01009   2.02551   2.04208   2.04703   2.08760
  Beta virt. eigenvalues --    2.10982   2.11255   2.13041   2.13433   2.14178
  Beta virt. eigenvalues --    2.16106   2.18069   2.18529   2.21338   2.22335
  Beta virt. eigenvalues --    2.22657   2.24418   2.25321   2.25774   2.26433
  Beta virt. eigenvalues --    2.29983   2.30457   2.31982   2.33662   2.37626
  Beta virt. eigenvalues --    2.38497   2.41789   2.42771   2.42977   2.43672
  Beta virt. eigenvalues --    2.44428   2.46525   2.46790   2.48172   2.50018
  Beta virt. eigenvalues --    2.50745   2.52874   2.53151   2.53378   2.53690
  Beta virt. eigenvalues --    2.53838   2.55323   2.55527   2.56233   2.56626
  Beta virt. eigenvalues --    2.57196   2.57558   2.58962   2.60064   2.61085
  Beta virt. eigenvalues --    2.61183   2.61938   2.64436   2.65112   2.66241
  Beta virt. eigenvalues --    2.67000   2.69231   2.69720   2.71680   2.75378
  Beta virt. eigenvalues --    2.75784   2.76652   2.78504   2.78804   2.80137
  Beta virt. eigenvalues --    2.80741   2.81533   2.82132   2.83428   2.86648
  Beta virt. eigenvalues --    2.87141   2.87950   2.88469   2.89832   2.91360
  Beta virt. eigenvalues --    2.92694   2.99287   2.99671   3.00923   3.01309
  Beta virt. eigenvalues --    3.03143   3.03858   3.04653   3.07082   3.09153
  Beta virt. eigenvalues --    3.12419   3.13283   3.17784   3.18242   3.20219
  Beta virt. eigenvalues --    3.21937   3.23511   3.23856   3.25589   3.28436
  Beta virt. eigenvalues --    3.33994   3.37181   3.37219   3.40856   3.49892
  Beta virt. eigenvalues --    3.56346   3.59964   3.65079   3.68025   3.77568
  Beta virt. eigenvalues --    3.78404   3.78597   3.78809   3.79002   3.80684
  Beta virt. eigenvalues --    3.80689   3.82239   3.82281   3.84249   3.84710
  Beta virt. eigenvalues --    3.85117   3.86886   3.91611   4.01943   4.16188
  Beta virt. eigenvalues --    4.22231   4.24446   4.24801   4.26156   4.33383
  Beta virt. eigenvalues --    4.41592   4.51071   5.06334   5.10902   5.23808
  Beta virt. eigenvalues --    5.26497   5.71734   5.75855   9.81649   9.81739
  Beta virt. eigenvalues --   23.47008  23.61294  23.75547  23.77979  23.82415
  Beta virt. eigenvalues --   23.85798  23.98032  23.98046  23.98940  23.99029
  Beta virt. eigenvalues --   23.99516  23.99812  24.10564  24.14018  25.94996
  Beta virt. eigenvalues --   25.96202  26.33867  26.35816  26.68251  26.72144
  Beta virt. eigenvalues --   49.97693  50.01901 215.81704 215.82019
          Condensed to atoms (all electrons):
               1          2          3          4          5          6
     1  C   29.539081 -11.700693  -5.460796   9.186289  -8.429327  -6.374804
     2  C  -11.700693  29.660317   1.555609  -8.423799  -0.215968  -0.127313
     3  C   -5.460796   1.555609  21.428649  -6.378502  -0.123760  -0.245200
     4  C    9.186289  -8.423799  -6.378502  29.536878 -11.702909  -5.458878
     5  C   -8.429327  -0.215968  -0.123760 -11.702909  29.665235   1.554261
     6  C   -6.374804  -0.127313  -0.245200  -5.458878   1.554261  21.428703
     7  O   -0.166095   0.153937   0.024238   0.231102  -0.149422   0.031286
     8  O    0.231373  -0.149705   0.031408  -0.166060   0.153912   0.024251
     9  Cl  -0.640887   0.079221   0.386215  -0.147262   1.057354  -1.682835
    10  Cl  -0.146311   1.055416  -1.682560  -0.639729   0.079268   0.385719
    11  C    0.766030  -0.041071  -4.359895   3.134350  -9.300158   0.733652
    12  C   -0.430514   0.052034   0.537734  -1.415409   1.959555  -0.041275
    13  C   -0.135782   0.051373   0.141526  -0.380885   0.551449   0.203807
    14  C    0.325605  -0.096337  -0.478224  -0.346001  -0.151542   0.070814
    15  C    3.135095  -9.298660   0.732648   0.767483  -0.042930  -4.359797
    16  C   -1.415783   1.959887  -0.041163  -0.430773   0.052590   0.538045
    17  C   -0.379843   0.550409   0.204238  -0.134984   0.051367   0.141442
    18  C   -0.346718  -0.151726   0.071009   0.325512  -0.096494  -0.478822
    19  H    0.004566  -0.016060   0.075214   0.039528  -0.065122  -0.022934
    20  H   -0.007639   0.000942   0.000195  -0.025468   0.076292   0.004807
    21  H   -0.009827   0.018967  -0.032562  -0.025690  -0.058929  -0.002087
    22  H    0.013008  -0.007715  -0.032876   0.042187  -0.187147   0.001727
    23  H   -0.049108   0.000398   0.013035  -0.087012   0.133875  -0.012744
    24  H   -0.050430  -0.034657   0.016365   0.011760   0.124814  -0.057926
    25  H   -0.126095   0.032224   0.079740  -0.158798   0.154166  -0.072100
    26  H    0.031969  -0.006826  -0.032778   0.068803  -0.054173   0.023704
    27  H    0.014276  -0.006296  -0.041582   0.052911  -0.140700  -0.005309
    28  H    0.039458  -0.065035  -0.022926   0.004548  -0.016044   0.075261
    29  H   -0.025454   0.076120   0.004812  -0.007655   0.000939   0.000168
    30  H   -0.025729  -0.058887  -0.002070  -0.009845   0.019020  -0.032601
    31  H    0.042213  -0.187129   0.001669   0.012852  -0.007812  -0.032822
    32  H   -0.086913   0.133836  -0.012638  -0.049004   0.000403   0.013006
    33  H    0.011761   0.124620  -0.057857  -0.050339  -0.034592   0.016337
    34  H    0.053087  -0.140928  -0.005326   0.014368  -0.006317  -0.041661
    35  H   -0.158755   0.154003  -0.071901  -0.125980   0.032263   0.079638
    36  H    0.068764  -0.053923   0.023609   0.031896  -0.006844  -0.032722
               7          8          9         10         11         12
     1  C   -0.166095   0.231373  -0.640887  -0.146311   0.766030  -0.430514
     2  C    0.153937  -0.149705   0.079221   1.055416  -0.041071   0.052034
     3  C    0.024238   0.031408   0.386215  -1.682560  -4.359895   0.537734
     4  C    0.231102  -0.166060  -0.147262  -0.639729   3.134350  -1.415409
     5  C   -0.149422   0.153912   1.057354   0.079268  -9.300158   1.959555
     6  C    0.031286   0.024251  -1.682835   0.385719   0.733652  -0.041275
     7  O    7.971133   0.001764   0.001994   0.107146   0.090862  -0.051569
     8  O    0.001764   7.971049   0.107201   0.001995  -0.024941   0.002413
     9  Cl   0.001994   0.107201  17.993121  -0.013375  -0.570678   0.035825
    10  Cl   0.107146   0.001995  -0.013375  17.992565  -0.382835   0.057419
    11  C    0.090862  -0.024941  -0.570678  -0.382835  16.528840  -1.253808
    12  C   -0.051569   0.002413   0.035825   0.057419  -1.253808   6.406666
    13  C    0.021512   0.003116  -0.117307   0.014522  -0.476544  -0.087773
    14  C   -0.081563   0.000460   0.095699  -0.005010   0.208986  -0.198332
    15  C   -0.024884   0.090788  -0.382746  -0.569341   0.584829  -0.068863
    16  C    0.002413  -0.051552   0.057432   0.035745  -0.068869   0.015496
    17  C    0.003100   0.021490   0.014562  -0.118018  -0.012051  -0.000012
    18  C    0.000470  -0.081545  -0.005051   0.095795  -0.001140  -0.002369
    19  H   -0.004568  -0.000106  -0.002480  -0.000957  -0.047794   0.420733
    20  H    0.001300   0.000167   0.006969   0.000655  -0.140322   0.447576
    21  H    0.002854  -0.000113  -0.005838  -0.001604   0.101092   0.313493
    22  H    0.000163   0.000219   0.013127  -0.001629   0.141444  -0.045874
    23  H   -0.000027   0.000251   0.001139   0.000777  -0.099445   0.025060
    24  H    0.000181   0.000528   0.075317  -0.001235  -0.052290   0.018048
    25  H    0.005880   0.002172   0.087709  -0.000456  -0.119396   0.039815
    26  H   -0.000796  -0.000311  -0.005002  -0.001200   0.005470  -0.032171
    27  H   -0.011859   0.000109  -0.011488   0.001315   0.095936  -0.004923
    28  H   -0.000106  -0.004563  -0.000962  -0.002478  -0.005471  -0.000506
    29  H    0.000167   0.001299   0.000655   0.006974  -0.001517   0.000825
    30  H   -0.000112   0.002857  -0.001609  -0.005847   0.011049  -0.000561
    31  H    0.000222   0.000164  -0.001628   0.013278  -0.000679   0.001027
    32  H    0.000250  -0.000029   0.000780   0.001076  -0.000016  -0.000234
    33  H    0.000526   0.000182  -0.001237   0.075215  -0.009604   0.000102
    34  H    0.000108  -0.011870   0.001317  -0.011476   0.001592   0.000038
    35  H    0.002172   0.005879  -0.000450   0.087494  -0.004221   0.001205
    36  H   -0.000311  -0.000792  -0.001202  -0.004962   0.001015  -0.000393
              13         14         15         16         17         18
     1  C   -0.135782   0.325605   3.135095  -1.415783  -0.379843  -0.346718
     2  C    0.051373  -0.096337  -9.298660   1.959887   0.550409  -0.151726
     3  C    0.141526  -0.478224   0.732648  -0.041163   0.204238   0.071009
     4  C   -0.380885  -0.346001   0.767483  -0.430773  -0.134984   0.325512
     5  C    0.551449  -0.151542  -0.042930   0.052590   0.051367  -0.096494
     6  C    0.203807   0.070814  -4.359797   0.538045   0.141442  -0.478822
     7  O    0.021512  -0.081563  -0.024884   0.002413   0.003100   0.000470
     8  O    0.003116   0.000460   0.090788  -0.051552   0.021490  -0.081545
     9  Cl  -0.117307   0.095699  -0.382746   0.057432   0.014562  -0.005051
    10  Cl   0.014522  -0.005010  -0.569341   0.035745  -0.118018   0.095795
    11  C   -0.476544   0.208986   0.584829  -0.068869  -0.012051  -0.001140
    12  C   -0.087773  -0.198332  -0.068863   0.015496  -0.000012  -0.002369
    13  C    6.078517  -0.342926  -0.012113   0.000007  -0.003792   0.003525
    14  C   -0.342926   6.511232  -0.001148  -0.002365   0.003534   0.000135
    15  C   -0.012113  -0.001148  16.525324  -1.254232  -0.477066   0.210604
    16  C    0.000007  -0.002365  -1.254232   6.406713  -0.087809  -0.198488
    17  C   -0.003792   0.003534  -0.477066  -0.087809   6.079453  -0.343557
    18  C    0.003525   0.000135   0.210604  -0.198488  -0.343557   6.511831
    19  H    0.011395  -0.018492  -0.005466  -0.000505  -0.001577  -0.000013
    20  H   -0.014563  -0.012933  -0.001513   0.000825  -0.000007  -0.000193
    21  H   -0.001317   0.042617   0.011022  -0.000563   0.000980  -0.000852
    22  H    0.413643   0.006068  -0.000634   0.001024  -0.000645   0.000807
    23  H    0.409222  -0.003545  -0.000025  -0.000233   0.000026   0.000044
    24  H    0.322716  -0.016437  -0.009617   0.000104   0.000436  -0.001103
    25  H   -0.010615   0.433072  -0.004235   0.001207   0.000906  -0.001222
    26  H   -0.018307   0.377289   0.001019  -0.000393  -0.000100   0.000163
    27  H    0.017349   0.377680   0.001584   0.000038  -0.000496   0.000486
    28  H   -0.001576  -0.000012  -0.047787   0.420635   0.011449  -0.018533
    29  H   -0.000007  -0.000192  -0.140055   0.447552  -0.014686  -0.012868
    30  H    0.000980  -0.000854   0.101039   0.313588  -0.001394   0.042646
    31  H   -0.000645   0.000807   0.141453  -0.045837   0.413704   0.006031
    32  H    0.000026   0.000044  -0.099458   0.024993   0.409198  -0.003589
    33  H    0.000436  -0.001101  -0.052108   0.018043   0.322582  -0.016375
    34  H   -0.000496   0.000487   0.095913  -0.004967   0.017369   0.377744
    35  H    0.000904  -0.001220  -0.119155   0.039820  -0.010731   0.433050
    36  H   -0.000100   0.000163   0.005342  -0.032162  -0.018283   0.377272
              19         20         21         22         23         24
     1  C    0.004566  -0.007639  -0.009827   0.013008  -0.049108  -0.050430
     2  C   -0.016060   0.000942   0.018967  -0.007715   0.000398  -0.034657
     3  C    0.075214   0.000195  -0.032562  -0.032876   0.013035   0.016365
     4  C    0.039528  -0.025468  -0.025690   0.042187  -0.087012   0.011760
     5  C   -0.065122   0.076292  -0.058929  -0.187147   0.133875   0.124814
     6  C   -0.022934   0.004807  -0.002087   0.001727  -0.012744  -0.057926
     7  O   -0.004568   0.001300   0.002854   0.000163  -0.000027   0.000181
     8  O   -0.000106   0.000167  -0.000113   0.000219   0.000251   0.000528
     9  Cl  -0.002480   0.006969  -0.005838   0.013127   0.001139   0.075317
    10  Cl  -0.000957   0.000655  -0.001604  -0.001629   0.000777  -0.001235
    11  C   -0.047794  -0.140322   0.101092   0.141444  -0.099445  -0.052290
    12  C    0.420733   0.447576   0.313493  -0.045874   0.025060   0.018048
    13  C    0.011395  -0.014563  -0.001317   0.413643   0.409222   0.322716
    14  C   -0.018492  -0.012933   0.042617   0.006068  -0.003545  -0.016437
    15  C   -0.005466  -0.001513   0.011022  -0.000634  -0.000025  -0.009617
    16  C   -0.000505   0.000825  -0.000563   0.001024  -0.000233   0.000104
    17  C   -0.001577  -0.000007   0.000980  -0.000645   0.000026   0.000436
    18  C   -0.000013  -0.000193  -0.000852   0.000807   0.000044  -0.001103
    19  H    0.531021  -0.028935  -0.033236  -0.000793   0.003395  -0.002288
    20  H   -0.028935   0.551955  -0.029031  -0.000174   0.002912   0.003924
    21  H   -0.033236  -0.029031   0.555986   0.001755   0.000320  -0.002285
    22  H   -0.000793  -0.000174   0.001755   0.539839  -0.028549  -0.029558
    23  H    0.003395   0.002912   0.000320  -0.028549   0.564919  -0.027266
    24  H   -0.002288   0.003924  -0.002285  -0.029558  -0.027266   0.564353
    25  H   -0.000118   0.004827  -0.001083  -0.006078   0.006785   0.002567
    26  H    0.001873  -0.007339  -0.000590   0.001141  -0.008413   0.003445
    27  H   -0.002677   0.001101   0.002162  -0.000922   0.002121  -0.000465
    28  H    0.000028  -0.000028   0.000013  -0.000230  -0.000119   0.000268
    29  H   -0.000028   0.000059  -0.000066   0.000216  -0.000027  -0.000036
    30  H    0.000012  -0.000066  -0.000413   0.000348   0.000068   0.000022
    31  H   -0.000229   0.000216   0.000348  -0.000139  -0.000037  -0.000084
    32  H   -0.000119  -0.000027   0.000068  -0.000037   0.000013  -0.000004
    33  H    0.000268  -0.000036   0.000022  -0.000084  -0.000004   0.000010
    34  H   -0.000032   0.000027   0.000023  -0.000023  -0.000038   0.000081
    35  H   -0.000107  -0.000037  -0.000263   0.000037   0.000041  -0.000050
[...]
  XXX=              0.0023  YYY=              0.0004  ZZZ=             -2.6042  XYY=             -0.0001
  XXY=             -0.0011  XXZ=              8.6241  XZZ=             -0.0002  YZZ=             -0.0009
  YYZ=             15.5387  XYZ=              9.1437
 Hexadecapole moment (field-independent basis, Debye-Ang**3):
 XXXX=          -4544.6476 YYYY=          -2218.0102 ZZZZ=           -629.3788 XXXY=             14.1981
 XXXZ=             -0.0199 YYYX=            -87.5951 YYYZ=             -0.0021 ZZZX=             -0.0059
 ZZZY=              0.0006 XXYY=          -1149.1097 XXZZ=           -909.6576 YYZZ=           -486.8112
 XXYZ=             -0.0130 YYXZ=             -0.0032 ZZXY=            -12.2974
 N-N= 1.675080215617D+03 E-N=-7.153946448142D+03  KE= 1.610146221206D+03
                          Isotropic Fermi Contact Couplings
        Atom                 a.u.       MegaHertz       Gauss      10(-4) cm-1
     1  C(13)              0.00000       0.00000       0.00000       0.00000
     2  C(13)             -0.00000      -0.00000      -0.00000      -0.00000
     3  C(13)             -0.00000      -0.00000      -0.00000      -0.00000
     4  C(13)              0.00000       0.00000       0.00000       0.00000
     5  C(13)             -0.00000      -0.00000      -0.00000      -0.00000
     6  C(13)             -0.00000      -0.00000      -0.00000      -0.00000
     7  O(17)             -0.00000       0.00000       0.00000       0.00000
     8  O(17)             -0.00000       0.00000       0.00000       0.00000
     9  Cl(35)             0.00000       0.00000       0.00000       0.00000
    10  Cl(35)             0.00000       0.00000       0.00000       0.00000
    11  C(13)              0.00000       0.00000       0.00000       0.00000
    12  C(13)             -0.00000      -0.00000      -0.00000      -0.00000
    13  C(13)              0.00000       0.00000       0.00000       0.00000
    14  C(13)             -0.00000      -0.00000      -0.00000      -0.00000
    15  C(13)             -0.00000      -0.00000      -0.00000      -0.00000
    16  C(13)              0.00000       0.00000       0.00000       0.00000
    17  C(13)             -0.00000      -0.00000      -0.00000      -0.00000
    18  C(13)              0.00000       0.00000       0.00000       0.00000
    19  H(1)              -0.00000      -0.00000      -0.00000      -0.00000
    20  H(1)               0.00000       0.00000       0.00000       0.00000
    21  H(1)               0.00000       0.00000       0.00000       0.00000
    22  H(1)               0.00000       0.00000       0.00000       0.00000
    23  H(1)              -0.00000      -0.00000      -0.00000      -0.00000
    24  H(1)              -0.00000      -0.00000      -0.00000      -0.00000
    25  H(1)               0.00000       0.00000       0.00000       0.00000
    26  H(1)              -0.00000      -0.00000      -0.00000      -0.00000
    27  H(1)               0.00000       0.00000       0.00000       0.00000
    28  H(1)               0.00000       0.00000       0.00000       0.00000
    29  H(1)              -0.00000      -0.00000      -0.00000      -0.00000
    30  H(1)              -0.00000      -0.00000      -0.00000      -0.00000
    31  H(1)              -0.00000      -0.00000      -0.00000      -0.00000
    32  H(1)              -0.00000      -0.00000      -0.00000      -0.00000
    33  H(1)               0.00000       0.00000       0.00000       0.00000
    34  H(1)              -0.00000      -0.00000      -0.00000      -0.00000
    35  H(1)               0.00000       0.00000       0.00000       0.00000
    36  H(1)              -0.00000      -0.00000      -0.00000      -0.00000
 --------------------------------------------------------
       Center         ----  Spin Dipole Couplings  ----
                      3XX-RR        3YY-RR        3ZZ-RR
 --------------------------------------------------------
     1   Atom        0.000000     -0.000000      0.000000
     2   Atom        0.000000      0.000000     -0.000000
     3   Atom       -0.000000      0.000000      0.000000
     4   Atom       -0.000000      0.000000     -0.000000
     5   Atom       -0.000000      0.000000     -0.000000
     6   Atom       -0.000000      0.000000     -0.000000
     7   Atom        0.000000     -0.000000      0.000000
     8   Atom       -0.000000      0.000000      0.000000
     9   Atom       -0.000000      0.000000     -0.000000
    10   Atom        0.000000     -0.000000      0.000000
    11   Atom        0.000000     -0.000000     -0.000000
    12   Atom       -0.000000      0.000000      0.000000
    13   Atom        0.000000     -0.000000      0.000000
    14   Atom       -0.000000     -0.000000      0.000000
    15   Atom        0.000000     -0.000000     -0.000000
    16   Atom       -0.000000      0.000000      0.000000
    17   Atom        0.000000     -0.000000      0.000000
    18   Atom        0.000000      0.000000     -0.000000
    19   Atom        0.000000     -0.000000     -0.000000
    20   Atom       -0.000000      0.000000      0.000000
    21   Atom       -0.000000      0.000000     -0.000000
    22   Atom       -0.000000     -0.000000      0.000000
    23   Atom       -0.000000     -0.000000      0.000000
    24   Atom       -0.000000      0.000000     -0.000000
    25   Atom       -0.000000      0.000000     -0.000000
    26   Atom        0.000000     -0.000000     -0.000000
    27   Atom       -0.000000      0.000000      0.000000
    28   Atom       -0.000000      0.000000      0.000000
    29   Atom        0.000000     -0.000000      0.000000
    30   Atom        0.000000     -0.000000     -0.000000
    31   Atom        0.000000     -0.000000      0.000000
    32   Atom       -0.000000      0.000000      0.000000
    33   Atom       -0.000000      0.000000     -0.000000
    34   Atom        0.000000     -0.000000     -0.000000
    35   Atom        0.000000      0.000000     -0.000000
    36   Atom        0.000000     -0.000000      0.000000
 --------------------------------------------------------
                        XY            XZ            YZ
 --------------------------------------------------------
     1   Atom       -0.000000     -0.000000     -0.000000
     2   Atom       -0.000000      0.000000      0.000000
     3   Atom       -0.000000      0.000000      0.000000
     4   Atom        0.000000      0.000000     -0.000000
     5   Atom       -0.000000     -0.000000      0.000000
     6   Atom        0.000000      0.000000      0.000000
     7   Atom       -0.000000      0.000000     -0.000000
     8   Atom        0.000000     -0.000000      0.000000
     9   Atom       -0.000000      0.000000     -0.000000
    10   Atom       -0.000000      0.000000      0.000000
    11   Atom       -0.000000     -0.000000      0.000000
    12   Atom        0.000000     -0.000000      0.000000
    13   Atom       -0.000000     -0.000000     -0.000000
    14   Atom       -0.000000     -0.000000     -0.000000
    15   Atom        0.000000      0.000000      0.000000
    16   Atom        0.000000     -0.000000     -0.000000
    17   Atom       -0.000000     -0.000000      0.000000
    18   Atom       -0.000000      0.000000      0.000000
    19   Atom        0.000000     -0.000000     -0.000000
    20   Atom        0.000000      0.000000     -0.000000
    21   Atom       -0.000000      0.000000      0.000000
    22   Atom       -0.000000     -0.000000     -0.000000
    23   Atom        0.000000      0.000000      0.000000
    24   Atom        0.000000      0.000000      0.000000
    25   Atom       -0.000000      0.000000      0.000000
    26   Atom        0.000000     -0.000000      0.000000
    27   Atom        0.000000      0.000000     -0.000000
    28   Atom       -0.000000     -0.000000      0.000000
    29   Atom       -0.000000      0.000000      0.000000
    30   Atom        0.000000      0.000000      0.000000
    31   Atom        0.000000     -0.000000      0.000000
    32   Atom        0.000000     -0.000000      0.000000
    33   Atom        0.000000     -0.000000     -0.000000
    34   Atom        0.000000     -0.000000      0.000000
    35   Atom       -0.000000     -0.000000     -0.000000
    36   Atom        0.000000     -0.000000     -0.000000
 --------------------------------------------------------


 ---------------------------------------------------------------------------------
              Anisotropic Spin Dipole Couplings in Principal Axis System
 ---------------------------------------------------------------------------------

       Atom             a.u.   MegaHertz   Gauss  10(-4) cm-1        Axes

              Baa    -0.0000    -0.000    -0.000    -0.000  0.2953  0.8475  0.4412
     1 C(13)  Bbb    -0.0000    -0.000    -0.000    -0.000  0.4827 -0.5308  0.6966
              Bcc     0.0000     0.000     0.000     0.000  0.8245  0.0073 -0.5658
 
              Baa    -0.0000    -0.000    -0.000    -0.000 -0.3786 -0.5163  0.7682
     2 C(13)  Bbb     0.0000     0.000     0.000     0.000  0.9207 -0.2955  0.2551
              Bcc     0.0000     0.000     0.000     0.000  0.0953  0.8038  0.5872
 
              Baa    -0.0000    -0.000    -0.000    -0.000  0.9663  0.1940 -0.1694
     3 C(13)  Bbb    -0.0000    -0.000    -0.000    -0.000 -0.2573  0.6952 -0.6712
              Bcc     0.0000     0.000     0.000     0.000 -0.0124  0.6921  0.7217
 
              Baa    -0.0000    -0.000    -0.000    -0.000 -0.4353  0.5332  0.7254
     4 C(13)  Bbb     0.0000     0.000     0.000     0.000  0.9001  0.2731  0.3394
              Bcc     0.0000     0.000     0.000     0.000 -0.0171  0.8007 -0.5988
 
              Baa    -0.0000    -0.000    -0.000    -0.000  0.6424  0.0123  0.7663
     5 C(13)  Bbb     0.0000     0.000     0.000     0.000  0.2256  0.9525 -0.2044
              Bcc     0.0000     0.000     0.000     0.000  0.7324 -0.3042 -0.6091
 
              Baa    -0.0000    -0.000    -0.000    -0.000  0.7355 -0.0923 -0.6712
     6 C(13)  Bbb    -0.0000    -0.000    -0.000    -0.000 -0.4310  0.7007 -0.5686
              Bcc     0.0000     0.000     0.000     0.000  0.5228  0.7075  0.4755
 
              Baa    -0.0000     0.000     0.000     0.000  0.2392  0.9692 -0.0580
     7 O(17)  Bbb    -0.0000     0.000     0.000     0.000  0.7647 -0.2249 -0.6038
              Bcc     0.0000    -0.000    -0.000    -0.000  0.5983 -0.1001  0.7950
 
              Baa    -0.0000     0.000     0.000     0.000  0.8211 -0.2990  0.4863
     8 O(17)  Bbb     0.0000    -0.000    -0.000    -0.000  0.5276  0.7227 -0.4465
              Bcc     0.0000    -0.000    -0.000    -0.000 -0.2179  0.6232  0.7511
 
              Baa    -0.0000    -0.000    -0.000    -0.000 -0.1402  0.3927  0.9089
     9 Cl(35) Bbb    -0.0000    -0.000    -0.000    -0.000  0.8848  0.4617 -0.0630
              Bcc     0.0000     0.000     0.000     0.000 -0.4444  0.7954 -0.4121
 
              Baa    -0.0000    -0.000    -0.000    -0.000  0.2265  0.9732 -0.0404
    10 Cl(35) Bbb     0.0000     0.000     0.000     0.000 -0.3531  0.1207  0.9278
              Bcc     0.0000     0.000     0.000     0.000  0.9077 -0.1959  0.3710
 
              Baa    -0.0000    -0.000    -0.000    -0.000  0.0079  0.7956 -0.6058
    11 C(13)  Bbb    -0.0000    -0.000    -0.000    -0.000  0.3148  0.5731  0.7567
              Bcc     0.0000     0.000     0.000     0.000  0.9491 -0.1967 -0.2459
 
              Baa    -0.0000    -0.000    -0.000    -0.000  0.9048 -0.0919  0.4157
    12 C(13)  Bbb     0.0000     0.000     0.000     0.000  0.3595  0.6880 -0.6304
              Bcc     0.0000     0.000     0.000     0.000 -0.2281  0.7199  0.6556
 
              Baa    -0.0000    -0.000    -0.000    -0.000  0.0957  0.8307  0.5484
    13 C(13)  Bbb     0.0000     0.000     0.000     0.000  0.7611 -0.4161  0.4975
              Bcc     0.0000     0.000     0.000     0.000 -0.6415 -0.3698  0.6721
 
              Baa    -0.0000    -0.000    -0.000    -0.000  0.6122  0.7170  0.3334
    14 C(13)  Bbb     0.0000     0.000     0.000     0.000 -0.4382 -0.0433  0.8978
              Bcc     0.0000     0.000     0.000     0.000 -0.6582  0.6957 -0.2877
 
              Baa    -0.0000    -0.000    -0.000    -0.000 -0.0161 -0.6818  0.7314
    15 C(13)  Bbb     0.0000     0.000     0.000     0.000  0.9336 -0.2720 -0.2331
              Bcc     0.0000     0.000     0.000     0.000  0.3578  0.6791  0.6409
 
              Baa    -0.0000    -0.000    -0.000    -0.000  0.8364 -0.5473 -0.0297
    16 C(13)  Bbb     0.0000     0.000     0.000     0.000  0.0740  0.0590  0.9955
              Bcc     0.0000     0.000     0.000     0.000  0.5431  0.8348 -0.0898
 
              Baa    -0.0000    -0.000    -0.000    -0.000  0.3089  0.9305 -0.1968
    17 C(13)  Bbb     0.0000     0.000     0.000     0.000  0.7099 -0.0879  0.6988
              Bcc     0.0000     0.000     0.000     0.000 -0.6329  0.3556  0.6877
 
              Baa    -0.0000    -0.000    -0.000    -0.000 -0.5946 -0.4435  0.6706
    18 C(13)  Bbb     0.0000     0.000     0.000     0.000  0.3577  0.6010  0.7147
              Bcc     0.0000     0.000     0.000     0.000  0.7200 -0.6649  0.1987
 
              Baa    -0.0000    -0.000    -0.000    -0.000  0.6805  0.0582  0.7304
    19 H(1)   Bbb    -0.0000    -0.000    -0.000    -0.000 -0.2176  0.9679  0.1256
              Bcc     0.0000     0.000     0.000     0.000  0.6997  0.2444 -0.6713
 
              Baa    -0.0000    -0.000    -0.000    -0.000  0.9833 -0.0804 -0.1632
    20 H(1)   Bbb     0.0000     0.000     0.000     0.000  0.1792  0.5835  0.7921
              Bcc     0.0000     0.000     0.000     0.000 -0.0315  0.8081 -0.5881
 
              Baa    -0.0000    -0.000    -0.000    -0.000 -0.4267 -0.2297  0.8748
    21 H(1)   Bbb    -0.0000    -0.000    -0.000    -0.000  0.8603  0.1952  0.4709
              Bcc     0.0000     0.000     0.000     0.000 -0.2789  0.9535  0.1143
 
              Baa    -0.0000    -0.000    -0.000    -0.000  0.7663  0.4501  0.4584
    22 H(1)   Bbb     0.0000     0.000     0.000     0.000 -0.3979  0.8928 -0.2113
              Bcc     0.0000     0.000     0.000     0.000 -0.5044 -0.0205  0.8633
 
              Baa    -0.0000    -0.000    -0.000    -0.000 -0.6613 -0.2585  0.7041
    23 H(1)   Bbb    -0.0000    -0.000    -0.000    -0.000 -0.5061  0.8466 -0.1645
              Bcc     0.0000     0.000     0.000     0.000  0.5536  0.4652  0.6907
 
              Baa    -0.0000    -0.000    -0.000    -0.000  0.8135  0.1003 -0.5728
    24 H(1)   Bbb    -0.0000    -0.000    -0.000    -0.000 -0.5038  0.6137 -0.6080
              Bcc     0.0000     0.000     0.000     0.000  0.2906  0.7832  0.5497
 
              Baa    -0.0000    -0.000    -0.000    -0.000 -0.3127 -0.5041  0.8050
    25 H(1)   Bbb     0.0000     0.000     0.000     0.000  0.9487 -0.1236  0.2911
              Bcc     0.0000     0.000     0.000     0.000 -0.0473  0.8547  0.5169
 
              Baa    -0.0000    -0.000    -0.000    -0.000  0.1224 -0.5285  0.8400
    26 H(1)   Bbb    -0.0000    -0.000    -0.000    -0.000 -0.2157  0.8120  0.5423
              Bcc     0.0000     0.000     0.000     0.000  0.9688  0.2475  0.0146
 
              Baa    -0.0000    -0.000    -0.000    -0.000  0.8434 -0.2666 -0.4666
    27 H(1)   Bbb     0.0000     0.000     0.000     0.000  0.4567 -0.1019  0.8838
              Bcc     0.0000     0.000     0.000     0.000  0.2831  0.9584 -0.0358
 
              Baa    -0.0000    -0.000    -0.000    -0.000  0.8891  0.1928  0.4150
    28 H(1)   Bbb    -0.0000    -0.000    -0.000    -0.000  0.1308  0.7619 -0.6343
              Bcc     0.0000     0.000     0.000     0.000 -0.4385  0.6183  0.6522
 
              Baa    -0.0000    -0.000    -0.000    -0.000  0.3760  0.9096 -0.1768
    29 H(1)   Bbb    -0.0000    -0.000    -0.000    -0.000 -0.1907  0.2627  0.9459
              Bcc     0.0000     0.000     0.000     0.000  0.9068 -0.3219  0.2722
 
              Baa    -0.0000    -0.000    -0.000    -0.000 -0.1911  0.8331 -0.5190
    30 H(1)   Bbb    -0.0000    -0.000    -0.000    -0.000 -0.3129  0.4494  0.8367
              Bcc     0.0000     0.000     0.000     0.000  0.9303  0.3224  0.1748
 
              Baa    -0.0000    -0.000    -0.000    -0.000 -0.0288  0.9780 -0.2064
    31 H(1)   Bbb     0.0000     0.000     0.000     0.000  0.4354  0.1981  0.8782
              Bcc     0.0000     0.000     0.000     0.000  0.8998 -0.0646 -0.4316
 
              Baa    -0.0000    -0.000    -0.000    -0.000  0.8965 -0.4192  0.1435
    32 H(1)   Bbb     0.0000     0.000     0.000     0.000 -0.1585 -0.0010  0.9874
              Bcc     0.0000     0.000     0.000     0.000  0.4138  0.9079  0.0673
 
              Baa    -0.0000    -0.000    -0.000    -0.000 -0.5560  0.6855  0.4700
    33 H(1)   Bbb    -0.0000    -0.000    -0.000    -0.000  0.6896  0.0648  0.7213
              Bcc     0.0000     0.000     0.000     0.000  0.4640  0.7252 -0.5088
 
              Baa    -0.0000    -0.000    -0.000    -0.000 -0.2217  0.9250 -0.3087
    34 H(1)   Bbb    -0.0000    -0.000    -0.000    -0.000  0.2025  0.3534  0.9133
              Bcc     0.0000     0.000     0.000     0.000  0.9539  0.1400 -0.2656
 
              Baa    -0.0000    -0.000    -0.000    -0.000  0.1669  0.3899  0.9056
    35 H(1)   Bbb     0.0000     0.000     0.000     0.000  0.9350 -0.3540 -0.0199
              Bcc     0.0000     0.000     0.000     0.000  0.3128  0.8501 -0.4237
 
              Baa    -0.0000    -0.000    -0.000    -0.000 -0.0879  0.9375  0.3368
    36 H(1)   Bbb    -0.0000    -0.000    -0.000    -0.000  0.5651 -0.2315  0.7919
              Bcc     0.0000     0.000     0.000     0.000  0.8204  0.2599 -0.5094
 

 ---------------------------------------------------------------------------------

 No NMR shielding tensors so no spin-rotation constants.
 Leave Link  601 at Sun Jan 21 07:01:16 2024, MaxMem=  4026531840 cpu:               5.3 elap:               0.7
 (Enter /sysapps/ubuntu-applications/gaussian/Gaussian/SSE_4/g16/l9999.exe)
 1\1\GINC-ACIDSCN029\SP\UB3LYP\6-311++G(d,p)\C14H18Cl2O2\SELHAJJ1\21-Ja
 n-2024\0\\#P UB3LYP/6-311++G(d,p) SCRF=(PCM,Solvent=n,n-DiMethylFormam
 ide)\\Quinone PCM in DMF\\0,1\C,0,-1.811172,0.111871,1.412685\C,0,-2.8
 84766,0.947141,0.760128\C,0,-2.906338,0.790693,-0.578156\C,0,-1.814277
 ,0.055029,-1.317741\C,0,-0.450198,-0.043593,-0.680872\C,0,-0.521741,-0
 .123336,0.662432\O,0,-2.040846,-0.455661,-2.392707\O,0,-1.978376,-0.37
 5921,2.508953\Cl,0,0.768908,-0.601016,1.734013\Cl,0,-4.191095,1.283234
 ,-1.65012\C,0,0.76669,-0.197763,-1.615412\C,0,0.579233,0.678281,-2.882
 735\C,0,2.085233,0.276889,-0.960574\C,0,0.904065,-1.68369,-2.024871\C,
 0,-3.865717,1.699435,1.681989\C,0,-3.112359,2.25824,2.918404\C,0,-4.51
 5496,2.921172,0.990698\C,0,-4.973879,0.723419,2.144395\H,0,-0.256146,0
 .354846,-3.498284\H,0,1.488474,0.617885,-3.485307\H,0,0.431924,1.72975
 9,-2.615837\H,0,1.979526,1.265602,-0.506003\H,0,2.846107,0.350715,-1.7
 41498\H,0,2.456543,-0.409394,-0.204365\H,0,1.0617,-2.318352,-1.14899\H
 ,0,1.768113,-1.800255,-2.686054\H,0,0.016107,-2.03052,-2.554362\H,0,-2
 .713785,1.474919,3.557885\H,0,-3.8092,2.857249,3.509233\H,0,-2.290886,
 2.915186,2.614872\H,0,-3.770553,3.554002,0.500857\H,0,-5.009628,3.5233
 77,1.757118\H,0,-5.266416,2.645086,0.255453\H,0,-4.553532,-0.116257,2.
 698784\H,0,-5.535449,0.335586,1.290557\H,0,-5.674868,1.252243,2.797298
 \\Version=ES64L-G16RevA.03\State=1-A\HF=-1615.3782223\S2=0.\S2-1=0.\S2
 A=0.\RMSD=7.932e-09\Dipole=0.4145481,1.0509966,-0.0223436\Quadrupole=6
 .7012865,1.0125791,-7.7138656,-2.8568893,-6.8993088,2.5608012\PG=C01 [
 X(C14H18Cl2O2)]\\@


 MEMORIES ARE LIKE AN ENGLISH GRAMMER LESSON -
 PRESENT TENSE, AND PAST PERFECT.
 Job cpu time:       0 days  1 hours 24 minutes  3.6 seconds.
 Elapsed time:       0 days  0 hours 10 minutes 31.6 seconds.
 File lengths (MBytes):  RWF=    376 Int=      0 D2E=      0 Chk=     22 Scr=      1
 Normal termination of Gaussian 16 at Sun Jan 21 07:01:16 2024.
