 Entering Gaussian System, Link 0=g16
 Input=079.com
 Output=079.log
 Initial command:
 /sysapps/ubuntu-applications/gaussian/Gaussian/AVX2/g16/l1.exe "/scratch/selhajj1/4406513/Gau-814968.inp" -scrdir="/scratch/selhajj1/4406513/"
 Entering Link 1 = /sysapps/ubuntu-applications/gaussian/Gaussian/AVX2/g16/l1.exe PID=    814970.
  
 Copyright (c) 1988,1990,1992,1993,1995,1998,2003,2009,2016,
            Gaussian, Inc.  All Rights Reserved.
  
 This is part of the Gaussian(R) 16 program.  It is based on
 the Gaussian(R) 09 system (copyright 2009, Gaussian, Inc.),
 the Gaussian(R) 03 system (copyright 2003, Gaussian, Inc.),
 the Gaussian(R) 98 system (copyright 1998, Gaussian, Inc.),
 the Gaussian(R) 94 system (copyright 1995, Gaussian, Inc.),
 the Gaussian 92(TM) system (copyright 1992, Gaussian, Inc.),
 the Gaussian 90(TM) system (copyright 1990, Gaussian, Inc.),
 the Gaussian 88(TM) system (copyright 1988, Gaussian, Inc.),
 the Gaussian 86(TM) system (copyright 1986, Carnegie Mellon
 University), and the Gaussian 82(TM) system (copyright 1983,
 Carnegie Mellon University). Gaussian is a federally registered
 trademark of Gaussian, Inc.
  
 This software contains proprietary and confidential information,
 including trade secrets, belonging to Gaussian, Inc.
  
 This software is provided under written license and may be
 used, copied, transmitted, or stored only in accord with that
 written license.
  
 The following legend is applicable only to US Government
 contracts under FAR:
  
                    RESTRICTED RIGHTS LEGEND
  
 Use, reproduction and disclosure by the US Government is
 subject to restrictions as set forth in subparagraphs (a)
 and (c) of the Commercial Computer Software - Restricted
 Rights clause in FAR 52.227-19.
  
 Gaussian, Inc.
 340 Quinnipiac St., Bldg. 40, Wallingford CT 06492
  
  
 ---------------------------------------------------------------
 Warning -- This program may not be used in any manner that
 competes with the business of Gaussian, Inc. or will provide
 assistance to any competitor of Gaussian, Inc.  The licensee
 of this program is prohibited from giving any competitor of
 Gaussian, Inc. access to this program.  By using this program,
 the user acknowledges that Gaussian, Inc. is engaged in the
 business of creating and licensing software in the field of
 computational chemistry and represents and warrants to the
 licensee that it is not a competitor of Gaussian, Inc. and that
 it will not use this program in any manner prohibited above.
 ---------------------------------------------------------------
  

 Cite this work as:
 Gaussian 16, Revision A.03,
 M. J. Frisch, G. W. Trucks, H. B. Schlegel, G. E. Scuseria, 
 M. A. Robb, J. R. Cheeseman, G. Scalmani, V. Barone, 
 G. A. Petersson, H. Nakatsuji, X. Li, M. Caricato, A. V. Marenich, 
 J. Bloino, B. G. Janesko, R. Gomperts, B. Mennucci, H. P. Hratchian, 
 J. V. Ortiz, A. F. Izmaylov, J. L. Sonnenberg, D. Williams-Young, 
 F. Ding, F. Lipparini, F. Egidi, J. Goings, B. Peng, A. Petrone, 
 T. Henderson, D. Ranasinghe, V. G. Zakrzewski, J. Gao, N. Rega, 
 G. Zheng, W. Liang, M. Hada, M. Ehara, K. Toyota, R. Fukuda, 
 J. Hasegawa, M. Ishida, T. Nakajima, Y. Honda, O. Kitao, H. Nakai, 
 T. Vreven, K. Throssell, J. A. Montgomery, Jr., J. E. Peralta, 
 F. Ogliaro, M. J. Bearpark, J. J. Heyd, E. N. Brothers, K. N. Kudin, 
 V. N. Staroverov, T. A. Keith, R. Kobayashi, J. Normand, 
 K. Raghavachari, A. P. Rendell, J. C. Burant, S. S. Iyengar, 
 J. Tomasi, M. Cossi, J. M. Millam, M. Klene, C. Adamo, R. Cammi, 
 J. W. Ochterski, R. L. Martin, K. Morokuma, O. Farkas, 
 J. B. Foresman, and D. J. Fox, Gaussian, Inc., Wallingford CT, 2016.
 
 ******************************************
 Gaussian 16:  ES64L-G16RevA.03 25-Dec-2016
                10-Feb-2024 
 ******************************************
 %chk=079.chk
 %nproc=8
 Will use up to    8 processors via shared memory.
 %mem=30GB
 ----------------------------------------------------------------------
 #P UB3LYP/6-311++G(d,p) nosym opt freq SCRF=(PCM,Solvent=n,n-DiMethylF
 ormamide)
 ----------------------------------------------------------------------
 1/18=20,19=15,26=3,38=1/1,3;
 2/9=110,12=2,15=1,17=6,18=5,40=1/2;
 3/5=4,6=6,7=1111,11=2,25=1,30=1,70=2201,71=1,72=148,74=-5,116=2/1,2,3;
 4//1;
 5/5=2,38=5,53=148/2;
 6/7=2,8=2,9=2,10=2,28=1/1;
 7/30=1/1,2,3,16;
 1/18=20,19=15,26=3/3(2);
 2/9=110,15=1/2;
 99//99;
 2/9=110,15=1/2;
 3/5=4,6=6,7=1111,11=2,25=1,30=1,70=2205,71=1,72=148,74=-5,116=2/1,2,3;
 4/5=5,16=3,69=1/1;
 5/5=2,38=5,53=148/2;
 7/30=1/1,2,3,16;
 1/18=20,19=15,26=3/3(-5);
 2/9=110,15=1/2;
 6/7=2,8=2,9=2,10=2,19=2,28=1/1;
 99/9=1/99;
 Leave Link    1 at Sat Feb 10 10:23:08 2024, MaxMem=  4026531840 cpu:               0.7 elap:               0.2
 (Enter /sysapps/ubuntu-applications/gaussian/Gaussian/AVX2/g16/l101.exe)
 --------
 Oxidized
 --------
 Symbolic Z-matrix:
 Charge =  0 Multiplicity = 1
 C                     1.12419   1.40285  -2.73652 
 C                    -0.2525    1.6905   -3.20629 
 C                    -1.22004   0.77332  -3.10518 
 C                    -0.95522  -0.56378  -2.52182 
 C                     0.42537  -0.86933  -2.0184 
 O                     2.00773   2.23819  -2.84007 
 O                    -1.8435   -1.39725  -2.45551 
 H                    -0.41313   2.67713  -3.6267 
 C                     1.39227   0.06604  -2.13414 
 C                     2.79082  -0.13113  -1.57181 
 C                     3.89734  -0.49925  -2.49596 
 C                     5.20238  -0.56921  -1.98675 
 C                     3.66926  -0.78676  -3.84725 
 C                     6.25819  -0.919    -2.81767 
 C                     6.02254  -1.20665  -4.16436 
 C                     4.72855  -1.14179  -4.67789 
 O                     2.95723   0.01408  -0.37665 
 C                     0.6153   -2.22729  -1.41247 
 H                     5.36369  -0.34175  -0.94016 
 H                     2.66496  -0.73758  -4.25137 
 H                     7.26601  -0.96731  -2.42149 
 H                     6.84824  -1.47957  -4.812 
 H                     4.54596  -1.36467  -5.72271 
 H                    -2.23664   0.94861  -3.43935 
 H                    -0.00048  -2.32387  -0.51341 
 H                     1.65305  -2.41373  -1.1416 
 H                     0.27284  -3.00161  -2.10337 
 
 ITRead=  0  0  0  0  0  0  0  0  0  0  0  0  0  0  0  0  0  0  0  0
 ITRead=  0  0  0  0  0  0  0
 MicOpt= -1 -1 -1 -1 -1 -1 -1 -1 -1 -1 -1 -1 -1 -1 -1 -1 -1 -1 -1 -1
 MicOpt= -1 -1 -1 -1 -1 -1 -1
 NAtoms=     27 NQM=       27 NQMF=       0 NMMI=      0 NMMIF=      0
                NMic=       0 NMicF=      0.
                    Isotopes and Nuclear Properties:
 (Nuclear quadrupole moments (NQMom) in fm**2, nuclear magnetic moments (NMagM)
  in nuclear magnetons)

  Atom         1           2           3           4           5           6           7           8           9          10
 IAtWgt=          12          12          12          12          12          16          16           1          12          12
 AtmWgt=  12.0000000  12.0000000  12.0000000  12.0000000  12.0000000  15.9949146  15.9949146   1.0078250  12.0000000  12.0000000
 NucSpn=           0           0           0           0           0           0           0           1           0           0
 AtZEff=  -0.0000000  -0.0000000  -0.0000000  -0.0000000  -0.0000000  -0.0000000  -0.0000000  -0.0000000  -0.0000000  -0.0000000
 NQMom=    0.0000000   0.0000000   0.0000000   0.0000000   0.0000000   0.0000000   0.0000000   0.0000000   0.0000000   0.0000000
 NMagM=    0.0000000   0.0000000   0.0000000   0.0000000   0.0000000   0.0000000   0.0000000   2.7928460   0.0000000   0.0000000
 AtZNuc=   6.0000000   6.0000000   6.0000000   6.0000000   6.0000000   8.0000000   8.0000000   1.0000000   6.0000000   6.0000000

  Atom        11          12          13          14          15          16          17          18          19          20
 IAtWgt=          12          12          12          12          12          12          16          12           1           1
 AtmWgt=  12.0000000  12.0000000  12.0000000  12.0000000  12.0000000  12.0000000  15.9949146  12.0000000   1.0078250   1.0078250
 NucSpn=           0           0           0           0           0           0           0           0           1           1
 AtZEff=  -0.0000000  -0.0000000  -0.0000000  -0.0000000  -0.0000000  -0.0000000  -0.0000000  -0.0000000  -0.0000000  -0.0000000
 NQMom=    0.0000000   0.0000000   0.0000000   0.0000000   0.0000000   0.0000000   0.0000000   0.0000000   0.0000000   0.0000000
 NMagM=    0.0000000   0.0000000   0.0000000   0.0000000   0.0000000   0.0000000   0.0000000   0.0000000   2.7928460   2.7928460
 AtZNuc=   6.0000000   6.0000000   6.0000000   6.0000000   6.0000000   6.0000000   8.0000000   6.0000000   1.0000000   1.0000000

  Atom        21          22          23          24          25          26          27
 IAtWgt=           1           1           1           1           1           1           1
 AtmWgt=   1.0078250   1.0078250   1.0078250   1.0078250   1.0078250   1.0078250   1.0078250
 NucSpn=           1           1           1           1           1           1           1
 AtZEff=  -0.0000000  -0.0000000  -0.0000000  -0.0000000  -0.0000000  -0.0000000  -0.0000000
 NQMom=    0.0000000   0.0000000   0.0000000   0.0000000   0.0000000   0.0000000   0.0000000
 NMagM=    2.7928460   2.7928460   2.7928460   2.7928460   2.7928460   2.7928460   2.7928460
 AtZNuc=   1.0000000   1.0000000   1.0000000   1.0000000   1.0000000   1.0000000   1.0000000
 Leave Link  101 at Sat Feb 10 10:23:09 2024, MaxMem=  4026531840 cpu:               5.4 elap:               1.1
 (Enter /sysapps/ubuntu-applications/gaussian/Gaussian/AVX2/g16/l103.exe)

 GradGradGradGradGradGradGradGradGradGradGradGradGradGradGradGradGradGrad
 Berny optimization.
 Initialization pass.
                           ----------------------------
                           !    Initial Parameters    !
                           ! (Angstroms and Degrees)  !
 --------------------------                            --------------------------
 ! Name  Definition              Value          Derivative Info.                !
 --------------------------------------------------------------------------------
 ! R1    R(1,2)                  1.4828         estimate D2E/DX2                !
 ! R2    R(1,6)                  1.2203         estimate D2E/DX2                !
 ! R3    R(1,9)                  1.4906         estimate D2E/DX2                !
 ! R4    R(2,3)                  1.337          estimate D2E/DX2                !
 ! R5    R(2,8)                  1.0844         estimate D2E/DX2                !
 ! R6    R(3,4)                  1.4827         estimate D2E/DX2                !
 ! R7    R(3,24)                 1.0844         estimate D2E/DX2                !
 ! R8    R(4,5)                  1.5009         estimate D2E/DX2                !
 ! R9    R(4,7)                  1.2199         estimate D2E/DX2                !
 ! R10   R(5,9)                  1.3503         estimate D2E/DX2                !
 ! R11   R(5,18)                 1.4991         estimate D2E/DX2                !
 ! R12   R(9,10)                 1.5202         estimate D2E/DX2                !
 ! R13   R(10,11)                1.4879         estimate D2E/DX2                !
 ! R14   R(10,17)                1.2154         estimate D2E/DX2                !
 ! R15   R(11,12)                1.4026         estimate D2E/DX2                !
 ! R16   R(11,13)                1.4002         estimate D2E/DX2                !
 ! R17   R(12,14)                1.3884         estimate D2E/DX2                !
 ! R18   R(12,19)                1.0831         estimate D2E/DX2                !
 ! R19   R(13,16)                1.3922         estimate D2E/DX2                !
 ! R20   R(13,20)                1.0837         estimate D2E/DX2                !
 ! R21   R(14,15)                1.3971         estimate D2E/DX2                !
 ! R22   R(14,21)                1.084          estimate D2E/DX2                !
 ! R23   R(15,16)                1.3937         estimate D2E/DX2                !
 ! R24   R(15,22)                1.0843         estimate D2E/DX2                !
 ! R25   R(16,23)                1.0838         estimate D2E/DX2                !
 ! R26   R(18,25)                1.094          estimate D2E/DX2                !
 ! R27   R(18,26)                1.0886         estimate D2E/DX2                !
 ! R28   R(18,27)                1.0928         estimate D2E/DX2                !
 ! A1    A(2,1,6)              120.8328         estimate D2E/DX2                !
 ! A2    A(2,1,9)              117.9689         estimate D2E/DX2                !
 ! A3    A(6,1,9)              121.1982         estimate D2E/DX2                !
 ! A4    A(1,2,3)              120.9871         estimate D2E/DX2                !
 ! A5    A(1,2,8)              115.9025         estimate D2E/DX2                !
 ! A6    A(3,2,8)              123.1103         estimate D2E/DX2                !
 ! A7    A(2,3,4)              121.2748         estimate D2E/DX2                !
 ! A8    A(2,3,24)             122.9728         estimate D2E/DX2                !
 ! A9    A(4,3,24)             115.7523         estimate D2E/DX2                !
 ! A10   A(3,4,5)              118.6753         estimate D2E/DX2                !
 ! A11   A(3,4,7)              120.4965         estimate D2E/DX2                !
 ! A12   A(5,4,7)              120.8281         estimate D2E/DX2                !
 ! A13   A(4,5,9)              119.2682         estimate D2E/DX2                !
 ! A14   A(4,5,18)             115.8818         estimate D2E/DX2                !
 ! A15   A(9,5,18)             124.85           estimate D2E/DX2                !
 ! A16   A(1,9,5)              121.8113         estimate D2E/DX2                !
 ! A17   A(1,9,10)             115.5477         estimate D2E/DX2                !
 ! A18   A(5,9,10)             122.4952         estimate D2E/DX2                !
 ! A19   A(9,10,11)            119.1099         estimate D2E/DX2                !
 ! A20   A(9,10,17)            118.3078         estimate D2E/DX2                !
 ! A21   A(11,10,17)           122.5814         estimate D2E/DX2                !
 ! A22   A(10,11,12)           118.6055         estimate D2E/DX2                !
 ! A23   A(10,11,13)           121.9414         estimate D2E/DX2                !
 ! A24   A(12,11,13)           119.4507         estimate D2E/DX2                !
 ! A25   A(11,12,14)           120.1891         estimate D2E/DX2                !
 ! A26   A(11,12,19)           118.614          estimate D2E/DX2                !
 ! A27   A(14,12,19)           121.1964         estimate D2E/DX2                !
 ! A28   A(11,13,16)           120.2794         estimate D2E/DX2                !
 ! A29   A(11,13,20)           120.1006         estimate D2E/DX2                !
 ! A30   A(16,13,20)           119.6196         estimate D2E/DX2                !
 ! A31   A(12,14,15)           120.0336         estimate D2E/DX2                !
 ! A32   A(12,14,21)           119.9689         estimate D2E/DX2                !
 ! A33   A(15,14,21)           119.9974         estimate D2E/DX2                !
 ! A34   A(14,15,16)           120.1462         estimate D2E/DX2                !
 ! A35   A(14,15,22)           119.9415         estimate D2E/DX2                !
 ! A36   A(16,15,22)           119.9122         estimate D2E/DX2                !
 ! A37   A(13,16,15)           119.9006         estimate D2E/DX2                !
 ! A38   A(13,16,23)           119.9625         estimate D2E/DX2                !
 ! A39   A(15,16,23)           120.1368         estimate D2E/DX2                !
 ! A40   A(5,18,25)            109.9274         estimate D2E/DX2                !
 ! A41   A(5,18,26)            112.1167         estimate D2E/DX2                !
 ! A42   A(5,18,27)            110.2802         estimate D2E/DX2                !
 ! A43   A(25,18,26)           108.4803         estimate D2E/DX2                !
 ! A44   A(25,18,27)           106.2977         estimate D2E/DX2                !
 ! A45   A(26,18,27)           109.5543         estimate D2E/DX2                !
 ! D1    D(6,1,2,3)            179.4017         estimate D2E/DX2                !
 ! D2    D(6,1,2,8)             -0.6845         estimate D2E/DX2                !
 ! D3    D(9,1,2,3)             -0.6873         estimate D2E/DX2                !
 ! D4    D(9,1,2,8)            179.2265         estimate D2E/DX2                !
 ! D5    D(2,1,9,5)              0.3613         estimate D2E/DX2                !
 ! D6    D(2,1,9,10)          -175.3532         estimate D2E/DX2                !
 ! D7    D(6,1,9,5)           -179.728          estimate D2E/DX2                !
 ! D8    D(6,1,9,10)             4.5575         estimate D2E/DX2                !
 ! D9    D(1,2,3,4)             -0.0357         estimate D2E/DX2                !
 ! D10   D(1,2,3,24)          -179.9098         estimate D2E/DX2                !
 ! D11   D(8,2,3,4)           -179.9431         estimate D2E/DX2                !
 ! D12   D(8,2,3,24)             0.1828         estimate D2E/DX2                !
 ! D13   D(2,3,4,5)              1.0508         estimate D2E/DX2                !
 ! D14   D(2,3,4,7)           -178.8524         estimate D2E/DX2                !
 ! D15   D(24,3,4,5)          -179.0665         estimate D2E/DX2                !
 ! D16   D(24,3,4,7)             1.0303         estimate D2E/DX2                !
 ! D17   D(3,4,5,9)             -1.3505         estimate D2E/DX2                !
 ! D18   D(3,4,5,18)           178.6315         estimate D2E/DX2                !
 ! D19   D(7,4,5,9)            178.5524         estimate D2E/DX2                !
 ! D20   D(7,4,5,18)            -1.4656         estimate D2E/DX2                !
 ! D21   D(4,5,9,1)              0.6459         estimate D2E/DX2                !
 ! D22   D(4,5,9,10)           176.0611         estimate D2E/DX2                !
 ! D23   D(18,5,9,1)          -179.3343         estimate D2E/DX2                !
 ! D24   D(18,5,9,10)           -3.9191         estimate D2E/DX2                !
 ! D25   D(4,5,18,25)          -63.8403         estimate D2E/DX2                !
 ! D26   D(4,5,18,26)          175.4105         estimate D2E/DX2                !
 ! D27   D(4,5,18,27)           53.0441         estimate D2E/DX2                !
 ! D28   D(9,5,18,25)          116.1405         estimate D2E/DX2                !
 ! D29   D(9,5,18,26)           -4.6087         estimate D2E/DX2                !
 ! D30   D(9,5,18,27)         -126.9751         estimate D2E/DX2                !
 ! D31   D(1,9,10,11)          -82.3327         estimate D2E/DX2                !
 ! D32   D(1,9,10,17)           97.9863         estimate D2E/DX2                !
 ! D33   D(5,9,10,11)          101.9851         estimate D2E/DX2                !
 ! D34   D(5,9,10,17)          -77.6958         estimate D2E/DX2                !
 ! D35   D(9,10,11,12)         174.744          estimate D2E/DX2                !
 ! D36   D(9,10,11,13)          -5.8259         estimate D2E/DX2                !
 ! D37   D(17,10,11,12)         -5.5893         estimate D2E/DX2                !
 ! D38   D(17,10,11,13)        173.8408         estimate D2E/DX2                !
 ! D39   D(10,11,12,14)        179.5334         estimate D2E/DX2                !
 ! D40   D(10,11,12,19)         -0.7026         estimate D2E/DX2                !
 ! D41   D(13,11,12,14)          0.0888         estimate D2E/DX2                !
 ! D42   D(13,11,12,19)        179.8528         estimate D2E/DX2                !
 ! D43   D(10,11,13,16)       -179.2937         estimate D2E/DX2                !
 ! D44   D(10,11,13,20)          0.4717         estimate D2E/DX2                !
 ! D45   D(12,11,13,16)          0.1318         estimate D2E/DX2                !
 ! D46   D(12,11,13,20)        179.8971         estimate D2E/DX2                !
 ! D47   D(11,12,14,15)         -0.1963         estimate D2E/DX2                !
 ! D48   D(11,12,14,21)        179.7055         estimate D2E/DX2                !
 ! D49   D(19,12,14,15)       -179.954          estimate D2E/DX2                !
 ! D50   D(19,12,14,21)         -0.0523         estimate D2E/DX2                !
 ! D51   D(11,13,16,15)         -0.2438         estimate D2E/DX2                !
 ! D52   D(11,13,16,23)        179.9112         estimate D2E/DX2                !
 ! D53   D(20,13,16,15)        179.9897         estimate D2E/DX2                !
 ! D54   D(20,13,16,23)          0.1447         estimate D2E/DX2                !
 ! D55   D(12,14,15,16)          0.084          estimate D2E/DX2                !
 ! D56   D(12,14,15,22)        179.9933         estimate D2E/DX2                !
 ! D57   D(21,14,15,16)       -179.8177         estimate D2E/DX2                !
 ! D58   D(21,14,15,22)          0.0916         estimate D2E/DX2                !
 ! D59   D(14,15,16,13)          0.1361         estimate D2E/DX2                !
 ! D60   D(14,15,16,23)        179.9808         estimate D2E/DX2                !
 ! D61   D(22,15,16,13)       -179.7733         estimate D2E/DX2                !
 ! D62   D(22,15,16,23)          0.0715         estimate D2E/DX2                !
 --------------------------------------------------------------------------------
 Trust Radius=3.00D-01 FncErr=1.00D-07 GrdErr=1.00D-06 EigMax=2.50D+02 EigMin=1.00D-04
 Number of steps in this run=    145 maximum allowed number of steps=    162.
 GradGradGradGradGradGradGradGradGradGradGradGradGradGradGradGradGradGrad

 Leave Link  103 at Sat Feb 10 10:23:09 2024, MaxMem=  4026531840 cpu:               0.2 elap:               0.1
 (Enter /sysapps/ubuntu-applications/gaussian/Gaussian/AVX2/g16/l202.exe)
                          Input orientation:                          
 ---------------------------------------------------------------------
 Center     Atomic      Atomic             Coordinates (Angstroms)
 Number     Number       Type             X           Y           Z
 ---------------------------------------------------------------------
      1          6           0        1.124188    1.402848   -2.736517
      2          6           0       -0.252498    1.690495   -3.206289
      3          6           0       -1.220042    0.773321   -3.105177
      4          6           0       -0.955215   -0.563781   -2.521824
      5          6           0        0.425368   -0.869325   -2.018397
      6          8           0        2.007725    2.238194   -2.840072
      7          8           0       -1.843503   -1.397250   -2.455506
      8          1           0       -0.413130    2.677129   -3.626695
      9          6           0        1.392269    0.066036   -2.134140
     10          6           0        2.790820   -0.131127   -1.571809
     11          6           0        3.897339   -0.499254   -2.495964
     12          6           0        5.202383   -0.569208   -1.986745
     13          6           0        3.669258   -0.786758   -3.847253
     14          6           0        6.258195   -0.918996   -2.817672
     15          6           0        6.022540   -1.206650   -4.164361
     16          6           0        4.728553   -1.141787   -4.677888
     17          8           0        2.957226    0.014084   -0.376647
     18          6           0        0.615303   -2.227288   -1.412468
     19          1           0        5.363689   -0.341753   -0.940159
     20          1           0        2.664959   -0.737581   -4.251373
     21          1           0        7.266007   -0.967314   -2.421485
     22          1           0        6.848242   -1.479566   -4.811997
     23          1           0        4.545956   -1.364669   -5.722705
     24          1           0       -2.236635    0.948607   -3.439350
     25          1           0       -0.000478   -2.323869   -0.513411
     26          1           0        1.653048   -2.413727   -1.141604
     27          1           0        0.272843   -3.001611   -2.103369
 ---------------------------------------------------------------------
                    Distance matrix (angstroms):
                    1          2          3          4          5
     1  C    0.000000
     2  C    1.482798   0.000000
     3  C    2.455123   1.337002   0.000000
     4  C    2.870129   2.458468   1.482658   0.000000
     5  C    2.483307   2.902287   2.566467   1.500935   0.000000
     6  O    1.220313   2.354293   3.554520   4.090398   3.582691
     7  O    4.089830   3.553750   2.349926   1.219887   2.370136
     8  H    2.186219   1.084431   2.132504   3.466712   3.983345
     9  C    1.490568   2.548260   2.875297   2.461229   1.350257
    10  C    2.547015   3.905332   4.388195   3.888765   2.517884
    11  C    3.371383   4.745599   5.308312   4.853052   3.524146
    12  C    4.591605   6.029036   6.655886   6.180805   4.786538
    13  C    3.536310   4.682712   5.185535   4.815831   3.724829
    14  C    5.635208   7.024926   7.672720   7.228208   5.887544
    15  C    5.730800   6.977640   7.582688   7.197241   6.003939
    16  C    4.820325   5.915936   6.444132   6.106384   5.066017
    17  O    3.295099   4.595602   5.046869   4.499212   3.144210
    18  C    3.897430   4.395440   3.903512   2.542529   1.499096
    19  H    4.923810   6.388030   7.019701   6.517631   5.082120
    20  H    3.041414   3.936916   4.323173   4.015869   3.165329
    21  H    6.590816   8.012976   8.689665   8.231731   6.853205
    22  H    6.736521   7.940283   8.549032   8.183978   7.030640
    23  H    5.318361   6.220252   6.683501   6.414822   5.562959
    24  H    3.463443   2.131083   1.084370   2.184310   3.522818
    25  H    4.482800   4.840478   4.218670   2.836046   2.135890
    26  H    4.170094   4.973798   4.718849   3.482864   2.158968
    27  H    4.530444   4.848533   4.181200   2.761566   2.139422
                    6          7          8          9         10
     6  O    0.000000
     7  O    5.310019   0.000000
     8  H    2.583017   4.474172   0.000000
     9  C    2.365459   3.565768   3.507847   0.000000
    10  C    2.799180   4.884766   4.730133   1.520209   0.000000
    11  C    3.344050   5.810792   5.472486   2.593423   1.487940
    12  C    4.337685   7.109845   6.690450   3.865518   2.485905
    13  C    3.595197   5.718408   5.358456   2.974339   2.525698
    14  C    5.294794   8.123878   7.621890   5.011461   3.767705
    15  C    5.453387   8.051779   7.535959   5.213534   4.280431
    16  C    4.712191   6.942346   6.490457   4.365808   3.797890
    17  O    3.452054   5.418535   5.386457   2.353842   1.215397
    18  C    4.890544   2.796894   5.478484   2.526623   3.025253
    19  H    4.639859   7.440025   7.050019   4.167020   2.657631
    20  H    3.358417   4.897605   4.639515   2.597733   2.750216
    21  H    6.172522   9.119714   8.585082   5.970861   4.631248
    22  H    6.414112   9.005901   8.450478   6.271160   5.364679
    23  H    5.266195   7.176408   6.732156   4.987029   4.672480
    24  H    4.476244   2.574014   2.519535   3.956191   5.470726
    25  H    5.500786   2.833213   5.905320   3.205956   3.704007
    26  H    4.964973   3.871102   6.030057   2.683721   2.586477
    27  H    5.568492   2.678973   5.919389   3.265658   3.855184
                   11         12         13         14         15
    11  C    0.000000
    12  C    1.402618   0.000000
    13  C    1.400236   2.420597   0.000000
    14  C    2.419364   1.388355   2.789286   0.000000
    15  C    2.792926   2.412675   2.411390   1.397086   0.000000
    16  C    2.421685   2.791883   1.392159   2.418645   1.393671
    17  O    2.374623   2.823717   3.632278   4.210183   5.023258
    18  C    3.864172   4.911245   4.162925   5.960575   6.152465
    19  H    2.143716   1.083096   3.394160   2.158334   3.402589
    20  H    2.158013   3.405203   1.083673   3.872952   3.391305
    21  H    3.401845   2.146167   3.873244   1.083967   2.154323
    22  H    3.877222   3.394061   3.393619   2.154002   1.084297
    23  H    3.403161   3.875700   2.149395   3.401412   2.152605
    24  H    6.372748   7.729994   6.169072   8.719895   8.566490
    25  H    4.738429   5.685008   5.190778   6.815737   7.131224
    26  H    3.245973   4.088312   3.746020   5.123554   5.448537
    27  H    4.421865   5.498232   4.413880   6.377457   6.366207
                   16         17         18         19         20
    16  C    0.000000
    17  O    4.793153   0.000000
    18  C    5.362845   3.403128   0.000000
    19  H    3.874799   2.497044   5.130837   0.000000
    20  H    2.145628   3.957767   3.805220   4.289984   0.000000
    21  H    3.400069   4.869302   6.843794   2.490877   4.956905
    22  H    2.150619   6.086323   7.139007   4.299959   4.285405
    23  H    1.083818   5.745029   5.896803   4.958608   2.469050
    24  H    7.376826   6.101612   4.725263   8.104067   5.246736
    25  H    6.411234   3.772631   1.093992   5.734561   4.857286
    26  H    4.856116   2.860123   1.088596   4.254705   3.674791
    27  H    5.471786   4.391116   1.092794   5.860428   3.932171
                   21         22         23         24         25
    21  H    0.000000
    22  H    2.480217   0.000000
    23  H    4.295884   2.478530   0.000000
    24  H    9.747154   9.503430   7.521203   0.000000
    25  H    7.634317   8.129923   6.980464   4.926522   0.000000
    26  H    5.935951   6.429190   5.518689   5.631568   1.771115
    27  H    7.289987   7.272493   5.834267   4.866883   1.749859
                   26         27
    26  H    0.000000
    27  H    1.782012   0.000000
 Symmetry turned off by external request.
 Stoichiometry    C14H10O3
 Framework group  C1[X(C14H10O3)]
 Deg. of freedom    75
 Full point group                 C1      NOp   1
 Rotational constants (GHZ):           0.9101458           0.3014515           0.2861353
 Leave Link  202 at Sat Feb 10 10:23:09 2024, MaxMem=  4026531840 cpu:               0.5 elap:               0.1
 (Enter /sysapps/ubuntu-applications/gaussian/Gaussian/AVX2/g16/l301.exe)
 Standard basis: 6-311++G(d,p) (5D, 7F)
 Ernie: Thresh=  0.10000D-02 Tol=  0.10000D-05 Strict=F.
   444 basis functions,   702 primitive gaussians,   461 cartesian basis functions
    59 alpha electrons       59 beta electrons
       nuclear repulsion energy      1104.4731047213 Hartrees.
 IExCor=  402 DFT=T Ex+Corr=B3LYP ExCW=0 ScaHFX=  0.200000
 ScaDFX=  0.800000  0.720000  1.000000  0.810000 ScalE2=  1.000000  1.000000
 IRadAn=      5 IRanWt=     -1 IRanGd=            0 ICorTp=0 IEmpDi=  4
 NAtoms=   27 NActive=   27 NUniq=   27 SFac= 1.00D+00 NAtFMM=   60 NAOKFM=F Big=F
 Integral buffers will be    131072 words long.
 Raffenetti 2 integral format.
 Two-electron integral symmetry is turned off.
 ------------------------------------------------------------------------------
 Polarizable Continuum Model (PCM)
 =================================
 Model                : PCM.
 Atomic radii         : UFF (Universal Force Field).
 Polarization charges : Total charges.
 Charge compensation  : None.
 Solution method      : On-the-fly selection.
 Cavity type          : Scaled VdW (van der Waals Surface) (Alpha=1.100).
 Cavity algorithm     : GePol (No added spheres)
                        Default sphere list used, NSphG=   27.
                        Lebedev-Laikov grids with approx.  5.0 points / Ang**2.
                        Smoothing algorithm: York/Karplus (Gamma=1.0000).
                        Polarization charges: spherical gaussians, with
                                              point-specific exponents (IZeta= 3).
                        Self-potential: point-specific (ISelfS= 7).
                        Self-field    : sphere-specific E.n sum rule (ISelfD= 2).
 1st derivatives      : Analytical E(r).r(x)/FMM algorithm (CHGder, D1EAlg=3).
                        Cavity 1st derivative terms included.
 Solvent              : n,n-DiMethylFormamide, Eps=  37.219000 Eps(inf)=   2.046330
 ------------------------------------------------------------------------------
 GePol: Number of generator spheres                  =      27
 GePol: Total number of spheres                      =      27
 GePol: Number of exposed spheres                    =      27 (100.00%)
 GePol: Number of points                             =    2250
 GePol: Average weight of points                     =       0.13
 GePol: Minimum weight of points                     =   0.13D-11
 GePol: Maximum weight of points                     =    0.20577
 GePol: Number of points with low weight             =     141
 GePol: Fraction of low-weight points (<1% of avg)   =       6.27%
 GePol: Cavity surface area                          =    291.145 Ang**2
 GePol: Cavity volume                                =    309.697 Ang**3
 Leave Link  301 at Sat Feb 10 10:23:10 2024, MaxMem=  4026531840 cpu:               0.9 elap:               0.2
 (Enter /sysapps/ubuntu-applications/gaussian/Gaussian/AVX2/g16/l302.exe)
 NPDir=0 NMtPBC=     1 NCelOv=     1 NCel=       1 NClECP=     1 NCelD=      1
         NCelK=      1 NCelE2=     1 NClLst=     1 CellRange=     0.0.
 One-electron integrals computed using PRISM.
 NBasis=   444 RedAO= T EigKep=  1.64D-06  NBF=   444
 NBsUse=   440 1.00D-06 EigRej=  9.72D-07 NBFU=   440
 Precomputing XC quadrature grid using
 IXCGrd= 4 IRadAn=           5 IRanWt=          -1 IRanGd=           0 AccXCQ= 0.00D+00.
 Generated NRdTot=       0 NPtTot=           0 NUsed=           0 NTot=          32
 NSgBfM=   461   461   461   461   461 MxSgAt=    27 MxSgA2=    27.
 Leave Link  302 at Sat Feb 10 10:23:13 2024, MaxMem=  4026531840 cpu:              19.1 elap:               3.1
 (Enter /sysapps/ubuntu-applications/gaussian/Gaussian/AVX2/g16/l303.exe)
 DipDrv:  MaxL=1.
 Leave Link  303 at Sat Feb 10 10:23:13 2024, MaxMem=  4026531840 cpu:               1.2 elap:               0.3
 (Enter /sysapps/ubuntu-applications/gaussian/Gaussian/AVX2/g16/l401.exe)
 ExpMin= 3.60D-02 ExpMax= 8.59D+03 ExpMxC= 1.30D+03 IAcc=3 IRadAn=         5 AccDes= 0.00D+00
 Harris functional with IExCor=  402 and IRadAn=       5 diagonalized for initial guess.
 HarFok:  IExCor=  402 AccDes= 0.00D+00 IRadAn=         5 IDoV= 1 UseB2=F ITyADJ=14
 ICtDFT=  3500011 ScaDFX=  1.000000  1.000000  1.000000  1.000000
 FoFCou: FMM=F IPFlag=           0 FMFlag=      100000 FMFlg1=           0
         NFxFlg=           0 DoJE=T BraDBF=F KetDBF=T FulRan=T
         wScrn=  0.000000 ICntrl=       500 IOpCl=  0 I1Cent=   200000004 NGrid=           0
         NMat0=    1 NMatS0=      1 NMatT0=    0 NMatD0=    1 NMtDS0=    0 NMtDT0=    0
 Symmetry not used in FoFCou.
 Harris En= -765.402812790702    
 JPrj=0 DoOrth=F DoCkMO=F.
 Initial guess <Sx>= 0.0000 <Sy>= 0.0000 <Sz>= 0.0000 <S**2>=-0.0000 S=-0.0000
 Leave Link  401 at Sat Feb 10 10:23:20 2024, MaxMem=  4026531840 cpu:              37.9 elap:               6.4
 (Enter /sysapps/ubuntu-applications/gaussian/Gaussian/AVX2/g16/l502.exe)
 Two-electron integral symmetry not used.
 UHF open shell SCF:
 Using DIIS extrapolation, IDIIS=  1040.
 NGot=  4026531840 LenX=  4026099796 LenY=  4025886814
 Requested convergence on RMS density matrix=1.00D-08 within 128 cycles.
 Requested convergence on MAX density matrix=1.00D-06.
 Requested convergence on             energy=1.00D-06.
 No special actions if energy rises.
 Fock matrices will be formed incrementally for  20 cycles.

 Cycle   1  Pass 1  IDiag  1:
 FoFJK:  IHMeth= 1 ICntrl=       0 DoSepK=F KAlg= 0 I1Cent=           0 FoldK=F
 IRaf= 870000000 NMat=       1 IRICut=       1 DoRegI=T DoRafI=F ISym2E= 0 IDoP0=0 IntGTp=1.
 FoFCou: FMM=F IPFlag=           0 FMFlag=      100000 FMFlg1=           0
         NFxFlg=           0 DoJE=F BraDBF=F KetDBF=F FulRan=T
         wScrn=  0.000000 ICntrl=         0 IOpCl=  1 I1Cent=           0 NGrid=           0
         NMat0=    1 NMatS0=      1 NMatT0=    0 NMatD0=    1 NMtDS0=    0 NMtDT0=    0
 Symmetry not used in FoFCou.
 Inv3:  Mode=1 IEnd=    15187500.
 Iteration    1 A*A^-1 deviation from unit magnitude is 4.11D-15 for   1001.
 Iteration    1 A*A^-1 deviation from orthogonality  is 2.62D-15 for   1112     99.
 Iteration    1 A^-1*A deviation from unit magnitude is 3.66D-15 for   1001.
 Iteration    1 A^-1*A deviation from orthogonality  is 2.14D-15 for   1867   1772.
 E= -764.970826700517    
 DIIS: error= 2.28D-02 at cycle   1 NSaved=   1.
 NSaved= 1 IEnMin= 1 EnMin= -764.970826700517     IErMin= 1 ErrMin= 2.28D-02
 ErrMax= 2.28D-02  0.00D+00 EMaxC= 1.00D-01 BMatC= 2.02D+00 BMatP= 2.02D+00
 IDIUse=3 WtCom= 7.72D-01 WtEn= 2.28D-01
 Coeff-Com:  0.100D+01
 Coeff-En:   0.100D+01
 Coeff:      0.100D+01
 Gap=     0.091 Goal=   None    Shift=    0.000
 Gap=     0.091 Goal=   None    Shift=    0.000
 GapD=    0.091 DampG=0.500 DampE=0.500 DampFc=0.2500 IDamp=-1.
 Damping current iteration by 2.50D-01
 RMSDP=2.20D-02 MaxDP=1.58D+00              OVMax= 2.25D-01

 Cycle   2  Pass 1  IDiag  1:
 RMSU=  5.32D-03    CP:  1.04D+00
 E= -765.111639501921     Delta-E=       -0.140812801404 Rises=F Damp=T
 DIIS: error= 1.05D-02 at cycle   2 NSaved=   2.
 NSaved= 2 IEnMin= 2 EnMin= -765.111639501921     IErMin= 2 ErrMin= 1.05D-02
 ErrMax= 1.05D-02  0.00D+00 EMaxC= 1.00D-01 BMatC= 4.48D-01 BMatP= 2.02D+00
 IDIUse=3 WtCom= 8.95D-01 WtEn= 1.05D-01
 Coeff-Com: -0.600D+00 0.160D+01
 Coeff-En:   0.000D+00 0.100D+01
 Coeff:     -0.537D+00 0.154D+01
 Gap=     0.138 Goal=   None    Shift=    0.000
 Gap=     0.138 Goal=   None    Shift=    0.000
 RMSDP=6.68D-03 MaxDP=4.53D-01 DE=-1.41D-01 OVMax= 1.68D-01

 Cycle   3  Pass 1  IDiag  1:
 RMSU=  4.58D-03    CP:  9.22D-01  1.28D+00
 E= -765.313826430194     Delta-E=       -0.202186928274 Rises=F Damp=F
 DIIS: error= 1.16D-02 at cycle   3 NSaved=   3.
 NSaved= 3 IEnMin= 3 EnMin= -765.313826430194     IErMin= 2 ErrMin= 1.05D-02
 ErrMax= 1.16D-02  0.00D+00 EMaxC= 1.00D-01 BMatC= 2.60D-01 BMatP= 4.48D-01
 IDIUse=3 WtCom= 8.84D-01 WtEn= 1.16D-01
 Coeff-Com: -0.437D+00 0.950D+00 0.487D+00
 Coeff-En:   0.000D+00 0.000D+00 0.100D+01
 Coeff:     -0.387D+00 0.840D+00 0.547D+00
 Gap=     0.139 Goal=   None    Shift=    0.000
 Gap=     0.139 Goal=   None    Shift=    0.000
 RMSDP=4.01D-03 MaxDP=3.41D-01 DE=-2.02D-01 OVMax= 7.02D-02

 Cycle   4  Pass 1  IDiag  1:
 RMSU=  2.24D-03    CP:  9.96D-01  1.40D+00  7.26D-01
 E= -765.360651602251     Delta-E=       -0.046825172057 Rises=F Damp=F
 DIIS: error= 5.00D-03 at cycle   4 NSaved=   4.
 NSaved= 4 IEnMin= 4 EnMin= -765.360651602251     IErMin= 4 ErrMin= 5.00D-03
 ErrMax= 5.00D-03  0.00D+00 EMaxC= 1.00D-01 BMatC= 5.07D-02 BMatP= 2.60D-01
 IDIUse=3 WtCom= 9.50D-01 WtEn= 5.00D-02
 Coeff-Com: -0.857D-01 0.186D+00 0.324D+00 0.576D+00
 Coeff-En:   0.000D+00 0.000D+00 0.192D+00 0.808D+00
 Coeff:     -0.814D-01 0.176D+00 0.317D+00 0.588D+00
 Gap=     0.132 Goal=   None    Shift=    0.000
 Gap=     0.132 Goal=   None    Shift=    0.000
 RMSDP=2.46D-03 MaxDP=2.55D-01 DE=-4.68D-02 OVMax= 2.42D-02

 Cycle   5  Pass 1  IDiag  1:
 RMSU=  7.74D-04    CP:  9.47D-01  1.46D+00  8.29D-01  5.28D-01
 E= -765.371229928766     Delta-E=       -0.010578326514 Rises=F Damp=F
 DIIS: error= 5.46D-04 at cycle   5 NSaved=   5.
 NSaved= 5 IEnMin= 5 EnMin= -765.371229928766     IErMin= 5 ErrMin= 5.46D-04
 ErrMax= 5.46D-04  0.00D+00 EMaxC= 1.00D-01 BMatC= 1.18D-03 BMatP= 5.07D-02
 IDIUse=3 WtCom= 9.95D-01 WtEn= 5.46D-03
 Coeff-Com: -0.103D-01 0.207D-01 0.116D+00 0.274D+00 0.600D+00
 Coeff-En:   0.000D+00 0.000D+00 0.000D+00 0.000D+00 0.100D+01
 Coeff:     -0.103D-01 0.206D-01 0.115D+00 0.272D+00 0.603D+00
 Gap=     0.132 Goal=   None    Shift=    0.000
 Gap=     0.132 Goal=   None    Shift=    0.000
 RMSDP=4.15D-04 MaxDP=3.63D-02 DE=-1.06D-02 OVMax= 6.74D-03

 Cycle   6  Pass 1  IDiag  1:
 RMSU=  2.10D-04    CP:  9.43D-01  1.42D+00  8.47D-01  5.41D-01  7.66D-01
 E= -765.371467855313     Delta-E=       -0.000237926547 Rises=F Damp=F
 DIIS: error= 4.24D-04 at cycle   6 NSaved=   6.
 NSaved= 6 IEnMin= 6 EnMin= -765.371467855313     IErMin= 6 ErrMin= 4.24D-04
 ErrMax= 4.24D-04  0.00D+00 EMaxC= 1.00D-01 BMatC= 1.67D-04 BMatP= 1.18D-03
 IDIUse=3 WtCom= 9.96D-01 WtEn= 4.24D-03
 Coeff-Com: -0.532D-03 0.287D-03 0.428D-01 0.112D+00 0.346D+00 0.499D+00
 Coeff-En:   0.000D+00 0.000D+00 0.000D+00 0.000D+00 0.486D-01 0.951D+00
 Coeff:     -0.529D-03 0.285D-03 0.426D-01 0.112D+00 0.345D+00 0.501D+00
 Gap=     0.131 Goal=   None    Shift=    0.000
 Gap=     0.131 Goal=   None    Shift=    0.000
 RMSDP=9.94D-05 MaxDP=7.75D-03 DE=-2.38D-04 OVMax= 3.58D-03

 Cycle   7  Pass 1  IDiag  1:
 RMSU=  4.21D-05    CP:  9.44D-01  1.42D+00  8.45D-01  5.51D-01  7.62D-01
                    CP:  7.86D-01
 E= -765.371499668188     Delta-E=       -0.000031812875 Rises=F Damp=F
 DIIS: error= 1.92D-04 at cycle   7 NSaved=   7.
 NSaved= 7 IEnMin= 7 EnMin= -765.371499668188     IErMin= 7 ErrMin= 1.92D-04
 ErrMax= 1.92D-04  0.00D+00 EMaxC= 1.00D-01 BMatC= 3.03D-05 BMatP= 1.67D-04
 IDIUse=3 WtCom= 9.98D-01 WtEn= 1.92D-03
 Coeff-Com:  0.955D-03-0.230D-02 0.133D-01 0.385D-01 0.154D+00 0.333D+00
 Coeff-Com:  0.462D+00
 Coeff-En:   0.000D+00 0.000D+00 0.000D+00 0.000D+00 0.000D+00 0.115D+00
 Coeff-En:   0.885D+00
 Coeff:      0.953D-03-0.229D-02 0.132D-01 0.384D-01 0.154D+00 0.333D+00
 Coeff:      0.463D+00
 Gap=     0.131 Goal=   None    Shift=    0.000
 Gap=     0.131 Goal=   None    Shift=    0.000
 RMSDP=3.44D-05 MaxDP=2.54D-03 DE=-3.18D-05 OVMax= 1.23D-03

 Cycle   8  Pass 1  IDiag  1:
 RMSU=  1.95D-05    CP:  9.45D-01  1.42D+00  8.46D-01  5.54D-01  7.70D-01
                    CP:  7.49D-01  8.40D-01
 E= -765.371505441004     Delta-E=       -0.000005772816 Rises=F Damp=F
 DIIS: error= 2.88D-05 at cycle   8 NSaved=   8.
 NSaved= 8 IEnMin= 8 EnMin= -765.371505441004     IErMin= 8 ErrMin= 2.88D-05
 ErrMax= 2.88D-05  0.00D+00 EMaxC= 1.00D-01 BMatC= 1.72D-06 BMatP= 3.03D-05
 IDIUse=1 WtCom= 1.00D+00 WtEn= 0.00D+00
 Coeff-Com:  0.654D-03-0.138D-02 0.313D-02 0.999D-02 0.510D-01 0.132D+00
 Coeff-Com:  0.250D+00 0.554D+00
 Coeff:      0.654D-03-0.138D-02 0.313D-02 0.999D-02 0.510D-01 0.132D+00
 Coeff:      0.250D+00 0.554D+00
 Gap=     0.130 Goal=   None    Shift=    0.000
 Gap=     0.130 Goal=   None    Shift=    0.000
 RMSDP=9.30D-06 MaxDP=5.99D-04 DE=-5.77D-06 OVMax= 2.43D-04

 Cycle   9  Pass 1  IDiag  1:
 RMSU=  7.59D-06    CP:  9.45D-01  1.42D+00  8.46D-01  5.54D-01  7.70D-01
                    CP:  7.61D-01  8.22D-01  8.28D-01
 E= -765.371505747810     Delta-E=       -0.000000306806 Rises=F Damp=F
 DIIS: error= 1.09D-05 at cycle   9 NSaved=   9.
 NSaved= 9 IEnMin= 9 EnMin= -765.371505747810     IErMin= 9 ErrMin= 1.09D-05
 ErrMax= 1.09D-05  0.00D+00 EMaxC= 1.00D-01 BMatC= 2.80D-07 BMatP= 1.72D-06
 IDIUse=1 WtCom= 1.00D+00 WtEn= 0.00D+00
 Coeff-Com:  0.259D-03-0.468D-03-0.222D-03-0.275D-03 0.534D-02 0.237D-01
 Coeff-Com:  0.705D-01 0.321D+00 0.580D+00
 Coeff:      0.259D-03-0.468D-03-0.222D-03-0.275D-03 0.534D-02 0.237D-01
 Coeff:      0.705D-01 0.321D+00 0.580D+00
 Gap=     0.131 Goal=   None    Shift=    0.000
 Gap=     0.131 Goal=   None    Shift=    0.000
 RMSDP=3.82D-06 MaxDP=3.54D-04 DE=-3.07D-07 OVMax= 9.12D-05

 Cycle  10  Pass 1  IDiag  1:
 RMSU=  1.55D-06    CP:  9.45D-01  1.42D+00  8.46D-01  5.54D-01  7.72D-01
                    CP:  7.60D-01  8.29D-01  8.57D-01  8.15D-01
 E= -765.371505810983     Delta-E=       -0.000000063173 Rises=F Damp=F
 DIIS: error= 3.02D-06 at cycle  10 NSaved=  10.
 NSaved=10 IEnMin=10 EnMin= -765.371505810983     IErMin=10 ErrMin= 3.02D-06
 ErrMax= 3.02D-06  0.00D+00 EMaxC= 1.00D-01 BMatC= 1.56D-08 BMatP= 2.80D-07
 IDIUse=1 WtCom= 1.00D+00 WtEn= 0.00D+00
 Coeff-Com:  0.996D-04-0.173D-03-0.235D-03-0.583D-03 0.364D-03 0.591D-02
 Coeff-Com:  0.234D-01 0.128D+00 0.298D+00 0.546D+00
 Coeff:      0.996D-04-0.173D-03-0.235D-03-0.583D-03 0.364D-03 0.591D-02
 Coeff:      0.234D-01 0.128D+00 0.298D+00 0.546D+00
 Gap=     0.131 Goal=   None    Shift=    0.000
 Gap=     0.131 Goal=   None    Shift=    0.000
 RMSDP=1.03D-06 MaxDP=8.35D-05 DE=-6.32D-08 OVMax= 2.59D-05

 Cycle  11  Pass 1  IDiag  1:
 RMSU=  5.31D-07    CP:  9.45D-01  1.42D+00  8.46D-01  5.54D-01  7.72D-01
                    CP:  7.61D-01  8.34D-01  8.61D-01  8.00D-01  8.92D-01
 E= -765.371505814426     Delta-E=       -0.000000003444 Rises=F Damp=F
 DIIS: error= 1.23D-06 at cycle  11 NSaved=  11.
 NSaved=11 IEnMin=11 EnMin= -765.371505814426     IErMin=11 ErrMin= 1.23D-06
 ErrMax= 1.23D-06  0.00D+00 EMaxC= 1.00D-01 BMatC= 1.84D-09 BMatP= 1.56D-08
 IDIUse=1 WtCom= 1.00D+00 WtEn= 0.00D+00
 Coeff-Com:  0.672D-05-0.881D-05-0.844D-04-0.274D-03-0.729D-03-0.641D-03
 Coeff-Com:  0.853D-03 0.114D-01 0.655D-01 0.283D+00 0.641D+00
 Coeff:      0.672D-05-0.881D-05-0.844D-04-0.274D-03-0.729D-03-0.641D-03
 Coeff:      0.853D-03 0.114D-01 0.655D-01 0.283D+00 0.641D+00
 Gap=     0.131 Goal=   None    Shift=    0.000
 Gap=     0.131 Goal=   None    Shift=    0.000
 RMSDP=3.51D-07 MaxDP=2.63D-05 DE=-3.44D-09 OVMax= 6.79D-06

 Cycle  12  Pass 1  IDiag  1:
 RMSU=  1.43D-07    CP:  9.45D-01  1.42D+00  8.46D-01  5.54D-01  7.72D-01
                    CP:  7.61D-01  8.35D-01  8.64D-01  8.19D-01  8.91D-01
                    CP:  7.64D-01
 E= -765.371505814885     Delta-E=       -0.000000000459 Rises=F Damp=F
 DIIS: error= 2.56D-07 at cycle  12 NSaved=  12.
 NSaved=12 IEnMin=12 EnMin= -765.371505814885     IErMin=12 ErrMin= 2.56D-07
 ErrMax= 2.56D-07  0.00D+00 EMaxC= 1.00D-01 BMatC= 6.31D-11 BMatP= 1.84D-09
 IDIUse=1 WtCom= 1.00D+00 WtEn= 0.00D+00
 Coeff-Com: -0.249D-05 0.483D-05-0.177D-04-0.705D-04-0.280D-03-0.422D-03
 Coeff-Com: -0.723D-03-0.264D-02 0.102D-01 0.621D-01 0.217D+00 0.715D+00
 Coeff:     -0.249D-05 0.483D-05-0.177D-04-0.705D-04-0.280D-03-0.422D-03
 Coeff:     -0.723D-03-0.264D-02 0.102D-01 0.621D-01 0.217D+00 0.715D+00
 Gap=     0.131 Goal=   None    Shift=    0.000
 Gap=     0.131 Goal=   None    Shift=    0.000
 RMSDP=6.93D-08 MaxDP=4.39D-06 DE=-4.59D-10 OVMax= 1.75D-06

 Cycle  13  Pass 1  IDiag  1:
 RMSU=  3.88D-08    CP:  9.45D-01  1.42D+00  8.46D-01  5.54D-01  7.72D-01
                    CP:  7.61D-01  8.35D-01  8.63D-01  8.23D-01  9.00D-01
                    CP:  7.80D-01  1.09D+00
 E= -765.371505814893     Delta-E=       -0.000000000008 Rises=F Damp=F
 DIIS: error= 1.17D-07 at cycle  13 NSaved=  13.
 NSaved=13 IEnMin=13 EnMin= -765.371505814893     IErMin=13 ErrMin= 1.17D-07
 ErrMax= 1.17D-07  0.00D+00 EMaxC= 1.00D-01 BMatC= 2.78D-11 BMatP= 6.31D-11
 IDIUse=1 WtCom= 1.00D+00 WtEn= 0.00D+00
 Coeff-Com: -0.254D-05 0.424D-05 0.104D-05-0.540D-05-0.750D-04-0.162D-03
 Coeff-Com: -0.597D-03-0.367D-02-0.326D-02-0.593D-02 0.431D-01 0.458D+00
 Coeff-Com:  0.513D+00
 Coeff:     -0.254D-05 0.424D-05 0.104D-05-0.540D-05-0.750D-04-0.162D-03
 Coeff:     -0.597D-03-0.367D-02-0.326D-02-0.593D-02 0.431D-01 0.458D+00
 Coeff:      0.513D+00
 Gap=     0.131 Goal=   None    Shift=    0.000
 Gap=     0.131 Goal=   None    Shift=    0.000
 RMSDP=2.60D-08 MaxDP=2.55D-06 DE=-7.50D-12 OVMax= 1.10D-06

 Cycle  14  Pass 1  IDiag  1:
 RMSU=  1.54D-08    CP:  9.45D-01  1.42D+00  8.46D-01  5.54D-01  7.72D-01
                    CP:  7.61D-01  8.35D-01  8.63D-01  8.23D-01  9.02D-01
                    CP:  7.97D-01  1.11D+00  8.60D-01
 E= -765.371505814911     Delta-E=       -0.000000000018 Rises=F Damp=F
 DIIS: error= 2.74D-08 at cycle  14 NSaved=  14.
 NSaved=14 IEnMin=14 EnMin= -765.371505814911     IErMin=14 ErrMin= 2.74D-08
 ErrMax= 2.74D-08  0.00D+00 EMaxC= 1.00D-01 BMatC= 2.63D-12 BMatP= 2.78D-11
 IDIUse=1 WtCom= 1.00D+00 WtEn= 0.00D+00
 Coeff-Com: -0.103D-05 0.168D-05 0.251D-05 0.456D-05-0.109D-04-0.437D-04
 Coeff-Com: -0.257D-03-0.180D-02-0.272D-02-0.111D-01 0.298D-03 0.171D+00
 Coeff-Com:  0.288D+00 0.556D+00
 Coeff:     -0.103D-05 0.168D-05 0.251D-05 0.456D-05-0.109D-04-0.437D-04
 Coeff:     -0.257D-03-0.180D-02-0.272D-02-0.111D-01 0.298D-03 0.171D+00
 Coeff:      0.288D+00 0.556D+00
 Gap=     0.131 Goal=   None    Shift=    0.000
 Gap=     0.131 Goal=   None    Shift=    0.000
 RMSDP=1.15D-08 MaxDP=9.89D-07 DE=-1.84D-11 OVMax= 3.05D-07

 Cycle  15  Pass 1  IDiag  1:
 RMSU=  5.77D-09    CP:  9.45D-01  1.42D+00  8.46D-01  5.54D-01  7.72D-01
                    CP:  7.61D-01  8.35D-01  8.63D-01  8.23D-01  9.03D-01
                    CP:  8.05D-01  1.12D+00  8.82D-01  9.10D-01
 E= -765.371505814911     Delta-E=        0.000000000000 Rises=F Damp=F
 DIIS: error= 2.08D-08 at cycle  15 NSaved=  15.
 NSaved=15 IEnMin=14 EnMin= -765.371505814911     IErMin=15 ErrMin= 2.08D-08
 ErrMax= 2.08D-08  0.00D+00 EMaxC= 1.00D-01 BMatC= 4.43D-13 BMatP= 2.63D-12
 IDIUse=1 WtCom= 1.00D+00 WtEn= 0.00D+00
 Coeff-Com: -0.921D-07 0.158D-06 0.113D-05 0.322D-05 0.679D-05 0.465D-05
 Coeff-Com: -0.345D-04-0.350D-03-0.795D-03-0.548D-02-0.714D-02 0.129D-01
 Coeff-Com:  0.682D-01 0.332D+00 0.601D+00
 Coeff:     -0.921D-07 0.158D-06 0.113D-05 0.322D-05 0.679D-05 0.465D-05
 Coeff:     -0.345D-04-0.350D-03-0.795D-03-0.548D-02-0.714D-02 0.129D-01
 Coeff:      0.682D-01 0.332D+00 0.601D+00
 Gap=     0.131 Goal=   None    Shift=    0.000
 Gap=     0.131 Goal=   None    Shift=    0.000
 RMSDP=5.49D-09 MaxDP=2.79D-07 DE= 4.55D-13 OVMax= 1.86D-07

 Error on total polarization charges =  0.01603
 SCF Done:  E(UB3LYP) =  -765.371505815     A.U. after   15 cycles
            NFock= 15  Conv=0.55D-08     -V/T= 2.0041
 <Sx>= 0.0000 <Sy>= 0.0000 <Sz>= 0.0000 <S**2>=-0.0000 S=-0.0000
 <L.S>=  0.00000000000    
 KE= 7.622544699352D+02 PE=-3.993531711421D+03 EE= 1.361432630949D+03
 Annihilation of the first spin contaminant:
 S**2 before annihilation    -0.0000,   after     0.0000
 Leave Link  502 at Sat Feb 10 10:28:25 2024, MaxMem=  4026531840 cpu:            2263.8 elap:             305.9
 (Enter /sysapps/ubuntu-applications/gaussian/Gaussian/AVX2/g16/l601.exe)
 Copying SCF densities to generalized density rwf, IOpCl= 1 IROHF=0.

 **********************************************************************

            Population analysis using the SCF density.

 **********************************************************************

 Alpha  occ. eigenvalues --  -19.15028 -19.14989 -19.14037 -10.29692 -10.29398
 Alpha  occ. eigenvalues --  -10.29203 -10.23281 -10.22315 -10.21802 -10.21713
 Alpha  occ. eigenvalues --  -10.20314 -10.19953 -10.19654 -10.19555 -10.19210
 Alpha  occ. eigenvalues --  -10.19176 -10.18397  -1.08372  -1.08040  -1.07365
 Alpha  occ. eigenvalues --   -0.88250  -0.87566  -0.82090  -0.78490  -0.76870
 Alpha  occ. eigenvalues --   -0.74635  -0.70109  -0.67543  -0.63651  -0.62235
 Alpha  occ. eigenvalues --   -0.60709  -0.57334  -0.54194  -0.53842  -0.51077
 Alpha  occ. eigenvalues --   -0.49688  -0.48103  -0.47775  -0.46821  -0.45785
 Alpha  occ. eigenvalues --   -0.45277  -0.45057  -0.44323  -0.44193  -0.43339
 Alpha  occ. eigenvalues --   -0.42695  -0.41446  -0.41089  -0.39923  -0.38056
 Alpha  occ. eigenvalues --   -0.37860  -0.36300  -0.31941  -0.30827  -0.30091
 Alpha  occ. eigenvalues --   -0.29516  -0.27935  -0.27620  -0.27283
 Alpha virt. eigenvalues --   -0.14231  -0.08686  -0.03702  -0.03111  -0.01094
 Alpha virt. eigenvalues --   -0.00830   0.00219   0.00783   0.01192   0.01359
 Alpha virt. eigenvalues --    0.02072   0.02889   0.03193   0.03615   0.04393
 Alpha virt. eigenvalues --    0.04726   0.05132   0.05977   0.06618   0.07100
 Alpha virt. eigenvalues --    0.07650   0.08148   0.08622   0.08986   0.09522
 Alpha virt. eigenvalues --    0.09734   0.10010   0.10951   0.11228   0.11259
 Alpha virt. eigenvalues --    0.11770   0.12013   0.12216   0.12522   0.12536
 Alpha virt. eigenvalues --    0.12983   0.13164   0.13420   0.13616   0.13918
 Alpha virt. eigenvalues --    0.14184   0.14660   0.14898   0.15292   0.15722
 Alpha virt. eigenvalues --    0.15909   0.16398   0.16773   0.17087   0.17453
 Alpha virt. eigenvalues --    0.17875   0.18230   0.18860   0.19278   0.19623
 Alpha virt. eigenvalues --    0.19915   0.20115   0.20152   0.20652   0.21378
 Alpha virt. eigenvalues --    0.21860   0.22361   0.22928   0.23238   0.23483
 Alpha virt. eigenvalues --    0.23844   0.23974   0.24423   0.24682   0.25618
 Alpha virt. eigenvalues --    0.26356   0.26702   0.26909   0.27235   0.27309
 Alpha virt. eigenvalues --    0.27874   0.28118   0.29014   0.29477   0.29846
 Alpha virt. eigenvalues --    0.30676   0.30941   0.31386   0.31661   0.32134
 Alpha virt. eigenvalues --    0.32467   0.33017   0.34181   0.34508   0.34808
 Alpha virt. eigenvalues --    0.35211   0.35397   0.36065   0.36557   0.37213
 Alpha virt. eigenvalues --    0.37829   0.38595   0.39060   0.39291   0.40499
 Alpha virt. eigenvalues --    0.41562   0.41756   0.42712   0.44140   0.46659
 Alpha virt. eigenvalues --    0.47413   0.49297   0.50305   0.51329   0.51744
 Alpha virt. eigenvalues --    0.53192   0.53340   0.54572   0.54773   0.55066
 Alpha virt. eigenvalues --    0.55308   0.55717   0.56572   0.57632   0.58047
 Alpha virt. eigenvalues --    0.58325   0.59177   0.60134   0.61180   0.61552
 Alpha virt. eigenvalues --    0.62055   0.63124   0.63813   0.64441   0.65840
 Alpha virt. eigenvalues --    0.65914   0.67146   0.67432   0.68634   0.68781
 Alpha virt. eigenvalues --    0.69541   0.69785   0.70405   0.71218   0.71661
 Alpha virt. eigenvalues --    0.72301   0.72609   0.73343   0.74826   0.75008
 Alpha virt. eigenvalues --    0.76883   0.78848   0.80387   0.80583   0.82538
 Alpha virt. eigenvalues --    0.83204   0.84702   0.85174   0.85377   0.85558
 Alpha virt. eigenvalues --    0.86477   0.87083   0.88540   0.89152   0.89834
 Alpha virt. eigenvalues --    0.90373   0.92973   0.93907   0.94181   0.95273
 Alpha virt. eigenvalues --    0.95578   0.97618   0.98395   0.99290   1.00173
 Alpha virt. eigenvalues --    1.01033   1.02224   1.02870   1.03611   1.05390
 Alpha virt. eigenvalues --    1.05715   1.06100   1.07467   1.09469   1.10432
 Alpha virt. eigenvalues --    1.11630   1.12502   1.13382   1.13458   1.16113
 Alpha virt. eigenvalues --    1.19305   1.20726   1.21592   1.22730   1.24322
 Alpha virt. eigenvalues --    1.24974   1.26498   1.28380   1.29420   1.31640
 Alpha virt. eigenvalues --    1.32318   1.34160   1.36901   1.40636   1.41334
 Alpha virt. eigenvalues --    1.44141   1.44900   1.46435   1.48196   1.48977
 Alpha virt. eigenvalues --    1.50763   1.51805   1.52256   1.52622   1.54173
 Alpha virt. eigenvalues --    1.54625   1.55909   1.56755   1.57095   1.57562
 Alpha virt. eigenvalues --    1.58895   1.61830   1.62700   1.63198   1.64267
 Alpha virt. eigenvalues --    1.64850   1.66971   1.67500   1.69187   1.70611
 Alpha virt. eigenvalues --    1.72429   1.73223   1.73624   1.75115   1.76774
 Alpha virt. eigenvalues --    1.77574   1.79277   1.81086   1.82335   1.82552
 Alpha virt. eigenvalues --    1.83319   1.85341   1.87075   1.88423   1.90929
 Alpha virt. eigenvalues --    1.91643   1.92034   1.92823   1.93247   1.94306
 Alpha virt. eigenvalues --    1.94677   1.94990   1.96280   1.99258   2.01050
 Alpha virt. eigenvalues --    2.02629   2.04825   2.05367   2.07334   2.07900
 Alpha virt. eigenvalues --    2.09982   2.10742   2.12122   2.14774   2.17727
 Alpha virt. eigenvalues --    2.18960   2.20679   2.24716   2.29210   2.29588
 Alpha virt. eigenvalues --    2.33528   2.34377   2.36362   2.38653   2.43221
 Alpha virt. eigenvalues --    2.44241   2.45838   2.46159   2.49131   2.50401
 Alpha virt. eigenvalues --    2.54601   2.55667   2.57566   2.59973   2.62180
 Alpha virt. eigenvalues --    2.63251   2.65179   2.65803   2.66124   2.67203
 Alpha virt. eigenvalues --    2.69723   2.70578   2.70967   2.71950   2.72227
 Alpha virt. eigenvalues --    2.72936   2.73680   2.74858   2.75427   2.76355
 Alpha virt. eigenvalues --    2.78401   2.79415   2.80250   2.83064   2.83338
 Alpha virt. eigenvalues --    2.85417   2.85648   2.86129   2.88704   2.89297
 Alpha virt. eigenvalues --    2.89790   2.92809   2.93683   2.94336   2.94599
 Alpha virt. eigenvalues --    2.97397   2.98350   3.02250   3.05257   3.07399
 Alpha virt. eigenvalues --    3.12351   3.14732   3.16139   3.18303   3.20581
 Alpha virt. eigenvalues --    3.22627   3.24996   3.26291   3.31177   3.33113
 Alpha virt. eigenvalues --    3.34615   3.34988   3.37299   3.43880   3.45686
 Alpha virt. eigenvalues --    3.49140   3.52352   3.52678   3.54165   3.59270
 Alpha virt. eigenvalues --    3.61052   3.62107   3.65157   3.71361   3.78167
 Alpha virt. eigenvalues --    3.78886   3.85996   3.92671   3.99778   4.02761
 Alpha virt. eigenvalues --    4.03226   4.09022   4.13807   4.15490   4.16799
 Alpha virt. eigenvalues --    4.18121   4.30088   4.41125   4.68632   4.83341
 Alpha virt. eigenvalues --    5.03573   5.05541   5.09785   5.19561   5.22407
 Alpha virt. eigenvalues --    5.23810   5.69316   5.75100   5.77942  23.58878
 Alpha virt. eigenvalues --   23.65338  23.73778  23.81188  23.86459  23.88896
 Alpha virt. eigenvalues --   23.94825  23.95839  23.96761  24.05306  24.09029
 Alpha virt. eigenvalues --   24.16585  24.17807  24.22725  49.96698  50.00413
 Alpha virt. eigenvalues --   50.04818
  Beta  occ. eigenvalues --  -19.15028 -19.14989 -19.14037 -10.29692 -10.29398
  Beta  occ. eigenvalues --  -10.29203 -10.23281 -10.22315 -10.21802 -10.21713
  Beta  occ. eigenvalues --  -10.20314 -10.19953 -10.19654 -10.19555 -10.19210
  Beta  occ. eigenvalues --  -10.19176 -10.18397  -1.08372  -1.08040  -1.07365
  Beta  occ. eigenvalues --   -0.88250  -0.87566  -0.82090  -0.78490  -0.76870
  Beta  occ. eigenvalues --   -0.74635  -0.70109  -0.67543  -0.63651  -0.62235
  Beta  occ. eigenvalues --   -0.60709  -0.57334  -0.54194  -0.53842  -0.51077
  Beta  occ. eigenvalues --   -0.49688  -0.48103  -0.47775  -0.46821  -0.45785
  Beta  occ. eigenvalues --   -0.45277  -0.45057  -0.44323  -0.44193  -0.43339
  Beta  occ. eigenvalues --   -0.42695  -0.41446  -0.41089  -0.39923  -0.38056
  Beta  occ. eigenvalues --   -0.37860  -0.36300  -0.31941  -0.30827  -0.30091
  Beta  occ. eigenvalues --   -0.29516  -0.27935  -0.27620  -0.27283
  Beta virt. eigenvalues --   -0.14231  -0.08686  -0.03702  -0.03111  -0.01094
  Beta virt. eigenvalues --   -0.00830   0.00219   0.00783   0.01192   0.01359
  Beta virt. eigenvalues --    0.02072   0.02889   0.03193   0.03615   0.04393
  Beta virt. eigenvalues --    0.04726   0.05132   0.05977   0.06618   0.07100
  Beta virt. eigenvalues --    0.07650   0.08148   0.08622   0.08986   0.09522
  Beta virt. eigenvalues --    0.09734   0.10010   0.10951   0.11228   0.11259
  Beta virt. eigenvalues --    0.11770   0.12013   0.12216   0.12522   0.12536
  Beta virt. eigenvalues --    0.12983   0.13164   0.13420   0.13616   0.13918
  Beta virt. eigenvalues --    0.14184   0.14660   0.14898   0.15292   0.15722
  Beta virt. eigenvalues --    0.15909   0.16398   0.16773   0.17087   0.17453
  Beta virt. eigenvalues --    0.17875   0.18230   0.18860   0.19278   0.19623
  Beta virt. eigenvalues --    0.19915   0.20115   0.20152   0.20652   0.21378
  Beta virt. eigenvalues --    0.21860   0.22361   0.22928   0.23238   0.23483
  Beta virt. eigenvalues --    0.23844   0.23974   0.24423   0.24682   0.25618
  Beta virt. eigenvalues --    0.26356   0.26702   0.26909   0.27235   0.27309
  Beta virt. eigenvalues --    0.27874   0.28118   0.29014   0.29477   0.29846
  Beta virt. eigenvalues --    0.30676   0.30941   0.31386   0.31661   0.32134
  Beta virt. eigenvalues --    0.32467   0.33017   0.34181   0.34508   0.34808
  Beta virt. eigenvalues --    0.35211   0.35397   0.36065   0.36557   0.37213
  Beta virt. eigenvalues --    0.37829   0.38595   0.39060   0.39291   0.40499
  Beta virt. eigenvalues --    0.41562   0.41756   0.42712   0.44140   0.46659
  Beta virt. eigenvalues --    0.47413   0.49297   0.50305   0.51329   0.51744
  Beta virt. eigenvalues --    0.53192   0.53340   0.54572   0.54773   0.55066
  Beta virt. eigenvalues --    0.55308   0.55717   0.56572   0.57632   0.58047
  Beta virt. eigenvalues --    0.58325   0.59177   0.60134   0.61180   0.61552
  Beta virt. eigenvalues --    0.62055   0.63124   0.63813   0.64441   0.65840
  Beta virt. eigenvalues --    0.65914   0.67146   0.67432   0.68634   0.68781
  Beta virt. eigenvalues --    0.69541   0.69785   0.70405   0.71218   0.71661
  Beta virt. eigenvalues --    0.72301   0.72609   0.73343   0.74826   0.75008
  Beta virt. eigenvalues --    0.76883   0.78848   0.80387   0.80583   0.82538
  Beta virt. eigenvalues --    0.83204   0.84702   0.85174   0.85377   0.85558
  Beta virt. eigenvalues --    0.86477   0.87083   0.88540   0.89152   0.89834
  Beta virt. eigenvalues --    0.90373   0.92973   0.93907   0.94181   0.95273
  Beta virt. eigenvalues --    0.95578   0.97618   0.98395   0.99290   1.00173
  Beta virt. eigenvalues --    1.01033   1.02224   1.02870   1.03611   1.05390
  Beta virt. eigenvalues --    1.05715   1.06100   1.07467   1.09469   1.10432
  Beta virt. eigenvalues --    1.11630   1.12502   1.13382   1.13458   1.16113
  Beta virt. eigenvalues --    1.19305   1.20726   1.21592   1.22730   1.24322
  Beta virt. eigenvalues --    1.24974   1.26498   1.28380   1.29420   1.31640
  Beta virt. eigenvalues --    1.32318   1.34160   1.36901   1.40636   1.41334
  Beta virt. eigenvalues --    1.44141   1.44900   1.46435   1.48196   1.48977
  Beta virt. eigenvalues --    1.50763   1.51805   1.52256   1.52622   1.54173
  Beta virt. eigenvalues --    1.54625   1.55909   1.56755   1.57095   1.57562
  Beta virt. eigenvalues --    1.58895   1.61830   1.62700   1.63198   1.64267
  Beta virt. eigenvalues --    1.64850   1.66971   1.67500   1.69187   1.70611
  Beta virt. eigenvalues --    1.72429   1.73223   1.73624   1.75115   1.76774
  Beta virt. eigenvalues --    1.77574   1.79277   1.81086   1.82335   1.82552
  Beta virt. eigenvalues --    1.83319   1.85341   1.87075   1.88423   1.90929
  Beta virt. eigenvalues --    1.91643   1.92034   1.92823   1.93247   1.94306
  Beta virt. eigenvalues --    1.94677   1.94990   1.96280   1.99258   2.01050
  Beta virt. eigenvalues --    2.02629   2.04825   2.05367   2.07334   2.07900
  Beta virt. eigenvalues --    2.09982   2.10742   2.12122   2.14774   2.17727
  Beta virt. eigenvalues --    2.18960   2.20679   2.24716   2.29210   2.29588
  Beta virt. eigenvalues --    2.33528   2.34377   2.36362   2.38653   2.43221
  Beta virt. eigenvalues --    2.44241   2.45838   2.46159   2.49131   2.50401
  Beta virt. eigenvalues --    2.54601   2.55667   2.57566   2.59973   2.62180
  Beta virt. eigenvalues --    2.63251   2.65179   2.65803   2.66124   2.67203
  Beta virt. eigenvalues --    2.69723   2.70578   2.70967   2.71950   2.72227
  Beta virt. eigenvalues --    2.72936   2.73680   2.74858   2.75427   2.76355
  Beta virt. eigenvalues --    2.78401   2.79415   2.80250   2.83064   2.83338
  Beta virt. eigenvalues --    2.85417   2.85648   2.86129   2.88704   2.89297
  Beta virt. eigenvalues --    2.89790   2.92809   2.93683   2.94336   2.94599
  Beta virt. eigenvalues --    2.97397   2.98350   3.02250   3.05257   3.07399
  Beta virt. eigenvalues --    3.12351   3.14732   3.16139   3.18303   3.20581
  Beta virt. eigenvalues --    3.22627   3.24996   3.26291   3.31177   3.33113
  Beta virt. eigenvalues --    3.34615   3.34988   3.37299   3.43880   3.45686
  Beta virt. eigenvalues --    3.49140   3.52352   3.52678   3.54165   3.59270
  Beta virt. eigenvalues --    3.61052   3.62107   3.65157   3.71361   3.78167
  Beta virt. eigenvalues --    3.78886   3.85996   3.92671   3.99778   4.02761
  Beta virt. eigenvalues --    4.03226   4.09022   4.13807   4.15490   4.16799
  Beta virt. eigenvalues --    4.18121   4.30088   4.41125   4.68632   4.83341
  Beta virt. eigenvalues --    5.03573   5.05541   5.09785   5.19561   5.22407
  Beta virt. eigenvalues --    5.23810   5.69316   5.75100   5.77942  23.58878
  Beta virt. eigenvalues --   23.65338  23.73778  23.81188  23.86459  23.88896
  Beta virt. eigenvalues --   23.94825  23.95839  23.96761  24.05306  24.09029
  Beta virt. eigenvalues --   24.16585  24.17807  24.22725  49.96698  50.00413
  Beta virt. eigenvalues --   50.04818
          Condensed to atoms (all electrons):
               1          2          3          4          5          6
     1  C    7.371090  -0.135931  -0.281920   0.345607  -0.659694   0.642737
     2  C   -0.135931   9.259084  -1.618270  -0.164061   0.902971  -0.248240
     3  C   -0.281920  -1.618270   9.515296   0.034222  -2.370826   0.058626
     4  C    0.345607  -0.164061   0.034222   7.527794  -0.338896  -0.024646
     5  C   -0.659694   0.902971  -2.370826  -0.338896   9.187783  -0.060399
     6  O    0.642737  -0.248240   0.058626  -0.024646  -0.060399   8.033724
     7  O   -0.026540   0.000575  -0.230784   0.605193  -0.149055   0.000681
     8  H   -0.077654   0.464666  -0.070381   0.032489   0.023848  -0.017526
     9  C   -0.901100  -2.394249   0.920859  -0.755446   0.635590  -0.112407
    10  C   -0.490197  -0.073833  -0.113607  -0.250964   0.135791  -0.048850
    11  C    1.073960  -0.524624   0.488735  -0.051074  -1.696503   0.159479
    12  C    0.430521   0.053918   0.009996  -0.000885  -0.618769   0.031287
    13  C   -0.480966   0.148248  -0.080693   0.042433   0.881804  -0.124573
    14  C    0.014146  -0.006539   0.007300  -0.008257  -0.088533  -0.007081
    15  C    0.005574   0.019557  -0.008654   0.002644   0.040269   0.008105
    16  C   -0.201977   0.104044  -0.068032   0.036388   0.298660  -0.005165
    17  O   -0.002683  -0.026450   0.018614   0.021330   0.042456  -0.005140
    18  C   -0.314631   0.474888  -0.827576  -0.582778  -0.182457  -0.010613
    19  H   -0.004185  -0.000784  -0.000012  -0.000411   0.001506   0.000416
    20  H   -0.004146  -0.016127   0.030846   0.008237   0.014684   0.001753
    21  H    0.000860  -0.000355   0.000175  -0.000103  -0.001845  -0.000181
    22  H   -0.000174   0.000479  -0.000079  -0.000057   0.000237   0.000150
    23  H    0.000541  -0.002298   0.000582   0.000430  -0.003782  -0.000481
    24  H    0.036656  -0.022720   0.435843  -0.095462  -0.035592   0.002025
    25  H   -0.004099   0.011990  -0.015285  -0.021796   0.014073  -0.000307
    26  H   -0.024521  -0.012738   0.009303   0.022005  -0.024881  -0.001577
    27  H    0.018858   0.003019  -0.012648   0.009267   0.023066   0.000552
               7          8          9         10         11         12
     1  C   -0.026540  -0.077654  -0.901100  -0.490197   1.073960   0.430521
     2  C    0.000575   0.464666  -2.394249  -0.073833  -0.524624   0.053918
     3  C   -0.230784  -0.070381   0.920859  -0.113607   0.488735   0.009996
     4  C    0.605193   0.032489  -0.755446  -0.250964  -0.051074  -0.000885
     5  C   -0.149055   0.023848   0.635590   0.135791  -1.696503  -0.618769
     6  O    0.000681  -0.017526  -0.112407  -0.048850   0.159479   0.031287
     7  O    8.103657   0.001156  -0.005351   0.003049   0.008415  -0.000319
     8  H    0.001156   0.456256  -0.028910  -0.002465  -0.018808  -0.000793
     9  C   -0.005351  -0.028910  11.257013   0.333954  -3.166771  -0.142141
    10  C    0.003049  -0.002465   0.333954   8.447573  -1.877712  -1.466022
    11  C    0.008415  -0.018808  -3.166771  -1.877712  17.598655  -0.040445
    12  C   -0.000319  -0.000793  -0.142141  -1.466022  -0.040445  14.535602
    13  C   -0.002338  -0.000649  -0.463238   0.923001  -1.795707  -6.463146
    14  C   -0.000085  -0.001094  -0.422791  -0.678291   0.411196  -0.792261
    15  C    0.000121   0.001323   0.051711   0.201782  -0.562898  -0.384451
    16  C    0.000894   0.004667   0.425948   0.408336  -3.788650   0.034908
    17  O    0.000237  -0.000151  -0.171037   0.594448  -0.110059   0.097550
    18  C   -0.009442   0.003637  -0.061604   0.188774  -0.591711   0.052762
    19  H   -0.000028  -0.000037   0.011587   0.000134  -0.044843   0.418347
    20  H   -0.001206  -0.000894  -0.061459   0.013825  -0.106797  -0.144303
    21  H    0.000000  -0.000031  -0.008963  -0.009014   0.011699  -0.073188
    22  H    0.000002   0.000025   0.001618   0.004472   0.000151  -0.017587
    23  H    0.000008  -0.000145   0.002552  -0.008436   0.052972   0.062762
    24  H   -0.015016  -0.012730   0.010878  -0.003662   0.003521   0.000446
    25  H   -0.005504   0.000238   0.010641  -0.009264  -0.047175  -0.006074
    26  H    0.003050  -0.000259  -0.041987   0.012394  -0.015757  -0.016542
    27  H   -0.006947   0.000271   0.019671  -0.017686   0.030668   0.010116
              13         14         15         16         17         18
     1  C   -0.480966   0.014146   0.005574  -0.201977  -0.002683  -0.314631
     2  C    0.148248  -0.006539   0.019557   0.104044  -0.026450   0.474888
     3  C   -0.080693   0.007300  -0.008654  -0.068032   0.018614  -0.827576
     4  C    0.042433  -0.008257   0.002644   0.036388   0.021330  -0.582778
     5  C    0.881804  -0.088533   0.040269   0.298660   0.042456  -0.182457
     6  O   -0.124573  -0.007081   0.008105  -0.005165  -0.005140  -0.010613
     7  O   -0.002338  -0.000085   0.000121   0.000894   0.000237  -0.009442
     8  H   -0.000649  -0.001094   0.001323   0.004667  -0.000151   0.003637
     9  C   -0.463238  -0.422791   0.051711   0.425948  -0.171037  -0.061604
    10  C    0.923001  -0.678291   0.201782   0.408336   0.594448   0.188774
    11  C   -1.795707   0.411196  -0.562898  -3.788650  -0.110059  -0.591711
    12  C   -6.463146  -0.792261  -0.384451   0.034908   0.097550   0.052762
    13  C   14.435788   1.265788  -0.940078  -0.932648  -0.093009   0.064604
    14  C    1.265788   7.168103   0.161689  -0.955920   0.034452  -0.007661
    15  C   -0.940078   0.161689   6.065040   1.260943  -0.006428   0.005409
    16  C   -0.932648  -0.955920   1.260943   9.221428  -0.023996   0.060480
    17  O   -0.093009   0.034452  -0.006428  -0.023996   7.973979  -0.079949
    18  C    0.064604  -0.007661   0.005409   0.060480  -0.079949   7.308439
    19  H   -0.006358  -0.113402   0.014623   0.033795   0.005588  -0.002962
    20  H    0.643407   0.053458  -0.000871  -0.066287   0.000989  -0.037229
    21  H    0.023186   0.480363  -0.076274  -0.022829   0.002245   0.000009
    22  H   -0.066340  -0.053294   0.498292  -0.030770  -0.000066  -0.000089
    23  H   -0.117008  -0.002798  -0.056815   0.389059   0.000157   0.000037
    24  H   -0.002185  -0.000120   0.000012   0.000413   0.000055  -0.005590
    25  H    0.011163   0.000828  -0.000675   0.000895  -0.003211   0.411080
    26  H    0.029558  -0.006473   0.004743   0.013505  -0.011687   0.416130
    27  H   -0.035510  -0.001947   0.000723  -0.004921   0.000980   0.312635
              19         20         21         22         23         24
     1  C   -0.004185  -0.004146   0.000860  -0.000174   0.000541   0.036656
     2  C   -0.000784  -0.016127  -0.000355   0.000479  -0.002298  -0.022720
     3  C   -0.000012   0.030846   0.000175  -0.000079   0.000582   0.435843
     4  C   -0.000411   0.008237  -0.000103  -0.000057   0.000430  -0.095462
     5  C    0.001506   0.014684  -0.001845   0.000237  -0.003782  -0.035592
     6  O    0.000416   0.001753  -0.000181   0.000150  -0.000481   0.002025
     7  O   -0.000028  -0.001206   0.000000   0.000002   0.000008  -0.015016
     8  H   -0.000037  -0.000894  -0.000031   0.000025  -0.000145  -0.012730
     9  C    0.011587  -0.061459  -0.008963   0.001618   0.002552   0.010878
    10  C    0.000134   0.013825  -0.009014   0.004472  -0.008436  -0.003662
    11  C   -0.044843  -0.106797   0.011699   0.000151   0.052972   0.003521
    12  C    0.418347  -0.144303  -0.073188  -0.017587   0.062762   0.000446
    13  C   -0.006358   0.643407   0.023186  -0.066340  -0.117008  -0.002185
    14  C   -0.113402   0.053458   0.480363  -0.053294  -0.002798  -0.000120
    15  C    0.014623  -0.000871  -0.076274   0.498292  -0.056815   0.000012
    16  C    0.033795  -0.066287  -0.022829  -0.030770   0.389059   0.000413
    17  O    0.005588   0.000989   0.002245  -0.000066   0.000157   0.000055
    18  C   -0.002962  -0.037229   0.000009  -0.000089   0.000037  -0.005590
    19  H    0.479415  -0.001030  -0.014621   0.001495   0.000399   0.000024
    20  H   -0.001030   0.524524  -0.000169   0.001490  -0.014950  -0.000747
    21  H   -0.014621  -0.000169   0.497793  -0.016320   0.001376  -0.000001
    22  H    0.001495   0.001490  -0.016320   0.501975  -0.014441  -0.000000
    23  H    0.000399  -0.014950   0.001376  -0.014441   0.487085   0.000052
    24  H    0.000024  -0.000747  -0.000001  -0.000000   0.000052   0.452883
    25  H    0.000293  -0.001895  -0.000009  -0.000008   0.000075  -0.000204
    26  H   -0.001209   0.000570  -0.000151  -0.000046  -0.000232   0.000846
    27  H   -0.000156   0.002690   0.000027   0.000010  -0.000210  -0.000045
              25         26         27
     1  C   -0.004099  -0.024521   0.018858
     2  C    0.011990  -0.012738   0.003019
     3  C   -0.015285   0.009303  -0.012648
     4  C   -0.021796   0.022005   0.009267
     5  C    0.014073  -0.024881   0.023066
     6  O   -0.000307  -0.001577   0.000552
     7  O   -0.005504   0.003050  -0.006947
     8  H    0.000238  -0.000259   0.000271
     9  C    0.010641  -0.041987   0.019671
    10  C   -0.009264   0.012394  -0.017686
    11  C   -0.047175  -0.015757   0.030668
    12  C   -0.006074  -0.016542   0.010116
    13  C    0.011163   0.029558  -0.035510
    14  C    0.000828  -0.006473  -0.001947
    15  C   -0.000675   0.004743   0.000723
    16  C    0.000895   0.013505  -0.004921
    17  O   -0.003211  -0.011687   0.000980
    18  C    0.411080   0.416130   0.312635
    19  H    0.000293  -0.001209  -0.000156
    20  H   -0.001895   0.000570   0.002690
    21  H   -0.000009  -0.000151   0.000027
    22  H   -0.000008  -0.000046   0.000010
    23  H    0.000075  -0.000232  -0.000210
    24  H   -0.000204   0.000846  -0.000045
    25  H    0.523874  -0.027135  -0.046915
    26  H   -0.027135   0.536557  -0.023099
    27  H   -0.046915  -0.023099   0.518214
          Atomic-Atomic Spin Densities.
               1          2          3          4          5          6
     1  C   -0.000000   0.000000  -0.000000   0.000000  -0.000000  -0.000000
     2  C    0.000000   0.000000  -0.000000   0.000000   0.000000  -0.000000
     3  C   -0.000000  -0.000000   0.000000  -0.000000  -0.000000   0.000000
     4  C    0.000000   0.000000  -0.000000  -0.000000  -0.000000   0.000000
     5  C   -0.000000   0.000000  -0.000000  -0.000000   0.000000   0.000000
     6  O   -0.000000  -0.000000   0.000000   0.000000   0.000000   0.000000
     7  O    0.000000   0.000000   0.000000  -0.000000   0.000000   0.000000
     8  H    0.000000   0.000000  -0.000000   0.000000   0.000000  -0.000000
     9  C   -0.000000  -0.000000   0.000000   0.000000   0.000000   0.000000
    10  C   -0.000000   0.000000  -0.000000  -0.000000  -0.000000   0.000000
    11  C    0.000000  -0.000000   0.000000   0.000000  -0.000000  -0.000000
    12  C    0.000000  -0.000000   0.000000   0.000000   0.000000  -0.000000
    13  C   -0.000000   0.000000  -0.000000  -0.000000  -0.000000   0.000000
    14  C    0.000000   0.000000  -0.000000  -0.000000  -0.000000  -0.000000
    15  C   -0.000000   0.000000  -0.000000  -0.000000   0.000000   0.000000
    16  C   -0.000000   0.000000  -0.000000  -0.000000   0.000000   0.000000
    17  O   -0.000000  -0.000000   0.000000   0.000000   0.000000  -0.000000
    18  C    0.000000   0.000000  -0.000000   0.000000  -0.000000  -0.000000
    19  H    0.000000  -0.000000   0.000000   0.000000  -0.000000   0.000000
    20  H   -0.000000   0.000000   0.000000  -0.000000  -0.000000   0.000000
    21  H    0.000000  -0.000000   0.000000   0.000000   0.000000  -0.000000
    22  H   -0.000000   0.000000   0.000000   0.000000   0.000000  -0.000000
    23  H    0.000000  -0.000000   0.000000   0.000000   0.000000  -0.000000
    24  H   -0.000000  -0.000000   0.000000   0.000000   0.000000   0.000000
    25  H    0.000000   0.000000  -0.000000  -0.000000  -0.000000   0.000000
    26  H   -0.000000   0.000000  -0.000000  -0.000000   0.000000  -0.000000
    27  H    0.000000  -0.000000   0.000000   0.000000  -0.000000  -0.000000
               7          8          9         10         11         12
     1  C    0.000000   0.000000  -0.000000  -0.000000   0.000000   0.000000
     2  C    0.000000   0.000000  -0.000000   0.000000  -0.000000  -0.000000
     3  C    0.000000  -0.000000   0.000000  -0.000000   0.000000   0.000000
     4  C   -0.000000   0.000000   0.000000  -0.000000   0.000000   0.000000
     5  C    0.000000   0.000000   0.000000  -0.000000  -0.000000   0.000000
     6  O    0.000000  -0.000000   0.000000   0.000000  -0.000000  -0.000000
     7  O    0.000000  -0.000000   0.000000  -0.000000  -0.000000  -0.000000
     8  H   -0.000000  -0.000000  -0.000000   0.000000  -0.000000  -0.000000
     9  C    0.000000  -0.000000   0.000000   0.000000   0.000000  -0.000000
    10  C   -0.000000   0.000000   0.000000   0.000000  -0.000000   0.000000
    11  C   -0.000000  -0.000000   0.000000  -0.000000  -0.000000   0.000000
    12  C   -0.000000  -0.000000  -0.000000   0.000000   0.000000  -0.000000
    13  C    0.000000   0.000000   0.000000  -0.000000   0.000000   0.000000
    14  C   -0.000000   0.000000  -0.000000  -0.000000   0.000000  -0.000000
    15  C    0.000000   0.000000   0.000000   0.000000  -0.000000  -0.000000
    16  C    0.000000   0.000000   0.000000   0.000000  -0.000000  -0.000000
    17  O    0.000000  -0.000000  -0.000000  -0.000000   0.000000   0.000000
    18  C   -0.000000   0.000000  -0.000000   0.000000  -0.000000  -0.000000
    19  H   -0.000000   0.000000   0.000000   0.000000  -0.000000   0.000000
    20  H    0.000000   0.000000   0.000000  -0.000000   0.000000   0.000000
    21  H   -0.000000  -0.000000  -0.000000  -0.000000   0.000000  -0.000000
    22  H    0.000000   0.000000   0.000000   0.000000  -0.000000   0.000000
    23  H   -0.000000  -0.000000  -0.000000  -0.000000   0.000000   0.000000
    24  H   -0.000000  -0.000000   0.000000  -0.000000   0.000000   0.000000
    25  H   -0.000000   0.000000   0.000000  -0.000000   0.000000   0.000000
    26  H    0.000000   0.000000   0.000000   0.000000  -0.000000  -0.000000
    27  H   -0.000000  -0.000000  -0.000000   0.000000  -0.000000  -0.000000
              13         14         15         16         17         18
     1  C   -0.000000   0.000000  -0.000000  -0.000000  -0.000000   0.000000
     2  C    0.000000   0.000000   0.000000   0.000000  -0.000000   0.000000
     3  C   -0.000000  -0.000000  -0.000000  -0.000000   0.000000  -0.000000
     4  C   -0.000000  -0.000000  -0.000000  -0.000000   0.000000   0.000000
     5  C   -0.000000  -0.000000   0.000000   0.000000   0.000000  -0.000000
     6  O    0.000000  -0.000000   0.000000   0.000000  -0.000000  -0.000000
     7  O    0.000000  -0.000000   0.000000   0.000000   0.000000  -0.000000
     8  H    0.000000   0.000000   0.000000   0.000000  -0.000000   0.000000
     9  C    0.000000  -0.000000   0.000000   0.000000  -0.000000  -0.000000
    10  C   -0.000000  -0.000000   0.000000   0.000000  -0.000000   0.000000
    11  C    0.000000   0.000000  -0.000000  -0.000000   0.000000  -0.000000
    12  C    0.000000  -0.000000  -0.000000  -0.000000   0.000000  -0.000000
    13  C   -0.000000  -0.000000  -0.000000  -0.000000  -0.000000   0.000000
    14  C   -0.000000   0.000000   0.000000  -0.000000   0.000000   0.000000
    15  C   -0.000000   0.000000   0.000000   0.000000  -0.000000   0.000000
    16  C   -0.000000  -0.000000   0.000000   0.000000  -0.000000   0.000000
    17  O   -0.000000   0.000000  -0.000000  -0.000000   0.000000  -0.000000
    18  C    0.000000   0.000000   0.000000   0.000000  -0.000000   0.000000
    19  H   -0.000000  -0.000000   0.000000   0.000000   0.000000  -0.000000
    20  H   -0.000000   0.000000   0.000000  -0.000000   0.000000   0.000000
    21  H    0.000000   0.000000  -0.000000  -0.000000   0.000000  -0.000000
[...]
 8260,0.00002602,0.00232317,0.00628350,-0.00308340,0.00918964,0.0043955
 4,0.00355767,0.00010253,0.00058362,0.00009025,-0.00013785,-0.00017807,
 0.00013898,-0.00026802,0.00059853,-0.00027524,-0.02240539,0.02996715,0
 .00049594,-0.00086872,0.00007036,-0.00011459,-0.00000853,-0.00004831,-
 0.00004035,0.00014394,-0.00010804,0.00098550,-0.00007838,0.00034785,0.
 00012155,0.00081361,-0.00016229,0.00009245,0.00032195,-0.00002450,-0.0
 0041898,-0.00018125,-0.00008227,-0.00001323,0.00001306,-0.00001114,0.0
 0033636,-0.00059673,-0.00025543,-0.00128003,0.00162972,0.00061749,-0.0
 2780413,0.00264457,-0.00563925,0.00019730,-0.00314208,-0.00492776,-0.0
 9824316,0.00098421,-0.09717271,0.00054483,0.00002409,-0.00067193,0.002
 76973,-0.00293580,-0.00132837,0.01885774,-0.00173306,0.01098239,0.0002
 6961,-0.00018245,0.00014908,-0.00008260,-0.00000264,-0.00000559,-0.001
 48286,0.00000765,-0.00029795,0.10410193,0.00155723,0.09760671,-0.00003
 748,-0.00015496,0.00002980,-0.00002056,0.00004346,-0.00002884,-0.00001
 086,0.00003205,-0.00000621,0.00022062,-0.00006180,0.00003334,-0.000167
 99,0.00015041,-0.00012517,-0.00001203,0.00009255,-0.00001926,-0.000134
 91,-0.00004826,-0.00001277,-0.00001570,0.00000522,-0.00000935,-0.00013
 624,0.00004941,0.00034329,-0.00028787,-0.00031051,-0.00161395,-0.00121
 910,0.00255219,0.00344179,-0.01713682,0.00096237,-0.01000708,0.0003776
 1,-0.00012526,0.00045252,-0.29934497,0.02039619,-0.09519408,-0.0007300
 6,0.00092915,0.00062147,0.00176826,0.00070652,-0.00088551,-0.00003276,
 0.00018838,0.00062947,-0.00001684,-0.00001932,0.00002978,0.00092670,-0
 .00091368,0.00021807,-0.00011192,-0.00018010,-0.00002948,0.31574261,0.
 00012816,0.00007351,-0.00000967,0.00000534,-0.00003543,0.00001926,-0.0
 0000075,-0.00000815,-0.00000015,-0.00006197,0.00000390,-0.00000903,-0.
 00000637,-0.00001972,-0.00000560,-0.00002599,-0.00001839,0.00000387,0.
 00002622,0.00001163,0.00000173,0.00001000,-0.00000094,0.00000761,0.000
 01966,-0.00042416,0.00001247,0.00032524,0.00037471,0.00040708,0.002339
 70,0.00671997,-0.00313444,0.00902659,0.00306512,0.00360985,-0.00008867
 ,-0.00099787,-0.00008024,0.02038034,-0.04138565,0.00157068,-0.00718136
 ,0.00401426,-0.00282616,0.00087113,0.00612673,-0.00304461,-0.00001433,
 0.00011391,-0.00016556,-0.00001419,0.00000943,0.00000182,-0.00106617,-
 0.00397378,0.00134722,-0.00017057,-0.00095158,0.00031237,-0.02356473,0
 .03060049,0.00001154,0.00005356,0.00000048,0.00000664,-0.00001242,0.00
 000873,0.00000553,-0.00001398,-0.00000447,-0.00007267,0.00003976,0.000
 01985,0.00007259,-0.00004931,0.00008340,-0.00000851,-0.00002990,0.0000
 0247,0.00004573,0.00001090,-0.00000258,0.00000409,-0.00000182,0.000004
 44,0.00017421,-0.00000464,-0.00027339,0.00096308,-0.00009803,0.0006610
 0,0.00253598,-0.00294172,-0.00115503,0.01943050,-0.00163526,0.01032636
 ,0.00059830,-0.00009737,-0.00096915,-0.09526344,0.00161633,-0.09409152
 ,-0.02900583,0.00242902,-0.00644342,-0.00029341,-0.00316124,-0.0046159
 2,-0.00018082,-0.00001066,-0.00003051,0.00001521,0.00000317,-0.0000239
 2,-0.00033977,0.00145337,0.00054920,-0.00002394,0.00031668,0.00005517,
 0.10207204,0.00082633,0.09542200,0.00002190,-0.00008660,0.00000752,-0.
 00001181,0.00001183,-0.00001095,-0.00000448,0.00001676,-0.00001053,0.0
 0012778,-0.00001060,0.00004205,-0.00004409,0.00009229,-0.00000712,-0.0
 0001623,0.00003947,-0.00000383,-0.00006454,-0.00002893,-0.00001043,-0.
 00000610,0.00000262,-0.00000230,-0.00001614,0.00000728,0.00004508,0.00
 017710,-0.00033336,-0.00018951,-0.00030660,-0.00029936,-0.00074327,0.0
 0128105,0.00049772,-0.00203873,-0.00383840,0.00109791,-0.00339731,0.00
 820043,-0.00212483,-0.00553690,-0.21514991,0.06476630,0.12259662,-0.01
 624495,0.00891538,0.01879422,-0.00003897,0.00012536,0.00025914,-0.0000
 0388,-0.00000947,0.00000229,0.00022835,-0.00017919,-0.00030539,-0.0008
 6406,0.00038178,0.00092769,0.00054644,-0.00060875,0.00063697,0.2249900
 7,-0.00002987,0.00001243,-0.00003083,0.00000232,0.00000720,0.00000935,
 0.00000372,-0.00000790,-0.00000233,-0.00003714,0.00001134,-0.00002250,
 0.00005288,-0.00003971,0.00003982,0.00000271,-0.00002291,0.00001759,0.
 00002546,0.00000842,0.00000793,-0.00000079,-0.00000092,0.00000051,0.00
 002409,0.00009096,-0.00006073,-0.00028426,-0.00122794,0.00044666,-0.00
 030926,-0.00073312,0.00017344,0.00039528,0.00638024,-0.00279407,0.0012
 0644,0.00701426,-0.00130188,0.00585608,0.00271526,-0.00367358,0.064787
 13,-0.06653734,-0.05355089,0.00090084,0.00422593,-0.00178591,0.0000995
 9,0.00023639,-0.00013472,0.00000145,-0.00000919,0.00000609,0.00021648,
 -0.00035059,-0.00003340,-0.00003262,-0.00021934,-0.00001196,-0.0007899
 6,-0.00339555,0.00118541,-0.07138124,0.05545419,0.00001997,0.00002449,
 0.00000024,0.00000560,-0.00001547,0.00000291,0.00000121,-0.00000429,0.
 00000162,-0.00003092,0.00001017,-0.00000033,0.00001777,-0.00000507,0.0
 0003057,0.00000606,-0.00001349,0.00000333,0.00002203,0.00000718,-0.000
 00009,0.00000462,-0.00000109,0.00000192,-0.00000211,-0.00005559,-0.000
 04453,-0.00004097,0.00039153,0.00000936,-0.00075519,0.00021772,-0.0005
 6341,-0.00242353,-0.00274167,-0.00437664,-0.00308209,-0.00135561,0.000
 58789,0.02368348,-0.00888841,-0.01224426,0.12266237,-0.05355467,-0.155
 95453,-0.01046912,0.00344201,0.01067345,0.00021150,-0.00013271,-0.0000
 6675,-0.00000024,0.00000903,-0.00000992,0.00112170,-0.00028507,-0.0006
 0455,-0.00053269,0.00025162,0.00032960,-0.00002298,0.00130334,0.000887
 32,-0.13114012,0.06029973,0.16091071,-0.00000727,-0.00004673,0.0000076
 1,-0.00000765,0.00001566,-0.00000695,-0.00000374,0.00000742,-0.0000063
 7,0.00006032,-0.00000952,0.00001878,-0.00004047,0.00003198,-0.00004182
 ,-0.00000198,0.00002585,-0.00000847,-0.00003830,-0.00001674,-0.0000055
 7,-0.00000523,0.00000263,-0.00000132,0.00001884,0.00001434,0.00003940,
 0.00088531,0.00014587,0.00069273,-0.00310228,0.00247803,0.00206923,-0.
 00110269,0.00008573,0.00025847,0.00766465,0.00591033,0.02438033,-0.004
 78754,0.00172261,-0.00157827,-0.00104196,-0.00714480,-0.02907319,-0.06
 720755,-0.00840395,-0.04967300,-0.00040986,0.00016098,0.00062872,0.000
 00076,-0.00000671,0.00000638,0.00011651,-0.00019480,0.00003115,0.00094
 261,-0.00100619,-0.00026339,-0.00016669,-0.00033202,-0.00137882,0.0010
 3466,-0.00070794,0.00074111,0.06720165,0.00000738,0.00004892,-0.000015
 21,0.00000339,-0.00000736,0.00001297,0.00000480,-0.00001087,0.00000342
 ,-0.00004959,0.00001625,-0.00001957,0.00003182,-0.00002620,0.00001995,
 -0.00000043,-0.00002439,0.00001085,0.00002979,0.00000809,0.00000732,0.
 00000462,-0.00000229,0.00000032,-0.00000688,0.00001580,-0.00002099,-0.
 00037954,0.00057549,-0.00017472,0.00276675,0.00636502,-0.00226383,0.00
 004232,-0.00092572,0.00035812,-0.00219849,0.00131369,-0.00885790,0.001
 57355,0.00666607,-0.00129679,0.00099722,0.00414280,0.00255541,-0.00836
 553,-0.05455144,-0.06671949,0.00011933,-0.00043970,-0.00027839,0.00000
 235,0.00001255,-0.00000407,-0.00019683,-0.00092231,0.00023107,-0.00083
 401,-0.00375788,0.00137631,0.00006685,0.00009714,0.00011296,-0.0008867
 4,-0.00361266,0.00109930,0.00726979,0.04502721,-0.00000339,0.00010496,
 -0.00003374,0.00001850,-0.00003058,0.00002120,0.00000832,-0.00002227,0
 .00001244,-0.00017303,0.00002598,-0.00005760,0.00010408,-0.00010837,0.
 00006331,0.00003104,-0.00007026,0.00002125,0.00010288,0.00004322,0.000
 01710,0.00001209,-0.00000480,0.00000448,-0.00000923,-0.00001961,-0.000
 07526,-0.00127748,0.00016590,0.00032612,0.00329988,-0.00248863,0.00053
 627,0.00011315,0.00037742,0.00043491,-0.00514484,-0.00355257,-0.012950
 65,-0.00216917,-0.00117877,0.00159178,0.00052571,-0.00276490,-0.006091
 92,-0.04945124,-0.06674515,-0.31323811,0.00041122,-0.00020341,-0.00088
 217,0.00000024,0.00001659,-0.00001066,0.00002283,0.00023527,-0.0001502
 6,0.00022399,0.00128562,0.00054565,0.00008747,-0.00014733,-0.00040691,
 0.00009437,0.00121908,0.00042236,0.05316506,0.07386140,0.32989142,0.00
 287512,-0.00327894,-0.00189406,-0.01411834,0.00429091,-0.00803278,-0.3
 0548013,0.03851467,-0.08907999,-0.00429222,-0.00272973,-0.00105781,0.0
 0108418,0.00067860,-0.00035946,-0.00218137,-0.00033175,0.00026030,0.00
 192907,0.00046606,0.00076491,0.00042615,0.00060203,0.00192557,-0.00008
 999,-0.00008314,0.00058622,0.00023831,-0.00001140,0.00011136,-0.000098
 74,0.00001311,-0.00001011,0.00001863,0.00000760,0.00002990,-0.00000669
 ,0.00000809,-0.00001115,-0.00001447,0.00000503,0.00001360,-0.00001124,
 0.00000260,0.00000170,-0.00001676,0.00000035,-0.00000588,-0.00013242,0
 .00001338,-0.00011696,-0.00016743,-0.00021174,-0.00017591,0.00000435,-
 0.00000140,-0.00000283,0.00000202,-0.00000749,-0.00002008,-0.00000611,
 0.00000155,0.00000174,-0.00000331,0.00000081,0.00000115,-0.00000249,0.
 00000182,0.00000528,0.32000699,-0.00112047,-0.00255266,0.00535398,-0.0
 2445553,0.00863539,-0.00686278,0.03802564,-0.06033567,0.01808575,0.027
 84848,-0.00193552,0.00954947,-0.00091123,-0.00491253,0.00197099,-0.002
 05251,-0.00043938,-0.00141707,-0.00151293,0.00313671,-0.00195674,0.001
 11621,0.00014734,-0.00218429,-0.00038370,0.00033798,-0.00099515,-0.000
 16783,0.00022940,-0.00008874,0.00005512,-0.00003786,0.00002284,-0.0000
 0212,-0.00001422,-0.00002133,0.00000333,-0.00000564,-0.00000813,0.0000
 1007,0.00000208,-0.00000672,0.00000615,-0.00000650,-0.00000405,0.00001
 947,0.00000643,0.00000587,0.00014202,-0.00005921,0.00007201,0.00153173
 ,0.00042486,0.00050809,-0.00000352,0.00000005,0.00000103,0.00000142,-0
 .00000523,0.00002680,0.00000446,-0.00000059,-0.00000146,0.00000268,-0.
 00000112,-0.00000039,0.00000142,-0.00000119,-0.00000381,-0.03810572,0.
 05776951,-0.00275001,0.00470548,0.01129517,0.00198071,0.00121005,0.008
 95910,-0.08897173,0.01826363,-0.07089807,-0.01164549,0.00086418,-0.000
 83903,0.00017127,0.00242379,0.00075856,0.00090832,-0.00088587,-0.00218
 849,0.00146663,-0.00136977,-0.00041218,0.00174426,-0.00232372,-0.00576
 828,0.00071529,-0.00082080,-0.00155224,0.00014515,-0.00011072,-0.00008
 286,-0.00001987,0.00001456,-0.00000871,0.00000763,0.00000027,0.0000168
 1,0.00000264,-0.00000702,-0.00000647,-0.00000245,0.00000550,-0.0000001
 2,-0.00000349,-0.00000228,0.00000104,-0.00000703,0.00000225,-0.0000009
 6,-0.00009534,0.00000046,-0.00006669,-0.00077831,0.00004002,0.00048168
 ,0.00000130,-0.00000048,-0.00000108,-0.00000106,-0.00000439,-0.0000047
 9,-0.00000256,-0.00000001,0.00000141,-0.00000113,0.00000111,0.00000062
 ,-0.00000041,0.00000118,0.00000142,0.09710849,-0.02218116,0.06037750,0
 .00040414,-0.00114505,0.00115639,-0.00028738,0.00004285,-0.00015183,0.
 00024610,0.00004115,0.00001006,-0.00134354,-0.00009319,-0.00062829,0.0
 0359925,-0.00386004,-0.00419338,0.00014694,0.00040774,-0.00027001,0.00
 009675,0.00069513,-0.00037875,-0.00002936,0.00000683,0.00000507,0.0005
 8140,0.00190829,-0.00012193,-0.00002728,0.00044083,-0.00044757,0.00005
 545,-0.00005781,0.00023707,0.00016991,-0.00003457,-0.00004131,-0.00003
 345,-0.00007256,-0.00010008,-0.00000733,0.00002057,0.00008229,-0.00003
 497,0.00000445,-0.00003386,0.00003368,0.00001555,-0.00001612,0.0001254
 7,-0.00011125,0.00013088,-0.13718210,-0.02045620,0.12279090,-0.0000025
 4,0.00000503,-0.00000111,-0.00001876,0.00002767,0.00003216,0.00000069,
 -0.00000067,-0.00000397,-0.00000101,-0.00000261,0.00000148,0.00000016,
 0.00000124,0.00000330,-0.00000167,-0.00005586,0.00005840,0.14553619,-0
 .00021283,0.00002203,-0.00321894,0.00018651,0.00001888,0.00044857,-0.0
 0017898,-0.00022794,0.00002861,-0.00092109,-0.00025194,-0.00056833,-0.
 01978884,-0.00868968,0.02600420,-0.00029887,-0.00073955,0.00089773,0.0
 0062488,0.00061859,-0.00011822,0.00005809,-0.00002242,0.00002226,0.002
 83750,-0.00320127,0.00043258,0.00026902,0.00024179,0.00153256,-0.00027
 629,0.00005621,-0.00020216,-0.00001671,0.00005870,0.00011017,0.0000029
 9,0.00000644,-0.00000635,-0.00004581,-0.00000229,-0.00000308,-0.000014
 99,0.00001061,0.00001170,-0.00005151,0.00001066,-0.00001156,0.00004583
 ,0.00002559,-0.00017659,-0.02289682,-0.04727826,0.03480450,0.00000406,
 -0.00000227,-0.00000783,0.00002856,-0.00002869,-0.00007896,-0.00001745
 ,0.00000247,0.00000895,-0.00000763,0.00000211,0.00000179,-0.00000443,0
 .00000380,0.00001090,0.00006178,0.00000885,-0.00010675,0.02551226,0.05
 589289,0.00043109,-0.00053411,0.00061906,-0.00016690,-0.00001151,-0.00
 009848,-0.00007560,0.00003291,-0.00011743,0.00113024,0.00148060,0.0006
 3979,0.00535159,0.00300148,-0.00848310,-0.00002465,0.00034828,-0.00016
 434,-0.00012671,-0.00126695,0.00077021,-0.00003827,0.00000424,0.000008
 62,-0.00122684,0.00042183,-0.00063353,-0.00026959,0.00031109,-0.000318
 02,0.00007295,0.00000895,0.00012264,0.00006187,-0.00003909,-0.00004778
 ,-0.00002023,-0.00002330,-0.00001136,0.00000885,-0.00000023,0.00002890
 ,-0.00000859,-0.00000120,-0.00001517,0.00002934,0.00000865,-0.00000540
 ,0.00022519,-0.00011678,0.00013036,0.12312585,0.03427683,-0.20766011,-
 0.00000573,0.00000723,0.00000097,-0.00002205,-0.00000962,0.00004012,0.
 00000737,-0.00000077,-0.00000402,0.00000226,-0.00000335,-0.00000047,0.
 00000169,-0.00000157,-0.00000353,-0.00003086,0.00001818,0.00003359,-0.
 13587198,-0.03845455,0.22471706,0.00009229,-0.00026438,0.00015402,0.00
 006572,-0.00004014,0.00004135,-0.00023658,-0.00010216,-0.00005494,0.00
 048680,-0.00051224,0.00001287,-0.00244496,-0.00058960,0.00002149,0.000
 12997,0.00024160,-0.00005568,-0.00003152,0.00084854,-0.00033208,0.0000
 0897,0.00002131,-0.00000961,0.00049789,-0.00035068,0.00012254,-0.00005
 356,-0.00012851,-0.00047860,-0.00037597,-0.00042363,0.00026449,0.00005
 661,-0.00003723,-0.00003350,-0.00007494,-0.00005587,0.00004222,-0.0000
 1321,0.00002583,0.00004072,-0.00003551,0.00000307,-0.00004795,0.000087
 28,-0.00001741,-0.00001897,-0.00026204,-0.00093690,0.00043121,-0.29520
 279,0.03259985,-0.07234720,-0.00000088,-0.00000444,0.00000080,0.000002
 09,0.00002526,0.00000539,0.00000520,0.00000084,-0.00000225,0.00000214,
 -0.00000113,-0.00000129,0.00000113,-0.00000395,-0.00000167,0.00002024,
 0.00007322,-0.00002649,-0.01602937,0.00174763,-0.00570356,0.31856762,0
 .00013123,0.00031418,-0.00007778,0.00001940,0.00021766,-0.00009507,0.0
 0172336,0.00015925,0.00047285,-0.00165722,-0.00591132,0.00218796,0.031
 70975,-0.00417227,0.00870211,-0.00011208,0.00000734,-0.00003149,-0.000
 58515,0.00133683,-0.00061500,-0.00007588,-0.00001773,-0.00000381,0.000
 22134,0.00163264,-0.00036816,-0.00084549,-0.00148152,0.00112769,-0.000
 13691,-0.00033755,-0.00003362,-0.00022833,0.00005125,-0.00005113,0.000
 01073,0.00001630,0.00025826,0.00002408,-0.00003964,-0.00011025,0.00003
 840,-0.00001864,-0.00000127,0.00006832,0.00000771,-0.00001948,-0.00046
 042,-0.00018250,-0.00084441,0.02857071,-0.05205396,0.00877653,-0.00001
 232,0.00000695,0.00000376,-0.00000728,-0.00000102,-0.00001990,0.000016
 96,-0.00000587,-0.00000080,0.00000621,-0.00000196,-0.00000570,0.000005
 98,-0.00001285,-0.00001655,0.00008281,-0.00045809,0.00019098,-0.004693
 12,-0.00032265,-0.00247720,-0.03253541,0.05769064,0.00001402,-0.000156
 06,-0.00031552,0.00003116,-0.00008573,0.00004298,-0.00069715,-0.000067
 61,-0.00013104,0.00018281,0.00255174,0.00086693,-0.01161622,0.00123454
 ,-0.00512770,0.00003370,0.00003968,0.00011408,0.00012334,-0.00012257,0
 .00018855,0.00002430,0.00002125,0.00002687,-0.00008009,-0.00095417,0.0
 0002138,0.00037607,0.00056525,0.00034844,0.00011351,0.00003546,0.00010
 710,0.00024037,-0.00005907,0.00001021,0.00000458,-0.00004792,-0.000151
 67,-0.00003582,0.00005084,0.00010128,-0.00006019,0.00000260,-0.0000325
 7,0.00001992,-0.00000546,-0.00003849,-0.00007410,-0.00014475,-0.000059
 48,-0.07116220,0.00957253,-0.06705192,-0.00000492,0.00000141,-0.000005
 68,-0.00001055,0.00001165,-0.00000303,-0.00001034,-0.00000096,-0.00000
 016,-0.00001034,-0.00000068,0.00000408,-0.00000475,0.00000499,0.000011
 78,-0.00002553,0.00019136,-0.00007219,0.02385458,-0.00349869,0.0087245
 6,0.07878474,-0.01303836,0.06781751,0.00073356,-0.00150447,0.00034506,
 -0.00032109,0.00002829,-0.00007698,0.00011776,0.00004968,0.00013312,-0
 .00089789,0.00049141,-0.00041226,0.00048771,-0.00061600,0.00578580,0.0
 0003163,0.00048630,-0.00005386,0.00005409,0.00032093,-0.00007631,-0.00
 002588,-0.00001168,-0.00003046,0.00076013,0.00152279,-0.00090971,-0.00
 059600,0.00035027,-0.00055984,0.00003355,0.00002157,-0.00001495,0.0000
 2883,-0.00004351,0.00000179,-0.00001658,-0.00003564,-0.00008584,0.0000
 1847,0.00002214,0.00000245,0.00000776,-0.00000903,0.00000985,-0.000013
 15,0.00000959,0.00004195,0.00029480,-0.00026167,0.00060819,-0.05923436
 ,-0.03953258,-0.04664330,0.00000306,-0.00001128,0.00000227,0.00000863,
 0.00001856,0.00005470,0.00000078,0.00000176,-0.00000073,0.00000456,0.0
 0000153,0.00000121,-0.00000089,-0.00000102,0.00000064,0.00001833,-0.00
 007001,-0.00000474,0.00400265,0.01335313,0.01314326,-0.00526262,-0.021
 27969,-0.02001091,0.05976216,-0.00159590,0.00154584,0.00150026,0.00037
 622,-0.00016815,-0.00019109,-0.00005232,-0.00019830,-0.00000326,-0.002
 15717,-0.00064798,0.00037293,-0.00775952,-0.02474553,-0.01915797,0.000
 09015,-0.00102783,-0.00016289,0.00042127,0.00170029,-0.00010403,0.0000
 6172,-0.00000771,0.00003463,0.00242009,-0.00216447,0.00245514,0.001662
 23,-0.00055593,-0.00045672,-0.00012445,0.00005820,0.00002969,0.0000319
 3,0.00000577,0.00004809,-0.00003665,0.00000874,0.00001191,-0.00001987,
 0.00000963,0.00003344,-0.00002168,0.00000487,0.00001126,-0.00004903,0.
 00001404,-0.00000885,-0.00069725,0.00017187,-0.00051714,-0.04107564,-0
 .16836494,-0.12592413,0.00001394,-0.00000123,-0.00000225,-0.00004487,-
 0.00003183,-0.00001504,-0.00001015,0.00000442,0.00000217,-0.00000691,0
 .00000155,0.00000135,-0.00000477,0.00000202,0.00001067,0.00001012,0.00
 006679,0.00008952,0.00145332,0.00378735,0.00301999,0.00041654,0.003576
 83,0.00389872,0.04669865,0.18695570,0.00084438,-0.00094456,-0.00125085
 ,-0.00019434,0.00013396,0.00009450,0.00028552,0.00013058,0.00005290,-0
 .00106041,-0.00078505,0.00043693,0.00438065,0.00990938,0.01093081,-0.0
 0000719,0.00054739,0.00026066,-0.00044930,0.00113889,-0.00030894,-0.00
 001914,0.00001497,-0.00000883,-0.00007843,0.00154015,-0.00181433,-0.00
 074253,0.00039218,0.00037280,0.00001948,0.00000320,-0.00002580,0.00000
 228,-0.00001546,-0.00000433,0.00002252,-0.00002387,0.00002518,-0.00000
 214,-0.00000269,-0.00000346,0.00000194,0.00000744,-0.00000220,-0.00000
 437,-0.00000212,-0.00000343,0.00039890,-0.00011834,0.00037032,-0.04519
 655,-0.12513190,-0.16707067,-0.00000652,0.00000216,-0.00000068,-0.0000
 4964,0.00002936,-0.00000108,0.00000117,0.00000089,-0.00000082,-0.00000
 035,0.00000012,-0.00000049,0.00000168,-0.00000304,-0.00000070,0.000013
 19,-0.00007456,-0.00002474,-0.00610238,-0.01786252,-0.01827315,-0.0008
 0804,-0.00391018,-0.00539632,0.04874962,0.13502364,0.18164672\\-0.0000
 0767,-0.00000789,-0.00000020,0.00001466,0.00000994,0.00000058,-0.00000
 374,-0.00001013,0.00000564,-0.00000151,0.00001111,-0.00000507,-0.00000
 249,0.00000198,0.00000194,0.00000713,0.00000560,-0.00000085,-0.0000003
 1,-0.00000012,-0.00000430,0.00000157,0.00000247,0.,0.00000497,-0.00000
 295,0.00000630,0.00000037,-0.00000127,-0.00001425,-0.00000419,0.000001
 00,0.00000747,-0.00000038,-0.00000304,-0.00000287,0.00000377,-0.000000
 76,0.00000051,-0.00000396,-0.00000294,-0.00000014,-0.00000275,-0.00000
 302,-0.00000073,0.00000419,-0.00000163,0.00000294,0.00000024,0.0000005
 6,0.00000504,-0.00000529,0.00000287,-0.00000586,-0.00000122,-0.0000032
 5,0.00000084,0.00000076,0.00000058,0.00000025,-0.00000040,-0.00000391,
 0.00000134,-0.00000015,-0.00000334,0.00000068,-0.00000073,-0.00000165,
 -0.00000013,0.00000109,0.00000617,-0.00000019,-0.00000170,0.00000239,-
 0.00000040,0.00000036,0.00000082,0.00000061,-0.00000262,0.00000038,0.0
 0000087\\\@


 DON'T WORRY CHARLIE BROWN...WE LEARN MORE FROM LOSING 
 THAN WE DO FROM WINNING.
 THEN THAT MAKES ME THE SMARTEST PERSON IN THE WORLD...
 CHARLES SCHULZ 'PEANUTS'
 Job cpu time:       0 days  7 hours  3 minutes 33.9 seconds.
 Elapsed time:       0 days  1 hours 18 minutes 46.1 seconds.
 File lengths (MBytes):  RWF=   1065 Int=      0 D2E=      0 Chk=     33 Scr=      1
 Normal termination of Gaussian 16 at Sat Feb 10 13:12:10 2024.
