 Entering Gaussian System, Link 0=g16
 Input=274-an.com
 Output=274-an.log
 Initial command:
 /sysapps/ubuntu-applications/gaussian/Gaussian/AVX2/g16/l1.exe "/scratch/selhajj1/4407594/Gau-150668.inp" -scrdir="/scratch/selhajj1/4407594/"
 Entering Link 1 = /sysapps/ubuntu-applications/gaussian/Gaussian/AVX2/g16/l1.exe PID=    150670.
  
 Copyright (c) 1988,1990,1992,1993,1995,1998,2003,2009,2016,
            Gaussian, Inc.  All Rights Reserved.
  
 This is part of the Gaussian(R) 16 program.  It is based on
 the Gaussian(R) 09 system (copyright 2009, Gaussian, Inc.),
 the Gaussian(R) 03 system (copyright 2003, Gaussian, Inc.),
 the Gaussian(R) 98 system (copyright 1998, Gaussian, Inc.),
 the Gaussian(R) 94 system (copyright 1995, Gaussian, Inc.),
 the Gaussian 92(TM) system (copyright 1992, Gaussian, Inc.),
 the Gaussian 90(TM) system (copyright 1990, Gaussian, Inc.),
 the Gaussian 88(TM) system (copyright 1988, Gaussian, Inc.),
 the Gaussian 86(TM) system (copyright 1986, Carnegie Mellon
 University), and the Gaussian 82(TM) system (copyright 1983,
 Carnegie Mellon University). Gaussian is a federally registered
 trademark of Gaussian, Inc.
  
 This software contains proprietary and confidential information,
 including trade secrets, belonging to Gaussian, Inc.
  
 This software is provided under written license and may be
 used, copied, transmitted, or stored only in accord with that
 written license.
  
 The following legend is applicable only to US Government
 contracts under FAR:
  
                    RESTRICTED RIGHTS LEGEND
  
 Use, reproduction and disclosure by the US Government is
 subject to restrictions as set forth in subparagraphs (a)
 and (c) of the Commercial Computer Software - Restricted
 Rights clause in FAR 52.227-19.
  
 Gaussian, Inc.
 340 Quinnipiac St., Bldg. 40, Wallingford CT 06492
  
  
 ---------------------------------------------------------------
 Warning -- This program may not be used in any manner that
 competes with the business of Gaussian, Inc. or will provide
 assistance to any competitor of Gaussian, Inc.  The licensee
 of this program is prohibited from giving any competitor of
 Gaussian, Inc. access to this program.  By using this program,
 the user acknowledges that Gaussian, Inc. is engaged in the
 business of creating and licensing software in the field of
 computational chemistry and represents and warrants to the
 licensee that it is not a competitor of Gaussian, Inc. and that
 it will not use this program in any manner prohibited above.
 ---------------------------------------------------------------
  

 Cite this work as:
 Gaussian 16, Revision A.03,
 M. J. Frisch, G. W. Trucks, H. B. Schlegel, G. E. Scuseria, 
 M. A. Robb, J. R. Cheeseman, G. Scalmani, V. Barone, 
 G. A. Petersson, H. Nakatsuji, X. Li, M. Caricato, A. V. Marenich, 
 J. Bloino, B. G. Janesko, R. Gomperts, B. Mennucci, H. P. Hratchian, 
 J. V. Ortiz, A. F. Izmaylov, J. L. Sonnenberg, D. Williams-Young, 
 F. Ding, F. Lipparini, F. Egidi, J. Goings, B. Peng, A. Petrone, 
 T. Henderson, D. Ranasinghe, V. G. Zakrzewski, J. Gao, N. Rega, 
 G. Zheng, W. Liang, M. Hada, M. Ehara, K. Toyota, R. Fukuda, 
 J. Hasegawa, M. Ishida, T. Nakajima, Y. Honda, O. Kitao, H. Nakai, 
 T. Vreven, K. Throssell, J. A. Montgomery, Jr., J. E. Peralta, 
 F. Ogliaro, M. J. Bearpark, J. J. Heyd, E. N. Brothers, K. N. Kudin, 
 V. N. Staroverov, T. A. Keith, R. Kobayashi, J. Normand, 
 K. Raghavachari, A. P. Rendell, J. C. Burant, S. S. Iyengar, 
 J. Tomasi, M. Cossi, J. M. Millam, M. Klene, C. Adamo, R. Cammi, 
 J. W. Ochterski, R. L. Martin, K. Morokuma, O. Farkas, 
 J. B. Foresman, and D. J. Fox, Gaussian, Inc., Wallingford CT, 2016.
 
 ******************************************
 Gaussian 16:  ES64L-G16RevA.03 25-Dec-2016
                11-Feb-2024 
 ******************************************
 %chk=274-an.chk
 %nproc=8
 Will use up to    8 processors via shared memory.
 %mem=30GB
 ----------------------------------------------------------------------
 #P UB3LYP/6-311++G(d,p) nosym opt freq SCRF=(PCM,Solvent=n,n-DiMethylF
 ormamide)
 ----------------------------------------------------------------------
 1/18=20,19=15,26=3,38=1/1,3;
 2/9=110,12=2,15=1,17=6,18=5,40=1/2;
 3/5=4,6=6,7=1111,11=2,25=1,30=1,70=2201,71=1,72=148,74=-5,116=2/1,2,3;
 4//1;
 5/5=2,38=5,53=148/2;
 6/7=2,8=2,9=2,10=2,28=1/1;
 7/30=1/1,2,3,16;
 1/18=20,19=15,26=3/3(2);
 2/9=110,15=1/2;
 99//99;
 2/9=110,15=1/2;
 3/5=4,6=6,7=1111,11=2,25=1,30=1,70=2205,71=1,72=148,74=-5,116=2/1,2,3;
 4/5=5,16=3,69=1/1;
 5/5=2,38=5,53=148/2;
 7/30=1/1,2,3,16;
 1/18=20,19=15,26=3/3(-5);
 2/9=110,15=1/2;
 6/7=2,8=2,9=2,10=2,19=2,28=1/1;
 99/9=1/99;
 Leave Link    1 at Sun Feb 11 02:16:53 2024, MaxMem=  4026531840 cpu:               0.8 elap:               0.1
 (Enter /sysapps/ubuntu-applications/gaussian/Gaussian/AVX2/g16/l101.exe)
 -------
 Reduced
 -------
 Symbolic Z-matrix:
 Charge = -2 Multiplicity = 1
 C                    -1.69441   3.08113   0.28551 
 C                    -2.86981   2.36608   0.15031 
 C                    -2.82178   0.97615  -0.13363 
 C                    -0.42094   2.47338   0.14762 
 C                    -0.3759    1.05765  -0.13049 
 C                    -1.59154   0.35383  -0.26446 
 C                     0.7713    3.29011   0.31142 
 C                     2.0128    2.56965   0.16522 
 C                     2.03891   1.18613  -0.11236 
 C                     0.89626   0.3563   -0.27028 
 O                     0.6924    4.5477    0.59108 
 O                     0.96434  -0.9037   -0.52669 
 N                     3.23361   3.28805   0.38486 
 C                     3.40082   4.4969   -0.41617 
 C                     4.4607    2.52762   0.4536 
 H                    -1.70094   4.14447   0.50452 
 H                    -3.83052   2.86745   0.26113 
 H                    -3.74317   0.4063   -0.24356 
 H                    -1.51294  -0.7085   -0.47739 
 H                     2.98961   0.68058  -0.24331 
 H                     2.47264   5.06618  -0.37358 
 H                     3.6549    4.259    -1.47276 
 H                     4.22257   5.09755  -0.00462 
 H                     4.36557   1.70929   1.17017 
 H                     5.27262   3.18524   0.78056 
 H                     4.77179   2.08726  -0.52103 
 
 ITRead=  0  0  0  0  0  0  0  0  0  0  0  0  0  0  0  0  0  0  0  0
 ITRead=  0  0  0  0  0  0
 MicOpt= -1 -1 -1 -1 -1 -1 -1 -1 -1 -1 -1 -1 -1 -1 -1 -1 -1 -1 -1 -1
 MicOpt= -1 -1 -1 -1 -1 -1
 NAtoms=     26 NQM=       26 NQMF=       0 NMMI=      0 NMMIF=      0
                NMic=       0 NMicF=      0.
                    Isotopes and Nuclear Properties:
 (Nuclear quadrupole moments (NQMom) in fm**2, nuclear magnetic moments (NMagM)
  in nuclear magnetons)

  Atom         1           2           3           4           5           6           7           8           9          10
 IAtWgt=          12          12          12          12          12          12          12          12          12          12
 AtmWgt=  12.0000000  12.0000000  12.0000000  12.0000000  12.0000000  12.0000000  12.0000000  12.0000000  12.0000000  12.0000000
 NucSpn=           0           0           0           0           0           0           0           0           0           0
 AtZEff=  -0.0000000  -0.0000000  -0.0000000  -0.0000000  -0.0000000  -0.0000000  -0.0000000  -0.0000000  -0.0000000  -0.0000000
 NQMom=    0.0000000   0.0000000   0.0000000   0.0000000   0.0000000   0.0000000   0.0000000   0.0000000   0.0000000   0.0000000
 NMagM=    0.0000000   0.0000000   0.0000000   0.0000000   0.0000000   0.0000000   0.0000000   0.0000000   0.0000000   0.0000000
 AtZNuc=   6.0000000   6.0000000   6.0000000   6.0000000   6.0000000   6.0000000   6.0000000   6.0000000   6.0000000   6.0000000

  Atom        11          12          13          14          15          16          17          18          19          20
 IAtWgt=          16          16          14          12          12           1           1           1           1           1
 AtmWgt=  15.9949146  15.9949146  14.0030740  12.0000000  12.0000000   1.0078250   1.0078250   1.0078250   1.0078250   1.0078250
 NucSpn=           0           0           2           0           0           1           1           1           1           1
 AtZEff=  -0.0000000  -0.0000000  -0.0000000  -0.0000000  -0.0000000  -0.0000000  -0.0000000  -0.0000000  -0.0000000  -0.0000000
 NQMom=    0.0000000   0.0000000   2.0440000   0.0000000   0.0000000   0.0000000   0.0000000   0.0000000   0.0000000   0.0000000
 NMagM=    0.0000000   0.0000000   0.4037610   0.0000000   0.0000000   2.7928460   2.7928460   2.7928460   2.7928460   2.7928460
 AtZNuc=   8.0000000   8.0000000   7.0000000   6.0000000   6.0000000   1.0000000   1.0000000   1.0000000   1.0000000   1.0000000

  Atom        21          22          23          24          25          26
 IAtWgt=           1           1           1           1           1           1
 AtmWgt=   1.0078250   1.0078250   1.0078250   1.0078250   1.0078250   1.0078250
 NucSpn=           1           1           1           1           1           1
 AtZEff=  -0.0000000  -0.0000000  -0.0000000  -0.0000000  -0.0000000  -0.0000000
 NQMom=    0.0000000   0.0000000   0.0000000   0.0000000   0.0000000   0.0000000
 NMagM=    2.7928460   2.7928460   2.7928460   2.7928460   2.7928460   2.7928460
 AtZNuc=   1.0000000   1.0000000   1.0000000   1.0000000   1.0000000   1.0000000
 Leave Link  101 at Sun Feb 11 02:16:53 2024, MaxMem=  4026531840 cpu:               3.4 elap:               0.5
 (Enter /sysapps/ubuntu-applications/gaussian/Gaussian/AVX2/g16/l103.exe)

 GradGradGradGradGradGradGradGradGradGradGradGradGradGradGradGradGradGrad
 Berny optimization.
 Initialization pass.
                           ----------------------------
                           !    Initial Parameters    !
                           ! (Angstroms and Degrees)  !
 --------------------------                            --------------------------
 ! Name  Definition              Value          Derivative Info.                !
 --------------------------------------------------------------------------------
 ! R1    R(1,2)                  1.3824         estimate D2E/DX2                !
 ! R2    R(1,4)                  1.4178         estimate D2E/DX2                !
 ! R3    R(1,16)                 1.0857         estimate D2E/DX2                !
 ! R4    R(2,3)                  1.4194         estimate D2E/DX2                !
 ! R5    R(2,17)                 1.0893         estimate D2E/DX2                !
 ! R6    R(3,6)                  1.3849         estimate D2E/DX2                !
 ! R7    R(3,18)                 1.0889         estimate D2E/DX2                !
 ! R8    R(4,5)                  1.4435         estimate D2E/DX2                !
 ! R9    R(4,7)                  1.4544         estimate D2E/DX2                !
 ! R10   R(5,6)                  1.4111         estimate D2E/DX2                !
 ! R11   R(5,10)                 1.4594         estimate D2E/DX2                !
 ! R12   R(6,19)                 1.0863         estimate D2E/DX2                !
 ! R13   R(7,8)                  1.4428         estimate D2E/DX2                !
 ! R14   R(7,11)                 1.2907         estimate D2E/DX2                !
 ! R15   R(8,9)                  1.4113         estimate D2E/DX2                !
 ! R16   R(8,13)                 1.4334         estimate D2E/DX2                !
 ! R17   R(9,10)                 1.421          estimate D2E/DX2                !
 ! R18   R(9,20)                 1.0847         estimate D2E/DX2                !
 ! R19   R(10,12)                1.2876         estimate D2E/DX2                !
 ! R20   R(13,14)                1.4598         estimate D2E/DX2                !
 ! R21   R(13,15)                1.4452         estimate D2E/DX2                !
 ! R22   R(14,21)                1.0897         estimate D2E/DX2                !
 ! R23   R(14,22)                1.1124         estimate D2E/DX2                !
 ! R24   R(14,23)                1.0979         estimate D2E/DX2                !
 ! R25   R(15,24)                1.0919         estimate D2E/DX2                !
 ! R26   R(15,25)                1.0948         estimate D2E/DX2                !
 ! R27   R(15,26)                1.1138         estimate D2E/DX2                !
 ! A1    A(2,1,4)              122.1717         estimate D2E/DX2                !
 ! A2    A(2,1,16)             121.4136         estimate D2E/DX2                !
 ! A3    A(4,1,16)             116.4147         estimate D2E/DX2                !
 ! A4    A(1,2,3)              119.8199         estimate D2E/DX2                !
 ! A5    A(1,2,17)             120.1219         estimate D2E/DX2                !
 ! A6    A(3,2,17)             120.0582         estimate D2E/DX2                !
 ! A7    A(2,3,6)              119.2736         estimate D2E/DX2                !
 ! A8    A(2,3,18)             120.2645         estimate D2E/DX2                !
 ! A9    A(6,3,18)             120.4616         estimate D2E/DX2                !
 ! A10   A(1,4,5)              117.8517         estimate D2E/DX2                !
 ! A11   A(1,4,7)              118.9883         estimate D2E/DX2                !
 ! A12   A(5,4,7)              123.1529         estimate D2E/DX2                !
 ! A13   A(4,5,6)              118.725          estimate D2E/DX2                !
 ! A14   A(4,5,10)             121.1304         estimate D2E/DX2                !
 ! A15   A(6,5,10)             120.1445         estimate D2E/DX2                !
 ! A16   A(3,6,5)              122.1544         estimate D2E/DX2                !
 ! A17   A(3,6,19)             121.4825         estimate D2E/DX2                !
 ! A18   A(5,6,19)             116.3631         estimate D2E/DX2                !
 ! A19   A(4,7,8)              114.4274         estimate D2E/DX2                !
 ! A20   A(4,7,11)             121.4283         estimate D2E/DX2                !
 ! A21   A(8,7,11)             124.1299         estimate D2E/DX2                !
 ! A22   A(7,8,9)              121.6912         estimate D2E/DX2                !
 ! A23   A(7,8,13)             117.8425         estimate D2E/DX2                !
 ! A24   A(9,8,13)             120.3772         estimate D2E/DX2                !
 ! A25   A(8,9,10)             125.4125         estimate D2E/DX2                !
 ! A26   A(8,9,20)             119.7913         estimate D2E/DX2                !
 ! A27   A(10,9,20)            114.7839         estimate D2E/DX2                !
 ! A28   A(5,10,9)             114.1838         estimate D2E/DX2                !
 ! A29   A(5,10,12)            122.3732         estimate D2E/DX2                !
 ! A30   A(9,10,12)            123.4401         estimate D2E/DX2                !
 ! A31   A(8,13,14)            115.3728         estimate D2E/DX2                !
 ! A32   A(8,13,15)            117.8203         estimate D2E/DX2                !
 ! A33   A(14,13,15)           111.3805         estimate D2E/DX2                !
 ! A34   A(13,14,21)           108.277          estimate D2E/DX2                !
 ! A35   A(13,14,22)           111.7317         estimate D2E/DX2                !
 ! A36   A(13,14,23)           109.456          estimate D2E/DX2                !
 ! A37   A(21,14,22)           110.0839         estimate D2E/DX2                !
 ! A38   A(21,14,23)           109.6979         estimate D2E/DX2                !
 ! A39   A(22,14,23)           107.5821         estimate D2E/DX2                !
 ! A40   A(13,15,24)           110.584          estimate D2E/DX2                !
 ! A41   A(13,15,25)           109.1368         estimate D2E/DX2                !
 ! A42   A(13,15,26)           113.7999         estimate D2E/DX2                !
 ! A43   A(24,15,25)           108.5912         estimate D2E/DX2                !
 ! A44   A(24,15,26)           107.5944         estimate D2E/DX2                !
 ! A45   A(25,15,26)           106.959          estimate D2E/DX2                !
 ! D1    D(4,1,2,3)              0.1118         estimate D2E/DX2                !
 ! D2    D(4,1,2,17)          -179.8792         estimate D2E/DX2                !
 ! D3    D(16,1,2,3)          -179.8751         estimate D2E/DX2                !
 ! D4    D(16,1,2,17)            0.1338         estimate D2E/DX2                !
 ! D5    D(2,1,4,5)             -0.5963         estimate D2E/DX2                !
 ! D6    D(2,1,4,7)           -179.6533         estimate D2E/DX2                !
 ! D7    D(16,1,4,5)           179.3913         estimate D2E/DX2                !
 ! D8    D(16,1,4,7)             0.3342         estimate D2E/DX2                !
 ! D9    D(1,2,3,6)              0.3371         estimate D2E/DX2                !
 ! D10   D(1,2,3,18)          -179.8778         estimate D2E/DX2                !
 ! D11   D(17,2,3,6)          -179.6718         estimate D2E/DX2                !
 ! D12   D(17,2,3,18)            0.1133         estimate D2E/DX2                !
 ! D13   D(2,3,6,5)             -0.283          estimate D2E/DX2                !
 ! D14   D(2,3,6,19)           179.745          estimate D2E/DX2                !
 ! D15   D(18,3,6,5)           179.9324         estimate D2E/DX2                !
 ! D16   D(18,3,6,19)           -0.0397         estimate D2E/DX2                !
 ! D17   D(1,4,5,6)              0.6347         estimate D2E/DX2                !
 ! D18   D(1,4,5,10)          -179.2607         estimate D2E/DX2                !
 ! D19   D(7,4,5,6)            179.6496         estimate D2E/DX2                !
 ! D20   D(7,4,5,10)            -0.2459         estimate D2E/DX2                !
 ! D21   D(1,4,7,8)            179.3481         estimate D2E/DX2                !
 ! D22   D(1,4,7,11)             0.6752         estimate D2E/DX2                !
 ! D23   D(5,4,7,8)              0.3439         estimate D2E/DX2                !
 ! D24   D(5,4,7,11)          -178.329          estimate D2E/DX2                !
 ! D25   D(4,5,6,3)             -0.2099         estimate D2E/DX2                !
 ! D26   D(4,5,6,19)           179.7635         estimate D2E/DX2                !
 ! D27   D(10,5,6,3)           179.6867         estimate D2E/DX2                !
 ! D28   D(10,5,6,19)           -0.3399         estimate D2E/DX2                !
 ! D29   D(4,5,10,9)            -0.1392         estimate D2E/DX2                !
 ! D30   D(4,5,10,12)         -179.5429         estimate D2E/DX2                !
 ! D31   D(6,5,10,9)           179.9668         estimate D2E/DX2                !
 ! D32   D(6,5,10,12)            0.5631         estimate D2E/DX2                !
 ! D33   D(4,7,8,9)             -0.0665         estimate D2E/DX2                !
 ! D34   D(4,7,8,13)          -176.6442         estimate D2E/DX2                !
 ! D35   D(11,7,8,9)           178.5655         estimate D2E/DX2                !
 ! D36   D(11,7,8,13)            1.9878         estimate D2E/DX2                !
 ! D37   D(7,8,9,10)            -0.3401         estimate D2E/DX2                !
 ! D38   D(7,8,9,20)           178.3139         estimate D2E/DX2                !
 ! D39   D(13,8,9,10)          176.1522         estimate D2E/DX2                !
 ! D40   D(13,8,9,20)           -5.1939         estimate D2E/DX2                !
 ! D41   D(7,8,13,14)          -54.8935         estimate D2E/DX2                !
 ! D42   D(7,8,13,15)          170.1581         estimate D2E/DX2                !
 ! D43   D(9,8,13,14)          128.4818         estimate D2E/DX2                !
 ! D44   D(9,8,13,15)           -6.4667         estimate D2E/DX2                !
 ! D45   D(8,9,10,5)             0.4321         estimate D2E/DX2                !
 ! D46   D(8,9,10,12)          179.8285         estimate D2E/DX2                !
 ! D47   D(20,9,10,5)         -178.2812         estimate D2E/DX2                !
 ! D48   D(20,9,10,12)           1.1152         estimate D2E/DX2                !
 ! D49   D(8,13,14,21)          46.3691         estimate D2E/DX2                !
 ! D50   D(8,13,14,22)         -75.027          estimate D2E/DX2                !
 ! D51   D(8,13,14,23)         165.9159         estimate D2E/DX2                !
 ! D52   D(15,13,14,21)       -175.868          estimate D2E/DX2                !
 ! D53   D(15,13,14,22)         62.7359         estimate D2E/DX2                !
 ! D54   D(15,13,14,23)        -56.3211         estimate D2E/DX2                !
 ! D55   D(8,13,15,24)         -51.6821         estimate D2E/DX2                !
 ! D56   D(8,13,15,25)        -171.0749         estimate D2E/DX2                !
 ! D57   D(8,13,15,26)          69.5523         estimate D2E/DX2                !
 ! D58   D(14,13,15,24)        171.6901         estimate D2E/DX2                !
 ! D59   D(14,13,15,25)         52.2973         estimate D2E/DX2                !
 ! D60   D(14,13,15,26)        -67.0755         estimate D2E/DX2                !
 --------------------------------------------------------------------------------
 Trust Radius=3.00D-01 FncErr=1.00D-07 GrdErr=1.00D-06 EigMax=2.50D+02 EigMin=1.00D-04
 Number of steps in this run=    142 maximum allowed number of steps=    156.
 GradGradGradGradGradGradGradGradGradGradGradGradGradGradGradGradGradGrad

 Leave Link  103 at Sun Feb 11 02:16:53 2024, MaxMem=  4026531840 cpu:               0.2 elap:               0.1
 (Enter /sysapps/ubuntu-applications/gaussian/Gaussian/AVX2/g16/l202.exe)
                          Input orientation:                          
 ---------------------------------------------------------------------
 Center     Atomic      Atomic             Coordinates (Angstroms)
 Number     Number       Type             X           Y           Z
 ---------------------------------------------------------------------
      1          6           0       -1.694406    3.081134    0.285508
      2          6           0       -2.869807    2.366080    0.150309
      3          6           0       -2.821775    0.976149   -0.133630
      4          6           0       -0.420938    2.473383    0.147616
      5          6           0       -0.375899    1.057646   -0.130494
      6          6           0       -1.591535    0.353829   -0.264457
      7          6           0        0.771295    3.290107    0.311417
      8          6           0        2.012803    2.569645    0.165215
      9          6           0        2.038906    1.186129   -0.112363
     10          6           0        0.896258    0.356298   -0.270283
     11          8           0        0.692397    4.547698    0.591084
     12          8           0        0.964342   -0.903702   -0.526687
     13          7           0        3.233608    3.288054    0.384857
     14          6           0        3.400818    4.496897   -0.416174
     15          6           0        4.460704    2.527624    0.453597
     16          1           0       -1.700935    4.144474    0.504517
     17          1           0       -3.830522    2.867450    0.261128
     18          1           0       -3.743166    0.406295   -0.243562
     19          1           0       -1.512941   -0.708504   -0.477393
     20          1           0        2.989609    0.680583   -0.243310
     21          1           0        2.472637    5.066184   -0.373578
     22          1           0        3.654900    4.259003   -1.472764
     23          1           0        4.222566    5.097550   -0.004621
     24          1           0        4.365569    1.709285    1.170170
     25          1           0        5.272620    3.185243    0.780558
     26          1           0        4.771789    2.087256   -0.521031
 ---------------------------------------------------------------------
                    Distance matrix (angstroms):
                    1          2          3          4          5
     1  C    0.000000
     2  C    1.382443   0.000000
     3  C    2.424376   1.419449   0.000000
     4  C    1.417779   2.451220   2.843383   0.000000
     5  C    2.450719   2.830270   2.447235   1.443497   0.000000
     6  C    2.784104   2.419745   1.384878   2.456137   1.411055
     7  C    2.474676   3.759974   4.296815   1.454403   2.548572
     8  C    3.744261   4.886874   5.099184   2.435708   2.842443
     9  C    4.205587   5.055368   4.865261   2.788448   2.418289
    10  C    3.800681   4.289448   3.771824   2.528180   1.459388
    11  O    2.817981   4.200362   5.062665   2.395613   3.720537
    12  O    4.858757   5.084338   4.245352   3.711925   2.408340
    13  N    4.933357   6.177113   6.502415   3.751757   4.274207
    14  C    5.334609   6.646956   7.155149   4.360996   5.116019
    15  C    6.182233   7.338561   7.469030   4.891523   5.088686
    16  H    1.085679   2.157408   3.420789   2.135021   3.418694
    17  H    2.146916   1.089324   2.179547   3.434157   3.919589
    18  H    3.410586   2.181432   1.088935   3.932311   3.431549
    19  H    3.869923   3.418795   2.160851   3.421624   2.128964
    20  H    5.289829   6.109713   5.819929   3.872827   3.388443
    21  H    4.662517   6.008887   6.694532   3.920081   4.923578
    22  H    5.752736   6.984936   7.383612   4.735665   5.319560
    23  H    6.257848   7.601755   8.162434   5.335875   6.122299
    24  H    6.275977   7.336359   7.341342   4.953798   4.959625
    25  H    6.985368   8.207762   8.440087   5.772691   6.104298
    26  H    6.591660   7.676095   7.684195   5.249819   5.264153
                    6          7          8          9         10
     6  C    0.000000
     7  C    3.812653   0.000000
     8  C    4.252730   1.442838   0.000000
     9  C    3.727728   2.492619   1.411328   0.000000
    10  C    2.487801   2.993531   2.516990   1.420987   0.000000
    11  O    4.851477   1.290726   2.416098   3.688912   4.283847
    12  O    2.860534   4.281089   3.693527   2.386157   1.287625
    13  N    5.684478   2.463409   1.433429   2.468325   3.806259
    14  C    6.489347   2.983307   2.445179   3.592811   4.841350
    15  C    6.470748   3.770058   2.465187   2.825779   4.236028
    16  H    3.869403   2.622814   4.048094   4.808197   4.657897
    17  H    3.406992   4.621459   5.851695   6.116905   5.378730
    18  H    2.152372   5.385604   6.162659   5.835898   4.639770
    19  H    1.086310   4.672135   4.856962   4.042091   2.642146
    20  H    4.592831   3.469619   2.165548   1.084694   2.118492
    21  H    6.223800   2.553083   2.595082   3.912951   4.967763
    22  H    6.650975   3.526647   2.869388   3.728898   4.928202
    23  H    7.508274   3.908708   3.361875   4.480981   5.797790
    24  H    6.275548   4.019361   2.699196   2.707756   3.992693
    25  H    7.498372   4.526921   3.374021   3.905211   5.315989
    26  H    6.600189   4.259551   2.883685   2.906491   4.251921
                   11         12         13         14         15
    11  O    0.000000
    12  O    5.571457   0.000000
    13  N    2.843763   4.852968   0.000000
    14  C    2.890103   5.925799   1.459764   0.000000
    15  C    4.277819   4.995949   1.445249   2.399562   0.000000
    16  H    2.428605   5.800962   5.009739   5.196129   6.370447
    17  H    4.836207   6.150850   7.077722   7.443528   8.300419
    18  H    6.125526   4.894577   7.574617   8.234035   8.502326
    19  H    5.799381   2.485450   6.264637   7.158560   6.857383
    20  H    4.574710   2.586884   2.693146   3.842295   2.461983
    21  H    2.090133   6.159378   2.077510   1.089689   3.328801
    22  H    3.622049   5.898109   2.137986   1.112445   2.712538
    23  H    3.622057   6.848620   2.098573   1.097921   2.621296
    24  H    4.678047   4.612523   2.095367   3.349330   1.091882
    25  H    4.782324   6.081909   2.079596   2.579970   1.094794
    26  H    4.892036   4.841747   2.151406   2.774333   1.113821
                   16         17         18         19         20
    16  H    0.000000
    17  H    2.495029   0.000000
    18  H    4.324848   2.513887   0.000000
    19  H    4.954885   4.324817   2.504268   0.000000
    20  H    5.878689   7.179905   6.738360   4.717766   0.000000
    21  H    4.363405   6.705751   7.769664   7.017309   4.417887
    22  H    5.710317   7.808607   8.431232   7.236952   3.841778
    23  H    6.021249   8.360394   9.247586   8.174951   4.592031
    24  H    6.570823   8.327281   8.333547   6.566357   2.224729
    25  H    7.044629   9.123486   9.489772   7.923859   3.540306
    26  H    6.868774   8.672960   8.683725   6.878663   2.287362
                   21         22         23         24         25
    21  H    0.000000
    22  H    1.804854   0.000000
    23  H    1.788677   1.783494   0.000000
    24  H    4.151520   3.740483   3.589000   0.000000
    25  H    3.565091   2.974464   2.318628   1.775666   0.000000
    26  H    3.765880   2.621015   3.103256   1.779898   1.774976
                   26
    26  H    0.000000
 Symmetry turned off by external request.
 Stoichiometry    C12H11NO2(2-)
 Framework group  C1[X(C12H11NO2)]
 Deg. of freedom    72
 Full point group                 C1      NOp   1
 Rotational constants (GHZ):           1.0906329           0.4664289           0.3340074
 Leave Link  202 at Sun Feb 11 02:16:53 2024, MaxMem=  4026531840 cpu:               0.4 elap:               0.1
 (Enter /sysapps/ubuntu-applications/gaussian/Gaussian/AVX2/g16/l301.exe)
 Standard basis: 6-311++G(d,p) (5D, 7F)
 Ernie: Thresh=  0.10000D-02 Tol=  0.10000D-05 Strict=F.
   407 basis functions,   639 primitive gaussians,   422 cartesian basis functions
    54 alpha electrons       54 beta electrons
       nuclear repulsion energy       937.5385810533 Hartrees.
 IExCor=  402 DFT=T Ex+Corr=B3LYP ExCW=0 ScaHFX=  0.200000
 ScaDFX=  0.800000  0.720000  1.000000  0.810000 ScalE2=  1.000000  1.000000
 IRadAn=      5 IRanWt=     -1 IRanGd=            0 ICorTp=0 IEmpDi=  4
 NAtoms=   26 NActive=   26 NUniq=   26 SFac= 1.00D+00 NAtFMM=   60 NAOKFM=F Big=F
 Integral buffers will be    131072 words long.
 Raffenetti 2 integral format.
 Two-electron integral symmetry is turned off.
 ------------------------------------------------------------------------------
 Polarizable Continuum Model (PCM)
 =================================
 Model                : PCM.
 Atomic radii         : UFF (Universal Force Field).
 Polarization charges : Total charges.
 Charge compensation  : None.
 Solution method      : On-the-fly selection.
 Cavity type          : Scaled VdW (van der Waals Surface) (Alpha=1.100).
 Cavity algorithm     : GePol (No added spheres)
                        Default sphere list used, NSphG=   26.
                        Lebedev-Laikov grids with approx.  5.0 points / Ang**2.
                        Smoothing algorithm: York/Karplus (Gamma=1.0000).
                        Polarization charges: spherical gaussians, with
                                              point-specific exponents (IZeta= 3).
                        Self-potential: point-specific (ISelfS= 7).
                        Self-field    : sphere-specific E.n sum rule (ISelfD= 2).
 1st derivatives      : Analytical E(r).r(x)/FMM algorithm (CHGder, D1EAlg=3).
                        Cavity 1st derivative terms included.
 Solvent              : n,n-DiMethylFormamide, Eps=  37.219000 Eps(inf)=   2.046330
 ------------------------------------------------------------------------------
 GePol: Number of generator spheres                  =      26
 GePol: Total number of spheres                      =      26
 GePol: Number of exposed spheres                    =      26 (100.00%)
 GePol: Number of points                             =    2052
 GePol: Average weight of points                     =       0.13
 GePol: Minimum weight of points                     =   0.72D-10
 GePol: Maximum weight of points                     =    0.20577
 GePol: Number of points with low weight             =     126
 GePol: Fraction of low-weight points (<1% of avg)   =       6.14%
 GePol: Cavity surface area                          =    260.852 Ang**2
 GePol: Cavity volume                                =    280.211 Ang**3
 Leave Link  301 at Sun Feb 11 02:16:54 2024, MaxMem=  4026531840 cpu:               0.7 elap:               0.2
 (Enter /sysapps/ubuntu-applications/gaussian/Gaussian/AVX2/g16/l302.exe)
 NPDir=0 NMtPBC=     1 NCelOv=     1 NCel=       1 NClECP=     1 NCelD=      1
         NCelK=      1 NCelE2=     1 NClLst=     1 CellRange=     0.0.
 One-electron integrals computed using PRISM.
 NBasis=   407 RedAO= T EigKep=  1.33D-06  NBF=   407
 NBsUse=   404 1.00D-06 EigRej=  7.70D-07 NBFU=   404
 Precomputing XC quadrature grid using
 IXCGrd= 4 IRadAn=           5 IRanWt=          -1 IRanGd=           0 AccXCQ= 0.00D+00.
 Generated NRdTot=       0 NPtTot=           0 NUsed=           0 NTot=          32
 NSgBfM=   421   421   421   421   421 MxSgAt=    26 MxSgA2=    26.
 Leave Link  302 at Sun Feb 11 02:16:56 2024, MaxMem=  4026531840 cpu:              13.2 elap:               2.7
 (Enter /sysapps/ubuntu-applications/gaussian/Gaussian/AVX2/g16/l303.exe)
 DipDrv:  MaxL=1.
 Leave Link  303 at Sun Feb 11 02:16:57 2024, MaxMem=  4026531840 cpu:               1.6 elap:               0.4
 (Enter /sysapps/ubuntu-applications/gaussian/Gaussian/AVX2/g16/l401.exe)
 ExpMin= 3.60D-02 ExpMax= 8.59D+03 ExpMxC= 1.30D+03 IAcc=3 IRadAn=         5 AccDes= 0.00D+00
 Harris functional with IExCor=  402 and IRadAn=       5 diagonalized for initial guess.
 HarFok:  IExCor=  402 AccDes= 0.00D+00 IRadAn=         5 IDoV= 1 UseB2=F ITyADJ=14
 ICtDFT=  3500011 ScaDFX=  1.000000  1.000000  1.000000  1.000000
 FoFCou: FMM=F IPFlag=           0 FMFlag=      100000 FMFlg1=           0
         NFxFlg=           0 DoJE=T BraDBF=F KetDBF=T FulRan=T
         wScrn=  0.000000 ICntrl=       500 IOpCl=  0 I1Cent=   200000004 NGrid=           0
         NMat0=    1 NMatS0=      1 NMatT0=    0 NMatD0=    1 NMtDS0=    0 NMtDT0=    0
 Symmetry not used in FoFCou.
 Harris En= -669.738076581703    
 JPrj=0 DoOrth=F DoCkMO=F.
 Initial guess <Sx>= 0.0000 <Sy>= 0.0000 <Sz>= 0.0000 <S**2>=-0.0000 S=-0.0000
 Leave Link  401 at Sun Feb 11 02:17:02 2024, MaxMem=  4026531840 cpu:              28.9 elap:               5.1
 (Enter /sysapps/ubuntu-applications/gaussian/Gaussian/AVX2/g16/l502.exe)
 Two-electron integral symmetry not used.
 UHF open shell SCF:
 Using DIIS extrapolation, IDIIS=  1040.
 NGot=  4026531840 LenX=  4026169208 LenY=  4025990683
 Requested convergence on RMS density matrix=1.00D-08 within 128 cycles.
 Requested convergence on MAX density matrix=1.00D-06.
 Requested convergence on             energy=1.00D-06.
 No special actions if energy rises.
 Fock matrices will be formed incrementally for  20 cycles.

 Cycle   1  Pass 1  IDiag  1:
 FoFJK:  IHMeth= 1 ICntrl=       0 DoSepK=F KAlg= 0 I1Cent=           0 FoldK=F
 IRaf= 880000000 NMat=       1 IRICut=       1 DoRegI=T DoRafI=F ISym2E= 0 IDoP0=0 IntGTp=1.
 FoFCou: FMM=F IPFlag=           0 FMFlag=      100000 FMFlg1=           0
         NFxFlg=           0 DoJE=F BraDBF=F KetDBF=F FulRan=T
         wScrn=  0.000000 ICntrl=         0 IOpCl=  1 I1Cent=           0 NGrid=           0
         NMat0=    1 NMatS0=      1 NMatT0=    0 NMatD0=    1 NMtDS0=    0 NMtDT0=    0
 Symmetry not used in FoFCou.
 Inv3:  Mode=1 IEnd=    12632112.
 Iteration    1 A*A^-1 deviation from unit magnitude is 3.33D-15 for   1113.
 Iteration    1 A*A^-1 deviation from orthogonality  is 1.99D-15 for   1222    190.
 Iteration    1 A^-1*A deviation from unit magnitude is 2.89D-15 for   1113.
 Iteration    1 A^-1*A deviation from orthogonality  is 1.83D-15 for   1771   1284.
 E= -668.970974871366    
 DIIS: error= 3.23D-02 at cycle   1 NSaved=   1.
 NSaved= 1 IEnMin= 1 EnMin= -668.970974871366     IErMin= 1 ErrMin= 3.23D-02
 ErrMax= 3.23D-02  0.00D+00 EMaxC= 1.00D-01 BMatC= 2.35D+00 BMatP= 2.35D+00
 IDIUse=3 WtCom= 6.77D-01 WtEn= 3.23D-01
 Coeff-Com:  0.100D+01
 Coeff-En:   0.100D+01
 Coeff:      0.100D+01
 Gap=     0.097 Goal=   None    Shift=    0.000
 Gap=     0.097 Goal=   None    Shift=    0.000
 GapD=    0.097 DampG=0.500 DampE=0.500 DampFc=0.2500 IDamp=-1.
 Damping current iteration by 2.50D-01
 RMSDP=7.73D-01 MaxDP=5.51D+01              OVMax= 9.91D-01

 Cycle   2  Pass 1  IDiag  1:
 RMSU=  1.72D-01    CP:  2.42D+00
 E= -669.101279270025     Delta-E=       -0.130304398659 Rises=F Damp=T
 DIIS: error= 1.54D-02 at cycle   2 NSaved=   2.
 NSaved= 2 IEnMin= 2 EnMin= -669.101279270025     IErMin= 2 ErrMin= 1.54D-02
 ErrMax= 1.54D-02  0.00D+00 EMaxC= 1.00D-01 BMatC= 4.18D-01 BMatP= 2.35D+00
 IDIUse=3 WtCom= 8.46D-01 WtEn= 1.54D-01
 Coeff-Com: -0.391D+00 0.139D+01
 Coeff-En:   0.142D+00 0.858D+00
 Coeff:     -0.309D+00 0.131D+01
 Gap=    -0.019 Goal=   None    Shift=    0.000
 Gap=    -0.019 Goal=   None    Shift=    0.000
 RMSDP=1.97D-01 MaxDP=1.45D+01 DE=-1.30D-01 OVMax= 8.49D-01

 Cycle   3  Pass 1  IDiag  1:
 RMSU=  7.96D-03    CP:  8.84D-01 -3.24D-03
 E= -669.356052776330     Delta-E=       -0.254773506305 Rises=F Damp=F
 DIIS: error= 2.76D-02 at cycle   3 NSaved=   3.
 NSaved= 3 IEnMin= 3 EnMin= -669.356052776330     IErMin= 2 ErrMin= 1.54D-02
 ErrMax= 2.76D-02  0.00D+00 EMaxC= 1.00D-01 BMatC= 6.87D-01 BMatP= 4.18D-01
 IDIUse=2 WtCom= 0.00D+00 WtEn= 1.00D+00
 Coeff-En:   0.000D+00 0.000D+00 0.100D+01
 Coeff:      0.000D+00 0.000D+00 0.100D+01
 Gap=     0.068 Goal=   None    Shift=    0.000
 Gap=     0.068 Goal=   None    Shift=    0.000
 RMSDP=1.20D-01 MaxDP=1.55D+01 DE=-2.55D-01 OVMax= 5.71D-01

 Cycle   4  Pass 1  IDiag  1:
 RMSU=  7.95D-02    CP:  2.26D+00  1.15D-01  2.65D+00
 E= -668.494784075217     Delta-E=        0.861268701113 Rises=F Damp=F
 DIIS: error= 6.95D-02 at cycle   4 NSaved=   4.
 NSaved= 4 IEnMin= 3 EnMin= -669.356052776330     IErMin= 2 ErrMin= 1.54D-02
 ErrMax= 6.95D-02  0.00D+00 EMaxC= 1.00D-01 BMatC= 4.50D+00 BMatP= 4.18D-01
 IDIUse=2 WtCom= 0.00D+00 WtEn= 1.00D+00
 Coeff-En:   0.000D+00 0.000D+00 0.825D+00 0.175D+00
 Coeff:      0.000D+00 0.000D+00 0.825D+00 0.175D+00
 Gap=     0.053 Goal=   None    Shift=    0.000
 Gap=     0.053 Goal=   None    Shift=    0.000
 RMSDP=1.06D-01 MaxDP=1.43D+01 DE= 8.61D-01 OVMax= 4.37D-01

 Cycle   5  Pass 1  IDiag  1:
 RMSU=  1.02D-02    CP:  9.52D-01  1.98D-02  1.09D+00  2.12D-01
 E= -669.427281245058     Delta-E=       -0.932497169841 Rises=F Damp=F
 DIIS: error= 2.12D-02 at cycle   5 NSaved=   5.
 NSaved= 5 IEnMin= 5 EnMin= -669.427281245058     IErMin= 2 ErrMin= 1.54D-02
 ErrMax= 2.12D-02  0.00D+00 EMaxC= 1.00D-01 BMatC= 3.84D-01 BMatP= 4.18D-01
 IDIUse=3 WtCom= 7.88D-01 WtEn= 2.12D-01
 Coeff-Com: -0.458D-01 0.130D+00 0.403D+00-0.120D-01 0.525D+00
 Coeff-En:   0.000D+00 0.000D+00 0.376D+00 0.000D+00 0.624D+00
 Coeff:     -0.360D-01 0.102D+00 0.398D+00-0.945D-02 0.546D+00
 Gap=     0.098 Goal=   None    Shift=    0.000
 Gap=     0.098 Goal=   None    Shift=    0.000
 RMSDP=1.48D-02 MaxDP=2.33D+00 DE=-9.32D-01 OVMax= 8.02D-02

 Cycle   6  Pass 1  IDiag  1:
 RMSU=  3.95D-03    CP:  7.98D-01  7.54D-03  8.14D-01  9.70D-02  5.79D-01
 E= -669.501302982594     Delta-E=       -0.074021737536 Rises=F Damp=F
 DIIS: error= 3.08D-03 at cycle   6 NSaved=   6.
 NSaved= 6 IEnMin= 6 EnMin= -669.501302982594     IErMin= 6 ErrMin= 3.08D-03
 ErrMax= 3.08D-03  0.00D+00 EMaxC= 1.00D-01 BMatC= 1.76D-02 BMatP= 3.84D-01
 IDIUse=3 WtCom= 9.69D-01 WtEn= 3.08D-02
 Coeff-Com: -0.308D-01 0.650D-01 0.210D+00-0.318D-01 0.382D+00 0.406D+00
 Coeff-En:   0.000D+00 0.000D+00 0.000D+00 0.000D+00 0.000D+00 0.100D+01
 Coeff:     -0.298D-01 0.630D-01 0.203D+00-0.309D-01 0.370D+00 0.424D+00
 Gap=     0.099 Goal=   None    Shift=    0.000
 Gap=     0.099 Goal=   None    Shift=    0.000
 RMSDP=1.73D-03 MaxDP=2.18D-01 DE=-7.40D-02 OVMax= 3.72D-02

 Cycle   7  Pass 1  IDiag  1:
 RMSU=  6.73D-04    CP:  8.00D-01  8.30D-03  8.37D-01  1.05D-01  6.65D-01
                    CP:  7.06D-01
 E= -669.505444686108     Delta-E=       -0.004141703514 Rises=F Damp=F
 DIIS: error= 6.20D-04 at cycle   7 NSaved=   7.
 NSaved= 7 IEnMin= 7 EnMin= -669.505444686108     IErMin= 7 ErrMin= 6.20D-04
 ErrMax= 6.20D-04  0.00D+00 EMaxC= 1.00D-01 BMatC= 6.54D-04 BMatP= 1.76D-02
 IDIUse=3 WtCom= 9.94D-01 WtEn= 6.20D-03
 Coeff-Com: -0.733D-02 0.112D-01 0.520D-01-0.117D-01 0.107D+00 0.198D+00
 Coeff-Com:  0.650D+00
 Coeff-En:   0.000D+00 0.000D+00 0.000D+00 0.000D+00 0.000D+00 0.000D+00
 Coeff-En:   0.100D+01
 Coeff:     -0.728D-02 0.111D-01 0.517D-01-0.117D-01 0.107D+00 0.197D+00
 Coeff:      0.652D+00
 Gap=     0.098 Goal=   None    Shift=    0.000
 Gap=     0.098 Goal=   None    Shift=    0.000
 RMSDP=8.30D-04 MaxDP=1.58D-01 DE=-4.14D-03 OVMax= 5.86D-03

 Cycle   8  Pass 1  IDiag  1:
 RMSU=  3.62D-04    CP:  7.91D-01  8.65D-03  8.31D-01  1.04D-01  6.60D-01
                    CP:  8.19D-01  8.66D-01
 E= -669.505560354743     Delta-E=       -0.000115668636 Rises=F Damp=F
 DIIS: error= 2.47D-04 at cycle   8 NSaved=   8.
 NSaved= 8 IEnMin= 8 EnMin= -669.505560354743     IErMin= 8 ErrMin= 2.47D-04
 ErrMax= 2.47D-04  0.00D+00 EMaxC= 1.00D-01 BMatC= 1.40D-04 BMatP= 6.54D-04
 IDIUse=3 WtCom= 9.98D-01 WtEn= 2.47D-03
 Coeff-Com:  0.310D-03-0.162D-02 0.317D-03-0.124D-03-0.308D-02 0.429D-01
 Coeff-Com:  0.373D+00 0.588D+00
 Coeff-En:   0.000D+00 0.000D+00 0.000D+00 0.000D+00 0.000D+00 0.000D+00
 Coeff-En:   0.162D+00 0.838D+00
 Coeff:      0.309D-03-0.161D-02 0.316D-03-0.124D-03-0.308D-02 0.428D-01
 Coeff:      0.372D+00 0.589D+00
 Gap=     0.099 Goal=   None    Shift=    0.000
 Gap=     0.099 Goal=   None    Shift=    0.000
 RMSDP=1.79D-04 MaxDP=1.24D-02 DE=-1.16D-04 OVMax= 2.73D-03

 Cycle   9  Pass 1  IDiag  1:
 RMSU=  1.15D-04    CP:  7.89D-01  8.65D-03  8.34D-01  1.03D-01  6.57D-01
                    CP:  8.09D-01  9.38D-01  9.24D-01
 E= -669.505592606780     Delta-E=       -0.000032252037 Rises=F Damp=F
 DIIS: error= 1.05D-04 at cycle   9 NSaved=   9.
 NSaved= 9 IEnMin= 9 EnMin= -669.505592606780     IErMin= 9 ErrMin= 1.05D-04
 ErrMax= 1.05D-04  0.00D+00 EMaxC= 1.00D-01 BMatC= 1.57D-05 BMatP= 1.40D-04
 IDIUse=3 WtCom= 9.99D-01 WtEn= 1.05D-03
 Coeff-Com:  0.463D-03-0.112D-02-0.105D-02 0.180D-03-0.436D-02 0.236D-01
 Coeff-Com:  0.211D+00 0.368D+00 0.404D+00
 Coeff-En:   0.000D+00 0.000D+00 0.000D+00 0.000D+00 0.000D+00 0.000D+00
 Coeff-En:   0.000D+00 0.000D+00 0.100D+01
 Coeff:      0.462D-03-0.112D-02-0.104D-02 0.180D-03-0.436D-02 0.236D-01
 Coeff:      0.210D+00 0.367D+00 0.404D+00
 Gap=     0.099 Goal=   None    Shift=    0.000
 Gap=     0.099 Goal=   None    Shift=    0.000
 RMSDP=7.14D-05 MaxDP=1.08D-02 DE=-3.23D-05 OVMax= 1.13D-03

 Cycle  10  Pass 1  IDiag  1:
 RMSU=  3.22D-05    CP:  7.89D-01  8.61D-03  8.32D-01  1.03D-01  6.54D-01
                    CP:  8.19D-01  9.24D-01  9.77D-01  7.79D-01
 E= -669.505596147096     Delta-E=       -0.000003540316 Rises=F Damp=F
 DIIS: error= 2.48D-05 at cycle  10 NSaved=  10.
 NSaved=10 IEnMin=10 EnMin= -669.505596147096     IErMin=10 ErrMin= 2.48D-05
 ErrMax= 2.48D-05  0.00D+00 EMaxC= 1.00D-01 BMatC= 8.98D-07 BMatP= 1.57D-05
 IDIUse=1 WtCom= 1.00D+00 WtEn= 0.00D+00
 Coeff-Com:  0.407D-03-0.540D-03-0.997D-03 0.926D-04-0.204D-02 0.611D-02
 Coeff-Com:  0.441D-01 0.852D-01 0.189D+00 0.678D+00
 Coeff:      0.407D-03-0.540D-03-0.997D-03 0.926D-04-0.204D-02 0.611D-02
 Coeff:      0.441D-01 0.852D-01 0.189D+00 0.678D+00
 Gap=     0.099 Goal=   None    Shift=    0.000
 Gap=     0.099 Goal=   None    Shift=    0.000
 RMSDP=3.18D-05 MaxDP=2.99D-03 DE=-3.54D-06 OVMax= 2.56D-04

 Cycle  11  Pass 1  IDiag  1:
 RMSU=  1.33D-05    CP:  7.89D-01  8.62D-03  8.32D-01  1.03D-01  6.53D-01
                    CP:  8.21D-01  9.22D-01  9.98D-01  9.33D-01  8.00D-01
 E= -669.505596358300     Delta-E=       -0.000000211204 Rises=F Damp=F
 DIIS: error= 8.51D-06 at cycle  11 NSaved=  11.
 NSaved=11 IEnMin=11 EnMin= -669.505596358300     IErMin=11 ErrMin= 8.51D-06
 ErrMax= 8.51D-06  0.00D+00 EMaxC= 1.00D-01 BMatC= 1.18D-07 BMatP= 8.98D-07
 IDIUse=1 WtCom= 1.00D+00 WtEn= 0.00D+00
 Coeff-Com:  0.211D-03-0.245D-03-0.405D-03 0.132D-04-0.616D-03 0.218D-02
 Coeff-Com:  0.109D-01 0.209D-01 0.717D-01 0.366D+00 0.529D+00
 Coeff:      0.211D-03-0.245D-03-0.405D-03 0.132D-04-0.616D-03 0.218D-02
 Coeff:      0.109D-01 0.209D-01 0.717D-01 0.366D+00 0.529D+00
 Gap=     0.099 Goal=   None    Shift=    0.000
 Gap=     0.099 Goal=   None    Shift=    0.000
 RMSDP=9.01D-06 MaxDP=1.17D-03 DE=-2.11D-07 OVMax= 7.32D-05

 Cycle  12  Pass 1  IDiag  1:
 RMSU=  2.40D-06    CP:  7.89D-01  8.62D-03  8.31D-01  1.03D-01  6.53D-01
                    CP:  8.22D-01  9.21D-01  1.01D+00  9.28D-01  8.98D-01
                    CP:  1.02D+00
 E= -669.505596387210     Delta-E=       -0.000000028910 Rises=F Damp=F
 DIIS: error= 2.68D-06 at cycle  12 NSaved=  12.
 NSaved=12 IEnMin=12 EnMin= -669.505596387210     IErMin=12 ErrMin= 2.68D-06
 ErrMax= 2.68D-06  0.00D+00 EMaxC= 1.00D-01 BMatC= 1.07D-08 BMatP= 1.18D-07
 IDIUse=1 WtCom= 1.00D+00 WtEn= 0.00D+00
 Coeff-Com:  0.736D-04-0.995D-04-0.510D-04-0.376D-05-0.195D-04 0.198D-03
 Coeff-Com: -0.936D-05-0.130D-02 0.917D-02 0.674D-01 0.248D+00 0.677D+00
 Coeff:      0.736D-04-0.995D-04-0.510D-04-0.376D-05-0.195D-04 0.198D-03
 Coeff:     -0.936D-05-0.130D-02 0.917D-02 0.674D-01 0.248D+00 0.677D+00
 Gap=     0.099 Goal=   None    Shift=    0.000
 Gap=     0.099 Goal=   None    Shift=    0.000
 RMSDP=4.30D-06 MaxDP=4.23D-04 DE=-2.89D-08 OVMax= 1.96D-05

 Cycle  13  Pass 1  IDiag  1:
 RMSU=  1.12D-06    CP:  7.89D-01  8.62D-03  8.31D-01  1.03D-01  6.53D-01
                    CP:  8.22D-01  9.21D-01  1.01D+00  9.40D-01  9.00D-01
                    CP:  1.07D+00  1.33D+00
 E= -669.505596389450     Delta-E=       -0.000000002240 Rises=F Damp=F
 DIIS: error= 1.49D-06 at cycle  13 NSaved=  13.
 NSaved=13 IEnMin=13 EnMin= -669.505596389450     IErMin=13 ErrMin= 1.49D-06
 ErrMax= 1.49D-06  0.00D+00 EMaxC= 1.00D-01 BMatC= 2.12D-09 BMatP= 1.07D-08
 IDIUse=1 WtCom= 1.00D+00 WtEn= 0.00D+00
 Coeff-Com:  0.215D-04-0.304D-04 0.162D-04-0.575D-05 0.511D-04-0.937D-04
 Coeff-Com: -0.895D-03-0.292D-02-0.957D-03 0.580D-03 0.959D-01 0.383D+00
 Coeff-Com:  0.526D+00
 Coeff:      0.215D-04-0.304D-04 0.162D-04-0.575D-05 0.511D-04-0.937D-04
 Coeff:     -0.895D-03-0.292D-02-0.957D-03 0.580D-03 0.959D-01 0.383D+00
 Coeff:      0.526D+00
 Gap=     0.099 Goal=   None    Shift=    0.000
 Gap=     0.099 Goal=   None    Shift=    0.000
 RMSDP=1.29D-06 MaxDP=1.53D-04 DE=-2.24D-09 OVMax= 7.85D-06

 Cycle  14  Pass 1  IDiag  1:
 RMSU=  3.16D-07    CP:  7.89D-01  8.62D-03  8.31D-01  1.03D-01  6.53D-01
                    CP:  8.22D-01  9.21D-01  1.01D+00  9.44D-01  9.08D-01
                    CP:  1.10D+00  1.38D+00  1.01D+00
 E= -669.505596389991     Delta-E=       -0.000000000541 Rises=F Damp=F
 DIIS: error= 3.37D-07 at cycle  14 NSaved=  14.
 NSaved=14 IEnMin=14 EnMin= -669.505596389991     IErMin=14 ErrMin= 3.37D-07
 ErrMax= 3.37D-07  0.00D+00 EMaxC= 1.00D-01 BMatC= 2.28D-10 BMatP= 2.12D-09
 IDIUse=1 WtCom= 1.00D+00 WtEn= 0.00D+00
 Coeff-Com:  0.501D-06-0.213D-05 0.150D-04-0.192D-05 0.179D-04-0.670D-04
 Coeff-Com: -0.192D-03-0.909D-03-0.105D-02-0.115D-01 0.535D-02 0.566D-01
 Coeff-Com:  0.252D+00 0.700D+00
 Coeff:      0.501D-06-0.213D-05 0.150D-04-0.192D-05 0.179D-04-0.670D-04
 Coeff:     -0.192D-03-0.909D-03-0.105D-02-0.115D-01 0.535D-02 0.566D-01
 Coeff:      0.252D+00 0.700D+00
 Gap=     0.099 Goal=   None    Shift=    0.000
 Gap=     0.099 Goal=   None    Shift=    0.000
 RMSDP=5.97D-07 MaxDP=5.51D-05 DE=-5.41D-10 OVMax= 4.28D-06

 Cycle  15  Pass 1  IDiag  1:
 RMSU=  1.47D-07    CP:  7.89D-01  8.62D-03  8.31D-01  1.03D-01  6.53D-01
                    CP:  8.22D-01  9.21D-01  1.01D+00  9.46D-01  9.07D-01
                    CP:  1.12D+00  1.43D+00  1.07D+00  1.25D+00
 E= -669.505596390063     Delta-E=       -0.000000000072 Rises=F Damp=F
 DIIS: error= 5.40D-08 at cycle  15 NSaved=  15.
 NSaved=15 IEnMin=15 EnMin= -669.505596390063     IErMin=15 ErrMin= 5.40D-08
 ErrMax= 5.40D-08  0.00D+00 EMaxC= 1.00D-01 BMatC= 9.73D-12 BMatP= 2.28D-10
 IDIUse=1 WtCom= 1.00D+00 WtEn= 0.00D+00
 Coeff-Com: -0.934D-06 0.108D-05 0.423D-05-0.457D-06 0.324D-05-0.184D-04
 Coeff-Com: -0.302D-04-0.200D-03-0.221D-03-0.428D-02-0.188D-02-0.221D-03
 Coeff-Com:  0.584D-01 0.261D+00 0.688D+00
 Coeff:     -0.934D-06 0.108D-05 0.423D-05-0.457D-06 0.324D-05-0.184D-04
 Coeff:     -0.302D-04-0.200D-03-0.221D-03-0.428D-02-0.188D-02-0.221D-03
 Coeff:      0.584D-01 0.261D+00 0.688D+00
 Gap=     0.099 Goal=   None    Shift=    0.000
 Gap=     0.099 Goal=   None    Shift=    0.000
 RMSDP=9.83D-08 MaxDP=8.70D-06 DE=-7.15D-11 OVMax= 1.23D-06

 Cycle  16  Pass 1  IDiag  1:
 RMSU=  3.39D-08    CP:  7.89D-01  8.62D-03  8.31D-01  1.03D-01  6.53D-01
                    CP:  8.22D-01  9.21D-01  1.01D+00  9.46D-01  9.07D-01
                    CP:  1.12D+00  1.44D+00  1.10D+00  1.36D+00  1.15D+00
 E= -669.505596390043     Delta-E=        0.000000000020 Rises=F Damp=F
 DIIS: error= 3.76D-08 at cycle  16 NSaved=  16.
 NSaved=16 IEnMin=15 EnMin= -669.505596390063     IErMin=16 ErrMin= 3.76D-08
 ErrMax= 3.76D-08  0.00D+00 EMaxC= 1.00D-01 BMatC= 3.24D-12 BMatP= 9.73D-12
 IDIUse=1 WtCom= 1.00D+00 WtEn= 0.00D+00
 Coeff-Com: -0.389D-06 0.595D-06-0.187D-06 0.115D-06-0.122D-05 0.552D-06
 Coeff-Com:  0.116D-04 0.262D-04 0.922D-04-0.663D-03-0.134D-02-0.849D-02
 Coeff-Com: -0.603D-02 0.482D-01 0.407D+00 0.561D+00
 Coeff:     -0.389D-06 0.595D-06-0.187D-06 0.115D-06-0.122D-05 0.552D-06
 Coeff:      0.116D-04 0.262D-04 0.922D-04-0.663D-03-0.134D-02-0.849D-02
 Coeff:     -0.603D-02 0.482D-01 0.407D+00 0.561D+00
 Gap=     0.099 Goal=   None    Shift=    0.000
 Gap=     0.099 Goal=   None    Shift=    0.000
 RMSDP=4.43D-08 MaxDP=3.01D-06 DE= 1.97D-11 OVMax= 6.67D-07

 Cycle  17  Pass 1  IDiag  1:
 RMSU=  1.40D-08    CP:  7.89D-01  8.62D-03  8.31D-01  1.03D-01  6.53D-01
                    CP:  8.22D-01  9.21D-01  1.01D+00  9.46D-01  9.07D-01
                    CP:  1.12D+00  1.44D+00  1.11D+00  1.39D+00  1.25D+00
                    CP:  1.29D+00
 E= -669.505596390042     Delta-E=        0.000000000001 Rises=F Damp=F
 DIIS: error= 8.10D-09 at cycle  17 NSaved=  17.
 NSaved=17 IEnMin=15 EnMin= -669.505596390063     IErMin=17 ErrMin= 8.10D-09
 ErrMax= 8.10D-09  0.00D+00 EMaxC= 1.00D-01 BMatC= 1.92D-13 BMatP= 3.24D-12
 IDIUse=1 WtCom= 1.00D+00 WtEn= 0.00D+00
 Coeff-Com: -0.857D-07 0.160D-06-0.319D-06 0.822D-07-0.287D-06 0.109D-05
 Coeff-Com: -0.615D-06 0.136D-04 0.572D-04 0.322D-04-0.177D-03-0.275D-02
 Coeff-Com: -0.730D-02-0.383D-02 0.720D-01 0.209D+00 0.733D+00
 Coeff:     -0.857D-07 0.160D-06-0.319D-06 0.822D-07-0.287D-06 0.109D-05
 Coeff:     -0.615D-06 0.136D-04 0.572D-04 0.322D-04-0.177D-03-0.275D-02
 Coeff:     -0.730D-02-0.383D-02 0.720D-01 0.209D+00 0.733D+00
 Gap=     0.099 Goal=   None    Shift=    0.000
 Gap=     0.099 Goal=   None    Shift=    0.000
 RMSDP=1.72D-08 MaxDP=1.56D-06 DE= 5.68D-13 OVMax= 2.62D-07

 Cycle  18  Pass 1  IDiag  1:
 RMSU=  3.74D-09    CP:  7.89D-01  8.62D-03  8.31D-01  1.03D-01  6.53D-01
                    CP:  8.22D-01  9.21D-01  1.01D+00  9.46D-01  9.07D-01
                    CP:  1.12D+00  1.45D+00  1.12D+00  1.41D+00  1.31D+00
                    CP:  1.48D+00  1.23D+00
 E= -669.505596390062     Delta-E=       -0.000000000020 Rises=F Damp=F
 DIIS: error= 5.41D-09 at cycle  18 NSaved=  18.
 NSaved=18 IEnMin=15 EnMin= -669.505596390063     IErMin=18 ErrMin= 5.41D-09
 ErrMax= 5.41D-09  0.00D+00 EMaxC= 1.00D-01 BMatC= 4.59D-14 BMatP= 1.92D-13
 IDIUse=1 WtCom= 1.00D+00 WtEn= 0.00D+00
 Coeff-Com:  0.411D-07-0.533D-07-0.204D-06 0.277D-07-0.197D-08 0.515D-06
 Coeff-Com: -0.108D-05 0.543D-05 0.275D-04 0.124D-03 0.167D-03-0.138D-03
 Coeff-Com: -0.346D-02-0.108D-01-0.334D-01 0.282D-01 0.411D+00 0.608D+00
 Coeff:      0.411D-07-0.533D-07-0.204D-06 0.277D-07-0.197D-08 0.515D-06
 Coeff:     -0.108D-05 0.543D-05 0.275D-04 0.124D-03 0.167D-03-0.138D-03
 Coeff:     -0.346D-02-0.108D-01-0.334D-01 0.282D-01 0.411D+00 0.608D+00
 Gap=     0.099 Goal=   None    Shift=    0.000
 Gap=     0.099 Goal=   None    Shift=    0.000
 RMSDP=8.04D-09 MaxDP=1.11D-06 DE=-2.00D-11 OVMax= 1.03D-07

 Cycle  19  Pass 1  IDiag  1:
 RMSU=  1.22D-09    CP:  7.89D-01  8.62D-03  8.31D-01  1.03D-01  6.53D-01
                    CP:  8.22D-01  9.21D-01  1.01D+00  9.46D-01  9.07D-01
                    CP:  1.12D+00  1.45D+00  1.12D+00  1.41D+00  1.33D+00
                    CP:  1.56D+00  1.36D+00  1.14D+00
 E= -669.505596390039     Delta-E=        0.000000000023 Rises=F Damp=F
 DIIS: error= 1.01D-09 at cycle  19 NSaved=  19.
 NSaved=19 IEnMin=15 EnMin= -669.505596390063     IErMin=19 ErrMin= 1.01D-09
 ErrMax= 1.01D-09  0.00D+00 EMaxC= 1.00D-01 BMatC= 2.59D-15 BMatP= 4.59D-14
 IDIUse=1 WtCom= 1.00D+00 WtEn= 0.00D+00
 Large coefficients: NSaved= 19 BigCof=    0.00 CofMax=   10.00 Det=-6.64D-15
 Inversion failed.  Reducing to 18 matrices.
 Large coefficients: NSaved= 18 BigCof=    0.00 CofMax=   10.00 Det=-7.01D-15
 Inversion failed.  Reducing to 17 matrices.
 Coeff-Com:  0.814D-08 0.103D-07 0.516D-07-0.735D-07-0.345D-06-0.881D-07
 Coeff-Com:  0.287D-05 0.885D-05 0.208D-04 0.525D-04-0.589D-03-0.263D-02
 Coeff-Com: -0.170D-01-0.555D-02 0.556D-01 0.174D+00 0.796D+00
 Coeff:      0.814D-08 0.103D-07 0.516D-07-0.735D-07-0.345D-06-0.881D-07
 Coeff:      0.287D-05 0.885D-05 0.208D-04 0.525D-04-0.589D-03-0.263D-02
 Coeff:     -0.170D-01-0.555D-02 0.556D-01 0.174D+00 0.796D+00
 Gap=     0.099 Goal=   None    Shift=    0.000
 Gap=     0.099 Goal=   None    Shift=    0.000
 RMSDP=3.30D-09 MaxDP=4.40D-07 DE= 2.33D-11 OVMax= 3.36D-08

 Error on total polarization charges =  0.03177
 SCF Done:  E(UB3LYP) =  -669.505596390     A.U. after   19 cycles
            NFock= 19  Conv=0.33D-08     -V/T= 2.0044
 <Sx>= 0.0000 <Sy>= 0.0000 <Sz>= 0.0000 <S**2>=-0.0000 S=-0.0000
 <L.S>=  0.00000000000    
 KE= 6.666044481738D+02 PE=-3.469770183477D+03 EE= 1.196121557860D+03
 Annihilation of the first spin contaminant:
 S**2 before annihilation    -0.0000,   after    -0.0000
 Leave Link  502 at Sun Feb 11 02:21:54 2024, MaxMem=  4026531840 cpu:            2294.6 elap:             292.3
 (Enter /sysapps/ubuntu-applications/gaussian/Gaussian/AVX2/g16/l601.exe)
 Copying SCF densities to generalized density rwf, IOpCl= 1 IROHF=0.

 **********************************************************************

            Population analysis using the SCF density.

 **********************************************************************

 Alpha  occ. eigenvalues --  -19.01280 -19.00863 -14.29344 -10.17326 -10.16600
 Alpha  occ. eigenvalues --  -10.16163 -10.16132 -10.15493 -10.14564 -10.14354
 Alpha  occ. eigenvalues --  -10.14180 -10.13968 -10.13052 -10.12875 -10.11261
 Alpha  occ. eigenvalues --   -0.93303  -0.92784  -0.89951  -0.81907  -0.75495
 Alpha  occ. eigenvalues --   -0.71695  -0.70037  -0.68940  -0.64514  -0.60997
 Alpha  occ. eigenvalues --   -0.57823  -0.55356  -0.52111  -0.47660  -0.47444
 Alpha  occ. eigenvalues --   -0.44710  -0.43646  -0.42731  -0.41681  -0.39661
 Alpha  occ. eigenvalues --   -0.38863  -0.37839  -0.37182  -0.36438  -0.36110
 Alpha  occ. eigenvalues --   -0.35342  -0.34634  -0.33996  -0.31466  -0.31309
 Alpha  occ. eigenvalues --   -0.31130  -0.29824  -0.24250  -0.22452  -0.21691
 Alpha  occ. eigenvalues --   -0.19438  -0.18741  -0.18007  -0.10213
 Alpha virt. eigenvalues --   -0.00330   0.00022   0.00723   0.01582   0.01959
 Alpha virt. eigenvalues --    0.02557   0.02684   0.03183   0.04644   0.04888
 Alpha virt. eigenvalues --    0.04985   0.05557   0.05716   0.06835   0.07563
 Alpha virt. eigenvalues --    0.07636   0.08114   0.08868   0.09395   0.10180
 Alpha virt. eigenvalues --    0.10638   0.10781   0.11097   0.11298   0.11666
 Alpha virt. eigenvalues --    0.12082   0.12652   0.12769   0.13201   0.13384
 Alpha virt. eigenvalues --    0.13959   0.14169   0.14677   0.15167   0.15296
 Alpha virt. eigenvalues --    0.15867   0.15921   0.16625   0.16894   0.17153
 Alpha virt. eigenvalues --    0.17273   0.17636   0.18033   0.18360   0.19402
 Alpha virt. eigenvalues --    0.20062   0.20551   0.21132   0.21643   0.22055
 Alpha virt. eigenvalues --    0.22232   0.22305   0.22832   0.23609   0.24171
 Alpha virt. eigenvalues --    0.24576   0.25209   0.25711   0.26163   0.26681
 Alpha virt. eigenvalues --    0.27160   0.27336   0.27629   0.28041   0.28700
 Alpha virt. eigenvalues --    0.29160   0.30010   0.30320   0.30706   0.31058
 Alpha virt. eigenvalues --    0.31281   0.32021   0.32197   0.32593   0.32853
 Alpha virt. eigenvalues --    0.33631   0.34550   0.34804   0.34904   0.35307
 Alpha virt. eigenvalues --    0.35542   0.35764   0.36196   0.36734   0.37286
 Alpha virt. eigenvalues --    0.37983   0.39095   0.40271   0.41050   0.41430
 Alpha virt. eigenvalues --    0.43157   0.44026   0.44661   0.45833   0.47100
 Alpha virt. eigenvalues --    0.50191   0.51999   0.53273   0.54100   0.55491
 Alpha virt. eigenvalues --    0.55916   0.56936   0.57234   0.58023   0.59119
 Alpha virt. eigenvalues --    0.60549   0.61135   0.61733   0.62285   0.62637
 Alpha virt. eigenvalues --    0.63162   0.64415   0.65885   0.66159   0.66719
 Alpha virt. eigenvalues --    0.67327   0.67781   0.68783   0.68959   0.69655
 Alpha virt. eigenvalues --    0.69912   0.70797   0.71424   0.72235   0.74426
 Alpha virt. eigenvalues --    0.75063   0.75292   0.76085   0.76842   0.78306
 Alpha virt. eigenvalues --    0.79167   0.80445   0.81205   0.81833   0.82404
 Alpha virt. eigenvalues --    0.84555   0.85405   0.85691   0.87717   0.88877
 Alpha virt. eigenvalues --    0.90775   0.91487   0.93055   0.93907   0.95103
 Alpha virt. eigenvalues --    0.95676   0.96336   0.96603   0.97946   0.98469
 Alpha virt. eigenvalues --    0.99515   1.02051   1.02478   1.03709   1.05036
 Alpha virt. eigenvalues --    1.06549   1.08249   1.09512   1.10892   1.11471
 Alpha virt. eigenvalues --    1.12343   1.13227   1.14405   1.15151   1.16836
 Alpha virt. eigenvalues --    1.18059   1.18979   1.20126   1.25392   1.26782
 Alpha virt. eigenvalues --    1.28066   1.29229   1.30214   1.31043   1.31840
 Alpha virt. eigenvalues --    1.34489   1.35433   1.36068   1.37606   1.41136
 Alpha virt. eigenvalues --    1.44367   1.47581   1.50110   1.51804   1.52736
 Alpha virt. eigenvalues --    1.53389   1.54244   1.55065   1.56000   1.57501
 Alpha virt. eigenvalues --    1.58906   1.59201   1.60014   1.60311   1.60952
 Alpha virt. eigenvalues --    1.63804   1.64592   1.65731   1.66689   1.68239
 Alpha virt. eigenvalues --    1.69780   1.71325   1.72356   1.73417   1.74125
 Alpha virt. eigenvalues --    1.76130   1.76571   1.78282   1.80197   1.80664
 Alpha virt. eigenvalues --    1.81826   1.82497   1.85680   1.86758   1.88383
 Alpha virt. eigenvalues --    1.88984   1.90229   1.92583   1.93512   1.93886
 Alpha virt. eigenvalues --    1.95882   1.98373   1.99245   2.00299   2.01039
 Alpha virt. eigenvalues --    2.02679   2.04300   2.05213   2.05808   2.06674
 Alpha virt. eigenvalues --    2.07987   2.10940   2.11180   2.13029   2.16617
 Alpha virt. eigenvalues --    2.18431   2.21259   2.22636   2.24157   2.25403
 Alpha virt. eigenvalues --    2.26000   2.33185   2.33887   2.34928   2.40757
 Alpha virt. eigenvalues --    2.41813   2.42143   2.44114   2.46552   2.48974
 Alpha virt. eigenvalues --    2.50147   2.52108   2.52908   2.57941   2.58263
 Alpha virt. eigenvalues --    2.59071   2.60522   2.63505   2.64338   2.67624
 Alpha virt. eigenvalues --    2.67917   2.68834   2.69952   2.72365   2.73540
 Alpha virt. eigenvalues --    2.74994   2.76499   2.76841   2.78214   2.79390
 Alpha virt. eigenvalues --    2.79943   2.80882   2.81996   2.83040   2.85013
 Alpha virt. eigenvalues --    2.85989   2.88675   2.88910   2.91146   2.92559
 Alpha virt. eigenvalues --    2.92853   2.95142   2.98094   2.98962   3.00054
 Alpha virt. eigenvalues --    3.01445   3.03977   3.04545   3.09223   3.12293
 Alpha virt. eigenvalues --    3.14104   3.19507   3.22451   3.23390   3.25699
 Alpha virt. eigenvalues --    3.30565   3.32359   3.36761   3.36881   3.38855
 Alpha virt. eigenvalues --    3.39697   3.44731   3.47440   3.52596   3.55797
 Alpha virt. eigenvalues --    3.56703   3.58216   3.61380   3.62014   3.67097
 Alpha virt. eigenvalues --    3.74259   3.76734   3.78133   3.83518   3.84075
 Alpha virt. eigenvalues --    3.87297   3.88802   3.98434   4.06795   4.09641
 Alpha virt. eigenvalues --    4.16864   4.22907   4.26659   4.34717   4.43002
 Alpha virt. eigenvalues --    4.84929   4.86490   4.90344   5.04372   5.14741
 Alpha virt. eigenvalues --    5.17365   5.30899   5.36823   5.80208   5.87128
 Alpha virt. eigenvalues --   23.60184  23.84314  23.95158  23.95964  23.97719
 Alpha virt. eigenvalues --   23.98733  23.99977  24.00429  24.04243  24.14258
 Alpha virt. eigenvalues --   24.14730  24.20872  35.61841  50.09946  50.14512
  Beta  occ. eigenvalues --  -19.01280 -19.00863 -14.29344 -10.17326 -10.16600
  Beta  occ. eigenvalues --  -10.16163 -10.16132 -10.15493 -10.14564 -10.14354
  Beta  occ. eigenvalues --  -10.14180 -10.13968 -10.13052 -10.12875 -10.11261
  Beta  occ. eigenvalues --   -0.93303  -0.92784  -0.89951  -0.81907  -0.75495
  Beta  occ. eigenvalues --   -0.71695  -0.70037  -0.68940  -0.64514  -0.60997
  Beta  occ. eigenvalues --   -0.57823  -0.55356  -0.52111  -0.47660  -0.47444
  Beta  occ. eigenvalues --   -0.44710  -0.43646  -0.42731  -0.41681  -0.39661
  Beta  occ. eigenvalues --   -0.38863  -0.37839  -0.37182  -0.36438  -0.36110
  Beta  occ. eigenvalues --   -0.35342  -0.34634  -0.33996  -0.31466  -0.31309
  Beta  occ. eigenvalues --   -0.31130  -0.29824  -0.24250  -0.22452  -0.21691
  Beta  occ. eigenvalues --   -0.19438  -0.18741  -0.18007  -0.10213
  Beta virt. eigenvalues --   -0.00330   0.00022   0.00723   0.01582   0.01959
  Beta virt. eigenvalues --    0.02557   0.02684   0.03183   0.04644   0.04888
  Beta virt. eigenvalues --    0.04985   0.05557   0.05716   0.06835   0.07563
  Beta virt. eigenvalues --    0.07636   0.08114   0.08868   0.09395   0.10180
  Beta virt. eigenvalues --    0.10638   0.10781   0.11097   0.11298   0.11666
  Beta virt. eigenvalues --    0.12082   0.12652   0.12769   0.13201   0.13384
  Beta virt. eigenvalues --    0.13959   0.14169   0.14677   0.15167   0.15296
  Beta virt. eigenvalues --    0.15867   0.15921   0.16625   0.16894   0.17153
  Beta virt. eigenvalues --    0.17273   0.17636   0.18033   0.18360   0.19402
  Beta virt. eigenvalues --    0.20062   0.20551   0.21132   0.21643   0.22055
  Beta virt. eigenvalues --    0.22232   0.22305   0.22832   0.23609   0.24171
  Beta virt. eigenvalues --    0.24576   0.25209   0.25711   0.26163   0.26681
  Beta virt. eigenvalues --    0.27160   0.27336   0.27629   0.28041   0.28700
  Beta virt. eigenvalues --    0.29160   0.30010   0.30320   0.30706   0.31058
  Beta virt. eigenvalues --    0.31281   0.32021   0.32197   0.32593   0.32853
  Beta virt. eigenvalues --    0.33631   0.34550   0.34804   0.34904   0.35307
  Beta virt. eigenvalues --    0.35542   0.35764   0.36196   0.36734   0.37286
  Beta virt. eigenvalues --    0.37983   0.39095   0.40271   0.41050   0.41430
  Beta virt. eigenvalues --    0.43157   0.44026   0.44661   0.45833   0.47100
  Beta virt. eigenvalues --    0.50191   0.51999   0.53273   0.54100   0.55491
  Beta virt. eigenvalues --    0.55916   0.56936   0.57234   0.58023   0.59119
  Beta virt. eigenvalues --    0.60549   0.61135   0.61733   0.62285   0.62637
  Beta virt. eigenvalues --    0.63162   0.64415   0.65885   0.66159   0.66719
  Beta virt. eigenvalues --    0.67327   0.67781   0.68783   0.68959   0.69655
  Beta virt. eigenvalues --    0.69912   0.70797   0.71424   0.72235   0.74426
  Beta virt. eigenvalues --    0.75063   0.75292   0.76085   0.76842   0.78306
  Beta virt. eigenvalues --    0.79167   0.80445   0.81205   0.81833   0.82404
  Beta virt. eigenvalues --    0.84555   0.85405   0.85691   0.87717   0.88877
  Beta virt. eigenvalues --    0.90775   0.91487   0.93055   0.93907   0.95103
  Beta virt. eigenvalues --    0.95676   0.96336   0.96603   0.97946   0.98469
  Beta virt. eigenvalues --    0.99515   1.02051   1.02478   1.03709   1.05036
  Beta virt. eigenvalues --    1.06549   1.08249   1.09512   1.10892   1.11471
  Beta virt. eigenvalues --    1.12343   1.13227   1.14405   1.15151   1.16836
  Beta virt. eigenvalues --    1.18059   1.18979   1.20126   1.25392   1.26782
  Beta virt. eigenvalues --    1.28066   1.29229   1.30214   1.31043   1.31840
  Beta virt. eigenvalues --    1.34489   1.35433   1.36068   1.37606   1.41136
  Beta virt. eigenvalues --    1.44367   1.47581   1.50110   1.51804   1.52736
  Beta virt. eigenvalues --    1.53389   1.54244   1.55065   1.56000   1.57501
  Beta virt. eigenvalues --    1.58906   1.59201   1.60014   1.60311   1.60952
  Beta virt. eigenvalues --    1.63804   1.64592   1.65731   1.66689   1.68239
  Beta virt. eigenvalues --    1.69780   1.71325   1.72356   1.73417   1.74125
  Beta virt. eigenvalues --    1.76130   1.76571   1.78282   1.80197   1.80664
  Beta virt. eigenvalues --    1.81826   1.82497   1.85680   1.86758   1.88383
  Beta virt. eigenvalues --    1.88984   1.90229   1.92583   1.93512   1.93886
  Beta virt. eigenvalues --    1.95882   1.98373   1.99245   2.00299   2.01039
  Beta virt. eigenvalues --    2.02679   2.04300   2.05213   2.05808   2.06674
  Beta virt. eigenvalues --    2.07987   2.10940   2.11180   2.13029   2.16617
  Beta virt. eigenvalues --    2.18431   2.21259   2.22636   2.24157   2.25403
  Beta virt. eigenvalues --    2.26000   2.33185   2.33887   2.34928   2.40757
  Beta virt. eigenvalues --    2.41813   2.42143   2.44114   2.46552   2.48974
  Beta virt. eigenvalues --    2.50147   2.52108   2.52908   2.57941   2.58263
  Beta virt. eigenvalues --    2.59071   2.60522   2.63505   2.64338   2.67624
  Beta virt. eigenvalues --    2.67917   2.68834   2.69952   2.72365   2.73540
  Beta virt. eigenvalues --    2.74994   2.76499   2.76841   2.78214   2.79390
  Beta virt. eigenvalues --    2.79943   2.80882   2.81996   2.83040   2.85013
  Beta virt. eigenvalues --    2.85989   2.88675   2.88910   2.91146   2.92559
  Beta virt. eigenvalues --    2.92853   2.95142   2.98094   2.98962   3.00054
  Beta virt. eigenvalues --    3.01445   3.03977   3.04545   3.09223   3.12293
  Beta virt. eigenvalues --    3.14104   3.19507   3.22451   3.23390   3.25699
  Beta virt. eigenvalues --    3.30565   3.32359   3.36761   3.36881   3.38855
  Beta virt. eigenvalues --    3.39697   3.44731   3.47440   3.52596   3.55797
  Beta virt. eigenvalues --    3.56703   3.58216   3.61380   3.62014   3.67097
  Beta virt. eigenvalues --    3.74259   3.76734   3.78133   3.83518   3.84075
  Beta virt. eigenvalues --    3.87297   3.88802   3.98434   4.06795   4.09641
  Beta virt. eigenvalues --    4.16864   4.22907   4.26659   4.34717   4.43002
  Beta virt. eigenvalues --    4.84929   4.86490   4.90344   5.04372   5.14741
  Beta virt. eigenvalues --    5.17365   5.30899   5.36823   5.80208   5.87128
  Beta virt. eigenvalues --   23.60184  23.84314  23.95158  23.95964  23.97719
  Beta virt. eigenvalues --   23.98733  23.99977  24.00429  24.04243  24.14258
  Beta virt. eigenvalues --   24.14730  24.20872  35.61841  50.09946  50.14512
          Condensed to atoms (all electrons):
               1          2          3          4          5          6
     1  C    8.916171  -0.051081  -1.014315  -0.415184  -2.862260   1.900830
     2  C   -0.051081   7.005249   0.399129  -0.171310  -0.151745  -0.538150
     3  C   -1.014315   0.399129   6.544296   0.291357   0.380424  -0.012934
     4  C   -0.415184  -0.171310   0.291357  22.747325  -2.017090  -1.889350
     5  C   -2.862260  -0.151745   0.380424  -2.017090  24.278020  -2.852671
     6  C    1.900830  -0.538150  -0.012934  -1.889350  -2.852671   9.030393
     7  C   -0.815868  -0.451539  -0.017596  -1.627337  -1.452878   0.003794
     8  C   -0.082667  -0.147862  -0.089413  -7.491488  -0.676490  -0.121536
     9  C   -0.026256  -0.054934  -0.120165  -3.692099  -3.912706   0.647699
    10  C   -0.066810   0.275648  -0.279466   0.869310  -4.452622  -0.734839
    11  O    0.202475   0.068175  -0.013283  -0.542244  -0.249694   0.001446
    12  O   -0.014829  -0.007943   0.051090  -0.263209  -0.269972   0.193861
    13  N   -0.021271  -0.005882  -0.005310   0.255194  -0.082334  -0.003591
    14  C    0.014599   0.005691  -0.004156  -0.241534  -0.039720   0.011756
    15  C   -0.014089   0.000085  -0.000218   0.115471   0.015357  -0.026423
    16  H    0.416489  -0.079966   0.007578  -0.112388   0.000019   0.041004
    17  H   -0.088234   0.452324  -0.051468   0.014234  -0.033976  -0.011872
    18  H   -0.028795  -0.049591   0.458302  -0.013156   0.047324  -0.087596
    19  H    0.046903   0.009409  -0.114473   0.047313  -0.215116   0.429861
    20  H   -0.014018   0.000325   0.004737   0.062150  -0.069831  -0.015534
    21  H   -0.062707  -0.020143   0.000740  -0.025982   0.045819  -0.000134
    22  H    0.010870   0.002817   0.000679   0.058071   0.002091  -0.003309
    23  H    0.007684   0.001118  -0.000460   0.023024  -0.012349   0.000245
    24  H   -0.001368   0.000325  -0.000254  -0.037894  -0.001974   0.003818
    25  H   -0.004683  -0.000511   0.000172  -0.002973   0.006153  -0.000779
    26  H    0.011580   0.001465  -0.000402   0.021856   0.006910  -0.002110
               7          8          9         10         11         12
     1  C   -0.815868  -0.082667  -0.026256  -0.066810   0.202475  -0.014829
     2  C   -0.451539  -0.147862  -0.054934   0.275648   0.068175  -0.007943
     3  C   -0.017596  -0.089413  -0.120165  -0.279466  -0.013283   0.051090
     4  C   -1.627337  -7.491488  -3.692099   0.869310  -0.542244  -0.263209
     5  C   -1.452878  -0.676490  -3.912706  -4.452622  -0.249694  -0.269972
     6  C    0.003794  -0.121536   0.647699  -0.734839   0.001446   0.193861
     7  C   13.149291  -0.349079  -2.334093  -0.464147   1.113501  -0.013875
     8  C   -0.349079  16.795077   0.325743  -1.226685  -0.460092   0.078280
     9  C   -2.334093   0.325743  13.431586   1.902132  -0.139369  -0.307844
    10  C   -0.464147  -1.226685   1.902132  10.085855  -0.012217   0.507403
    11  O    1.113501  -0.460092  -0.139369  -0.012217   8.707070  -0.000127
    12  O   -0.013875   0.078280  -0.307844   0.507403  -0.000127   8.753325
    13  N    0.082354  -0.417508  -0.140208   0.009063   0.062474  -0.007393
    14  C   -0.347451   0.292287   0.144164   0.040707  -0.087187   0.000681
    15  C    0.267874   0.018060  -0.511220  -0.198118   0.004149   0.005128
    16  H    0.031608   0.022816   0.003760  -0.003383   0.003681   0.000581
    17  H    0.036394   0.012205  -0.002781  -0.009645   0.002183  -0.000260
    18  H   -0.025589  -0.006116   0.006157   0.014110  -0.000401   0.002056
    19  H    0.014375  -0.004182   0.040771   0.071443   0.000469   0.003319
    20  H    0.027616   0.020964   0.343908  -0.034080   0.000550  -0.007989
    21  H    0.056075  -0.039986  -0.010087  -0.007347   0.026384  -0.000213
    22  H    0.124252  -0.081811  -0.061240  -0.009449   0.003921   0.000006
    23  H   -0.011878   0.022077  -0.006034   0.001362  -0.003609  -0.000035
    24  H   -0.057728   0.019551   0.053385   0.004926  -0.001682   0.000486
    25  H   -0.013767   0.020566   0.008745   0.001158   0.000881   0.000647
    26  H    0.048234  -0.007735  -0.042327   0.009473  -0.000113   0.001703
              13         14         15         16         17         18
     1  C   -0.021271   0.014599  -0.014089   0.416489  -0.088234  -0.028795
     2  C   -0.005882   0.005691   0.000085  -0.079966   0.452324  -0.049591
     3  C   -0.005310  -0.004156  -0.000218   0.007578  -0.051468   0.458302
     4  C    0.255194  -0.241534   0.115471  -0.112388   0.014234  -0.013156
     5  C   -0.082334  -0.039720   0.015357   0.000019  -0.033976   0.047324
     6  C   -0.003591   0.011756  -0.026423   0.041004  -0.011872  -0.087596
     7  C    0.082354  -0.347451   0.267874   0.031608   0.036394  -0.025589
     8  C   -0.417508   0.292287   0.018060   0.022816   0.012205  -0.006116
     9  C   -0.140208   0.144164  -0.511220   0.003760  -0.002781   0.006157
    10  C    0.009063   0.040707  -0.198118  -0.003383  -0.009645   0.014110
    11  O    0.062474  -0.087187   0.004149   0.003681   0.002183  -0.000401
    12  O   -0.007393   0.000681   0.005128   0.000581  -0.000260   0.002056
    13  N    7.165638   0.217205   0.326903  -0.002994   0.000239   0.000013
    14  C    0.217205   5.338528  -0.151224   0.001139   0.000259  -0.000089
    15  C    0.326903  -0.151224   5.325334  -0.000819   0.000035   0.000028
    16  H   -0.002994   0.001139  -0.000819   0.546122  -0.017646  -0.000238
    17  H    0.000239   0.000259   0.000035  -0.017646   0.561617  -0.014368
    18  H    0.000013  -0.000089   0.000028  -0.000238  -0.014368   0.560602
    19  H    0.000783   0.000444  -0.000987   0.002053   0.000229  -0.016247
    20  H   -0.057191  -0.001098   0.004815  -0.000211  -0.000039  -0.000098
    21  H   -0.032039   0.412052   0.005153  -0.004986   0.000243   0.000009
    22  H   -0.106565   0.378372  -0.018114   0.000786  -0.000070   0.000012
    23  H   -0.071551   0.383471   0.005271   0.000299   0.000002  -0.000001
    24  H   -0.050253   0.020389   0.417096  -0.000096   0.000020  -0.000011
    25  H   -0.081706   0.014440   0.406265  -0.000273   0.000006  -0.000000
    26  H   -0.076378  -0.029618   0.371748   0.000437  -0.000031   0.000007
              19         20         21         22         23         24
     1  C    0.046903  -0.014018  -0.062707   0.010870   0.007684  -0.001368
     2  C    0.009409   0.000325  -0.020143   0.002817   0.001118   0.000325
     3  C   -0.114473   0.004737   0.000740   0.000679  -0.000460  -0.000254
     4  C    0.047313   0.062150  -0.025982   0.058071   0.023024  -0.037894
     5  C   -0.215116  -0.069831   0.045819   0.002091  -0.012349  -0.001974
     6  C    0.429861  -0.015534  -0.000134  -0.003309   0.000245   0.003818
     7  C    0.014375   0.027616   0.056075   0.124252  -0.011878  -0.057728
     8  C   -0.004182   0.020964  -0.039986  -0.081811   0.022077   0.019551
     9  C    0.040771   0.343908  -0.010087  -0.061240  -0.006034   0.053385
    10  C    0.071443  -0.034080  -0.007347  -0.009449   0.001362   0.004926
    11  O    0.000469   0.000550   0.026384   0.003921  -0.003609  -0.001682
    12  O    0.003319  -0.007989  -0.000213   0.000006  -0.000035   0.000486
    13  N    0.000783  -0.057191  -0.032039  -0.106565  -0.071551  -0.050253
    14  C    0.000444  -0.001098   0.412052   0.378372   0.383471   0.020389
    15  C   -0.000987   0.004815   0.005153  -0.018114   0.005271   0.417096
    16  H    0.002053  -0.000211  -0.004986   0.000786   0.000299  -0.000096
    17  H    0.000229  -0.000039   0.000243  -0.000070   0.000002   0.000020
    18  H   -0.016247  -0.000098   0.000009   0.000012  -0.000001  -0.000011
    19  H    0.550736  -0.000450  -0.000103  -0.000120   0.000062   0.000073
    20  H   -0.000450   0.616691   0.000465  -0.000958  -0.000743  -0.012531
    21  H   -0.000103   0.000465   0.569102  -0.074446  -0.024764   0.002560
    22  H   -0.000120  -0.000958  -0.074446   0.711932  -0.061690  -0.001199
    23  H    0.000062  -0.000743  -0.024764  -0.061690   0.619616  -0.004484
    24  H    0.000073  -0.012531   0.002560  -0.001199  -0.004484   0.569399
    25  H   -0.000075   0.007542   0.014609  -0.016547   0.004363  -0.010476
    26  H   -0.000027  -0.012112  -0.021896   0.046707   0.003436  -0.057867
              25         26
     1  C   -0.004683   0.011580
     2  C   -0.000511   0.001465
     3  C    0.000172  -0.000402
     4  C   -0.002973   0.021856
     5  C    0.006153   0.006910
     6  C   -0.000779  -0.002110
     7  C   -0.013767   0.048234
     8  C    0.020566  -0.007735
     9  C    0.008745  -0.042327
    10  C    0.001158   0.009473
    11  O    0.000881  -0.000113
    12  O    0.000647   0.001703
    13  N   -0.081706  -0.076378
    14  C    0.014440  -0.029618
    15  C    0.406265   0.371748
    16  H   -0.000273   0.000437
    17  H    0.000006  -0.000031
    18  H   -0.000000   0.000007
    19  H   -0.000075  -0.000027
    20  H    0.007542  -0.012112
    21  H    0.014609  -0.021896
    22  H   -0.016547   0.046707
    23  H    0.004363   0.003436
    24  H   -0.010476  -0.057867
    25  H    0.573595  -0.075423
    26  H   -0.075423   0.694828
          Atomic-Atomic Spin Densities.
               1          2          3          4          5          6
     1  C   -0.000000   0.000000   0.000000   0.000000   0.000000  -0.000000
     2  C    0.000000   0.000000  -0.000000   0.000000  -0.000000   0.000000
     3  C    0.000000  -0.000000   0.000000  -0.000000  -0.000000   0.000000
     4  C    0.000000   0.000000  -0.000000   0.000000  -0.000000  -0.000000
     5  C    0.000000  -0.000000  -0.000000  -0.000000  -0.000000   0.000000
     6  C   -0.000000   0.000000   0.000000  -0.000000   0.000000   0.000000
     7  C   -0.000000  -0.000000   0.000000   0.000000   0.000000  -0.000000
     8  C   -0.000000   0.000000   0.000000   0.000000   0.000000  -0.000000
     9  C   -0.000000  -0.000000   0.000000  -0.000000   0.000000   0.000000
    10  C    0.000000  -0.000000   0.000000   0.000000   0.000000  -0.000000
    11  O   -0.000000   0.000000   0.000000   0.000000   0.000000  -0.000000
    12  O    0.000000  -0.000000   0.000000  -0.000000  -0.000000   0.000000
    13  N    0.000000  -0.000000   0.000000  -0.000000  -0.000000   0.000000
    14  C   -0.000000   0.000000   0.000000   0.000000   0.000000  -0.000000
    15  C    0.000000   0.000000  -0.000000  -0.000000  -0.000000   0.000000
    16  H   -0.000000  -0.000000  -0.000000  -0.000000   0.000000   0.000000
    17  H   -0.000000   0.000000   0.000000   0.000000   0.000000  -0.000000
    18  H    0.000000  -0.000000  -0.000000   0.000000  -0.000000   0.000000
    19  H   -0.000000   0.000000   0.000000  -0.000000   0.000000  -0.000000
    20  H    0.000000  -0.000000   0.000000   0.000000  -0.000000  -0.000000
    21  H   -0.000000  -0.000000   0.000000  -0.000000   0.000000   0.000000
    22  H    0.000000   0.000000  -0.000000   0.000000  -0.000000   0.000000
    23  H    0.000000   0.000000  -0.000000   0.000000  -0.000000  -0.000000
    24  H   -0.000000  -0.000000   0.000000  -0.000000   0.000000  -0.000000
    25  H   -0.000000  -0.000000  -0.000000  -0.000000  -0.000000   0.000000
    26  H    0.000000   0.000000  -0.000000   0.000000  -0.000000   0.000000
               7          8          9         10         11         12
     1  C   -0.000000  -0.000000  -0.000000   0.000000  -0.000000   0.000000
     2  C   -0.000000   0.000000  -0.000000  -0.000000   0.000000  -0.000000
     3  C    0.000000   0.000000   0.000000   0.000000   0.000000   0.000000
     4  C    0.000000   0.000000  -0.000000   0.000000   0.000000  -0.000000
     5  C    0.000000   0.000000   0.000000   0.000000   0.000000  -0.000000
     6  C   -0.000000  -0.000000   0.000000  -0.000000  -0.000000   0.000000
     7  C   -0.000000   0.000000   0.000000   0.000000  -0.000000  -0.000000
     8  C    0.000000  -0.000000  -0.000000  -0.000000  -0.000000  -0.000000
     9  C    0.000000  -0.000000  -0.000000  -0.000000  -0.000000   0.000000
    10  C    0.000000  -0.000000  -0.000000  -0.000000   0.000000  -0.000000
    11  O   -0.000000  -0.000000  -0.000000   0.000000   0.000000   0.000000
    12  O   -0.000000  -0.000000   0.000000  -0.000000   0.000000   0.000000
    13  N   -0.000000   0.000000   0.000000   0.000000  -0.000000   0.000000
    14  C    0.000000  -0.000000  -0.000000  -0.000000  -0.000000   0.000000
    15  C   -0.000000   0.000000   0.000000   0.000000  -0.000000  -0.000000
    16  H    0.000000   0.000000   0.000000  -0.000000   0.000000   0.000000
    17  H   -0.000000  -0.000000  -0.000000  -0.000000  -0.000000  -0.000000
    18  H    0.000000   0.000000   0.000000   0.000000   0.000000   0.000000
[...]
 0092180,0.00022405,-0.00103135,-0.00116724,-0.00026243,-0.00047190,-0.
 00050037,-0.00013716,0.00138960,0.00206233,0.00020214,-0.00010206,0.00
 002529,0.00001014,-0.00001467,0.00002719,-0.00000430,0.00001440,-0.000
 03598,-0.00000656,0.00014803,-0.00000966,-0.00000621,-0.00007872,0.001
 30943,0.00032220,0.00138830,-0.00064587,-0.00017847,0.05407998,-0.0006
 0481,0.00050268,0.00037234,0.00278641,0.00188765,-0.00154420,-0.001974
 33,-0.00898852,-0.00308522,-0.00278555,0.00086321,-0.00110228,-0.00035
 463,-0.01414183,-0.00438920,0.01225070,-0.31281153,-0.06660152,0.00044
 846,-0.00014046,0.00007735,0.00034136,-0.00032577,-0.00006279,0.000112
 43,0.00057722,0.00018305,0.00167411,-0.00402101,-0.00025793,-0.0003307
 4,-0.00063505,-0.00021968,0.00313282,0.00077061,0.00005544,-0.00026127
 ,-0.00015801,-0.00007472,-0.00003081,0.00009801,-0.00005055,0.00005866
 ,-0.00010140,-0.00000974,0.00002848,-0.00018739,0.00020043,-0.00011670
 ,-0.00051343,-0.00022750,0.00025403,0.00063588,0.00140881,-0.01443078,
 0.33659653,-0.00013419,0.00032726,-0.00092994,0.00069120,-0.00152377,0
 .00788707,-0.00040513,-0.00319884,0.00295343,-0.00063785,-0.00106690,0
 .00515938,0.00013515,-0.00430167,0.00310250,0.00293253,-0.06672525,-0.
 05350563,0.00006881,0.00013845,-0.00042369,0.00010266,-0.00011290,-0.0
 0009341,0.00004256,0.00022546,-0.00003845,0.00024565,-0.00024702,-0.00
 281320,-0.00006745,-0.00020792,0.00011908,0.00046054,0.00009660,0.0001
 0693,-0.00004574,-0.00004821,0.00002124,-0.00001629,0.00001178,0.00000
 017,0.00001206,-0.00001673,0.00000719,0.00000248,0.00020674,-0.0009752
 5,-0.00002366,-0.00023315,0.00037694,0.00004813,0.00141469,-0.00485157
 ,-0.00337154,0.07528935,0.04369433,0.00006768,0.00013679,0.00004403,-0
 .00005655,-0.00025956,-0.00006601,-0.00073456,-0.00018851,-0.00006132,
 0.00057928,-0.00058620,-0.00014623,-0.00425352,-0.00490956,-0.00091608
 ,-0.00032923,0.00141737,0.00019878,0.00226025,-0.00167625,-0.00059286,
 0.00027661,0.00032241,0.00015737,-0.26636091,0.10562451,0.03193363,-0.
 02129621,0.01657327,0.00482046,-0.00039681,0.00114519,0.00041758,0.004
 62138,0.00050822,0.00002768,-0.00079264,0.00080566,-0.00042876,0.00007
 953,-0.00017235,0.00047076,-0.00236261,-0.00269472,-0.00147425,-0.0000
 2821,0.00004101,0.00000872,-0.00005542,0.00002654,0.00001049,-0.000210
 85,0.00005362,0.00003346,0.00000616,-0.00012999,-0.00002428,0.29051612
 ,0.00028488,0.00018590,0.00006198,-0.00001045,-0.00042048,-0.00014713,
 -0.00024688,0.00024087,0.00026343,-0.00073420,-0.00074621,-0.00005040,
 -0.00290747,-0.00062250,-0.00151014,-0.00042867,0.00054124,0.00018251,
 -0.00303622,-0.00345693,-0.00166482,0.02789510,-0.00837965,-0.00289622
 ,0.10583348,-0.10645879,-0.02213162,-0.01409231,0.00740596,0.00070484,
 0.00178741,-0.00185008,-0.00053942,0.00049000,0.00269114,0.00180879,0.
 00094120,0.00162062,0.00093346,-0.00026388,-0.00017930,0.00005206,-0.0
 0035857,-0.00090906,-0.00042696,-0.00003895,-0.00000972,-0.00001060,0.
 00003075,0.00000393,-0.00002099,-0.00005929,0.00003887,0.00000560,0.00
 004662,0.00006087,-0.00003515,-0.11351052,0.10995265,0.00012045,0.0000
 4513,-0.00007683,-0.00002975,-0.00017352,0.00009842,-0.00006365,0.0003
 0502,-0.00074087,-0.00028326,-0.00000154,-0.00064459,-0.00056459,-0.00
 144591,0.00559678,-0.00009368,0.00016094,-0.00034738,-0.00045162,-0.00
 175730,0.00342527,0.00519245,-0.00361015,0.00039387,0.03170503,-0.0204
 8367,-0.03303071,-0.00274128,-0.00007043,0.00585209,0.00041926,-0.0003
 8067,0.00019551,0.00003133,0.00174163,-0.00443275,0.00003230,0.0006488
 8,-0.00264303,0.00032188,0.00046482,-0.00001613,0.00017947,-0.00101480
 ,-0.00018818,-0.00000518,-0.00001275,0.00003330,0.00000664,-0.00002995
 ,0.00010768,-0.00000918,0.00000115,0.00003108,0.00000873,-0.00003251,0
 .00020040,-0.03348869,0.02539170,0.02669537,-0.00022951,0.00014789,-0.
 00003787,0.00017054,-0.00015149,-0.00008633,-0.00009033,0.00013250,0.0
 0004315,0.00059868,0.00038868,-0.00027578,-0.00050208,0.00035559,0.000
 18571,0.00012890,0.00002904,0.00009205,-0.00088806,-0.00435038,0.00059
 661,0.00039037,0.00059217,0.00012059,-0.00007769,-0.00027116,-0.000063
 99,0.00054246,-0.00053521,-0.00022715,-0.00187726,0.00210292,0.0005836
 2,-0.00011165,0.00076712,0.00020298,0.00445283,-0.00227419,-0.00143190
 ,-0.24048626,0.12418709,-0.00402304,0.00073821,-0.00091348,0.00063344,
 -0.00005064,-0.00001506,0.00002178,0.00002339,-0.00000184,-0.00000996,
 0.00001860,0.00001389,0.00001680,0.00001131,0.00001951,0.00000391,-0.0
 0003198,0.00005866,0.00003013,0.25494470,-0.00008355,0.00012664,0.0000
 9308,0.00007866,0.00003261,0.00002822,0.00001290,-0.00000239,0.0000008
 5,0.00034778,0.00007470,0.00034098,-0.00002160,0.00001018,-0.00001328,
 0.00002563,0.00004483,-0.00004074,-0.00104497,-0.00290459,-0.00021348,
 0.00102422,-0.00020281,-0.00042841,-0.00005870,-0.00000819,-0.00005079
 ,-0.00000326,-0.00030603,0.00008351,0.00173853,0.00120319,-0.00116624,
 -0.00002191,0.00030051,0.00005007,0.02330881,-0.01846441,0.00533334,0.
 11514271,-0.12306322,-0.00124629,-0.00258714,-0.00394338,0.00271773,-0
 .00004385,0.00001097,-0.00001365,0.00002098,0.00000031,-0.00000429,0.0
 0001145,0.00000988,0.00000032,0.00000976,0.00001305,0.00000389,-0.0000
 0434,0.00013104,-0.00000619,-0.13238896,0.13990981,0.00010684,-0.00009
 908,-0.00005135,-0.00008518,0.00006448,0.00003174,0.00004755,-0.000093
 16,-0.00002327,-0.00018433,-0.00038415,0.00003442,0.00025503,-0.000201
 03,-0.00008682,-0.00009830,-0.00004587,-0.00004464,0.00032487,0.003709
 39,0.00134844,-0.00051794,-0.00135061,0.00018943,0.00021332,0.00021657
 ,0.00014762,-0.00034371,0.00038773,0.00005793,-0.00098068,-0.00270754,
 -0.00075036,0.00009582,-0.00048280,-0.00011721,-0.02082211,0.01481955,
 -0.00344933,0.00503005,-0.00579223,-0.04648793,0.00114360,0.00383524,-
 0.00190915,0.00005844,-0.00000599,-0.00000115,-0.00001863,0.00000259,0
 .00000637,-0.00001336,-0.00001296,-0.00000806,-0.00001531,-0.00001829,
 -0.00000560,0.00002332,-0.00010390,-0.00004543,0.00167048,-0.00450466,
 0.05111470,-0.00001238,-0.00007662,0.00000304,-0.00002310,0.00001929,-
 0.00001388,-0.00005642,-0.00002499,-0.00000552,-0.00011846,0.00001364,
 -0.00016244,-0.00003482,-0.00012054,0.00002850,0.00004044,-0.00000043,
 0.00001072,-0.00039357,0.00115685,-0.00009010,0.00187700,0.00150599,0.
 00100129,-0.00005169,-0.00033456,-0.00007838,0.00003997,0.00023064,0.0
 0002078,-0.00137133,-0.00120514,0.00069336,-0.00000055,-0.00023155,-0.
 00007406,-0.00082481,-0.00178761,0.00688314,-0.05943928,0.01708981,0.0
 3865985,0.00065541,-0.00080065,-0.00212526,0.00002570,0.00000129,0.000
 01171,-0.00001622,0.00000309,-0.00000009,-0.00001011,-0.00000696,0.000
 00020,-0.00000553,-0.00001176,-0.00000314,0.00003026,-0.00000001,0.000
 05495,-0.00167249,0.00881100,0.02437196,0.05573478,-0.00019136,0.00001
 977,0.00009364,0.00008369,0.00011403,0.00003467,-0.00001353,-0.0000798
 7,-0.00001961,0.00029406,0.00034120,0.00005443,0.00005381,-0.00015541,
 0.00005990,0.00003121,0.00002269,-0.00000488,-0.00078452,-0.00042325,-
 0.00113026,0.00360881,0.00342307,0.00159074,0.00076265,-0.00015681,-0.
 00048143,-0.00021414,-0.00007928,-0.00004965,0.00100588,0.00079863,-0.
 00022734,0.00005848,0.00021961,0.00004655,-0.00702337,0.00111924,0.032
 06997,0.01574652,-0.07724141,-0.07248865,-0.00293361,0.00339301,0.0020
 8449,-0.00002748,0.00000589,-0.00001326,0.00000554,0.00000302,-0.00000
 214,0.00000450,0.00000431,-0.00000715,0.00000325,0.00000513,0.00000403
 ,-0.00004666,-0.00004108,0.00011595,0.00051117,-0.00516438,-0.01513685
 ,-0.01491657,0.08030588,0.00059304,0.00006035,-0.00003976,-0.00013470,
 -0.00035035,-0.00009031,0.00044666,0.00036882,0.00009672,-0.00141476,-
 0.00132295,0.00009074,0.00023167,0.00116910,0.00025582,-0.00041714,-0.
 00019142,-0.00007493,0.00218665,0.00162202,0.00074899,-0.00547986,-0.0
 0247793,0.00057000,0.00075019,0.00038489,-0.00011727,0.00044905,-0.000
 33185,-0.00032736,-0.00024480,-0.00100898,-0.00055855,-0.00006315,0.00
 051189,0.00016576,0.00813469,0.01286727,-0.03055896,0.03929577,-0.0760
 5208,-0.22664955,0.00314159,-0.00168237,0.00178770,0.00000723,-0.00003
 759,-0.00000580,0.00006606,-0.00002949,-0.00000368,0.00004644,0.000027
 09,0.00000008,0.00001713,0.00005423,0.00001096,-0.00013535,-0.00002647
 ,0.00005749,0.00051773,-0.00145860,0.00033408,-0.04752789,0.07212075,0
 .26353789,-0.00018509,-0.00009473,-0.00001383,0.00000336,0.00019770,0.
 00003786,-0.00010020,-0.00020414,-0.00004691,0.00037304,0.00052162,-0.
 00000086,0.00019495,-0.00049487,-0.00012614,0.00001838,0.00004697,0.00
 002358,-0.00031910,0.00029577,-0.00003151,0.00313468,-0.00084371,0.000
 22917,-0.00052643,0.00028831,0.00039214,-0.00027356,0.00029085,0.00006
 420,-0.00082230,-0.00030301,0.00093516,0.00002161,-0.00052131,-0.00014
 902,-0.00579634,-0.00396522,0.00129592,-0.19359795,-0.10630406,-0.0626
 2992,0.00042814,0.00186542,-0.00013044,0.00000712,0.00001335,0.0000113
 2,-0.00003578,0.00001211,0.00000152,-0.00002518,-0.00001568,-0.0000044
 2,-0.00001168,-0.00002465,-0.00000678,0.00011407,-0.00003307,0.0000019
 7,-0.01646419,-0.01572675,-0.00940833,0.00506317,0.00405246,0.00172057
 ,0.20792180,-0.00020536,-0.00004470,0.00001667,0.00002881,0.00016856,0
 .00004294,-0.00012962,-0.00017562,-0.00004320,0.00049824,0.00056187,0.
 00008916,0.00008903,-0.00046398,-0.00014045,0.00007953,0.00007551,0.00
 003798,-0.00016713,-0.00148330,-0.00061176,0.00238456,-0.00421368,0.00
 241062,-0.00128985,0.00022576,0.00055233,-0.00017733,-0.00000676,-0.00
 018060,0.00026227,0.00116275,-0.00029285,-0.00004723,-0.00037494,-0.00
 011846,-0.02314092,-0.01889677,-0.00213573,-0.10150813,-0.12299135,-0.
 04443917,-0.00215034,0.00039780,-0.00110771,-0.00000763,0.00002348,0.0
 0000406,-0.00002975,0.00001091,0.00000222,-0.00002228,-0.00001061,-0.0
 0000820,-0.00000746,-0.00002350,-0.00000813,0.00012667,-0.00004967,0.0
 0003368,0.01134853,0.01231685,0.00640332,-0.00838898,-0.00609144,-0.00
 562575,0.12127893,0.13974239,0.00006312,0.00001771,-0.00002291,0.00000
 175,-0.00004233,-0.00001154,0.00005761,0.00004056,0.00000691,-0.000121
 52,-0.00022201,-0.00001642,0.00001590,0.00015187,0.00000981,-0.0000476
 5,-0.00004044,-0.00000412,0.00016442,0.00025609,0.00017822,-0.00118510
 ,0.00374665,-0.00019524,0.00133191,0.00047799,-0.00006638,-0.00016940,
 0.00005567,0.00011750,-0.00007105,-0.00039387,-0.00005426,0.00009178,0
 .00020718,0.00006156,0.01962063,0.01590095,0.00488619,-0.06709653,-0.0
 4928383,-0.07661939,0.00137998,0.00007099,0.00064410,0.00000604,-0.000
 00793,-0.00000154,0.00000992,-0.00000327,0.00000029,0.00000863,0.00000
 205,0.00000399,-0.00000105,0.00000793,0.00000173,-0.00004163,-0.000003
 20,-0.00004992,0.00075054,0.00043500,-0.00038417,-0.02226433,-0.015918
 40,-0.00980513,0.06775249,0.04496399,0.08156020,-0.00011955,0.00001736
 ,-0.00001301,0.00006372,0.00016803,0.00002393,0.00008038,-0.00015750,-
 0.00003599,0.00026914,0.00011736,0.00011565,0.00031035,-0.00020429,-0.
 00002757,-0.00014512,0.00000205,-0.00004714,-0.00052465,0.00050833,0.0
 0031177,0.00239525,0.00044742,-0.00034538,-0.00005512,-0.00063990,-0.0
 0039860,-0.00059300,-0.00010660,0.00012072,0.00003273,-0.00029210,-0.0
 0008041,0.00009931,0.00001145,-0.00001810,0.00161601,0.02483206,-0.021
 76452,-0.00509390,0.00155935,-0.00065859,-0.05340068,-0.02689111,0.028
 01632,-0.00000698,0.00000046,0.00000307,0.00000411,0.00000313,0.000005
 35,0.00000112,-0.00000453,0.00000820,-0.00000352,-0.00000124,-0.000000
 27,-0.00080094,-0.00026851,-0.00082381,0.00034593,0.00130063,-0.000963
 48,-0.00001072,0.00006610,-0.00023230,0.00045851,0.00009979,0.00035283
 ,0.05735651,0.00014836,-0.00000486,0.00002953,-0.00004712,-0.00000635,
 -0.00001691,0.00014548,0.00001735,0.00000363,-0.00029933,-0.00017631,-
 0.00001185,0.00024885,0.00015535,0.00008565,-0.00019293,-0.00003766,-0
 .00002512,0.00035878,0.00035748,-0.00002303,-0.00139766,-0.00042311,-0
 .00064816,-0.00047473,-0.00007648,-0.00069612,-0.00012076,0.00029401,-
 0.00006573,0.00022571,-0.00010413,-0.00020956,0.00005475,-0.00008144,0
 .00000701,0.00006431,-0.01700426,0.01226171,0.00446837,-0.00050003,-0.
 00014711,-0.02100318,-0.17297887,0.12680752,-0.00000823,-0.00000357,0.
 00000394,0.00001415,-0.00000157,-0.00000657,0.00000587,0.00000166,0.00
 000733,0.00000320,0.00001008,0.00000321,-0.00076224,0.00002502,-0.0004
 4868,-0.00013785,-0.00064653,0.00114053,-0.00008973,0.00000603,0.00052
 095,0.00010712,0.00043754,-0.00012352,0.01955446,0.19313408,-0.0001264
 9,0.00000244,0.00001654,0.00007761,0.00001963,0.00000999,-0.00002159,-
 0.00001469,0.00000184,0.00017913,0.00001632,-0.00001933,-0.00005344,0.
 00011185,-0.00006959,0.00009131,-0.00002972,-0.00001048,-0.00031552,-0
 .00005274,-0.00014812,0.00048221,0.00084187,0.00020922,0.00010145,0.00
 055297,0.00082359,0.00009345,-0.00081345,0.00006566,-0.00005968,-0.000
 18412,0.00008090,0.00000352,0.00033263,0.00005221,-0.00180517,0.002195
 20,-0.00099127,-0.00183520,-0.00009519,0.00125022,0.02197104,0.1286240
 9,-0.17607266,0.00000579,-0.00000574,-0.00000533,0.00000229,-0.0000018
 8,-0.00000005,0.00001161,0.00000044,-0.00000042,-0.00000435,0.00000257
 ,-0.00000239,0.00020904,-0.00060554,-0.00070456,0.00036517,0.00027808,
 -0.00003389,0.00018607,-0.00041955,0.00031782,0.00033710,-0.00001180,0
 .00001918,-0.02450837,-0.14190745,0.18711004,-0.00027044,-0.00016275,-
 0.00004211,-0.00001929,0.00020828,0.00000794,-0.00017975,-0.00017166,-
 0.00002786,0.00016827,0.00078566,0.00060459,0.00004420,-0.00046303,-0.
 00015541,0.00016831,0.00007222,0.00001635,-0.00115888,-0.00222831,-0.0
 0095180,-0.00069166,0.00472962,-0.00251940,-0.00025288,0.00103831,0.00
 042018,-0.00012434,0.00019406,0.00005244,0.00006206,0.00094024,0.00008
 711,0.00000627,-0.00043422,-0.00010173,-0.03311582,-0.01523207,-0.0061
 0095,0.00058591,-0.00195523,0.00117091,-0.17237808,-0.11315939,-0.0514
 6566,-0.00000018,0.00002784,0.00001487,-0.00005078,0.00000640,0.000003
 22,-0.00002665,-0.00001594,-0.00000802,-0.00001339,-0.00003093,-0.0000
 0516,0.00033713,-0.00009313,0.00009651,0.00026583,0.00016666,0.0004354
 5,0.00003246,0.00009430,-0.00034983,0.00049285,0.00079038,-0.00020274,
 -0.00161658,-0.00193323,-0.00000506,0.20124412,0.00017000,0.00001895,0
 .00004940,-0.00006971,-0.00007842,0.00001614,-0.00002522,0.00005093,-0
 .00000046,-0.00007853,-0.00012622,-0.00023319,-0.00011833,-0.00012633,
 0.00003189,-0.00002597,0.00004541,0.00004265,0.00067890,0.00066891,-0.
 00011733,0.00261900,-0.00201084,0.00058810,-0.00000804,-0.00099522,-0.
 00065115,0.00002636,0.00080880,0.00002052,-0.00024260,0.00007794,0.000
 17137,-0.00004424,-0.00025516,-0.00008555,0.01705919,0.01136394,0.0064
 4603,0.00173285,0.00122603,0.00084536,-0.12020275,-0.15355864,-0.04674
 364,-0.00000068,0.00000571,-0.00000708,0.00000063,0.00000463,-0.000004
 86,-0.00001309,0.00000340,-0.00000745,0.00000637,-0.00000226,0.0000012
 4,-0.00088629,0.00046724,0.00038628,0.00027610,0.00047939,-0.00009224,
 -0.00020277,-0.00051460,-0.00023984,-0.00017923,-0.00007221,-0.0002678
 7,-0.01401948,-0.01234261,-0.00756807,0.12282264,0.16360285,-0.0000598
 8,-0.00001212,-0.00005438,0.00001374,0.00010436,0.00002432,0.00007270,
 -0.00009119,-0.00001791,0.00001305,0.00013190,0.00008597,0.00019253,-0
 .00007840,-0.00008742,-0.00013281,0.00000035,-0.00000635,-0.00038779,0
 .00000035,0.00019628,0.00064322,0.00054933,0.00038712,0.00045971,-0.00
 020234,0.00051074,-0.00037390,0.00010031,0.00009750,0.00006832,-0.0001
 0105,-0.00011142,0.00003901,-0.00004508,0.00002689,-0.00258359,0.00008
 187,0.00008802,-0.00071899,-0.00064031,0.00001652,-0.05252534,-0.04543
 123,-0.06938759,-0.00000521,0.00000366,0.00000253,0.00000024,-0.000001
 67,0.00000847,-0.00000186,-0.00000090,-0.00000065,-0.00000097,0.000000
 50,-0.00000312,0.00000244,0.00032690,-0.00017397,0.00014989,0.00001440
 ,0.00000165,-0.00001819,-0.00013107,-0.00015614,0.00004738,0.00034152,
 0.00004664,0.01646317,0.01298720,0.00801001,0.05787294,0.05125684,0.06
 927830,-0.00035870,-0.00009694,0.00006385,0.00009024,0.00024700,0.0001
 1184,-0.00008021,-0.00023711,-0.00006514,0.00052593,0.00071218,-0.0000
 8772,0.00023068,-0.00047787,-0.00010248,0.00004841,0.00000902,0.000094
 06,-0.00156873,0.00009545,-0.00063468,0.00471622,0.00307385,0.00160118
 ,0.00014112,-0.00019815,0.00018567,-0.00033371,-0.00016592,-0.00034463
 ,-0.00035258,-0.00017198,-0.00014973,0.00004566,-0.00015636,-0.0000031
 8,-0.02040403,0.02123360,0.02366017,0.00010031,-0.00302012,0.00302231,
 -0.06043996,0.02170942,0.04644766,0.00000316,0.00001083,-0.00001459,-0
 .00002674,0.00001229,-0.00001008,-0.00001124,-0.00000858,-0.00002220,-
 0.00001181,-0.00001880,-0.00000421,-0.00117803,-0.00128597,0.00035359,
 -0.00014960,-0.00001470,-0.00032535,0.00054226,-0.00023119,-0.00160471
 ,-0.00007388,0.00028527,-0.00040656,-0.00066230,0.00106759,0.00461809,
 0.00649130,-0.00927511,-0.01922982,0.07271624,0.00030268,0.00003896,-0
 .00002093,-0.00005725,-0.00010627,-0.00005378,0.00029041,0.00011855,0.
 00004030,-0.00066186,-0.00063460,-0.00003353,0.00028725,0.00055585,-0.
 00001535,-0.00033118,-0.00011639,0.00004935,0.00100640,0.00091506,0.00
 040130,-0.00361382,-0.00184350,-0.00017832,0.00027889,0.00036840,0.000
 63538,0.00000073,0.00007230,-0.00033191,0.00028606,-0.00056161,-0.0000
 2324,0.00002097,0.00022908,0.00016448,0.01732852,-0.01285967,-0.011745
 61,0.00059376,0.00246052,-0.00383469,0.02113881,-0.08687304,-0.0801966
 2,-0.00000460,-0.00001753,0.00001490,0.00003804,-0.00001377,-0.0000002
 7,0.00002280,0.00001591,-0.00000990,0.00000874,0.00002924,0.00000295,-
 0.00095409,-0.00024189,0.00017290,0.00010877,0.00004197,0.00045194,-0.
 00063274,0.00016603,0.00112831,-0.00026017,-0.00022489,-0.00002798,-0.
 00610272,0.00994916,0.01873187,0.00400329,-0.00874163,-0.01916414,-0.0
 3309769,0.09727375,0.00028121,0.00002265,0.00002165,-0.00007526,-0.000
 08479,-0.00001187,0.00025798,0.00008572,0.00002220,-0.00058434,-0.0004
 6439,-0.00010333,0.00024401,0.00031437,-0.00001694,-0.00035584,-0.0000
 6610,0.00006585,0.00067504,0.00117639,0.00011716,-0.00238379,-0.001254
 52,0.00035972,0.00106885,-0.00108545,-0.00008904,-0.00026285,0.0005995
 7,-0.00013296,0.00000252,-0.00058400,-0.00008066,0.00001863,0.00009744
 ,0.00007907,0.00882276,-0.00186399,0.00776336,-0.00037150,0.00135976,0
 .00333256,0.04479357,-0.07653676,-0.21589198,-0.00000434,-0.00001320,0
 .00000567,0.00003070,-0.00000898,-0.00000639,0.00001086,0.00001622,-0.
 00001632,0.00001071,0.00002411,0.00000090,-0.00098231,0.00044129,0.000
 40710,0.00017147,-0.00023286,0.00013198,0.00043772,-0.00224487,0.00041
 336,-0.00030222,-0.00017468,-0.00030528,0.00449654,-0.00952843,-0.0199
 0912,0.00115322,-0.00383710,-0.00878201,-0.05715334,0.09384258,0.23262
 532\\-0.00001192,-0.00000594,-0.00000157,0.00001143,0.00000333,0.00000
 029,0.00002085,-0.00003111,0.00000041,-0.00000605,0.00000848,-0.000000
 09,0.00000122,-0.00000808,0.00000784,-0.00000168,-0.00000664,-0.000001
 05,-0.00004065,-0.00004343,-0.00001829,0.00004904,-0.00001806,0.000006
 71,0.00003181,0.00002910,0.00001452,-0.00002301,0.00001666,-0.00000897
 ,0.00001450,0.00003537,0.00000232,0.00001741,-0.00000683,0.00000727,-0
 .00000478,0.00002279,-0.00000404,-0.00003385,-0.00001774,-0.00001013,-
 0.00003246,-0.00001880,0.00000405,0.00000365,-0.00000801,0.00000228,-0
 .00000478,-0.00001190,0.00000145,0.00000109,-0.00001798,-0.00000248,0.
 00001722,-0.00000954,0.00000080,0.00001353,0.00000830,0.00000539,-0.00
 001460,0.00002595,0.00000095,0.00000980,0.00000009,-0.00000701,-0.0000
 1253,0.00002968,0.00000753,0.00000161,0.00000343,0.00000713,-0.0000069
 3,0.00001338,-0.00000074,0.00000005,0.00000749,-0.00001457\\\@


 "I COULD HAVE DONE IT IN A MUCH MORE COMPLICATED WAY"
 SAID THE RED QUEEN, IMMENSELY PROUD.

                                      -- LEWIS CARROLL
 Job cpu time:       0 days  4 hours 54 minutes 11.0 seconds.
 Elapsed time:       0 days  0 hours 40 minutes 42.5 seconds.
 File lengths (MBytes):  RWF=    869 Int=      0 D2E=      0 Chk=     28 Scr=      1
 Normal termination of Gaussian 16 at Sun Feb 11 03:35:57 2024.
