
Running Job 1 of 1 153-an-SM12.in
qchem 153-an-SM12.in_1637381.0 /expanse/lustre/scratch/selhajj/temp_project/qcscratch/28445654/qchem1637381/ 0
/cm/shared/apps/spack/cpu/opt/spack/linux-centos8-zen2/gcc-10.2.0/qchem-5.4-akfmr7b3t57bfs6qan3padb2wnb2i7cl/exe/qcprog.exe_s 153-an-SM12.in_1637381.0 /expanse/lustre/scratch/selhajj/temp_project/qcscratch/28445654/qchem1637381/
                  Welcome to Q-Chem
     A Quantum Leap Into The Future Of Chemistry


 Q-Chem 5.4, Q-Chem, Inc., Pleasanton, CA (2021)

 License issued to: University of California, San Diego (site)

 E. Epifanovsky,  A. T. B. Gilbert,  Xintian Feng,  Joonho Lee,  Yuezhi Mao,  
 N. Mardirossian,  P. Pokhilko,  A. White,  M. Wormit,  M. P. Coons,  
 A. L. Dempwolff,  Zhengting Gan,  D. Hait,  P. R. Horn,  L. D. Jacobson,  
 I. Kaliman,  J. Kussmann,  A. W. Lange,  Ka Un Lao,  D. S. Levine,  Jie Liu,  
 S. C. McKenzie,  A. F. Morrison,  K. Nanda,  F. Plasser,  D. R. Rehn,  
 M. L. Vidal,  Zhi-Qiang You,  Ying Zhu,  B. Alam,  B. Albrecht,  
 A. Aldossary,  E. Alguire,  J. H. Andersen,  D. Barton,  K. Begam,  A. Behn,  
 Y. A. Bernard,  E. J. Berquist,  H. Burton,  A. Carreras,  K. Carter-Fenk,  
 R. Chakraborty,  A. D. Chien,  K. D. Closser,  V. Cofer-Shabica,  
 S. Dasgupta,  Jia Deng,  M. de Wergifosse,  M. Diedenhofen,  Hainam Do,  
 S. Ehlert,  Po-Tung Fang,  S. Fatehi,  Qingguo Feng,  J. Gayvert,  
 Qinghui Ge,  G. Gidofalvi,  M. Goldey,  J. Gomes,  C. Gonzalez-Espinoza,  
 S. Gulania,  A. Gunina,  M. W. D. Hanson-Heine,  P. H. P. Harbach,  
 A. W. Hauser,  M. F. Herbst,  M. Hernandez Vera,  M. Hodecker,  
 Z. C. Holden,  S. Houck,  Xunkun Huang,  Kerwin Hui,  B. C. Huynh,  
 M. Ivanov,  Hyunjun Ji,  Hanjie Jiang,  B. Kaduk,  S. Kaehler,  
 K. Khistyaev,  Jaehoon Kim,  P. Klunzinger,  Z. Koczor-Benda,  
 Joong Hoon Koh,  D. Kosenkov,  L. Koulias,  T. Kowalczyk,  C. M. Krauter,  
 K. Kue,  A. Kunitsa,  T. Kus,  A. Landau,  K. V. Lawler,  D. Lefrancois,  
 S. Lehtola,  Rain Li,  Yi-Pei Li,  Jiashu Liang,  M. Liebenthal,  
 Hung-Hsuan Lin,  You-Sheng Lin,  Fenglai Liu,  Kuan-Yu Liu,  
 M. Loipersberger,  A. Luenser,  A. Manjanath,  P. Manohar,  E. Mansoor,  
 S. F. Manzer,  Shan-Ping Mao,  A. V. Marenich,  T. Markovich,  S. Mason,  
 S. A. Maurer,  P. F. McLaughlin,  M. F. S. J. Menger,  J.-M. Mewes,  
 S. A. Mewes,  P. Morgante,  J. W. Mullinax,  T. S. Nguyen-Beck,  
 K. J. Oosterbaan,  G. Paran,  Alexander C. Paul,  Suranjan K. Paul,  
 F. Pavosevic,  Zheng Pei,  S. Prager,  E. I. Proynov,  E. Ramos,  B. Rana,  
 A. E. Rask,  A. Rettig,  R. M. Richard,  F. Rob,  E. Rossomme,  T. Scheele,  
 M. Scheurer,  M. Schneider,  N. Sergueev,  S. M. Sharada,  W. Skomorowski,  
 D. W. Small,  C. J. Stein,  Yu-Chuan Su,  E. J. Sundstrom,  Zhen Tao,  
 J. Thirman,  T. Tsuchimochi,  N. M. Tubman,  S. P. Veccham,  O. Vydrov,  
 J. Wenzel,  J. Witte,  A. Yamada,  Kun Yao,  S. Yeganeh,  S. R. Yost,  
 A. Zech,  Igor Ying Zhang,  Xing Zhang,  Yu Zhang,  D. Zuev,  
 A. Aspuru-Guzik,  A. T. Bell,  N. A. Besley,  K. B. Bravaya,  B. R. Brooks,  
 D. Casanova,  Jeng-Da Chai,  S. Coriani,  C. J. Cramer,  
 A. E. DePrince, III,  R. A. DiStasio Jr.,  A. Dreuw,  B. D. Dunietz,  
 T. R. Furlani,  W. A. Goddard III,  S. Grimme,  S. Hammes-Schiffer,  
 T. Head-Gordon,  W. J. Hehre,  Chao-Ping Hsu,  T.-C. Jagau,  Yousung Jung,  
 A. Klamt,  Jing Kong,  D. S. Lambrecht,  WanZhen Liang,  N. J. Mayhall,  
 C. W. McCurdy,  J. B. Neaton,  C. Ochsenfeld,  J. A. Parkhill,  R. Peverati,  
 V. A. Rassolov,  Yihan Shao,  L. V. Slipchenko,  T. Stauch,  R. P. Steele,  
 J. E. Subotnik,  A. J. W. Thom,  A. Tkatchenko,  D. G. Truhlar,  
 T. Van Voorhis,  T. A. Wesolowski,  K. B. Whaley,  H. L. Woodcock III,  
 P. M. Zimmerman,  S. Faraji,  P. M. W. Gill,  M. Head-Gordon,  
 J. M. Herbert,  A. I. Krylov

 Contributors to earlier versions of Q-Chem not listed above: 
 R. D. Adamson,  B. Austin,  R. Baer,  J. Baker,  G. J. O. Beran,  
 K. Brandhorst,  S. T. Brown,  E. F. C. Byrd,  A. K. Chakraborty,  
 G. K. L. Chan,  Chun-Min Chang,  Yunqing Chen,  C.-L. Cheng,  
 Siu Hung Chien,  D. M. Chipman,  D. L. Crittenden,  H. Dachsel,  
 R. J. Doerksen,  A. D. Dutoi,  R. G. Edgar,  J. Fosso-Tande,  
 L. Fusti-Molnar,  D. Ghosh,  A. Ghysels,  A. Golubeva-Zadorozhnaya,  
 J. Gonthier,  M. S. Gordon,  S. R. Gwaltney,  G. Hawkins,  J. E. Herr,  
 A. Heyden,  S. Hirata,  E. G. Hohenstein,  G. Kedziora,  F. J. Keil,  
 C. Kelley,  Jihan Kim,  R. A. King,  R. Z. Khaliullin,  P. P. Korambath,  
 W. Kurlancheek,  A. Laurent,  A. M. Lee,  M. S. Lee,  S. V. Levchenko,  
 Ching Yeh Lin,  D. Liotard,  E. Livshits,  R. C. Lochan,  I. Lotan,  
 L. A. Martinez-Martinez,  P. E. Maslen,  N. Nair,  D. P. O'Neill,  
 D. Neuhauser,  E. Neuscamman,  C. M. Oana,  R. Olivares-Amaya,  R. Olson,  
 T. M. Perrine,  B. Peters,  P. A. Pieniazek,  A. Prociuk,  Y. M. Rhee,  
 J. Ritchie,  M. A. Rohrdanz,  E. Rosta,  N. J. Russ,  H. F. Schaefer III,  
 M. W. Schmidt,  N. E. Schultz,  S. Sharma,  N. Shenvi,  C. D. Sherrill,  
 A. C. Simmonett,  A. Sodt,  T. Stein,  D. Stuck,  K. S. Thanthiriwatte,  
 V. Vanovschi,  L. Vogt,  Tao Wang,  A. Warshel,  M. A. Watson,  
 C. F. Williams,  Q. Wu,  X. Xu,  Jun Yang,  W. Zhang,  Yan Zhao

 Please cite Q-Chem as follows:
 Y. Shao et al., Mol. Phys. 113, 184-215 (2015)
 DOI: 10.1080/00268976.2014.952696

 Q-Chem 5.4.0 for Intel X86 EM64T Linux

 Parts of Q-Chem use Armadillo 9.800.1 (Horizon Scraper).
 http://arma.sourceforge.net/

 Q-Chem begins on Sat Feb  3 11:23:27 2024  

 Host: 
0

     Scratch files written to /expanse/lustre/scratch/selhajj/temp_project/qcscratch/28445654/qchem1637381//
 May1621 |scratch|qcdevops|jenkins|workspace|build_RNUM    
 Processing $rem in /cm/shared/apps/spack/cpu/opt/spack/linux-centos8-zen2/gcc-10.2.0/qchem-5.4-akfmr7b3t57bfs6qan3padb2wnb2i7cl/config/preferences:
 Processing $rem in /home/selhajj/.qchemrc:
 Symmetry turned off for PCM/SM12/SMD calculation
 Method-specific promolecule density matrix will be built for SM12 calculation

 Checking the input file for inconsistencies... 	...done.

--------------------------------------------------------------
User input:
--------------------------------------------------------------
$molecule
-2 1
N                 -2.7866990000     -2.0736430000      0.3379190000
C                 -2.4900330000     -0.7119450000      0.1730520000
C                 -3.5254260000      0.2117540000      0.0691740000
C                 -3.2555480000      1.5794770000     -0.1836430000
C                 -1.9583770000      2.0067280000     -0.3359310000
C                 -0.8636130000      1.1050290000     -0.2172860000
C                  0.4692120000      1.6422860000     -0.3589570000
O                  0.6865760000      2.8894100000     -0.6000870000
C                  1.5405500000      0.6891250000     -0.2064210000
C                  2.8637520000      1.1788220000     -0.3369720000
C                  3.9660110000      0.3691310000     -0.2113710000
C                  3.7765750000     -1.0171370000      0.0434730000
C                  2.5013020000     -1.5173870000      0.1811590000
Cl                 2.4713220000     -3.3028410000      0.4358980000
C                  1.3083820000     -0.7327530000      0.0911160000
C                 -0.0290490000     -1.2417100000      0.2825490000
O                 -0.2551930000     -2.4667580000      0.6523600000
C                 -1.1092710000     -0.2940830000      0.0628400000
H                 -3.5978800000     -2.2380130000      0.9191220000
H                 -1.9143190000     -2.5719140000      0.6110150000
H                 -4.5524860000     -0.1447480000      0.1400930000
H                 -4.0830350000      2.2832610000     -0.2678010000
H                 -1.7100900000      3.0419620000     -0.5410250000
H                  2.9509900000      2.2406640000     -0.5426470000
H                  4.9737040000      0.7663950000     -0.3138810000
H                  4.6226450000     -1.6911120000      0.1162540000
$end

$rem
BASIS  =  6-311++G(d,p)
GUI  =  2
JOB_TYPE  =  SP
METHOD  =  B3LYP
SCF_CONVERGENCE  = 8
SOLVENT_METHOD = sm12
$end

$smx
solvent dimethylformamide
charges CM5
$end





--------------------------------------------------------------
 ----------------------------------------------------------------
             Standard Nuclear Orientation (Angstroms)
    I     Atom           X                Y                Z
 ----------------------------------------------------------------
    1      N      -2.7866990000    -2.0736430000     0.3379190000
    2      C      -2.4900330000    -0.7119450000     0.1730520000
    3      C      -3.5254260000     0.2117540000     0.0691740000
    4      C      -3.2555480000     1.5794770000    -0.1836430000
    5      C      -1.9583770000     2.0067280000    -0.3359310000
    6      C      -0.8636130000     1.1050290000    -0.2172860000
    7      C       0.4692120000     1.6422860000    -0.3589570000
    8      O       0.6865760000     2.8894100000    -0.6000870000
    9      C       1.5405500000     0.6891250000    -0.2064210000
   10      C       2.8637520000     1.1788220000    -0.3369720000
   11      C       3.9660110000     0.3691310000    -0.2113710000
   12      C       3.7765750000    -1.0171370000     0.0434730000
   13      C       2.5013020000    -1.5173870000     0.1811590000
   14      Cl      2.4713220000    -3.3028410000     0.4358980000
   15      C       1.3083820000    -0.7327530000     0.0911160000
   16      C      -0.0290490000    -1.2417100000     0.2825490000
   17      O      -0.2551930000    -2.4667580000     0.6523600000
   18      C      -1.1092710000    -0.2940830000     0.0628400000
   19      H      -3.5978800000    -2.2380130000     0.9191220000
   20      H      -1.9143190000    -2.5719140000     0.6110150000
   21      H      -4.5524860000    -0.1447480000     0.1400930000
   22      H      -4.0830350000     2.2832610000    -0.2678010000
   23      H      -1.7100900000     3.0419620000    -0.5410250000
   24      H       2.9509900000     2.2406640000    -0.5426470000
   25      H       4.9737040000     0.7663950000    -0.3138810000
   26      H       4.6226450000    -1.6911120000     0.1162540000
 ----------------------------------------------------------------
 Nuclear Repulsion Energy =        1329.36477614 hartrees
 There are       67 alpha and       67 beta electrons
 Requested basis set is 6-311++G(d,p)
 There are 155 shells and 460 basis functions

 Total QAlloc Memory Limit   8000 MB
 Mega-Array Size       188 MB
 MEM_STATIC part       192 MB
 A cutoff of  1.0D-11 yielded   9182 shell pairs
 There are     85446 function pairs (     91761 Cartesian)
 Smallest overlap matrix eigenvalue = 7.13E-08

 Q-Chem warning in module stvman/mkSTV.C, line 323:

 Overlap eigenvalue is smaller than square root of threshold
 Use THRESH >= 12 to get rid of this warning

 Linear dependence detected in AO basis
 Tighter screening thresholds may be required for diffuse basis sets
 Use S2THRESH > 14 and THRESH = 14 in case of SCF convergence issues
 Number of orthogonalized atomic orbitals = 453
 Maximum deviation from orthogonality = 2.236E-10

 Scale SEOQF with 1.000000e-01/1.000000e-01/1.000000e-01

 Standard Electronic Orientation quadrupole field applied
 Nucleus-field energy     =     0.0000000600 hartrees
 ================ Generating on-the-fly Promolecule Density  ================
Attempting to make child job directory: /expanse/lustre/scratch/selhajj/temp_project/qcscratch/28445654/qchem1637381//Frg1/
Attempting to make child job directory: /expanse/lustre/scratch/selhajj/temp_project/qcscratch/28445654/qchem1637381//Frg2/
Attempting to make child job directory: /expanse/lustre/scratch/selhajj/temp_project/qcscratch/28445654/qchem1637381//Frg3/
Attempting to make child job directory: /expanse/lustre/scratch/selhajj/temp_project/qcscratch/28445654/qchem1637381//Frg4/
Attempting to make child job directory: /expanse/lustre/scratch/selhajj/temp_project/qcscratch/28445654/qchem1637381//Frg5/
Creating input file /expanse/lustre/scratch/selhajj/temp_project/qcscratch/28445654/qchem1637381/Frg1.input
using default PutDataFrgm: nothing
calling putenv with: QCSCRATCH=/expanse/lustre/scratch/selhajj/temp_project/qcscratch/28445654/qchem1637381/ 
Spawning Job For Fragment 0
Done Job For Fragment 0
calling putenv with: QCSCRATCH=/expanse/lustre/scratch/selhajj/temp_project/qcscratch/28445654 
calling putenv with: QCTHREADS=8 
Creating input file /expanse/lustre/scratch/selhajj/temp_project/qcscratch/28445654/qchem1637381/Frg2.input
using default PutDataFrgm: nothing
calling putenv with: QCSCRATCH=/expanse/lustre/scratch/selhajj/temp_project/qcscratch/28445654/qchem1637381/ 
Spawning Job For Fragment 1
Done Job For Fragment 1
calling putenv with: QCSCRATCH=/expanse/lustre/scratch/selhajj/temp_project/qcscratch/28445654 
calling putenv with: QCTHREADS=8 
Creating input file /expanse/lustre/scratch/selhajj/temp_project/qcscratch/28445654/qchem1637381/Frg3.input
using default PutDataFrgm: nothing
calling putenv with: QCSCRATCH=/expanse/lustre/scratch/selhajj/temp_project/qcscratch/28445654/qchem1637381/ 
Spawning Job For Fragment 2
Done Job For Fragment 2
calling putenv with: QCSCRATCH=/expanse/lustre/scratch/selhajj/temp_project/qcscratch/28445654 
calling putenv with: QCTHREADS=8 
Creating input file /expanse/lustre/scratch/selhajj/temp_project/qcscratch/28445654/qchem1637381/Frg4.input
using default PutDataFrgm: nothing
calling putenv with: QCSCRATCH=/expanse/lustre/scratch/selhajj/temp_project/qcscratch/28445654/qchem1637381/ 
Spawning Job For Fragment 3
Done Job For Fragment 3
calling putenv with: QCSCRATCH=/expanse/lustre/scratch/selhajj/temp_project/qcscratch/28445654 
calling putenv with: QCTHREADS=8 
Creating input file /expanse/lustre/scratch/selhajj/temp_project/qcscratch/28445654/qchem1637381/Frg5.input
using default PutDataFrgm: nothing
calling putenv with: QCSCRATCH=/expanse/lustre/scratch/selhajj/temp_project/qcscratch/28445654/qchem1637381/ 
Spawning Job For Fragment 4
Done Job For Fragment 4
calling putenv with: QCSCRATCH=/expanse/lustre/scratch/selhajj/temp_project/qcscratch/28445654 
calling putenv with: QCTHREADS=8 
 Time for running child jobs:  CPU 0.01 s  wall 26.68 s
 ============= Method Specific Promolecule Density Constructed =============
 Guess from superposition of atomic densities
 Warning:  Energy on first SCF cycle will be non-variational
 SAD guess density has 132.000000 electrons

 -----------------------------------------------------------------------
  General SCF calculation program by
  Eric Jon Sundstrom, Paul Horn, Yuezhi Mao, Dmitri Zuev, Alec White,
  David Stuck, Shaama M.S., Shane Yost, Joonho Lee, David Small,
  Daniel Levine, Susi Lehtola, Hugh Burton, Evgeny Epifanovsky,
  Bang C. Huynh
 -----------------------------------------------------------------------
 Exchange:     0.2000 Hartree-Fock + 0.0800 Slater + 0.7200 B88
 Correlation:  0.1900 VWN1RPA + 0.8100 LYP
 Using SG-1 standard quadrature grid
 using 8 threads for integral computing
 -------------------------------------------------------
 OpenMP Integral computing Module                
 Release: version 1.0, May 2013, Q-Chem Inc. Pittsburgh 
 -------------------------------------------------------
 
 SM12 calculation using CM5 charges
 Citation of the SM12 model:
 Marenich, A.V.; Cramer, C.J.; Truhlar, D.G.
 J. Chem. Theory Comput. 2013, 9, 609-612.
 iSolventCode=          91
 Solvent: dimethylformamide                                               
 
Hirshfeld: reading atomic densities from disk.
warning:  vdwdata pointer should have been initialzed before dftman
 Inaccurate integrated density:
   Number of electrons =   134
   Numerical integral  =   132.000028369284
   Relative error      =    -1.4925161423 %

 Charges (in A.U.) from CM5PAC (Nov. 11, 2011)
 -----------------------------------------------
 Center     Atomic      CM5         Hirshfeld
 Number     Number      Charge      Charge
 -----------------------------------------------
    1          7       -0.451819   -0.017796
    2          6        0.053835    0.002816
    3          6       -0.048239   -0.000817
    4          6       -0.057079   -0.002821
    5          6       -0.051939   -0.000549
    6          6       -0.001726   -0.000083
    7          6        0.034413    0.006753
    8          8       -0.063167   -0.017483
    9          6       -0.002116   -0.000219
   10          6       -0.051874   -0.000634
   11          6       -0.057615   -0.003033
   12          6       -0.057361   -0.005491
   13          6       -0.007336   -0.003791
   14         17        0.022395    0.022070
   15          6        0.000119   -0.001515
   16          6        0.034843    0.006217
   17          8       -0.088645   -0.024366
   18          6        0.006376    0.001829
   19          1        0.197360    0.007784
   20          1        0.218331    0.009774
   21          1        0.061942    0.003577
   22          1        0.058074    0.003045
   23          1        0.067228    0.005526
   24          1        0.068068    0.005636
   25          1        0.058124    0.003031
   26          1        0.057780    0.000512
 -----------------------------------------------

 Dipole moment (in Debye)
 -----------------------------------------------
                 X        Y        Z     Total
 -----------------------------------------------
 CM5          0.0317   0.3622   0.5702   0.6763
 Hirshfeld    0.0399  -0.1258   0.0217   0.1338
 -----------------------------------------------

 A restricted SCF calculation will be
 performed using DIIS
 SCF converges when DIIS error is below 1.0e-08
 ---------------------------------------
  Cycle       Energy         DIIS error
 ---------------------------------------
Hirshfeld: reading atomic densities from disk.

 Charges (in A.U.) from CM5PAC (Nov. 11, 2011)
 -----------------------------------------------
 Center     Atomic      CM5         Hirshfeld
 Number     Number      Charge      Charge
 -----------------------------------------------
    1          7       -0.786299   -0.352277
    2          6        0.135110    0.084091
    3          6       -0.283094   -0.235672
    4          6       -0.213264   -0.159006
    5          6       -0.272237   -0.220847
    6          6       -0.126509   -0.124867
    7          6        0.098776    0.071116
    8          8       -0.749365   -0.703681
    9          6       -0.116511   -0.114614
   10          6       -0.244149   -0.192909
   11          6       -0.207312   -0.152731
   12          6       -0.263201   -0.211331
   13          6        0.088822    0.092367
   14         17       -0.019470   -0.019794
   15          6       -0.104588   -0.106222
   16          6        0.141066    0.112440
   17          8       -0.695928   -0.631649
   18          6       -0.112642   -0.117188
   19          1        0.390293    0.200717
   20          1        0.331744    0.123186
   21          1        0.173005    0.114639
   22          1        0.177185    0.122156
   23          1        0.157493    0.095791
   24          1        0.158894    0.096461
   25          1        0.177794    0.122701
   26          1        0.164112    0.106845
 -----------------------------------------------

 Dipole moment (in Debye)
 -----------------------------------------------
                 X        Y        Z     Total
 -----------------------------------------------
 CM5         -1.6607  -3.8475   1.7101   4.5261
 Hirshfeld   -1.6524  -4.3356   1.1616   4.7830
 -----------------------------------------------

    1   -1208.0913363641      3.06e-02  
Hirshfeld: reading atomic densities from disk.

 Charges (in A.U.) from CM5PAC (Nov. 11, 2011)
 -----------------------------------------------
 Center     Atomic      CM5         Hirshfeld
 Number     Number      Charge      Charge
 -----------------------------------------------
    1          7       -0.395414    0.038608
    2          6       -0.059044   -0.110063
    3          6       -0.324175   -0.276752
    4          6       -0.445023   -0.390765
    5          6       -0.326553   -0.275163
    6          6        0.118249    0.119892
    7          6       -0.005593   -0.033253
    8          8        1.686762    1.732445
    9          6        0.141445    0.143342
   10          6       -0.219607   -0.168367
   11          6       -0.284326   -0.229745
   12          6       -0.062075   -0.010205
   13          6       -0.141756   -0.138211
   14         17       -0.230313   -0.230637
   15          6        0.094175    0.092541
   16          6        0.058347    0.029721
   17          8        1.667846    1.732125
   18          6        0.068536    0.063989
   19          1       -0.101730   -0.291306
   20          1        0.214658    0.006101
   21          1       -0.742460   -0.800826
   22          1       -0.747236   -0.802265
   23          1       -0.779334   -0.841036
   24          1       -0.590996   -0.653428
   25          1       -0.471959   -0.527052
   26          1       -0.126178   -0.183445
 -----------------------------------------------

 Dipole moment (in Debye)
 -----------------------------------------------
                 X        Y        Z     Total
 -----------------------------------------------
 CM5         26.4210 -23.2438   5.2470  35.5791
 Hirshfeld   26.4292 -23.7319   4.6984  35.8299
 -----------------------------------------------

    2   -1203.4593145450      4.13e-03  
Hirshfeld: reading atomic densities from disk.

 Charges (in A.U.) from CM5PAC (Nov. 11, 2011)
 -----------------------------------------------
 Center     Atomic      CM5         Hirshfeld
 Number     Number      Charge      Charge
 -----------------------------------------------
    1          7       -0.525910   -0.091887
    2          6        0.039084   -0.011935
    3          6       -0.054496   -0.007074
    4          6       -0.060572   -0.006314
    5          6       -0.091476   -0.040086
    6          6       -0.064669   -0.063027
    7          6       -0.076055   -0.103715
    8          8       -0.817222   -0.771539
    9          6       -0.054946   -0.053049
   10          6       -0.046530    0.004710
   11          6       -0.006006    0.048575
   12          6        0.030886    0.082755
   13          6       -0.041935   -0.038390
   14         17       -0.106304   -0.106629
   15          6       -0.046620   -0.048254
   16          6       -0.068565   -0.097191
   17          8       -0.767360   -0.703081
   18          6       -0.048150   -0.052696
   19          1        0.269080    0.079504
   20          1        0.235029    0.026471
   21          1        0.040273   -0.018093
   22          1        0.040496   -0.014533
   23          1        0.038905   -0.022797
   24          1        0.054260   -0.008172
   25          1        0.059548    0.004456
   26          1        0.068269    0.011002
 -----------------------------------------------

 Dipole moment (in Debye)
 -----------------------------------------------
                 X        Y        Z     Total
 -----------------------------------------------
 CM5          0.1534  -2.0217   0.8253   2.1890
 Hirshfeld    0.1617  -2.5098   0.2767   2.5301
 -----------------------------------------------

    3   -1198.1444312462      1.12e-02  
Hirshfeld: reading atomic densities from disk.

 Charges (in A.U.) from CM5PAC (Nov. 11, 2011)
 -----------------------------------------------
 Center     Atomic      CM5         Hirshfeld
 Number     Number      Charge      Charge
 -----------------------------------------------
    1          7       -0.653655   -0.219633
    2          6        0.078169    0.027150
    3          6       -0.194667   -0.147244
    4          6       -0.166776   -0.112517
    5          6       -0.168552   -0.117162
    6          6       -0.103836   -0.102193
    7          6        0.024070   -0.003590
    8          8       -0.634357   -0.588674
    9          6       -0.094526   -0.092629
   10          6       -0.143074   -0.091834
   11          6       -0.147953   -0.093372
   12          6       -0.161078   -0.109209
   13          6        0.032756    0.036301
   14         17       -0.079492   -0.079817
   15          6       -0.067804   -0.069437
   16          6        0.065083    0.036456
   17          8       -0.555529   -0.491250
   18          6       -0.084148   -0.088695
   19          1        0.297189    0.107613
   20          1        0.263549    0.054992
   21          1        0.073965    0.015599
   22          1        0.078408    0.023379
   23          1        0.069075    0.007373
   24          1        0.082227    0.019794
   25          1        0.096481    0.041388
   26          1        0.093663    0.036396
 -----------------------------------------------

 Dipole moment (in Debye)
 -----------------------------------------------
                 X        Y        Z     Total
 -----------------------------------------------
 CM5         -0.2982  -3.1878   1.3976   3.4935
 Hirshfeld   -0.2900  -3.6758   0.8491   3.7838
 -----------------------------------------------

    4   -1203.6092360112      3.43e-03  
Hirshfeld: reading atomic densities from disk.

 Charges (in A.U.) from CM5PAC (Nov. 11, 2011)
 -----------------------------------------------
 Center     Atomic      CM5         Hirshfeld
 Number     Number      Charge      Charge
 -----------------------------------------------
    1          7       -0.648600   -0.214577
    2          6        0.061458    0.010439
    3          6       -0.168687   -0.121265
    4          6       -0.142803   -0.088545
    5          6       -0.171105   -0.119715
    6          6       -0.062796   -0.061154
    7          6        0.019854   -0.007806
    8          8       -0.511268   -0.465584
    9          6       -0.058692   -0.056795
   10          6       -0.124672   -0.073432
   11          6       -0.120681   -0.066099
   12          6       -0.111016   -0.059146
   13          6       -0.044358   -0.040813
   14         17       -0.134011   -0.134336
   15          6       -0.096967   -0.098601
   16          6       -0.019957   -0.048583
   17          8       -0.505893   -0.441614
   18          6       -0.077959   -0.082505
   19          1        0.274209    0.084633
   20          1        0.264742    0.056185
   21          1        0.056903   -0.001463
   22          1        0.058083    0.003054
   23          1        0.053415   -0.008287
   24          1        0.065257    0.002824
   25          1        0.069292    0.014199
   26          1        0.075209    0.017942
 -----------------------------------------------

 Dipole moment (in Debye)
 -----------------------------------------------
                 X        Y        Z     Total
 -----------------------------------------------
 CM5         -0.6369   0.0217   0.7910   1.0157
 Hirshfeld   -0.6286  -0.4664   0.2424   0.8194
 -----------------------------------------------

    5   -1203.8794273373      1.05e-03  
Hirshfeld: reading atomic densities from disk.

 Charges (in A.U.) from CM5PAC (Nov. 11, 2011)
 -----------------------------------------------
 Center     Atomic      CM5         Hirshfeld
 Number     Number      Charge      Charge
 -----------------------------------------------
    1          7       -0.640631   -0.206608
    2          6        0.062490    0.011471
    3          6       -0.187966   -0.140544
    4          6       -0.155863   -0.101605
    5          6       -0.159488   -0.108098
    6          6       -0.084803   -0.083160
    7          6        0.001545   -0.026115
    8          8       -0.560344   -0.514660
    9          6       -0.079563   -0.077665
   10          6       -0.139961   -0.088721
   11          6       -0.150301   -0.095719
   12          6       -0.165772   -0.113903
   13          6        0.021369    0.024914
   14         17       -0.135324   -0.135649
   15          6       -0.052692   -0.054326
   16          6        0.060812    0.032185
   17          8       -0.444233   -0.379954
   18          6       -0.075195   -0.079741
   19          1        0.264847    0.075271
   20          1        0.256657    0.048099
   21          1        0.053397   -0.004969
   22          1        0.058168    0.003139
   23          1        0.051382   -0.010320
   24          1        0.063396    0.000964
   25          1        0.069528    0.014435
   26          1        0.067486    0.010219
 -----------------------------------------------

 Dipole moment (in Debye)
 -----------------------------------------------
                 X        Y        Z     Total
 -----------------------------------------------
 CM5         -1.2822  -2.5634   1.3666   3.1753
 Hirshfeld   -1.2740  -3.0515   0.8181   3.4064
 -----------------------------------------------

    6   -1203.9075451076      5.87e-04  
Hirshfeld: reading atomic densities from disk.

 Charges (in A.U.) from CM5PAC (Nov. 11, 2011)
 -----------------------------------------------
 Center     Atomic      CM5         Hirshfeld
 Number     Number      Charge      Charge
 -----------------------------------------------
    1          7       -0.650081   -0.216058
    2          6        0.064264    0.013246
    3          6       -0.183546   -0.136123
    4          6       -0.161686   -0.107428
    5          6       -0.158090   -0.106700
    6          6       -0.082537   -0.080895
    7          6        0.030001    0.002341
    8          8       -0.511126   -0.465442
    9          6       -0.081529   -0.079632
   10          6       -0.133260   -0.082020
   11          6       -0.156637   -0.102056
   12          6       -0.157773   -0.105903
   13          6       -0.001505    0.002040
   14         17       -0.124588   -0.124912
   15          6       -0.076400   -0.078033
   16          6        0.035537    0.006911
   17          8       -0.469217   -0.404939
   18          6       -0.077867   -0.082414
   19          1        0.268553    0.078976
   20          1        0.258896    0.050339
   21          1        0.056102   -0.002263
   22          1        0.059711    0.004682
   23          1        0.051389   -0.010313
   24          1        0.062552    0.000120
   25          1        0.068528    0.013436
   26          1        0.069240    0.011973
 -----------------------------------------------

 Dipole moment (in Debye)
 -----------------------------------------------
                 X        Y        Z     Total
 -----------------------------------------------
 CM5         -1.2738  -1.1499   1.0693   2.0219
 Hirshfeld   -1.2656  -1.6379   0.5207   2.1344
 -----------------------------------------------

    7   -1203.9158305444      3.54e-04  
Hirshfeld: reading atomic densities from disk.

 Charges (in A.U.) from CM5PAC (Nov. 11, 2011)
 -----------------------------------------------
 Center     Atomic      CM5         Hirshfeld
 Number     Number      Charge      Charge
 -----------------------------------------------
    1          7       -0.652797   -0.218774
    2          6        0.065468    0.014449
    3          6       -0.185738   -0.138316
    4          6       -0.156949   -0.102691
    5          6       -0.165639   -0.114249
    6          6       -0.080480   -0.078837
    7          6        0.020603   -0.007057
    8          8       -0.519706   -0.474023
    9          6       -0.076499   -0.074601
   10          6       -0.137124   -0.085884
   11          6       -0.149696   -0.095115
   12          6       -0.154827   -0.102957
   13          6       -0.003963   -0.000418
   14         17       -0.129551   -0.129876
   15          6       -0.076547   -0.078181
   16          6        0.033982    0.005356
   17          8       -0.451785   -0.387506
   18          6       -0.078578   -0.083125
   19          1        0.268983    0.079407
   20          1        0.259304    0.050746
   21          1        0.056954   -0.001412
   22          1        0.060961    0.005932
   23          1        0.052725   -0.008977
   24          1        0.062748    0.000316
   25          1        0.068034    0.012942
   26          1        0.069054    0.011787
 -----------------------------------------------

 Dipole moment (in Debye)
 -----------------------------------------------
                 X        Y        Z     Total
 -----------------------------------------------
 CM5         -1.2912  -1.4299   1.1452   2.2413
 Hirshfeld   -1.2830  -1.9180   0.5966   2.3834
 -----------------------------------------------

    8   -1203.9190908323      1.18e-04  
Hirshfeld: reading atomic densities from disk.

 Charges (in A.U.) from CM5PAC (Nov. 11, 2011)
 -----------------------------------------------
 Center     Atomic      CM5         Hirshfeld
 Number     Number      Charge      Charge
 -----------------------------------------------
    1          7       -0.650694   -0.216671
    2          6        0.064369    0.013350
    3          6       -0.185840   -0.138417
    4          6       -0.158073   -0.103814
    5          6       -0.163536   -0.112146
    6          6       -0.079371   -0.077729
    7          6        0.020640   -0.007020
    8          8       -0.517662   -0.471978
    9          6       -0.077313   -0.075415
   10          6       -0.137838   -0.086598
   11          6       -0.153354   -0.098772
   12          6       -0.158312   -0.106443
   13          6        0.000188    0.003734
   14         17       -0.131284   -0.131609
   15          6       -0.072940   -0.074574
   16          6        0.036994    0.008368
   17          8       -0.456738   -0.392460
   18          6       -0.077296   -0.081842
   19          1        0.268243    0.078667
   20          1        0.259352    0.050795
   21          1        0.056857   -0.001509
   22          1        0.060749    0.005720
   23          1        0.052265   -0.009437
   24          1        0.062564    0.000132
   25          1        0.068026    0.012933
   26          1        0.068938    0.011671
 -----------------------------------------------

 Dipole moment (in Debye)
 -----------------------------------------------
                 X        Y        Z     Total
 -----------------------------------------------
 CM5         -1.3854  -1.3763   1.1323   2.2574
 Hirshfeld   -1.3772  -1.8644   0.5837   2.3903
 -----------------------------------------------

    9   -1203.9190395587      4.04e-05  
Hirshfeld: reading atomic densities from disk.

 Charges (in A.U.) from CM5PAC (Nov. 11, 2011)
 -----------------------------------------------
 Center     Atomic      CM5         Hirshfeld
 Number     Number      Charge      Charge
 -----------------------------------------------
    1          7       -0.651045   -0.217022
    2          6        0.064627    0.013609
    3          6       -0.185042   -0.137620
    4          6       -0.157893   -0.103635
    5          6       -0.163043   -0.111653
    6          6       -0.080392   -0.078749
    7          6        0.021612   -0.006048
    8          8       -0.518263   -0.472580
    9          6       -0.078186   -0.076288
   10          6       -0.136945   -0.085705
   11          6       -0.153020   -0.098438
   12          6       -0.157712   -0.105843
   13          6       -0.001392    0.002153
   14         17       -0.130128   -0.130453
   15          6       -0.074758   -0.076391
   16          6        0.036582    0.007956
   17          8       -0.455085   -0.390806
   18          6       -0.077921   -0.082467
   19          1        0.268302    0.078726
   20          1        0.259339    0.050782
   21          1        0.056929   -0.001437
   22          1        0.060845    0.005817
   23          1        0.052365   -0.009337
   24          1        0.062515    0.000083
   25          1        0.067812    0.012719
   26          1        0.068831    0.011563
 -----------------------------------------------

 Dipole moment (in Debye)
 -----------------------------------------------
                 X        Y        Z     Total
 -----------------------------------------------
 CM5         -1.4060  -1.3882   1.1365   2.2794
 Hirshfeld   -1.3977  -1.8763   0.5880   2.4124
 -----------------------------------------------

   10   -1203.9194909911      1.67e-05  
Hirshfeld: reading atomic densities from disk.

 Charges (in A.U.) from CM5PAC (Nov. 11, 2011)
 -----------------------------------------------
 Center     Atomic      CM5         Hirshfeld
 Number     Number      Charge      Charge
 -----------------------------------------------
    1          7       -0.651212   -0.217189
    2          6        0.064696    0.013677
    3          6       -0.185333   -0.137911
    4          6       -0.157873   -0.103615
    5          6       -0.163497   -0.112107
    6          6       -0.080234   -0.078591
    7          6        0.021378   -0.006282
    8          8       -0.518136   -0.472452
    9          6       -0.077709   -0.075812
   10          6       -0.137390   -0.086150
   11          6       -0.152931   -0.098349
   12          6       -0.157654   -0.105785
   13          6       -0.001052    0.002494
   14         17       -0.130313   -0.130638
   15          6       -0.074183   -0.075816
   16          6        0.036515    0.007889
   17          8       -0.455315   -0.391036
   18          6       -0.077690   -0.082237
   19          1        0.268367    0.078791
   20          1        0.259341    0.050783
   21          1        0.057043   -0.001323
   22          1        0.060951    0.005922
   23          1        0.052413   -0.009289
   24          1        0.062401   -0.000031
   25          1        0.067666    0.012574
   26          1        0.068685    0.011417
 -----------------------------------------------

 Dipole moment (in Debye)
 -----------------------------------------------
                 X        Y        Z     Total
 -----------------------------------------------
 CM5         -1.4062  -1.3899   1.1369   2.2807
 Hirshfeld   -1.3979  -1.8779   0.5884   2.4139
 -----------------------------------------------

   11   -1203.9193725246      4.89e-06  
Hirshfeld: reading atomic densities from disk.

 Charges (in A.U.) from CM5PAC (Nov. 11, 2011)
 -----------------------------------------------
 Center     Atomic      CM5         Hirshfeld
 Number     Number      Charge      Charge
 -----------------------------------------------
    1          7       -0.651114   -0.217091
    2          6        0.064667    0.013648
    3          6       -0.185195   -0.137773
    4          6       -0.157749   -0.103491
    5          6       -0.163334   -0.111944
    6          6       -0.080029   -0.078387
    7          6        0.021321   -0.006339
    8          8       -0.518111   -0.472427
    9          6       -0.077950   -0.076053
   10          6       -0.137306   -0.086066
   11          6       -0.153075   -0.098493
   12          6       -0.157823   -0.105954
   13          6       -0.001165    0.002380
   14         17       -0.130310   -0.130634
   15          6       -0.074461   -0.076095
   16          6        0.036527    0.007901
   17          8       -0.455207   -0.390928
   18          6       -0.077669   -0.082216
   19          1        0.268344    0.078768
   20          1        0.259327    0.050770
   21          1        0.057051   -0.001315
   22          1        0.060952    0.005924
   23          1        0.052399   -0.009303
   24          1        0.062430   -0.000002
   25          1        0.067688    0.012596
   26          1        0.068727    0.011460
 -----------------------------------------------

 Dipole moment (in Debye)
 -----------------------------------------------
                 X        Y        Z     Total
 -----------------------------------------------
 CM5         -1.4213  -1.3862   1.1367   2.2877
 Hirshfeld   -1.4130  -1.8743   0.5882   2.4198
 -----------------------------------------------

   12   -1203.9193980833      1.92e-06  
Hirshfeld: reading atomic densities from disk.

 Charges (in A.U.) from CM5PAC (Nov. 11, 2011)
 -----------------------------------------------
 Center     Atomic      CM5         Hirshfeld
 Number     Number      Charge      Charge
 -----------------------------------------------
    1          7       -0.651112   -0.217090
    2          6        0.064668    0.013649
    3          6       -0.185183   -0.137760
    4          6       -0.157780   -0.103522
    5          6       -0.163342   -0.111952
    6          6       -0.080168   -0.078526
    7          6        0.021363   -0.006297
    8          8       -0.518119   -0.472435
    9          6       -0.077869   -0.075971
   10          6       -0.137292   -0.086052
   11          6       -0.153051   -0.098470
   12          6       -0.157761   -0.105891
   13          6       -0.001135    0.002410
   14         17       -0.130365   -0.130690
   15          6       -0.074392   -0.076026
   16          6        0.036520    0.007894
   17          8       -0.455224   -0.390945
   18          6       -0.077747   -0.082294
   19          1        0.268354    0.078778
   20          1        0.259336    0.050778
   21          1        0.057074   -0.001292
   22          1        0.060981    0.005952
   23          1        0.052417   -0.009285
   24          1        0.062407   -0.000025
   25          1        0.067655    0.012563
   26          1        0.068702    0.011435
 -----------------------------------------------

 Dipole moment (in Debye)
 -----------------------------------------------
                 X        Y        Z     Total
 -----------------------------------------------
 CM5         -1.4205  -1.3860   1.1367   2.2871
 Hirshfeld   -1.4122  -1.8741   0.5882   2.4192
 -----------------------------------------------

   13   -1203.9193989224      1.03e-06  
Hirshfeld: reading atomic densities from disk.

 Charges (in A.U.) from CM5PAC (Nov. 11, 2011)
 -----------------------------------------------
 Center     Atomic      CM5         Hirshfeld
 Number     Number      Charge      Charge
 -----------------------------------------------
    1          7       -0.651135   -0.217112
    2          6        0.064683    0.013664
    3          6       -0.185183   -0.137760
    4          6       -0.157767   -0.103509
    5          6       -0.163353   -0.111963
    6          6       -0.080114   -0.078472
    7          6        0.021359   -0.006301
    8          8       -0.518138   -0.472454
    9          6       -0.077895   -0.075998
   10          6       -0.137323   -0.086083
   11          6       -0.153051   -0.098469
   12          6       -0.157768   -0.105898
   13          6       -0.001153    0.002392
   14         17       -0.130341   -0.130665
   15          6       -0.074406   -0.076040
   16          6        0.036521    0.007895
   17          8       -0.455237   -0.390958
   18          6       -0.077685   -0.082231
   19          1        0.268356    0.078780
   20          1        0.259339    0.050782
   21          1        0.057075   -0.001291
   22          1        0.060982    0.005953
   23          1        0.052416   -0.009286
   24          1        0.062405   -0.000027
   25          1        0.067650    0.012558
   26          1        0.068697    0.011430
 -----------------------------------------------

 Dipole moment (in Debye)
 -----------------------------------------------
                 X        Y        Z     Total
 -----------------------------------------------
 CM5         -1.4222  -1.3863   1.1368   2.2884
 Hirshfeld   -1.4139  -1.8744   0.5883   2.4204
 -----------------------------------------------

   14   -1203.9193978682      3.68e-07  
Hirshfeld: reading atomic densities from disk.

 Charges (in A.U.) from CM5PAC (Nov. 11, 2011)
 -----------------------------------------------
 Center     Atomic      CM5         Hirshfeld
 Number     Number      Charge      Charge
 -----------------------------------------------
    1          7       -0.651124   -0.217102
    2          6        0.064676    0.013657
    3          6       -0.185183   -0.137760
    4          6       -0.157759   -0.103501
    5          6       -0.163355   -0.111965
    6          6       -0.080121   -0.078478
    7          6        0.021351   -0.006309
    8          8       -0.518132   -0.472448
    9          6       -0.077887   -0.075989
   10          6       -0.137318   -0.086078
   11          6       -0.153055   -0.098473
   12          6       -0.157773   -0.105903
   13          6       -0.001146    0.002399
   14         17       -0.130340   -0.130664
   15          6       -0.074401   -0.076035
   16          6        0.036515    0.007889
   17          8       -0.455235   -0.390956
   18          6       -0.077705   -0.082251
   19          1        0.268357    0.078781
   20          1        0.259338    0.050781
   21          1        0.057079   -0.001287
   22          1        0.060984    0.005956
   23          1        0.052418   -0.009283
   24          1        0.062404   -0.000028
   25          1        0.067649    0.012556
   26          1        0.068696    0.011429
 -----------------------------------------------

 Dipole moment (in Debye)
 -----------------------------------------------
                 X        Y        Z     Total
 -----------------------------------------------
 CM5         -1.4224  -1.3863   1.1368   2.2885
 Hirshfeld   -1.4141  -1.8743   0.5883   2.4205
 -----------------------------------------------

   15   -1203.9193997463      1.48e-07  
Hirshfeld: reading atomic densities from disk.

 Charges (in A.U.) from CM5PAC (Nov. 11, 2011)
 -----------------------------------------------
 Center     Atomic      CM5         Hirshfeld
 Number     Number      Charge      Charge
 -----------------------------------------------
    1          7       -0.651127   -0.217104
    2          6        0.064678    0.013659
    3          6       -0.185182   -0.137760
    4          6       -0.157763   -0.103505
    5          6       -0.163353   -0.111963
    6          6       -0.080121   -0.078479
    7          6        0.021354   -0.006306
    8          8       -0.518133   -0.472449
    9          6       -0.077887   -0.075989
   10          6       -0.137318   -0.086078
   11          6       -0.153055   -0.098473
   12          6       -0.157770   -0.105901
   13          6       -0.001147    0.002398
   14         17       -0.130343   -0.130668
   15          6       -0.074402   -0.076035
   16          6        0.036518    0.007892
   17          8       -0.455236   -0.390957
   18          6       -0.077701   -0.082247
   19          1        0.268357    0.078781
   20          1        0.259338    0.050780
   21          1        0.057079   -0.001287
   22          1        0.060985    0.005956
   23          1        0.052418   -0.009283
   24          1        0.062404   -0.000028
   25          1        0.067648    0.012555
   26          1        0.068696    0.011428
 -----------------------------------------------

 Dipole moment (in Debye)
 -----------------------------------------------
                 X        Y        Z     Total
 -----------------------------------------------
 CM5         -1.4224  -1.3862   1.1368   2.2885
 Hirshfeld   -1.4141  -1.8743   0.5883   2.4205
 -----------------------------------------------

   16   -1203.9193988926      4.42e-08  
Hirshfeld: reading atomic densities from disk.

 Charges (in A.U.) from CM5PAC (Nov. 11, 2011)
 -----------------------------------------------
 Center     Atomic      CM5         Hirshfeld
 Number     Number      Charge      Charge
 -----------------------------------------------
    1          7       -0.651127   -0.217104
    2          6        0.064678    0.013659
    3          6       -0.185182   -0.137759
    4          6       -0.157762   -0.103504
    5          6       -0.163354   -0.111964
    6          6       -0.080122   -0.078480
    7          6        0.021354   -0.006306
    8          8       -0.518132   -0.472448
    9          6       -0.077887   -0.075990
   10          6       -0.137319   -0.086079
   11          6       -0.153054   -0.098473
   12          6       -0.157771   -0.105901
   13          6       -0.001146    0.002399
   14         17       -0.130344   -0.130668
   15          6       -0.074401   -0.076035
   16          6        0.036517    0.007891
   17          8       -0.455235   -0.390956
   18          6       -0.077701   -0.082248
   19          1        0.268357    0.078781
   20          1        0.259338    0.050781
   21          1        0.057079   -0.001287
   22          1        0.060985    0.005956
   23          1        0.052419   -0.009283
   24          1        0.062404   -0.000028
   25          1        0.067648    0.012555
   26          1        0.068696    0.011428
 -----------------------------------------------

 Dipole moment (in Debye)
 -----------------------------------------------
                 X        Y        Z     Total
 -----------------------------------------------
 CM5         -1.4224  -1.3862   1.1368   2.2885
 Hirshfeld   -1.4142  -1.8743   0.5883   2.4205
 -----------------------------------------------

   17   -1203.9193993123      1.38e-08  
   18   -1203.9193992599      6.54e-09  Convergence criterion met
 ---------------------------------------
 SCF time:   CPU 5216.08s  wall 660.00s 
(1)  E-EN(liq) elect-nuc energy of solute              -1203.919399260 a.u.
(2)  G-P(liq) polarization free energy of solvation          -164.7145 kcal/mol
(3)  G-ENP(liq) elect-nuc-pol free energy of system    -1204.181888476 a.u.
(4)  G-CDS(liq) cavity-dispersion-solvent structure 
     free energy                                               -8.4351 kcal/mol
(5)  G-P-CDS(liq) = G-P(liq) + G-CDS(liq) = (2) + (4)        -173.1495 kcal/mol
(6)  G-S(liq) free energy of system = (1) + (5)        -1204.195330627 a.u.
 SCF   energy in the final basis set =    -1204.1953306265
 Total energy in the final basis set =    -1204.1953306265
 
 --------------------------------------------------------------
 
                    Orbital Energies (a.u.)
 --------------------------------------------------------------
 
 Alpha MOs
 -- Occupied --
******** -19.0359 -19.0275 -14.2980 -10.2290 -10.2118 -10.2021 -10.1873
-10.1739 -10.1731 -10.1727 -10.1701 -10.1657 -10.1625 -10.1611 -10.1581
-10.1565 -10.1550  -9.4483  -7.2127  -7.2036  -7.2027  -0.9599  -0.9447
 -0.9007  -0.8689  -0.8280  -0.8168  -0.7729  -0.7290  -0.7261  -0.7186
 -0.6561  -0.6271  -0.6175  -0.5697  -0.5484  -0.5326  -0.5145  -0.4895
 -0.4670  -0.4620  -0.4576  -0.4368  -0.4297  -0.4171  -0.4049  -0.4021
 -0.3841  -0.3774  -0.3760  -0.3702  -0.3529  -0.3471  -0.3388  -0.3309
 -0.3236  -0.3135  -0.2967  -0.2933  -0.2422  -0.2390  -0.2346  -0.2135
 -0.2067  -0.2001  -0.1206
 -- Virtual --
 -0.0674  -0.0609  -0.0560  -0.0466  -0.0448  -0.0413  -0.0289  -0.0266
 -0.0247  -0.0125  -0.0061   0.0010   0.0057   0.0091   0.0162   0.0198
  0.0222   0.0283   0.0340   0.0392   0.0409   0.0440   0.0469   0.0504
  0.0537   0.0559   0.0627   0.0642   0.0706   0.0723   0.0769   0.0831
  0.0876   0.0879   0.0891   0.0915   0.0946   0.0989   0.0993   0.1060
  0.1105   0.1165   0.1214   0.1271   0.1294   0.1335   0.1374   0.1445
  0.1532   0.1588   0.1618   0.1644   0.1700   0.1714   0.1752   0.1783
  0.1917   0.1939   0.1992   0.2050   0.2072   0.2080   0.2185   0.2253
  0.2315   0.2341   0.2389   0.2395   0.2468   0.2500   0.2539   0.2574
  0.2642   0.2670   0.2711   0.2732   0.2791   0.2811   0.2868   0.2923
  0.2953   0.3004   0.3026   0.3056   0.3095   0.3132   0.3216   0.3241
  0.3319   0.3399   0.3438   0.3573   0.3604   0.3692   0.3780   0.3919
  0.4067   0.4117   0.4241   0.4370   0.4506   0.4586   0.4714   0.4800
  0.4883   0.4997   0.5139   0.5253   0.5352   0.5380   0.5428   0.5458
  0.5542   0.5642   0.5693   0.5837   0.5897   0.5908   0.5928   0.5981
  0.6006   0.6171   0.6213   0.6318   0.6380   0.6415   0.6490   0.6549
  0.6582   0.6650   0.6736   0.6804   0.6889   0.6968   0.7012   0.7175
  0.7372   0.7391   0.7516   0.7657   0.7674   0.7773   0.7850   0.7895
  0.7978   0.8117   0.8130   0.8346   0.8421   0.8434   0.8503   0.8563
  0.8668   0.8841   0.8857   0.8962   0.9010   0.9081   0.9103   0.9163
  0.9244   0.9447   0.9463   0.9529   0.9580   0.9764   0.9776   0.9878
  0.9921   1.0012   1.0117   1.0162   1.0231   1.0314   1.0442   1.0496
  1.0635   1.0721   1.0764   1.1062   1.1144   1.1219   1.1438   1.1514
  1.1543   1.1701   1.1969   1.2012   1.2132   1.2538   1.2605   1.2707
  1.2777   1.2888   1.3049   1.3082   1.3152   1.3288   1.3530   1.3640
  1.3913   1.4180   1.4374   1.4713   1.4770   1.4920   1.5039   1.5104
  1.5148   1.5216   1.5313   1.5461   1.5561   1.5710   1.5765   1.5910
  1.5998   1.6138   1.6227   1.6383   1.6432   1.6600   1.6887   1.6971
  1.7091   1.7228   1.7332   1.7454   1.7547   1.7593   1.7831   1.7861
  1.8217   1.8283   1.8720   1.8764   1.8880   1.8926   1.8958   1.9055
  1.9222   1.9355   1.9417   1.9497   1.9643   1.9775   1.9871   1.9915
  1.9946   2.0079   2.0116   2.0204   2.0313   2.0447   2.0785   2.0929
  2.1058   2.1200   2.1378   2.1855   2.1958   2.2259   2.2436   2.2647
  2.2911   2.3042   2.3324   2.3366   2.3588   2.3705   2.3884   2.4258
  2.4267   2.4483   2.4660   2.4819   2.5340   2.5447   2.5555   2.5822
  2.5907   2.6142   2.6457   2.6597   2.6756   2.6862   2.7173   2.7254
  2.7284   2.7296   2.7467   2.7585   2.7648   2.7763   2.7798   2.7863
  2.7951   2.8012   2.8132   2.8230   2.8286   2.8349   2.8529   2.8615
  2.8905   2.8978   2.9197   2.9265   2.9504   2.9801   2.9927   3.0143
  3.0464   3.0574   3.0960   3.1053   3.1228   3.1444   3.1674   3.1918
  3.2107   3.2202   3.2374   3.2768   3.3111   3.3207   3.3358   3.3537
  3.3661   3.4082   3.4244   3.4362   3.4774   3.5036   3.5125   3.5214
  3.5557   3.5776   3.5937   3.6641   3.7344   3.7920   3.8697   3.8911
  3.9869   4.0521   4.0618   4.0755   4.1457   4.1604   4.3062   4.3467
  4.5050   4.7981   4.8140   4.8343   4.8564   5.0067   5.1322   5.1490
  5.3296   5.3805   5.7930   5.8607   9.8245  23.4990  23.6892  23.8651
 23.8832  23.9095  23.9473  23.9629  23.9744  23.9947  24.0315  24.0891
 24.0995  24.1843  24.1899  25.8672  26.3174  26.6563  35.6663  50.0943
 50.1490 215.8225
 --------------------------------------------------------------
 
          Ground-State Mulliken Net Atomic Charges

     Atom                 Charge (a.u.)
  ----------------------------------------
      1 N                    -0.203853
      2 C                    -0.290791
      3 C                     2.542190
      4 C                     1.133837
      5 C                    -0.703586
      6 C                    -1.739411
      7 C                    -3.019300
      8 O                    -0.345609
      9 C                    -1.738022
     10 C                    -0.044421
     11 C                     1.044464
     12 C                     2.841790
     13 C                     1.512497
     14 Cl                    0.957685
     15 C                    -0.491759
     16 C                    -3.857467
     17 O                    -0.150226
     18 C                    -1.769779
     19 H                     0.384458
     20 H                     0.288067
     21 H                     0.324499
     22 H                     0.386494
     23 H                     0.068902
     24 H                     0.093639
     25 H                     0.375052
     26 H                     0.400649
  ----------------------------------------
  Sum of atomic charges =    -2.000000

 -----------------------------------------------------------------
                    Cartesian Multipole Moments
 -----------------------------------------------------------------
    Charge (ESU x 10^10)
                -9.6064
    Dipole Moment (Debye)
         X      -1.9385      Y      -1.5355      Z       1.1938
       Tot       2.7460
    Quadrupole Moments (Debye-Ang)
        XX    -155.0345     XY       3.3947     YY    -176.0047
        XZ      -2.9135     YZ       7.6499     ZZ    -127.4434
    Octopole Moments (Debye-Ang^2)
       XXX    -117.7678    XXY      39.6164    XYY     -68.6021
       YYY      77.8495    XXZ       9.9771    XYZ      15.2447
       YYZ       6.7355    XZZ     -38.2002    YZZ      26.4178
       ZZZ      -4.2330
    Hexadecapole Moments (Debye-Ang^3)
      XXXX   -4583.0667   XXXY     443.5514   XXYY   -1274.6055
      XYYY     376.9373   YYYY   -3012.1220   XXXZ     -46.9241
      XXYZ      37.9259   XYYZ     -16.9192   YYYZ     267.0732
      XXZZ    -838.0734   XYZZ     133.7095   YYZZ    -506.8103
      XZZZ      11.8799   YZZZ     223.6168   ZZZZ    -259.0286
 -----------------------------------------------------------------
 Total job time:  690.33s(wall), 5223.00s(cpu) 
 Sat Feb  3 11:34:57 2024

        *************************************************************
        *                                                           *
        *  Thank you very much for using Q-Chem.  Have a nice day.  *
        *                                                           *
        *************************************************************


