 Entering Gaussian System, Link 0=g16
 Input=160-PCM.com
 Output=160-PCM.log
 Initial command:
 /sysapps/ubuntu-applications/gaussian/Gaussian/AVX2/g16/l1.exe "/scratch/selhajj1/4286528/Gau-1892449.inp" -scrdir="/scratch/selhajj1/4286528/"
 Entering Link 1 = /sysapps/ubuntu-applications/gaussian/Gaussian/AVX2/g16/l1.exe PID=   1892456.
  
 Copyright (c) 1988,1990,1992,1993,1995,1998,2003,2009,2016,
            Gaussian, Inc.  All Rights Reserved.
  
 This is part of the Gaussian(R) 16 program.  It is based on
 the Gaussian(R) 09 system (copyright 2009, Gaussian, Inc.),
 the Gaussian(R) 03 system (copyright 2003, Gaussian, Inc.),
 the Gaussian(R) 98 system (copyright 1998, Gaussian, Inc.),
 the Gaussian(R) 94 system (copyright 1995, Gaussian, Inc.),
 the Gaussian 92(TM) system (copyright 1992, Gaussian, Inc.),
 the Gaussian 90(TM) system (copyright 1990, Gaussian, Inc.),
 the Gaussian 88(TM) system (copyright 1988, Gaussian, Inc.),
 the Gaussian 86(TM) system (copyright 1986, Carnegie Mellon
 University), and the Gaussian 82(TM) system (copyright 1983,
 Carnegie Mellon University). Gaussian is a federally registered
 trademark of Gaussian, Inc.
  
 This software contains proprietary and confidential information,
 including trade secrets, belonging to Gaussian, Inc.
  
 This software is provided under written license and may be
 used, copied, transmitted, or stored only in accord with that
 written license.
  
 The following legend is applicable only to US Government
 contracts under FAR:
  
                    RESTRICTED RIGHTS LEGEND
  
 Use, reproduction and disclosure by the US Government is
 subject to restrictions as set forth in subparagraphs (a)
 and (c) of the Commercial Computer Software - Restricted
 Rights clause in FAR 52.227-19.
  
 Gaussian, Inc.
 340 Quinnipiac St., Bldg. 40, Wallingford CT 06492
  
  
 ---------------------------------------------------------------
 Warning -- This program may not be used in any manner that
 competes with the business of Gaussian, Inc. or will provide
 assistance to any competitor of Gaussian, Inc.  The licensee
 of this program is prohibited from giving any competitor of
 Gaussian, Inc. access to this program.  By using this program,
 the user acknowledges that Gaussian, Inc. is engaged in the
 business of creating and licensing software in the field of
 computational chemistry and represents and warrants to the
 licensee that it is not a competitor of Gaussian, Inc. and that
 it will not use this program in any manner prohibited above.
 ---------------------------------------------------------------
  

 Cite this work as:
 Gaussian 16, Revision A.03,
 M. J. Frisch, G. W. Trucks, H. B. Schlegel, G. E. Scuseria, 
 M. A. Robb, J. R. Cheeseman, G. Scalmani, V. Barone, 
 G. A. Petersson, H. Nakatsuji, X. Li, M. Caricato, A. V. Marenich, 
 J. Bloino, B. G. Janesko, R. Gomperts, B. Mennucci, H. P. Hratchian, 
 J. V. Ortiz, A. F. Izmaylov, J. L. Sonnenberg, D. Williams-Young, 
 F. Ding, F. Lipparini, F. Egidi, J. Goings, B. Peng, A. Petrone, 
 T. Henderson, D. Ranasinghe, V. G. Zakrzewski, J. Gao, N. Rega, 
 G. Zheng, W. Liang, M. Hada, M. Ehara, K. Toyota, R. Fukuda, 
 J. Hasegawa, M. Ishida, T. Nakajima, Y. Honda, O. Kitao, H. Nakai, 
 T. Vreven, K. Throssell, J. A. Montgomery, Jr., J. E. Peralta, 
 F. Ogliaro, M. J. Bearpark, J. J. Heyd, E. N. Brothers, K. N. Kudin, 
 V. N. Staroverov, T. A. Keith, R. Kobayashi, J. Normand, 
 K. Raghavachari, A. P. Rendell, J. C. Burant, S. S. Iyengar, 
 J. Tomasi, M. Cossi, J. M. Millam, M. Klene, C. Adamo, R. Cammi, 
 J. W. Ochterski, R. L. Martin, K. Morokuma, O. Farkas, 
 J. B. Foresman, and D. J. Fox, Gaussian, Inc., Wallingford CT, 2016.
 
 ******************************************
 Gaussian 16:  ES64L-G16RevA.03 25-Dec-2016
                14-Jan-2024 
 ******************************************
 %chk=160-PCM.chk
 %nproc=8
 Will use up to    8 processors via shared memory.
 %mem=30GB
 ----------------------------------------------------------------
 #P UB3LYP/6-311++G(d,p) SCRF=(PCM,Solvent=n,n-DiMethylFormamide)
 ----------------------------------------------------------------
 1/38=1,172=1/1;
 2/12=2,17=6,18=5,40=1/2;
 3/5=4,6=6,7=1111,11=2,25=1,30=1,70=2201,72=148,74=-5,116=2/1,2,3;
 4//1;
 5/5=2,38=5,53=148/2;
 6/7=2,8=2,9=2,10=2,28=1/1;
 99/5=1,9=1/99;
 Leave Link    1 at Sun Jan 14 00:59:42 2024, MaxMem=  4026531840 cpu:               0.7 elap:               0.2
 (Enter /sysapps/ubuntu-applications/gaussian/Gaussian/AVX2/g16/l101.exe)
 ------------------
 Quinone PCM in DMF
 ------------------
 Symbolic Z-matrix:
 Charge =  0 Multiplicity = 1
 C                    -1.77128   1.88556  -5.15505 
 C                    -1.69147   0.54953  -5.52799 
 C                    -1.3239   -0.42118  -4.5914 
 C                    -1.48416   2.26717  -3.83968 
 C                    -1.11579   1.29161  -2.90226 
 C                    -1.03715  -0.05154  -3.28342 
 C                    -1.58345   3.71764  -3.4846 
 C                    -0.80608   1.67237  -1.50056 
 C                    -1.27414   4.11477  -2.06745 
 C                    -0.90464   3.11124  -1.14035 
 C                    -1.3352    5.44121  -1.61747 
 C                    -1.04415   5.80153  -0.27402 
 C                    -0.6776    4.75592   0.60039 
 C                    -0.60934   3.44747   0.1814 
 O                    -1.90686   4.52433  -4.33633 
 O                    -0.48186   0.8331   -0.67281 
 H                    -2.05406   2.65171  -5.86568 
 H                    -1.91519   0.2604   -6.54858 
 H                    -1.26258  -1.46281  -4.88544 
 H                    -0.75013  -0.7832   -2.53853 
 Br                   -0.25848   5.17159   2.42517 
 H                    -0.32724   2.65486   0.86137 
 N                    -1.13965   7.08759   0.15372 
 Cl                   -1.77189   6.78183  -2.66114 
 H                    -1.27901   7.82195  -0.52012 
 H                    -0.80052   7.32677   1.0708 
 
 ITRead=  0  0  0  0  0  0  0  0  0  0  0  0  0  0  0  0  0  0  0  0
 ITRead=  0  0  0  0  0  0
 MicOpt= -1 -1 -1 -1 -1 -1 -1 -1 -1 -1 -1 -1 -1 -1 -1 -1 -1 -1 -1 -1
 MicOpt= -1 -1 -1 -1 -1 -1
 NAtoms=     26 NQM=       26 NQMF=       0 NMMI=      0 NMMIF=      0
                NMic=       0 NMicF=      0.
                    Isotopes and Nuclear Properties:
 (Nuclear quadrupole moments (NQMom) in fm**2, nuclear magnetic moments (NMagM)
  in nuclear magnetons)

  Atom         1           2           3           4           5           6           7           8           9          10
 IAtWgt=          12          12          12          12          12          12          12          12          12          12
 AtmWgt=  12.0000000  12.0000000  12.0000000  12.0000000  12.0000000  12.0000000  12.0000000  12.0000000  12.0000000  12.0000000
 NucSpn=           0           0           0           0           0           0           0           0           0           0
 AtZEff=  -0.0000000  -0.0000000  -0.0000000  -0.0000000  -0.0000000  -0.0000000  -0.0000000  -0.0000000  -0.0000000  -0.0000000
 NQMom=    0.0000000   0.0000000   0.0000000   0.0000000   0.0000000   0.0000000   0.0000000   0.0000000   0.0000000   0.0000000
 NMagM=    0.0000000   0.0000000   0.0000000   0.0000000   0.0000000   0.0000000   0.0000000   0.0000000   0.0000000   0.0000000
 AtZNuc=   6.0000000   6.0000000   6.0000000   6.0000000   6.0000000   6.0000000   6.0000000   6.0000000   6.0000000   6.0000000

  Atom        11          12          13          14          15          16          17          18          19          20
 IAtWgt=          12          12          12          12          16          16           1           1           1           1
 AtmWgt=  12.0000000  12.0000000  12.0000000  12.0000000  15.9949146  15.9949146   1.0078250   1.0078250   1.0078250   1.0078250
 NucSpn=           0           0           0           0           0           0           1           1           1           1
 AtZEff=  -0.0000000  -0.0000000  -0.0000000  -0.0000000  -0.0000000  -0.0000000  -0.0000000  -0.0000000  -0.0000000  -0.0000000
 NQMom=    0.0000000   0.0000000   0.0000000   0.0000000   0.0000000   0.0000000   0.0000000   0.0000000   0.0000000   0.0000000
 NMagM=    0.0000000   0.0000000   0.0000000   0.0000000   0.0000000   0.0000000   2.7928460   2.7928460   2.7928460   2.7928460
 AtZNuc=   6.0000000   6.0000000   6.0000000   6.0000000   8.0000000   8.0000000   1.0000000   1.0000000   1.0000000   1.0000000

  Atom        21          22          23          24          25          26
 IAtWgt=          79           1          14          35           1           1
 AtmWgt=  78.9183361   1.0078250  14.0030740  34.9688527   1.0078250   1.0078250
 NucSpn=           3           1           2           3           1           1
 AtZEff=  -0.0000000  -0.0000000  -0.0000000  -0.0000000  -0.0000000  -0.0000000
 NQMom=   31.3000000   0.0000000   2.0440000  -8.1650000   0.0000000   0.0000000
 NMagM=    2.1063990   2.7928460   0.4037610   0.8218740   2.7928460   2.7928460
 AtZNuc=  35.0000000   1.0000000   7.0000000  17.0000000   1.0000000   1.0000000
 Leave Link  101 at Sun Jan 14 00:59:43 2024, MaxMem=  4026531840 cpu:               1.2 elap:               0.2
 (Enter /sysapps/ubuntu-applications/gaussian/Gaussian/AVX2/g16/l202.exe)
                          Input orientation:                          
 ---------------------------------------------------------------------
 Center     Atomic      Atomic             Coordinates (Angstroms)
 Number     Number       Type             X           Y           Z
 ---------------------------------------------------------------------
      1          6           0       -1.771276    1.885558   -5.155045
      2          6           0       -1.691470    0.549527   -5.527993
      3          6           0       -1.323902   -0.421176   -4.591404
      4          6           0       -1.484163    2.267167   -3.839676
      5          6           0       -1.115787    1.291609   -2.902264
      6          6           0       -1.037151   -0.051536   -3.283424
      7          6           0       -1.583452    3.717640   -3.484596
      8          6           0       -0.806084    1.672366   -1.500564
      9          6           0       -1.274135    4.114770   -2.067448
     10          6           0       -0.904642    3.111237   -1.140349
     11          6           0       -1.335197    5.441208   -1.617470
     12          6           0       -1.044148    5.801528   -0.274020
     13          6           0       -0.677598    4.755919    0.600393
     14          6           0       -0.609342    3.447465    0.181401
     15          8           0       -1.906862    4.524328   -4.336330
     16          8           0       -0.481861    0.833097   -0.672808
     17          1           0       -2.054062    2.651712   -5.865675
     18          1           0       -1.915192    0.260396   -6.548581
     19          1           0       -1.262579   -1.462814   -4.885437
     20          1           0       -0.750127   -0.783198   -2.538533
     21         35           0       -0.258481    5.171586    2.425167
     22          1           0       -0.327237    2.654863    0.861373
     23          7           0       -1.139649    7.087586    0.153723
     24         17           0       -1.771893    6.781830   -2.661139
     25          1           0       -1.279014    7.821950   -0.520115
     26          1           0       -0.800515    7.326772    1.070804
 ---------------------------------------------------------------------
                    Distance matrix (angstroms):
                    1          2          3          4          5
     1  C    0.000000
     2  C    1.389402   0.000000
     3  C    2.416373   1.398059   0.000000
     4  C    1.399377   2.417370   2.796063   0.000000
     5  C    2.420220   2.788647   2.414568   1.402197   0.000000
     6  C    2.791816   2.414022   1.389126   2.426030   1.398394
     7  C    2.486403   3.771482   4.292108   1.496600   2.538395
     8  C    3.785799   4.273741   3.768865   2.506995   1.485145
     9  C    3.840546   4.986030   5.191111   2.568762   2.948259
    10  C    4.286155   5.141291   4.956158   2.886982   2.541648
    11  C    5.034605   6.272772   6.573580   3.877490   4.349484
    12  C    6.299837   7.456995   7.578926   5.039764   5.220361
    13  C    6.523816   7.501919   7.360352   5.153508   4.945913
    14  C    5.680431   6.493553   6.185196   4.281060   3.796471
    15  O    2.766186   4.155177   4.986273   2.349493   3.623923
    16  O    4.781288   5.011625   4.199718   3.618041   2.362746
    17  H    1.082569   2.159788   3.405810   2.139470   3.392940
    18  H    2.145648   1.084089   2.155158   3.398688   3.872735
    19  H    3.397507   2.155538   1.084078   3.880138   3.397259
    20  H    3.874421   3.405753   2.162072   3.396544   2.137950
    21  Br   8.399175   9.309653   9.035838   7.013288   6.646105
    22  H    6.234931   6.864224   6.339411   4.856815   4.079857
    23  N    7.459428   8.679437   8.884351   6.269160   6.552326
    24  Cl   5.494820   6.860534   7.470603   4.674818   5.534541
    25  H    7.547559   8.839519   9.193831   6.474348   6.953174
    26  H    8.325286   9.500998   9.610683   7.083770   7.232417
                    6          7          8          9         10
     6  C    0.000000
     7  C    3.813870   0.000000
     8  C    2.490747   2.953613   0.000000
     9  C    4.346592   1.503894   2.550640   0.000000
    10  C    3.822756   2.514757   1.486546   1.415315   0.000000
    11  C    5.747562   2.553131   3.807597   1.402015   2.416979
    12  C    6.581407   3.865390   4.314054   2.472737   2.829780
    13  C    6.190714   4.311117   3.733474   2.807900   2.405558
    14  C    4.942777   3.802817   2.453302   2.438148   1.395448
    15  O    4.775305   1.216877   4.169768   2.390796   3.635322
    16  O    2.811803   4.176152   1.222568   3.652683   2.363739
    17  H    3.874233   2.650889   4.644433   4.144316   4.884776
    18  H    3.395513   4.631478   5.357822   5.945394   6.196570
    19  H    2.146851   5.376097   4.636282   6.249051   5.922478
    20  H    1.082855   4.674078   2.666516   4.948393   4.140703
    21  Br   7.776589   6.228548   5.287322   4.725675   4.168389
    22  H    5.000791   4.647044   2.602564   3.406749   2.132736
    23  N    7.924112   4.979042   5.672084   3.713398   4.188222
    24  Cl   6.900868   3.178498   5.327884   2.777308   4.066716
    25  H    8.347823   5.072099   6.245184   4.017144   4.766095
    26  H    8.570573   5.864341   6.211624   4.515518   4.761384
                   11         12         13         14         15
    11  C    0.000000
    12  C    1.421055   0.000000
    13  C    2.412669   1.411473   0.000000
    14  C    2.781693   2.436817   1.375596   0.000000
    15  O    2.925691   4.344868   5.092736   4.822145   0.000000
    16  O    4.780717   5.016025   4.128909   2.753333   5.392329
    17  H    5.132767   6.496759   6.937750   6.267979   2.422242
    18  H    7.175867   8.416233   8.535174   7.560113   4.803669
    19  H    7.638743   8.607180   8.313193   7.085930   6.046692
    20  H    6.319327   6.969439   6.367098   5.031538   5.721883
    21  Br   4.192246   2.880922   1.917873   2.851347   6.989560
    22  H    3.863206   3.421196   2.145996   1.081741   5.745105
    23  N    2.426092   1.358687   2.418610   3.678651   5.226804
    24  Cl   1.754199   2.681220   3.992416   4.533161   2.814391
    25  H    2.622075   2.048861   3.319305   4.480704   5.082519
    26  H    3.326868   2.047994   2.616425   3.984546   6.189895
                   16         17         18         19         20
    16  O    0.000000
    17  H    5.722329   0.000000
    18  H    6.075124   2.490791   0.000000
    19  H    4.860758   4.303096   2.482218   0.000000
    20  H    2.483003   4.956685   4.304294   2.496486   0.000000
    21  Br   5.335713   8.849403  10.363042   9.923125   7.767850
    22  H    2.386724   6.945150   7.947483   7.131336   4.853706
    23  N    6.343065   7.533013   9.598587   9.925603   8.327617
    24  Cl   6.403520   5.235126   7.593539   8.554593   7.634703
    25  H    7.035825   7.477103   9.691451  10.259783   8.854508
    26  H    6.731236   8.458269  10.451373  10.627659   8.877019
                   21         22         23         24         25
    21  Br   0.000000
    22  H    2.963794   0.000000
    23  N    3.099511   4.561778   0.000000
    24  Cl   5.545612   5.614889   2.901149   0.000000
    25  H    4.091528   5.432603   1.006365   2.430795   0.000000
    26  H    2.602485   4.700488   1.006608   3.894603   1.733547
                   26
    26  H    0.000000
 Stoichiometry    C14H7BrClNO2
 Framework group  C1[X(C14H7BrClNO2)]
 Deg. of freedom    72
 Full point group                 C1      NOp   1
 Largest Abelian subgroup         C1      NOp   1
 Largest concise Abelian subgroup C1      NOp   1
                         Standard orientation:                         
 ---------------------------------------------------------------------
 Center     Atomic      Atomic             Coordinates (Angstroms)
 Number     Number       Type             X           Y           Z
 ---------------------------------------------------------------------
      1          6           0        4.239282    0.821643    0.000045
      2          6           0        5.332918   -0.035328   -0.000630
      3          6           0        5.141049   -1.420158   -0.001102
      4          6           0        2.939399    0.303415    0.000250
      5          6           0        2.749730   -1.085895   -0.000264
      6          6           0        3.854275   -1.943499   -0.000941
      7          6           0        1.792763    1.265203    0.001101
      8          6           0        1.379784   -1.659396    0.000274
      9          6           0        0.400796    0.695885   -0.000464
     10          6           0        0.236061   -0.709810   -0.000907
     11          6           0       -0.749826    1.496955   -0.001968
     12          6           0       -2.059340    0.945105   -0.007595
     13          6           0       -2.156801   -0.462992   -0.003217
     14          6           0       -1.042308   -1.269317   -0.000156
     15          8           0        2.012065    2.462156    0.002327
     16          8           0        1.198985   -2.868520    0.001608
     17          1           0        4.367358    1.896608    0.000414
     18          1           0        6.337386    0.372461   -0.000822
     19          1           0        5.996376   -2.086221   -0.001687
     20          1           0        3.677844   -3.011884   -0.001308
     21         35           0       -3.893645   -1.276365    0.002660
     22          1           0       -1.130171   -2.347479    0.003023
     23          7           0       -3.163817    1.735668   -0.041828
     24         17           0       -0.689771    3.250112    0.005313
     25          1           0       -3.062794    2.729105    0.083261
     26          1           0       -4.070684    1.318674    0.088432
 ---------------------------------------------------------------------
 Rotational constants (GHZ):           0.4978525           0.1678594           0.1255362
 Leave Link  202 at Sun Jan 14 00:59:43 2024, MaxMem=  4026531840 cpu:               0.4 elap:               0.1
 (Enter /sysapps/ubuntu-applications/gaussian/Gaussian/AVX2/g16/l301.exe)
 Standard basis: 6-311++G(d,p) (5D, 7F)
 Ernie: Thresh=  0.10000D-02 Tol=  0.10000D-05 Strict=F.
 There are   522 symmetry adapted cartesian basis functions of A   symmetry.
 There are   501 symmetry adapted basis functions of A   symmetry.
   501 basis functions,   822 primitive gaussians,   522 cartesian basis functions
    83 alpha electrons       83 beta electrons
       nuclear repulsion energy      1821.2204903633 Hartrees.
 IExCor=  402 DFT=T Ex+Corr=B3LYP ExCW=0 ScaHFX=  0.200000
 ScaDFX=  0.800000  0.720000  1.000000  0.810000 ScalE2=  1.000000  1.000000
 IRadAn=      5 IRanWt=     -1 IRanGd=            0 ICorTp=0 IEmpDi=  4
 NAtoms=   26 NActive=   26 NUniq=   26 SFac= 1.00D+00 NAtFMM=   60 NAOKFM=F Big=F
 Integral buffers will be    131072 words long.
 Raffenetti 2 integral format.
 Two-electron integral symmetry is turned on.
 ------------------------------------------------------------------------------
 Polarizable Continuum Model (PCM)
 =================================
 Model                : PCM.
 Atomic radii         : UFF (Universal Force Field).
 Polarization charges : Total charges.
 Charge compensation  : None.
 Solution method      : On-the-fly selection.
 Cavity type          : Scaled VdW (van der Waals Surface) (Alpha=1.100).
 Cavity algorithm     : GePol (No added spheres)
                        Default sphere list used, NSphG=   26.
                        Lebedev-Laikov grids with approx.  5.0 points / Ang**2.
                        Smoothing algorithm: York/Karplus (Gamma=1.0000).
                        Polarization charges: spherical gaussians, with
                                              point-specific exponents (IZeta= 3).
                        Self-potential: point-specific (ISelfS= 7).
                        Self-field    : sphere-specific E.n sum rule (ISelfD= 2).
 Solvent              : n,n-DiMethylFormamide, Eps=  37.219000 Eps(inf)=   2.046330
 ------------------------------------------------------------------------------
 GePol: Number of generator spheres                  =      26
 GePol: Total number of spheres                      =      26
 GePol: Number of exposed spheres                    =      26 (100.00%)
 GePol: Number of points                             =    2322
 GePol: Average weight of points                     =       0.13
 GePol: Minimum weight of points                     =   0.53D-08
 GePol: Maximum weight of points                     =    0.21616
 GePol: Number of points with low weight             =     154
 GePol: Fraction of low-weight points (<1% of avg)   =       6.63%
 GePol: Cavity surface area                          =    305.837 Ang**2
 GePol: Cavity volume                                =    341.801 Ang**3
 Leave Link  301 at Sun Jan 14 00:59:43 2024, MaxMem=  4026531840 cpu:               0.8 elap:               0.2
 (Enter /sysapps/ubuntu-applications/gaussian/Gaussian/AVX2/g16/l302.exe)
 NPDir=0 NMtPBC=     1 NCelOv=     1 NCel=       1 NClECP=     1 NCelD=      1
         NCelK=      1 NCelE2=     1 NClLst=     1 CellRange=     0.0.
 One-electron integrals computed using PRISM.
 One-electron integral symmetry used in STVInt
 NBasis=   501 RedAO= T EigKep=  1.30D-06  NBF=   501
 NBsUse=   493 1.00D-06 EigRej=  7.94D-07 NBFU=   493
 Precomputing XC quadrature grid using
 IXCGrd= 4 IRadAn=           5 IRanWt=          -1 IRanGd=           0 AccXCQ= 0.00D+00.
 Generated NRdTot=       0 NPtTot=           0 NUsed=           0 NTot=          32
 NSgBfM=   516   516   516   516   516 MxSgAt=    26 MxSgA2=    26.
 Leave Link  302 at Sun Jan 14 00:59:44 2024, MaxMem=  4026531840 cpu:               4.3 elap:               0.6
 (Enter /sysapps/ubuntu-applications/gaussian/Gaussian/AVX2/g16/l303.exe)
 DipDrv:  MaxL=1.
 Leave Link  303 at Sun Jan 14 00:59:44 2024, MaxMem=  4026531840 cpu:               1.3 elap:               0.3
 (Enter /sysapps/ubuntu-applications/gaussian/Gaussian/AVX2/g16/l401.exe)
 ExpMin= 3.50D-02 ExpMax= 4.40D+05 ExpMxC= 1.51D+04 IAcc=3 IRadAn=         5 AccDes= 0.00D+00
 Harris functional with IExCor=  402 and IRadAn=       5 diagonalized for initial guess.
 HarFok:  IExCor=  402 AccDes= 0.00D+00 IRadAn=         5 IDoV= 1 UseB2=F ITyADJ=14
 ICtDFT=  3500011 ScaDFX=  1.000000  1.000000  1.000000  1.000000
 FoFCou: FMM=F IPFlag=           0 FMFlag=      100000 FMFlg1=           0
         NFxFlg=           0 DoJE=T BraDBF=F KetDBF=T FulRan=T
         wScrn=  0.000000 ICntrl=       500 IOpCl=  0 I1Cent=   200000004 NGrid=           0
         NMat0=    1 NMatS0=      1 NMatT0=    0 NMatD0=    1 NMtDS0=    0 NMtDT0=    0
 Petite list used in FoFCou.
 Harris En= -3777.49087481497    
 JPrj=0 DoOrth=F DoCkMO=F.
 Initial guess <Sx>= 0.0000 <Sy>= 0.0000 <Sz>= 0.0000 <S**2>=-0.0000 S=-0.0000
 Leave Link  401 at Sun Jan 14 00:59:47 2024, MaxMem=  4026531840 cpu:              26.6 elap:               3.5
 (Enter /sysapps/ubuntu-applications/gaussian/Gaussian/AVX2/g16/l502.exe)
 Integral symmetry usage will be decided dynamically.
 UHF open shell SCF:
 Using DIIS extrapolation, IDIIS=  1040.
 NGot=  4026531840 LenX=  4025977968 LenY=  4025704962
 Requested convergence on RMS density matrix=1.00D-08 within 128 cycles.
 Requested convergence on MAX density matrix=1.00D-06.
 Requested convergence on             energy=1.00D-06.
 No special actions if energy rises.
 Fock matrices will be formed incrementally for  20 cycles.

 Cycle   1  Pass 1  IDiag  1:
 FoFJK:  IHMeth= 1 ICntrl=       0 DoSepK=F KAlg= 0 I1Cent=           0 FoldK=F
 IRaf= 820000000 NMat=       1 IRICut=       1 DoRegI=T DoRafI=F ISym2E= 0 IDoP0=0 IntGTp=1.
 FoFCou: FMM=F IPFlag=           0 FMFlag=      100000 FMFlg1=           0
         NFxFlg=           0 DoJE=F BraDBF=F KetDBF=F FulRan=T
         wScrn=  0.000000 ICntrl=         0 IOpCl=  1 I1Cent=           0 NGrid=           0
         NMat0=    1 NMatS0=      1 NMatT0=    0 NMatD0=    1 NMtDS0=    0 NMtDT0=    0
 Symmetry not used in FoFCou.
 Inv3:  Mode=1 IEnd=    16175052.
 Iteration    1 A*A^-1 deviation from unit magnitude is 3.77D-15 for    225.
 Iteration    1 A*A^-1 deviation from orthogonality  is 2.22D-15 for   1258    218.
 Iteration    1 A^-1*A deviation from unit magnitude is 3.11D-15 for    225.
 Iteration    1 A^-1*A deviation from orthogonality  is 2.21D-15 for   1481    431.
 E= -3777.06528637524    
 DIIS: error= 8.19D-02 at cycle   1 NSaved=   1.
 NSaved= 1 IEnMin= 1 EnMin= -3777.06528637524     IErMin= 1 ErrMin= 8.19D-02
 ErrMax= 8.19D-02  0.00D+00 EMaxC= 1.00D-01 BMatC= 6.79D+00 BMatP= 6.79D+00
 IDIUse=3 WtCom= 1.81D-01 WtEn= 8.19D-01
 Coeff-Com:  0.100D+01
 Coeff-En:   0.100D+01
 Coeff:      0.100D+01
 Gap=     0.211 Goal=   None    Shift=    0.000
 Gap=     0.211 Goal=   None    Shift=    0.000
 GapD=    0.211 DampG=1.000 DampE=0.500 DampFc=0.5000 IDamp=-1.
 Damping current iteration by 5.00D-01
 RMSDP=1.62D-02 MaxDP=1.14D+00              OVMax= 2.99D-01

 Cycle   2  Pass 1  IDiag  1:
 RMSU=  7.95D-03    CP:  9.73D-01
 E= -3777.20184323537     Delta-E=       -0.136556860125 Rises=F Damp=T
 DIIS: error= 3.98D-02 at cycle   2 NSaved=   2.
 NSaved= 2 IEnMin= 2 EnMin= -3777.20184323537     IErMin= 2 ErrMin= 3.98D-02
 ErrMax= 3.98D-02  0.00D+00 EMaxC= 1.00D-01 BMatC= 1.05D+00 BMatP= 6.79D+00
 IDIUse=3 WtCom= 6.02D-01 WtEn= 3.98D-01
 Coeff-Com: -0.110D+00 0.111D+01
 Coeff-En:   0.298D+00 0.702D+00
 Coeff:      0.524D-01 0.948D+00
 Gap=     0.188 Goal=   None    Shift=    0.000
 Gap=     0.188 Goal=   None    Shift=    0.000
 RMSDP=1.01D-02 MaxDP=1.14D+00 DE=-1.37D-01 OVMax= 3.04D-01

 Cycle   3  Pass 1  IDiag  1:
 RMSU=  9.84D-03    CP:  9.73D-01  6.92D-01
 E= -3777.36064832937     Delta-E=       -0.158805093999 Rises=F Damp=F
 DIIS: error= 2.33D-02 at cycle   3 NSaved=   3.
 NSaved= 3 IEnMin= 3 EnMin= -3777.36064832937     IErMin= 3 ErrMin= 2.33D-02
 ErrMax= 2.33D-02  0.00D+00 EMaxC= 1.00D-01 BMatC= 7.19D-01 BMatP= 1.05D+00
 IDIUse=3 WtCom= 7.67D-01 WtEn= 2.33D-01
 Coeff-Com: -0.166D+00 0.574D+00 0.592D+00
 Coeff-En:   0.000D+00 0.148D+00 0.852D+00
 Coeff:     -0.127D+00 0.475D+00 0.652D+00
 Gap=     0.118 Goal=   None    Shift=    0.000
 Gap=     0.118 Goal=   None    Shift=    0.000
 RMSDP=5.90D-03 MaxDP=3.45D-01 DE=-1.59D-01 OVMax= 1.69D-01

 Cycle   4  Pass 1  IDiag  1:
 RMSU=  4.81D-03    CP:  9.63D-01  7.47D-01  6.62D-01
 E= -3777.42018071056     Delta-E=       -0.059532381193 Rises=F Damp=F
 DIIS: error= 2.06D-02 at cycle   4 NSaved=   4.
 NSaved= 4 IEnMin= 4 EnMin= -3777.42018071056     IErMin= 4 ErrMin= 2.06D-02
 ErrMax= 2.06D-02  0.00D+00 EMaxC= 1.00D-01 BMatC= 3.88D-01 BMatP= 7.19D-01
 IDIUse=3 WtCom= 7.94D-01 WtEn= 2.06D-01
 Coeff-Com: -0.693D-01 0.186D+00 0.455D+00 0.429D+00
 Coeff-En:   0.000D+00 0.000D+00 0.393D+00 0.607D+00
 Coeff:     -0.551D-01 0.148D+00 0.442D+00 0.466D+00
 Gap=     0.117 Goal=   None    Shift=    0.000
 Gap=     0.117 Goal=   None    Shift=    0.000
 RMSDP=3.73D-03 MaxDP=2.39D-01 DE=-5.95D-02 OVMax= 8.01D-02

 Cycle   5  Pass 1  IDiag  1:
 RMSU=  1.12D-03    CP:  9.35D-01  7.41D-01  7.47D-01  3.74D-01
 E= -3777.49598794262     Delta-E=       -0.075807232055 Rises=F Damp=F
 DIIS: error= 2.27D-03 at cycle   5 NSaved=   5.
 NSaved= 5 IEnMin= 5 EnMin= -3777.49598794262     IErMin= 5 ErrMin= 2.27D-03
 ErrMax= 2.27D-03  0.00D+00 EMaxC= 1.00D-01 BMatC= 8.42D-03 BMatP= 3.88D-01
 IDIUse=3 WtCom= 9.77D-01 WtEn= 2.27D-02
 Coeff-Com: -0.167D-01 0.442D-01 0.183D+00 0.243D+00 0.547D+00
 Coeff-En:   0.000D+00 0.000D+00 0.000D+00 0.000D+00 0.100D+01
 Coeff:     -0.164D-01 0.432D-01 0.179D+00 0.238D+00 0.557D+00
 Gap=     0.121 Goal=   None    Shift=    0.000
 Gap=     0.121 Goal=   None    Shift=    0.000
 RMSDP=5.41D-04 MaxDP=2.89D-02 DE=-7.58D-02 OVMax= 1.68D-02

 Cycle   6  Pass 1  IDiag  1:
 RMSU=  3.41D-04    CP:  9.38D-01  7.29D-01  7.54D-01  4.28D-01  8.02D-01
 E= -3777.49782056134     Delta-E=       -0.001832618724 Rises=F Damp=F
 DIIS: error= 7.48D-04 at cycle   6 NSaved=   6.
 NSaved= 6 IEnMin= 6 EnMin= -3777.49782056134     IErMin= 6 ErrMin= 7.48D-04
 ErrMax= 7.48D-04  0.00D+00 EMaxC= 1.00D-01 BMatC= 8.46D-04 BMatP= 8.42D-03
 IDIUse=3 WtCom= 9.93D-01 WtEn= 7.48D-03
 Coeff-Com: -0.631D-03 0.213D-02 0.419D-01 0.783D-01 0.321D+00 0.557D+00
 Coeff-En:   0.000D+00 0.000D+00 0.000D+00 0.000D+00 0.283D-01 0.972D+00
 Coeff:     -0.626D-03 0.211D-02 0.416D-01 0.778D-01 0.319D+00 0.560D+00
 Gap=     0.120 Goal=   None    Shift=    0.000
 Gap=     0.120 Goal=   None    Shift=    0.000
 RMSDP=2.72D-04 MaxDP=1.64D-02 DE=-1.83D-03 OVMax= 8.06D-03

 Cycle   7  Pass 1  IDiag  1:
 RMSU=  1.87D-04    CP:  9.38D-01  7.18D-01  7.55D-01  4.59D-01  8.42D-01
                    CP:  7.58D-01
 E= -3777.49800919273     Delta-E=       -0.000188631391 Rises=F Damp=F
 DIIS: error= 2.92D-04 at cycle   7 NSaved=   7.
 NSaved= 7 IEnMin= 7 EnMin= -3777.49800919273     IErMin= 7 ErrMin= 2.92D-04
 ErrMax= 2.92D-04  0.00D+00 EMaxC= 1.00D-01 BMatC= 1.17D-04 BMatP= 8.46D-04
 IDIUse=3 WtCom= 9.97D-01 WtEn= 2.92D-03
 Coeff-Com:  0.922D-03-0.208D-02 0.586D-02 0.184D-01 0.127D+00 0.335D+00
 Coeff-Com:  0.515D+00
 Coeff-En:   0.000D+00 0.000D+00 0.000D+00 0.000D+00 0.000D+00 0.931D-01
 Coeff-En:   0.907D+00
 Coeff:      0.919D-03-0.207D-02 0.584D-02 0.183D-01 0.127D+00 0.334D+00
 Coeff:      0.516D+00
 Gap=     0.120 Goal=   None    Shift=    0.000
 Gap=     0.120 Goal=   None    Shift=    0.000
 RMSDP=8.86D-05 MaxDP=4.65D-03 DE=-1.89D-04 OVMax= 2.70D-03

 Cycle   8  Pass 1  IDiag  1:
 RMSU=  3.64D-05    CP:  9.38D-01  7.21D-01  7.56D-01  4.50D-01  8.35D-01
                    CP:  7.75D-01  6.62D-01
 E= -3777.49803730984     Delta-E=       -0.000028117107 Rises=F Damp=F
 DIIS: error= 6.50D-05 at cycle   8 NSaved=   8.
 NSaved= 8 IEnMin= 8 EnMin= -3777.49803730984     IErMin= 8 ErrMin= 6.50D-05
 ErrMax= 6.50D-05  0.00D+00 EMaxC= 1.00D-01 BMatC= 8.67D-06 BMatP= 1.17D-04
 IDIUse=1 WtCom= 1.00D+00 WtEn= 0.00D+00
 Coeff-Com:  0.638D-03-0.147D-02-0.117D-02 0.109D-02 0.362D-01 0.122D+00
 Coeff-Com:  0.269D+00 0.573D+00
 Coeff:      0.638D-03-0.147D-02-0.117D-02 0.109D-02 0.362D-01 0.122D+00
 Coeff:      0.269D+00 0.573D+00
 Gap=     0.120 Goal=   None    Shift=    0.000
 Gap=     0.120 Goal=   None    Shift=    0.000
 RMSDP=2.53D-05 MaxDP=2.21D-03 DE=-2.81D-05 OVMax= 7.84D-04

 Cycle   9  Pass 1  IDiag  1:
 RMSU=  1.18D-05    CP:  9.38D-01  7.20D-01  7.55D-01  4.50D-01  8.44D-01
                    CP:  7.80D-01  6.96D-01  6.18D-01
 E= -3777.49803949387     Delta-E=       -0.000002184031 Rises=F Damp=F
 DIIS: error= 2.33D-05 at cycle   9 NSaved=   9.
 NSaved= 9 IEnMin= 9 EnMin= -3777.49803949387     IErMin= 9 ErrMin= 2.33D-05
 ErrMax= 2.33D-05  0.00D+00 EMaxC= 1.00D-01 BMatC= 5.32D-07 BMatP= 8.67D-06
 IDIUse=1 WtCom= 1.00D+00 WtEn= 0.00D+00
 Coeff-Com:  0.272D-03-0.619D-03-0.576D-03-0.292D-03 0.111D-01 0.400D-01
 Coeff-Com:  0.919D-01 0.277D+00 0.581D+00
 Coeff:      0.272D-03-0.619D-03-0.576D-03-0.292D-03 0.111D-01 0.400D-01
 Coeff:      0.919D-01 0.277D+00 0.581D+00
 Gap=     0.120 Goal=   None    Shift=    0.000
 Gap=     0.120 Goal=   None    Shift=    0.000
 RMSDP=7.80D-06 MaxDP=9.01D-04 DE=-2.18D-06 OVMax= 1.40D-04

 Cycle  10  Pass 1  IDiag  1:
 RMSU=  4.10D-06    CP:  9.38D-01  7.20D-01  7.56D-01  4.50D-01  8.43D-01
                    CP:  7.74D-01  6.85D-01  6.36D-01  8.96D-01
 E= -3777.49803960301     Delta-E=       -0.000000109142 Rises=F Damp=F
 DIIS: error= 8.14D-06 at cycle  10 NSaved=  10.
 NSaved=10 IEnMin=10 EnMin= -3777.49803960301     IErMin=10 ErrMin= 8.14D-06
 ErrMax= 8.14D-06  0.00D+00 EMaxC= 1.00D-01 BMatC= 9.87D-08 BMatP= 5.32D-07
 IDIUse=1 WtCom= 1.00D+00 WtEn= 0.00D+00
 Coeff-Com:  0.880D-04-0.201D-03-0.199D-03-0.417D-03 0.124D-02 0.615D-02
 Coeff-Com:  0.134D-01 0.898D-01 0.351D+00 0.540D+00
 Coeff:      0.880D-04-0.201D-03-0.199D-03-0.417D-03 0.124D-02 0.615D-02
 Coeff:      0.134D-01 0.898D-01 0.351D+00 0.540D+00
 Gap=     0.120 Goal=   None    Shift=    0.000
 Gap=     0.120 Goal=   None    Shift=    0.000
 RMSDP=1.59D-06 MaxDP=9.41D-05 DE=-1.09D-07 OVMax= 5.46D-05

 Cycle  11  Pass 1  IDiag  1:
 RMSU=  1.11D-06    CP:  9.38D-01  7.20D-01  7.56D-01  4.50D-01  8.43D-01
                    CP:  7.75D-01  6.86D-01  6.50D-01  8.87D-01  8.61D-01
 E= -3777.49803962795     Delta-E=       -0.000000024937 Rises=F Damp=F
 DIIS: error= 2.19D-06 at cycle  11 NSaved=  11.
 NSaved=11 IEnMin=11 EnMin= -3777.49803962795     IErMin=11 ErrMin= 2.19D-06
 ErrMax= 2.19D-06  0.00D+00 EMaxC= 1.00D-01 BMatC= 6.49D-09 BMatP= 9.87D-08
 IDIUse=1 WtCom= 1.00D+00 WtEn= 0.00D+00
 Coeff-Com:  0.521D-05-0.128D-04-0.132D-04-0.175D-03-0.868D-03-0.177D-02
 Coeff-Com: -0.540D-02 0.147D-01 0.109D+00 0.257D+00 0.628D+00
 Coeff:      0.521D-05-0.128D-04-0.132D-04-0.175D-03-0.868D-03-0.177D-02
 Coeff:     -0.540D-02 0.147D-01 0.109D+00 0.257D+00 0.628D+00
 Gap=     0.120 Goal=   None    Shift=    0.000
 Gap=     0.120 Goal=   None    Shift=    0.000
 RMSDP=1.48D-06 MaxDP=1.21D-04 DE=-2.49D-08 OVMax= 1.92D-05

 Cycle  12  Pass 1  IDiag  1:
 RMSU=  4.35D-07    CP:  9.38D-01  7.20D-01  7.56D-01  4.50D-01  8.43D-01
                    CP:  7.73D-01  6.85D-01  6.49D-01  9.26D-01  9.48D-01
                    CP:  9.89D-01
 E= -3777.49803962955     Delta-E=       -0.000000001604 Rises=F Damp=F
 DIIS: error= 7.24D-07 at cycle  12 NSaved=  12.
 NSaved=12 IEnMin=12 EnMin= -3777.49803962955     IErMin=12 ErrMin= 7.24D-07
 ErrMax= 7.24D-07  0.00D+00 EMaxC= 1.00D-01 BMatC= 1.36D-09 BMatP= 6.49D-09
 IDIUse=1 WtCom= 1.00D+00 WtEn= 0.00D+00
 Coeff-Com: -0.594D-05 0.128D-04 0.418D-05-0.319D-04-0.452D-03-0.100D-02
 Coeff-Com: -0.362D-02-0.176D-02 0.943D-02 0.517D-01 0.351D+00 0.595D+00
 Coeff:     -0.594D-05 0.128D-04 0.418D-05-0.319D-04-0.452D-03-0.100D-02
 Coeff:     -0.362D-02-0.176D-02 0.943D-02 0.517D-01 0.351D+00 0.595D+00
 Gap=     0.120 Goal=   None    Shift=    0.000
 Gap=     0.120 Goal=   None    Shift=    0.000
 RMSDP=2.51D-07 MaxDP=3.02D-05 DE=-1.60D-09 OVMax= 1.06D-05

 Cycle  13  Pass 1  IDiag  1:
 RMSU=  1.72D-07    CP:  9.38D-01  7.20D-01  7.56D-01  4.50D-01  8.43D-01
                    CP:  7.73D-01  6.85D-01  6.50D-01  9.29D-01  9.47D-01
                    CP:  9.80D-01  7.63D-01
 E= -3777.49803962986     Delta-E=       -0.000000000303 Rises=F Damp=F
 DIIS: error= 2.89D-07 at cycle  13 NSaved=  13.
 NSaved=13 IEnMin=13 EnMin= -3777.49803962986     IErMin=13 ErrMin= 2.89D-07
 ErrMax= 2.89D-07  0.00D+00 EMaxC= 1.00D-01 BMatC= 1.78D-10 BMatP= 1.36D-09
 IDIUse=1 WtCom= 1.00D+00 WtEn= 0.00D+00
 Coeff-Com: -0.406D-05 0.893D-05 0.213D-05-0.629D-06-0.190D-03-0.411D-03
 Coeff-Com: -0.175D-02-0.295D-02-0.699D-02 0.252D-03 0.139D+00 0.348D+00
 Coeff-Com:  0.525D+00
 Coeff:     -0.406D-05 0.893D-05 0.213D-05-0.629D-06-0.190D-03-0.411D-03
 Coeff:     -0.175D-02-0.295D-02-0.699D-02 0.252D-03 0.139D+00 0.348D+00
 Coeff:      0.525D+00
 Gap=     0.120 Goal=   None    Shift=    0.000
 Gap=     0.120 Goal=   None    Shift=    0.000
 RMSDP=9.97D-08 MaxDP=6.28D-06 DE=-3.03D-10 OVMax= 2.39D-06

 Cycle  14  Pass 1  IDiag  1:
 RMSU=  5.12D-08    CP:  9.38D-01  7.20D-01  7.56D-01  4.50D-01  8.43D-01
                    CP:  7.73D-01  6.85D-01  6.51D-01  9.27D-01  9.55D-01
                    CP:  9.96D-01  7.76D-01  8.59D-01
 E= -3777.49803962989     Delta-E=       -0.000000000036 Rises=F Damp=F
 DIIS: error= 9.84D-08 at cycle  14 NSaved=  14.
 NSaved=14 IEnMin=14 EnMin= -3777.49803962989     IErMin=14 ErrMin= 9.84D-08
 ErrMax= 9.84D-08  0.00D+00 EMaxC= 1.00D-01 BMatC= 1.73D-11 BMatP= 1.78D-10
 IDIUse=1 WtCom= 1.00D+00 WtEn= 0.00D+00
 Coeff-Com: -0.155D-05 0.349D-05 0.111D-05 0.353D-05-0.613D-04-0.126D-03
 Coeff-Com: -0.622D-03-0.153D-02-0.547D-02-0.636D-02 0.341D-01 0.115D+00
 Coeff-Com:  0.275D+00 0.590D+00
 Coeff:     -0.155D-05 0.349D-05 0.111D-05 0.353D-05-0.613D-04-0.126D-03
 Coeff:     -0.622D-03-0.153D-02-0.547D-02-0.636D-02 0.341D-01 0.115D+00
 Coeff:      0.275D+00 0.590D+00
 Gap=     0.120 Goal=   None    Shift=    0.000
 Gap=     0.120 Goal=   None    Shift=    0.000
 RMSDP=3.46D-08 MaxDP=3.93D-06 DE=-3.59D-11 OVMax= 7.49D-07

 Cycle  15  Pass 1  IDiag  1:
 RMSU=  1.56D-08    CP:  9.38D-01  7.20D-01  7.56D-01  4.50D-01  8.43D-01
                    CP:  7.73D-01  6.85D-01  6.50D-01  9.28D-01  9.55D-01
                    CP:  1.01D+00  7.90D-01  8.29D-01  7.87D-01
 E= -3777.49803962993     Delta-E=       -0.000000000035 Rises=F Damp=F
 DIIS: error= 4.06D-08 at cycle  15 NSaved=  15.
 NSaved=15 IEnMin=15 EnMin= -3777.49803962993     IErMin=15 ErrMin= 4.06D-08
 ErrMax= 4.06D-08  0.00D+00 EMaxC= 1.00D-01 BMatC= 3.12D-12 BMatP= 1.73D-11
 IDIUse=1 WtCom= 1.00D+00 WtEn= 0.00D+00
 Coeff-Com: -0.320D-06 0.729D-06 0.738D-06 0.217D-05-0.709D-05-0.334D-05
 Coeff-Com: -0.961D-04-0.379D-03-0.217D-02-0.364D-02-0.200D-03 0.176D-01
 Coeff-Com:  0.819D-01 0.335D+00 0.572D+00
 Coeff:     -0.320D-06 0.729D-06 0.738D-06 0.217D-05-0.709D-05-0.334D-05
 Coeff:     -0.961D-04-0.379D-03-0.217D-02-0.364D-02-0.200D-03 0.176D-01
 Coeff:      0.819D-01 0.335D+00 0.572D+00
 Gap=     0.120 Goal=   None    Shift=    0.000
 Gap=     0.120 Goal=   None    Shift=    0.000
 RMSDP=8.92D-09 MaxDP=5.39D-07 DE=-3.50D-11 OVMax= 3.36D-07

 Error on total polarization charges =  0.02016
 SCF Done:  E(UB3LYP) =  -3777.49803963     A.U. after   15 cycles
            NFock= 15  Conv=0.89D-08     -V/T= 2.0019
 <Sx>= 0.0000 <Sy>= 0.0000 <Sz>= 0.0000 <S**2>=-0.0000 S=-0.0000
 <L.S>=  0.00000000000    
 KE= 3.770331348471D+03 PE=-1.262015479380D+04 EE= 3.251104915335D+03
 Annihilation of the first spin contaminant:
 S**2 before annihilation    -0.0000,   after     0.0000
 Leave Link  502 at Sun Jan 14 01:04:57 2024, MaxMem=  4026531840 cpu:            2458.7 elap:             309.9
 (Enter /sysapps/ubuntu-applications/gaussian/Gaussian/AVX2/g16/l601.exe)
 Copying SCF densities to generalized density rwf, IOpCl= 1 IROHF=0.

 **********************************************************************

            Population analysis using the SCF density.

 **********************************************************************

 Orbital symmetries:
 Alpha Orbitals:
       Occupied  (A) (A) (A) (A) (A) (A) (A) (A) (A) (A) (A) (A)
                 (A) (A) (A) (A) (A) (A) (A) (A) (A) (A) (A) (A)
                 (A) (A) (A) (A) (A) (A) (A) (A) (A) (A) (A) (A)
                 (A) (A) (A) (A) (A) (A) (A) (A) (A) (A) (A) (A)
                 (A) (A) (A) (A) (A) (A) (A) (A) (A) (A) (A) (A)
                 (A) (A) (A) (A) (A) (A) (A) (A) (A) (A) (A) (A)
                 (A) (A) (A) (A) (A) (A) (A) (A) (A) (A) (A)
       Virtual   (A) (A) (A) (A) (A) (A) (A) (A) (A) (A) (A) (A)
                 (A) (A) (A) (A) (A) (A) (A) (A) (A) (A) (A) (A)
                 (A) (A) (A) (A) (A) (A) (A) (A) (A) (A) (A) (A)
                 (A) (A) (A) (A) (A) (A) (A) (A) (A) (A) (A) (A)
                 (A) (A) (A) (A) (A) (A) (A) (A) (A) (A) (A) (A)
                 (A) (A) (A) (A) (A) (A) (A) (A) (A) (A) (A) (A)
                 (A) (A) (A) (A) (A) (A) (A) (A) (A) (A) (A) (A)
                 (A) (A) (A) (A) (A) (A) (A) (A) (A) (A) (A) (A)
                 (A) (A) (A) (A) (A) (A) (A) (A) (A) (A) (A) (A)
                 (A) (A) (A) (A) (A) (A) (A) (A) (A) (A) (A) (A)
                 (A) (A) (A) (A) (A) (A) (A) (A) (A) (A) (A) (A)
                 (A) (A) (A) (A) (A) (A) (A) (A) (A) (A) (A) (A)
                 (A) (A) (A) (A) (A) (A) (A) (A) (A) (A) (A) (A)
                 (A) (A) (A) (A) (A) (A) (A) (A) (A) (A) (A) (A)
                 (A) (A) (A) (A) (A) (A) (A) (A) (A) (A) (A) (A)
                 (A) (A) (A) (A) (A) (A) (A) (A) (A) (A) (A) (A)
                 (A) (A) (A) (A) (A) (A) (A) (A) (A) (A) (A) (A)
                 (A) (A) (A) (A) (A) (A) (A) (A) (A) (A) (A) (A)
                 (A) (A) (A) (A) (A) (A) (A) (A) (A) (A) (A) (A)
                 (A) (A) (A) (A) (A) (A) (A) (A) (A) (A) (A) (A)
                 (A) (A) (A) (A) (A) (A) (A) (A) (A) (A) (A) (A)
                 (A) (A) (A) (A) (A) (A) (A) (A) (A) (A) (A) (A)
                 (A) (A) (A) (A) (A) (A) (A) (A) (A) (A) (A) (A)
                 (A) (A) (A) (A) (A) (A) (A) (A) (A) (A) (A) (A)
                 (A) (A) (A) (A) (A) (A) (A) (A) (A) (A) (A) (A)
                 (A) (A) (A) (A) (A) (A) (A) (A) (A) (A) (A) (A)
                 (A) (A) (A) (A) (A) (A) (A) (A) (A) (A) (A) (A)
                 (A) (A) (A) (A) (A) (A) (A) (A) (A) (A) (A) (A)
                 (A) (A) (A) (A) (A) (A) (A) (A) (A) (A) (A) (A)
                 (A) (A) (A) (A) (A) (A) (A) (A) (A) (A) (A) (A)
                 (A) (A) (A) (A) (A) (A) (A) (A) (A) (A) (A) (A)
                 (A) (A) (A) (A) (A) (A) (A) (A) (A) (A) (A) (A)
                 (A) (A) (A) (A) (A) (A) (A) (A) (A) (A) (A) (A)
                 (A) (A) (A) (A) (A) (A) (A) (A) (A) (A) (A) (A)
                 (A) (A)
 Beta  Orbitals:
       Occupied  (A) (A) (A) (A) (A) (A) (A) (A) (A) (A) (A) (A)
                 (A) (A) (A) (A) (A) (A) (A) (A) (A) (A) (A) (A)
                 (A) (A) (A) (A) (A) (A) (A) (A) (A) (A) (A) (A)
                 (A) (A) (A) (A) (A) (A) (A) (A) (A) (A) (A) (A)
                 (A) (A) (A) (A) (A) (A) (A) (A) (A) (A) (A) (A)
                 (A) (A) (A) (A) (A) (A) (A) (A) (A) (A) (A) (A)
                 (A) (A) (A) (A) (A) (A) (A) (A) (A) (A) (A)
       Virtual   (A) (A) (A) (A) (A) (A) (A) (A) (A) (A) (A) (A)
                 (A) (A) (A) (A) (A) (A) (A) (A) (A) (A) (A) (A)
                 (A) (A) (A) (A) (A) (A) (A) (A) (A) (A) (A) (A)
                 (A) (A) (A) (A) (A) (A) (A) (A) (A) (A) (A) (A)
                 (A) (A) (A) (A) (A) (A) (A) (A) (A) (A) (A) (A)
                 (A) (A) (A) (A) (A) (A) (A) (A) (A) (A) (A) (A)
                 (A) (A) (A) (A) (A) (A) (A) (A) (A) (A) (A) (A)
                 (A) (A) (A) (A) (A) (A) (A) (A) (A) (A) (A) (A)
                 (A) (A) (A) (A) (A) (A) (A) (A) (A) (A) (A) (A)
                 (A) (A) (A) (A) (A) (A) (A) (A) (A) (A) (A) (A)
                 (A) (A) (A) (A) (A) (A) (A) (A) (A) (A) (A) (A)
                 (A) (A) (A) (A) (A) (A) (A) (A) (A) (A) (A) (A)
                 (A) (A) (A) (A) (A) (A) (A) (A) (A) (A) (A) (A)
                 (A) (A) (A) (A) (A) (A) (A) (A) (A) (A) (A) (A)
                 (A) (A) (A) (A) (A) (A) (A) (A) (A) (A) (A) (A)
                 (A) (A) (A) (A) (A) (A) (A) (A) (A) (A) (A) (A)
                 (A) (A) (A) (A) (A) (A) (A) (A) (A) (A) (A) (A)
                 (A) (A) (A) (A) (A) (A) (A) (A) (A) (A) (A) (A)
                 (A) (A) (A) (A) (A) (A) (A) (A) (A) (A) (A) (A)
                 (A) (A) (A) (A) (A) (A) (A) (A) (A) (A) (A) (A)
                 (A) (A) (A) (A) (A) (A) (A) (A) (A) (A) (A) (A)
                 (A) (A) (A) (A) (A) (A) (A) (A) (A) (A) (A) (A)
                 (A) (A) (A) (A) (A) (A) (A) (A) (A) (A) (A) (A)
                 (A) (A) (A) (A) (A) (A) (A) (A) (A) (A) (A) (A)
                 (A) (A) (A) (A) (A) (A) (A) (A) (A) (A) (A) (A)
                 (A) (A) (A) (A) (A) (A) (A) (A) (A) (A) (A) (A)
                 (A) (A) (A) (A) (A) (A) (A) (A) (A) (A) (A) (A)
                 (A) (A) (A) (A) (A) (A) (A) (A) (A) (A) (A) (A)
                 (A) (A) (A) (A) (A) (A) (A) (A) (A) (A) (A) (A)
                 (A) (A) (A) (A) (A) (A) (A) (A) (A) (A) (A) (A)
                 (A) (A) (A) (A) (A) (A) (A) (A) (A) (A) (A) (A)
                 (A) (A) (A) (A) (A) (A) (A) (A) (A) (A) (A) (A)
                 (A) (A) (A) (A) (A) (A) (A) (A) (A) (A) (A) (A)
                 (A) (A) (A) (A) (A) (A) (A) (A) (A) (A) (A) (A)
                 (A) (A)
 The electronic state is 1-A.
 Alpha  occ. eigenvalues -- -482.85171-101.57291 -62.50450 -56.32487 -56.32098
 Alpha  occ. eigenvalues --  -56.32085 -19.13418 -19.12832 -14.35180 -10.29112
 Alpha  occ. eigenvalues --  -10.28235 -10.26957 -10.26743 -10.25590 -10.22876
 Alpha  occ. eigenvalues --  -10.21098 -10.21047 -10.21009 -10.20883 -10.19963
 Alpha  occ. eigenvalues --  -10.19910 -10.19834 -10.19828  -9.48774  -8.71420
 Alpha  occ. eigenvalues --   -7.25239  -7.24276  -7.24186  -6.54559  -6.53264
 Alpha  occ. eigenvalues --   -6.53245  -2.65651  -2.65279  -2.65268  -2.64239
 Alpha  occ. eigenvalues --   -2.64237  -1.07279  -1.06400  -0.97329  -0.90211
 Alpha  occ. eigenvalues --   -0.88977  -0.87686  -0.83497  -0.79798  -0.77993
 Alpha  occ. eigenvalues --   -0.76588  -0.75985  -0.69130  -0.66981  -0.64860
 Alpha  occ. eigenvalues --   -0.62647  -0.59514  -0.57748  -0.56789  -0.54442
 Alpha  occ. eigenvalues --   -0.52705  -0.50295  -0.48944  -0.48207  -0.46607
 Alpha  occ. eigenvalues --   -0.46567  -0.46150  -0.45700  -0.45238  -0.44676
 Alpha  occ. eigenvalues --   -0.43428  -0.42425  -0.42319  -0.39341  -0.38388
 Alpha  occ. eigenvalues --   -0.38292  -0.37052  -0.37041  -0.34549  -0.34472
 Alpha  occ. eigenvalues --   -0.32781  -0.31533  -0.28716  -0.28655  -0.27978
 Alpha  occ. eigenvalues --   -0.27262  -0.27213  -0.23923
 Alpha virt. eigenvalues --   -0.11912  -0.07739  -0.03987  -0.03585  -0.02952
 Alpha virt. eigenvalues --   -0.00866  -0.00124   0.00422   0.01432   0.01696
 Alpha virt. eigenvalues --    0.02477   0.02830   0.03416   0.03559   0.03991
 Alpha virt. eigenvalues --    0.04290   0.04633   0.05085   0.05313   0.06345
 Alpha virt. eigenvalues --    0.06568   0.06609   0.07342   0.08149   0.08400
 Alpha virt. eigenvalues --    0.08542   0.09434   0.10157   0.10245   0.10435
 Alpha virt. eigenvalues --    0.10736   0.10908   0.11295   0.11875   0.12090
 Alpha virt. eigenvalues --    0.12355   0.12697   0.12993   0.13419   0.13531
 Alpha virt. eigenvalues --    0.14110   0.14531   0.14734   0.15769   0.15824
 Alpha virt. eigenvalues --    0.16140   0.16559   0.16819   0.17274   0.17736
 Alpha virt. eigenvalues --    0.17846   0.18296   0.18569   0.19029   0.19327
 Alpha virt. eigenvalues --    0.19514   0.19619   0.20482   0.20892   0.21149
 Alpha virt. eigenvalues --    0.21203   0.21759   0.22089   0.22231   0.22877
 Alpha virt. eigenvalues --    0.23061   0.23469   0.24109   0.24893   0.24927
 Alpha virt. eigenvalues --    0.25336   0.25444   0.25660   0.25949   0.26714
 Alpha virt. eigenvalues --    0.27082   0.27722   0.28158   0.28360   0.28613
 Alpha virt. eigenvalues --    0.29275   0.29430   0.29706   0.30347   0.30918
 Alpha virt. eigenvalues --    0.31079   0.31538   0.31605   0.32392   0.32862
 Alpha virt. eigenvalues --    0.33349   0.33866   0.34409   0.34853   0.35614
 Alpha virt. eigenvalues --    0.36444   0.37177   0.37574   0.38202   0.38952
 Alpha virt. eigenvalues --    0.40120   0.40482   0.41601   0.42226   0.43874
 Alpha virt. eigenvalues --    0.44851   0.45158   0.46681   0.46800   0.47060
 Alpha virt. eigenvalues --    0.49104   0.50967   0.51438   0.51862   0.52473
 Alpha virt. eigenvalues --    0.53296   0.53758   0.54539   0.54690   0.54848
 Alpha virt. eigenvalues --    0.55498   0.56408   0.56855   0.57694   0.58065
 Alpha virt. eigenvalues --    0.58535   0.59438   0.59757   0.61023   0.61541
 Alpha virt. eigenvalues --    0.61693   0.62842   0.63007   0.63113   0.63714
 Alpha virt. eigenvalues --    0.64692   0.65328   0.66070   0.66348   0.66547
 Alpha virt. eigenvalues --    0.66880   0.69211   0.70254   0.70678   0.71147
 Alpha virt. eigenvalues --    0.71619   0.73028   0.74518   0.74945   0.75533
 Alpha virt. eigenvalues --    0.75797   0.77037   0.77318   0.78614   0.81382
 Alpha virt. eigenvalues --    0.81999   0.82202   0.83584   0.84505   0.85063
 Alpha virt. eigenvalues --    0.85598   0.86314   0.86759   0.87564   0.87796
 Alpha virt. eigenvalues --    0.88393   0.89207   0.89954   0.90318   0.91670
 Alpha virt. eigenvalues --    0.92360   0.92497   0.92653   0.93714   0.94263
 Alpha virt. eigenvalues --    0.95036   0.95709   0.96446   0.96841   0.97653
 Alpha virt. eigenvalues --    0.98268   0.99239   1.00493   1.01777   1.01886
 Alpha virt. eigenvalues --    1.03805   1.04308   1.05342   1.06295   1.07344
 Alpha virt. eigenvalues --    1.08886   1.09724   1.10944   1.11435   1.13577
 Alpha virt. eigenvalues --    1.13660   1.15408   1.15859   1.19062   1.19070
 Alpha virt. eigenvalues --    1.20723   1.21481   1.21981   1.22706   1.25186
 Alpha virt. eigenvalues --    1.28248   1.28748   1.30105   1.30470   1.32687
 Alpha virt. eigenvalues --    1.33429   1.35024   1.38595   1.39422   1.42255
 Alpha virt. eigenvalues --    1.45696   1.46218   1.46437   1.47842   1.49599
 Alpha virt. eigenvalues --    1.49837   1.50358   1.50788   1.51526   1.55147
 Alpha virt. eigenvalues --    1.55503   1.56405   1.57239   1.58475   1.60203
 Alpha virt. eigenvalues --    1.60731   1.61845   1.64004   1.65637   1.65812
 Alpha virt. eigenvalues --    1.69114   1.71562   1.71722   1.73564   1.73961
 Alpha virt. eigenvalues --    1.74163   1.75534   1.78185   1.78981   1.80955
 Alpha virt. eigenvalues --    1.81837   1.84245   1.85112   1.85643   1.87637
 Alpha virt. eigenvalues --    1.88797   1.89826   1.90190   1.91670   1.92746
 Alpha virt. eigenvalues --    1.93510   1.93758   1.94042   1.96342   1.96791
 Alpha virt. eigenvalues --    1.98743   1.99776   2.01121   2.03649   2.05488
 Alpha virt. eigenvalues --    2.05557   2.07504   2.11163   2.11727   2.13441
 Alpha virt. eigenvalues --    2.14459   2.15650   2.18615   2.23272   2.24625
 Alpha virt. eigenvalues --    2.26753   2.27074   2.28047   2.29508   2.29719
 Alpha virt. eigenvalues --    2.34247   2.34984   2.37023   2.38620   2.39942
 Alpha virt. eigenvalues --    2.42887   2.44813   2.46606   2.47578   2.49840
 Alpha virt. eigenvalues --    2.51258   2.53604   2.56989   2.59444   2.60193
 Alpha virt. eigenvalues --    2.63162   2.63578   2.65303   2.67808   2.69157
 Alpha virt. eigenvalues --    2.70672   2.71796   2.72519   2.73499   2.74923
 Alpha virt. eigenvalues --    2.75400   2.77020   2.77154   2.77530   2.78145
 Alpha virt. eigenvalues --    2.81656   2.82624   2.83342   2.84194   2.85449
 Alpha virt. eigenvalues --    2.86324   2.86491   2.88240   2.89095   2.91428
 Alpha virt. eigenvalues --    2.92689   2.93012   2.95992   2.96604   2.98981
 Alpha virt. eigenvalues --    3.05341   3.07315   3.08245   3.09116   3.12510
 Alpha virt. eigenvalues --    3.15782   3.17339   3.19971   3.21461   3.22602
 Alpha virt. eigenvalues --    3.28314   3.31726   3.32730   3.33855   3.35170
 Alpha virt. eigenvalues --    3.36906   3.39902   3.41074   3.46636   3.51337
 Alpha virt. eigenvalues --    3.53520   3.54660   3.56940   3.58245   3.64386
 Alpha virt. eigenvalues --    3.70192   3.72517   3.79588   3.81445   3.87252
 Alpha virt. eigenvalues --    3.89771   4.02673   4.06116   4.07653   4.12735
 Alpha virt. eigenvalues --    4.17806   4.19604   4.20396   4.21461   4.25363
 Alpha virt. eigenvalues --    4.39305   4.41494   4.57002   4.72865   4.76511
 Alpha virt. eigenvalues --    4.82743   4.84514   5.00834   5.03847   5.05363
 Alpha virt. eigenvalues --    5.24204   5.27056   5.72493   5.80980   6.77318
 Alpha virt. eigenvalues --    7.55027   7.69040   7.76292   9.81257  23.44127
 Alpha virt. eigenvalues --   23.61077  23.81588  23.86118  23.89887  23.92187
 Alpha virt. eigenvalues --   23.93872  23.94883  23.96441  23.99727  24.05634
 Alpha virt. eigenvalues --   24.08131  24.12834  24.17076  25.84682  26.38150
 Alpha virt. eigenvalues --   26.73491  35.65386  48.02275  50.03290  50.08084
 Alpha virt. eigenvalues --  215.81348 289.74748 289.88988 289.984781020.83911
  Beta  occ. eigenvalues -- -482.85171-101.57291 -62.50450 -56.32487 -56.32098
  Beta  occ. eigenvalues --  -56.32085 -19.13418 -19.12832 -14.35180 -10.29112
  Beta  occ. eigenvalues --  -10.28235 -10.26957 -10.26743 -10.25590 -10.22876
  Beta  occ. eigenvalues --  -10.21098 -10.21047 -10.21009 -10.20883 -10.19963
  Beta  occ. eigenvalues --  -10.19910 -10.19834 -10.19828  -9.48774  -8.71420
  Beta  occ. eigenvalues --   -7.25239  -7.24276  -7.24186  -6.54559  -6.53264
  Beta  occ. eigenvalues --   -6.53245  -2.65651  -2.65279  -2.65268  -2.64239
  Beta  occ. eigenvalues --   -2.64237  -1.07279  -1.06400  -0.97329  -0.90211
  Beta  occ. eigenvalues --   -0.88977  -0.87686  -0.83497  -0.79798  -0.77993
  Beta  occ. eigenvalues --   -0.76588  -0.75985  -0.69130  -0.66981  -0.64860
  Beta  occ. eigenvalues --   -0.62647  -0.59514  -0.57748  -0.56789  -0.54442
  Beta  occ. eigenvalues --   -0.52705  -0.50295  -0.48944  -0.48207  -0.46607
  Beta  occ. eigenvalues --   -0.46567  -0.46150  -0.45700  -0.45238  -0.44676
  Beta  occ. eigenvalues --   -0.43428  -0.42425  -0.42319  -0.39341  -0.38388
  Beta  occ. eigenvalues --   -0.38292  -0.37052  -0.37041  -0.34549  -0.34472
  Beta  occ. eigenvalues --   -0.32781  -0.31533  -0.28716  -0.28655  -0.27978
  Beta  occ. eigenvalues --   -0.27262  -0.27213  -0.23923
  Beta virt. eigenvalues --   -0.11912  -0.07739  -0.03987  -0.03585  -0.02952
  Beta virt. eigenvalues --   -0.00866  -0.00124   0.00422   0.01432   0.01696
  Beta virt. eigenvalues --    0.02477   0.02830   0.03416   0.03559   0.03991
  Beta virt. eigenvalues --    0.04290   0.04633   0.05085   0.05313   0.06345
  Beta virt. eigenvalues --    0.06568   0.06609   0.07342   0.08149   0.08400
  Beta virt. eigenvalues --    0.08542   0.09434   0.10157   0.10245   0.10435
  Beta virt. eigenvalues --    0.10736   0.10908   0.11295   0.11875   0.12090
  Beta virt. eigenvalues --    0.12355   0.12697   0.12993   0.13419   0.13531
  Beta virt. eigenvalues --    0.14110   0.14531   0.14734   0.15769   0.15824
  Beta virt. eigenvalues --    0.16140   0.16559   0.16819   0.17274   0.17736
  Beta virt. eigenvalues --    0.17846   0.18296   0.18569   0.19029   0.19327
  Beta virt. eigenvalues --    0.19514   0.19619   0.20482   0.20892   0.21149
  Beta virt. eigenvalues --    0.21203   0.21759   0.22089   0.22231   0.22877
  Beta virt. eigenvalues --    0.23061   0.23469   0.24109   0.24893   0.24927
  Beta virt. eigenvalues --    0.25336   0.25444   0.25660   0.25949   0.26714
  Beta virt. eigenvalues --    0.27082   0.27722   0.28158   0.28360   0.28613
  Beta virt. eigenvalues --    0.29275   0.29430   0.29706   0.30347   0.30918
  Beta virt. eigenvalues --    0.31079   0.31538   0.31605   0.32392   0.32862
  Beta virt. eigenvalues --    0.33349   0.33866   0.34409   0.34853   0.35614
  Beta virt. eigenvalues --    0.36444   0.37177   0.37574   0.38202   0.38952
  Beta virt. eigenvalues --    0.40120   0.40482   0.41601   0.42226   0.43874
  Beta virt. eigenvalues --    0.44851   0.45158   0.46681   0.46800   0.47060
  Beta virt. eigenvalues --    0.49104   0.50967   0.51438   0.51862   0.52473
  Beta virt. eigenvalues --    0.53296   0.53758   0.54539   0.54690   0.54848
  Beta virt. eigenvalues --    0.55498   0.56408   0.56855   0.57694   0.58065
  Beta virt. eigenvalues --    0.58535   0.59438   0.59757   0.61023   0.61541
  Beta virt. eigenvalues --    0.61693   0.62842   0.63007   0.63113   0.63714
  Beta virt. eigenvalues --    0.64692   0.65328   0.66070   0.66348   0.66547
  Beta virt. eigenvalues --    0.66880   0.69211   0.70254   0.70678   0.71147
  Beta virt. eigenvalues --    0.71619   0.73028   0.74518   0.74945   0.75533
  Beta virt. eigenvalues --    0.75797   0.77037   0.77318   0.78614   0.81382
  Beta virt. eigenvalues --    0.81999   0.82202   0.83584   0.84505   0.85063
  Beta virt. eigenvalues --    0.85598   0.86314   0.86759   0.87564   0.87796
  Beta virt. eigenvalues --    0.88393   0.89207   0.89954   0.90318   0.91670
  Beta virt. eigenvalues --    0.92360   0.92497   0.92653   0.93714   0.94263
  Beta virt. eigenvalues --    0.95036   0.95709   0.96446   0.96841   0.97653
  Beta virt. eigenvalues --    0.98268   0.99239   1.00493   1.01777   1.01886
  Beta virt. eigenvalues --    1.03805   1.04308   1.05342   1.06295   1.07344
  Beta virt. eigenvalues --    1.08886   1.09724   1.10944   1.11435   1.13577
  Beta virt. eigenvalues --    1.13660   1.15408   1.15859   1.19062   1.19070
  Beta virt. eigenvalues --    1.20723   1.21481   1.21981   1.22706   1.25186
  Beta virt. eigenvalues --    1.28248   1.28748   1.30105   1.30470   1.32687
  Beta virt. eigenvalues --    1.33429   1.35024   1.38595   1.39422   1.42255
  Beta virt. eigenvalues --    1.45696   1.46218   1.46437   1.47842   1.49599
  Beta virt. eigenvalues --    1.49837   1.50358   1.50788   1.51526   1.55147
  Beta virt. eigenvalues --    1.55503   1.56405   1.57239   1.58475   1.60203
  Beta virt. eigenvalues --    1.60731   1.61845   1.64004   1.65637   1.65812
  Beta virt. eigenvalues --    1.69114   1.71562   1.71722   1.73564   1.73961
  Beta virt. eigenvalues --    1.74163   1.75534   1.78185   1.78981   1.80955
  Beta virt. eigenvalues --    1.81837   1.84245   1.85112   1.85643   1.87637
  Beta virt. eigenvalues --    1.88797   1.89826   1.90190   1.91670   1.92746
  Beta virt. eigenvalues --    1.93510   1.93758   1.94042   1.96342   1.96791
  Beta virt. eigenvalues --    1.98743   1.99776   2.01121   2.03649   2.05488
  Beta virt. eigenvalues --    2.05557   2.07504   2.11163   2.11727   2.13441
  Beta virt. eigenvalues --    2.14459   2.15650   2.18615   2.23272   2.24625
  Beta virt. eigenvalues --    2.26753   2.27074   2.28047   2.29508   2.29719
  Beta virt. eigenvalues --    2.34247   2.34984   2.37023   2.38620   2.39942
  Beta virt. eigenvalues --    2.42887   2.44813   2.46606   2.47578   2.49840
  Beta virt. eigenvalues --    2.51258   2.53604   2.56989   2.59444   2.60193
  Beta virt. eigenvalues --    2.63162   2.63578   2.65303   2.67808   2.69157
  Beta virt. eigenvalues --    2.70672   2.71796   2.72519   2.73499   2.74923
  Beta virt. eigenvalues --    2.75400   2.77020   2.77154   2.77530   2.78145
  Beta virt. eigenvalues --    2.81656   2.82624   2.83342   2.84194   2.85449
  Beta virt. eigenvalues --    2.86324   2.86491   2.88240   2.89095   2.91428
  Beta virt. eigenvalues --    2.92689   2.93012   2.95992   2.96604   2.98981
  Beta virt. eigenvalues --    3.05341   3.07315   3.08245   3.09116   3.12510
  Beta virt. eigenvalues --    3.15782   3.17339   3.19971   3.21461   3.22602
  Beta virt. eigenvalues --    3.28314   3.31726   3.32730   3.33855   3.35170
  Beta virt. eigenvalues --    3.36906   3.39902   3.41074   3.46636   3.51337
  Beta virt. eigenvalues --    3.53520   3.54660   3.56940   3.58245   3.64386
  Beta virt. eigenvalues --    3.70192   3.72517   3.79588   3.81445   3.87252
  Beta virt. eigenvalues --    3.89771   4.02673   4.06116   4.07653   4.12735
  Beta virt. eigenvalues --    4.17806   4.19604   4.20396   4.21461   4.25363
  Beta virt. eigenvalues --    4.39305   4.41494   4.57002   4.72865   4.76511
  Beta virt. eigenvalues --    4.82743   4.84514   5.00834   5.03847   5.05363
  Beta virt. eigenvalues --    5.24204   5.27056   5.72493   5.80980   6.77318
  Beta virt. eigenvalues --    7.55027   7.69040   7.76292   9.81257  23.44127
  Beta virt. eigenvalues --   23.61077  23.81588  23.86118  23.89887  23.92187
  Beta virt. eigenvalues --   23.93872  23.94883  23.96441  23.99727  24.05634
  Beta virt. eigenvalues --   24.08131  24.12834  24.17076  25.84682  26.38150
  Beta virt. eigenvalues --   26.73491  35.65386  48.02275  50.03290  50.08084
  Beta virt. eigenvalues --  215.81348 289.74748 289.88988 289.984781020.83911
          Condensed to atoms (all electrons):
               1          2          3          4          5          6
     1  C   10.413770  -1.400299  -1.136946   1.012049  -2.449210   2.207334
     2  C   -1.400299   8.652741   0.881672  -0.897824   0.917982  -0.826062
     3  C   -1.136946   0.881672   7.829727   0.190954  -0.267038  -0.019971
     4  C    1.012049  -0.897824   0.190954  18.650083  -4.176527  -1.084612
     5  C   -2.449210   0.917982  -0.267038  -4.176527  20.361350   0.073882
     6  C    2.207334  -0.826062  -0.019971  -1.084612   0.073882   8.868737
     7  C   -1.598836   0.108968  -0.506410  -0.305952   1.418181  -1.003674
     8  C   -0.632590  -0.336034   0.120106   0.171611   1.002680  -1.114764
     9  C    0.158869  -0.395806  -0.430357   1.432537  -6.184615  -0.772423
    10  C   -0.844583  -0.310423  -0.241334  -5.164435  -0.282522  -0.391077
    11  C   -0.069706  -0.134869  -0.179114  -0.705939  -3.103523  -0.228970
    12  C    0.041229   0.027318  -0.020679   0.262341  -0.692986  -0.185647
    13  C   -0.075184   0.023435   0.001331  -0.106930   0.738784  -0.031544
    14  C   -0.248288  -0.158119  -0.182969  -2.566623  -0.729584  -0.043008
    15  O    0.199990   0.077487   0.002908  -0.289100  -0.348525  -0.011861
    16  O   -0.011673  -0.014477   0.047081  -0.431483  -0.295186   0.122884
    17  H    0.363022  -0.144871   0.008138   0.001481   0.113109   0.026644
    18  H   -0.069196   0.458482  -0.083030   0.019879  -0.030638   0.012177
    19  H   -0.021963  -0.030203   0.523639  -0.052508   0.028276  -0.106333
    20  H    0.045842   0.003397  -0.137842   0.151838  -0.023801   0.375573
    21  Br   0.001284   0.000303  -0.000253  -0.002699   0.015827   0.001724
    22  H   -0.007390  -0.001804  -0.002005  -0.019305  -0.112548  -0.024403
    23  N   -0.003859  -0.000367  -0.000251  -0.001713  -0.004331   0.000403
    24  Cl  -0.087384  -0.030250  -0.006040  -0.087422  -0.019122   0.005636
    25  H    0.001473   0.000989   0.000079  -0.007114  -0.002944  -0.000973
    26  H   -0.000654  -0.000344  -0.000074   0.002438   0.000358   0.000388
               7          8          9         10         11         12
     1  C   -1.598836  -0.632590   0.158869  -0.844583  -0.069706   0.041229
     2  C    0.108968  -0.336034  -0.395806  -0.310423  -0.134869   0.027318
     3  C   -0.506410   0.120106  -0.430357  -0.241334  -0.179114  -0.020679
     4  C   -0.305952   0.171611   1.432537  -5.164435  -0.705939   0.262341
     5  C    1.418181   1.002680  -6.184615  -0.282522  -3.103523  -0.692986
     6  C   -1.003674  -1.114764  -0.772423  -0.391077  -0.228970  -0.185647
     7  C   12.052095   1.886485  -1.715098   1.828899  -3.842586  -0.562955
     8  C    1.886485  13.101718   0.836177  -1.688162  -3.096647  -1.429880
     9  C   -1.715098   0.836177  12.623656  -0.739170   2.166671  -1.536314
    10  C    1.828899  -1.688162  -0.739170  14.727503  -0.581914   0.146948
    11  C   -3.842586  -3.096647   2.166671  -0.581914  13.405990   1.300432
    12  C   -0.562955  -1.429880  -1.536314   0.146948   1.300432  15.464577
    13  C    0.329678   1.678851   0.194695  -2.658103  -2.218116  -3.842226
    14  C   -1.275141  -4.278986  -0.427399   2.421736   3.330231  -1.928689
    15  O    0.432625  -0.007677   0.067331  -0.145020  -0.133695   0.044467
    16  O   -0.011168   0.640158  -0.189238  -0.140708  -0.021468   0.001272
    17  H    0.001548   0.006509  -0.051114   0.026943  -0.010149  -0.004204
    18  H    0.028446  -0.015126   0.013387  -0.010583   0.003655   0.000320
    19  H   -0.021563   0.016324  -0.015794   0.010966  -0.002219  -0.000126
    20  H    0.002518  -0.018144   0.030524  -0.065773   0.004236  -0.000431
    21  Br  -0.003165   0.053596   0.010759  -0.055529  -0.088708   0.140590
    22  H   -0.020542  -0.085811   0.028204   0.171998   0.117300   0.116046
    23  N   -0.062209   0.014536   0.028103  -0.020324   0.082262  -0.323864
    24  Cl   0.048303  -0.124247   0.093343  -0.224487  -0.279168  -0.142404
    25  H   -0.016682  -0.000070   0.027555  -0.005916  -0.073824   0.071258
    26  H    0.002391  -0.006003  -0.022536   0.001217   0.026672   0.085335
              13         14         15         16         17         18
     1  C   -0.075184  -0.248288   0.199990  -0.011673   0.363022  -0.069196
     2  C    0.023435  -0.158119   0.077487  -0.014477  -0.144871   0.458482
     3  C    0.001331  -0.182969   0.002908   0.047081   0.008138  -0.083030
     4  C   -0.106930  -2.566623  -0.289100  -0.431483   0.001481   0.019879
     5  C    0.738784  -0.729584  -0.348525  -0.295186   0.113109  -0.030638
     6  C   -0.031544  -0.043008  -0.011861   0.122884   0.026644   0.012177
     7  C    0.329678  -1.275141   0.432625  -0.011168   0.001548   0.028446
     8  C    1.678851  -4.278986  -0.007677   0.640158   0.006509  -0.015126
     9  C    0.194695  -0.427399   0.067331  -0.189238  -0.051114   0.013387
    10  C   -2.658103   2.421736  -0.145020  -0.140708   0.026943  -0.010583
    11  C   -2.218116   3.330231  -0.133695  -0.021468  -0.010149   0.003655
    12  C   -3.842226  -1.928689   0.044467   0.001272  -0.004204   0.000320
    13  C   12.618284  -1.015268   0.009070   0.109772  -0.000381   0.000134
    14  C   -1.015268  11.805883  -0.041637   0.261875   0.007371  -0.000659
    15  O    0.009070  -0.041637   8.371939  -0.000327  -0.013075   0.002675
    16  O    0.109772   0.261875  -0.000327   8.227733   0.000636  -0.000372
    17  H   -0.000381   0.007371  -0.013075   0.000636   0.493806  -0.016003
    18  H    0.000134  -0.000659   0.002675  -0.000372  -0.016003   0.491786
    19  H   -0.000382  -0.000018  -0.000197   0.002639   0.001572  -0.015717
    20  H   -0.001125  -0.018193   0.000251  -0.010836   0.000610   0.002001
    21  Br   0.056053   0.021647   0.000539   0.003168  -0.000017   0.000000
    22  H   -0.246672   0.380380   0.000843  -0.009210   0.000152  -0.000072
    23  N    0.114014   0.128706  -0.003994  -0.000159  -0.000021   0.000007
    24  Cl  -0.095686   0.215512  -0.053973   0.000206   0.003364  -0.000274
    25  H   -0.031806  -0.021546   0.006223  -0.000120   0.000036  -0.000004
    26  H   -0.105710   0.002243  -0.001633   0.000184  -0.000016   0.000002
              19         20         21         22         23         24
     1  C   -0.021963   0.045842   0.001284  -0.007390  -0.003859  -0.087384
     2  C   -0.030203   0.003397   0.000303  -0.001804  -0.000367  -0.030250
     3  C    0.523639  -0.137842  -0.000253  -0.002005  -0.000251  -0.006040
     4  C   -0.052508   0.151838  -0.002699  -0.019305  -0.001713  -0.087422
     5  C    0.028276  -0.023801   0.015827  -0.112548  -0.004331  -0.019122
     6  C   -0.106333   0.375573   0.001724  -0.024403   0.000403   0.005636
     7  C   -0.021563   0.002518  -0.003165  -0.020542  -0.062209   0.048303
     8  C    0.016324  -0.018144   0.053596  -0.085811   0.014536  -0.124247
     9  C   -0.015794   0.030524   0.010759   0.028204   0.028103   0.093343
    10  C    0.010966  -0.065773  -0.055529   0.171998  -0.020324  -0.224487
    11  C   -0.002219   0.004236  -0.088708   0.117300   0.082262  -0.279168
    12  C   -0.000126  -0.000431   0.140590   0.116046  -0.323864  -0.142404
    13  C   -0.000382  -0.001125   0.056053  -0.246672   0.114014  -0.095686
    14  C   -0.000018  -0.018193   0.021647   0.380380   0.128706   0.215512
    15  O   -0.000197   0.000251   0.000539   0.000843  -0.003994  -0.053973
    16  O    0.002639  -0.010836   0.003168  -0.009210  -0.000159   0.000206
    17  H    0.001572   0.000610  -0.000017   0.000152  -0.000021   0.003364
    18  H   -0.015717   0.002001   0.000000  -0.000072   0.000007  -0.000274
    19  H    0.490315  -0.016130  -0.000005  -0.000070  -0.000003  -0.000078
    20  H   -0.016130   0.493040   0.000043  -0.000473   0.000026   0.000004
    21  Br  -0.000005   0.000043  35.090973  -0.061752  -0.085342   0.005215
    22  H   -0.000070  -0.000473  -0.061752   0.534707  -0.004036   0.008895
    23  N   -0.000003   0.000026  -0.085342  -0.004036   6.689856  -0.045284
    24  Cl  -0.000078   0.000004   0.005215   0.008895  -0.045284  17.455276
    25  H    0.000003  -0.000034   0.008441   0.001360   0.326004   0.067817
    26  H   -0.000002   0.000026   0.017596   0.000332   0.357512  -0.009249
              25         26
     1  C    0.001473  -0.000654
     2  C    0.000989  -0.000344
     3  C    0.000079  -0.000074
     4  C   -0.007114   0.002438
     5  C   -0.002944   0.000358
     6  C   -0.000973   0.000388
     7  C   -0.016682   0.002391
     8  C   -0.000070  -0.006003
     9  C    0.027555  -0.022536
    10  C   -0.005916   0.001217
    11  C   -0.073824   0.026672
    12  C    0.071258   0.085335
    13  C   -0.031806  -0.105710
    14  C   -0.021546   0.002243
    15  O    0.006223  -0.001633
    16  O   -0.000120   0.000184
    17  H    0.000036  -0.000016
    18  H   -0.000004   0.000002
    19  H    0.000003  -0.000002
    20  H   -0.000034   0.000026
    21  Br   0.008441   0.017596
    22  H    0.001360   0.000332
    23  N    0.326004   0.357512
    24  Cl   0.067817  -0.009249
    25  H    0.420241  -0.039674
    26  H   -0.039674   0.407375
          Atomic-Atomic Spin Densities.
               1          2          3          4          5          6
     1  C    0.000000  -0.000000  -0.000000  -0.000000  -0.000000   0.000000
     2  C   -0.000000   0.000000   0.000000   0.000000  -0.000000  -0.000000
     3  C   -0.000000   0.000000   0.000000  -0.000000   0.000000   0.000000
     4  C   -0.000000   0.000000  -0.000000   0.000000  -0.000000  -0.000000
     5  C   -0.000000  -0.000000   0.000000  -0.000000   0.000000   0.000000
     6  C    0.000000  -0.000000   0.000000  -0.000000   0.000000   0.000000
     7  C    0.000000   0.000000  -0.000000   0.000000   0.000000   0.000000
     8  C    0.000000  -0.000000  -0.000000   0.000000  -0.000000   0.000000
     9  C    0.000000  -0.000000  -0.000000   0.000000  -0.000000  -0.000000
    10  C    0.000000  -0.000000  -0.000000   0.000000  -0.000000   0.000000
    11  C    0.000000   0.000000  -0.000000  -0.000000  -0.000000  -0.000000
    12  C    0.000000   0.000000  -0.000000   0.000000  -0.000000  -0.000000
    13  C   -0.000000   0.000000   0.000000  -0.000000   0.000000   0.000000
    14  C   -0.000000  -0.000000   0.000000  -0.000000   0.000000   0.000000
    15  O    0.000000  -0.000000  -0.000000  -0.000000  -0.000000  -0.000000
    16  O   -0.000000  -0.000000   0.000000  -0.000000  -0.000000   0.000000
    17  H    0.000000  -0.000000   0.000000  -0.000000   0.000000   0.000000
    18  H   -0.000000   0.000000  -0.000000   0.000000  -0.000000  -0.000000
    19  H    0.000000   0.000000   0.000000  -0.000000   0.000000  -0.000000
    20  H   -0.000000   0.000000  -0.000000   0.000000  -0.000000  -0.000000
    21  Br  -0.000000  -0.000000   0.000000  -0.000000   0.000000   0.000000
    22  H    0.000000  -0.000000  -0.000000   0.000000  -0.000000  -0.000000
    23  N    0.000000  -0.000000  -0.000000  -0.000000  -0.000000   0.000000
    24  Cl   0.000000  -0.000000   0.000000  -0.000000   0.000000   0.000000
    25  H   -0.000000  -0.000000  -0.000000   0.000000  -0.000000  -0.000000
    26  H    0.000000   0.000000  -0.000000  -0.000000   0.000000   0.000000
               7          8          9         10         11         12
     1  C    0.000000   0.000000   0.000000   0.000000   0.000000   0.000000
     2  C    0.000000  -0.000000  -0.000000  -0.000000   0.000000   0.000000
     3  C   -0.000000  -0.000000  -0.000000  -0.000000  -0.000000  -0.000000
     4  C    0.000000   0.000000   0.000000   0.000000  -0.000000   0.000000
     5  C    0.000000  -0.000000  -0.000000  -0.000000  -0.000000  -0.000000
     6  C    0.000000   0.000000  -0.000000   0.000000  -0.000000  -0.000000
     7  C    0.000000   0.000000  -0.000000  -0.000000  -0.000000  -0.000000
     8  C    0.000000   0.000000  -0.000000  -0.000000  -0.000000  -0.000000
     9  C   -0.000000  -0.000000   0.000000   0.000000   0.000000  -0.000000
    10  C   -0.000000  -0.000000   0.000000   0.000000  -0.000000   0.000000
    11  C   -0.000000  -0.000000   0.000000  -0.000000   0.000000   0.000000
    12  C   -0.000000  -0.000000  -0.000000   0.000000   0.000000   0.000000
    13  C    0.000000   0.000000   0.000000  -0.000000  -0.000000  -0.000000
    14  C   -0.000000  -0.000000   0.000000  -0.000000   0.000000  -0.000000
    15  O    0.000000  -0.000000   0.000000  -0.000000   0.000000   0.000000
    16  O    0.000000   0.000000  -0.000000  -0.000000  -0.000000  -0.000000
    17  H   -0.000000  -0.000000  -0.000000   0.000000  -0.000000  -0.000000
    18  H    0.000000   0.000000   0.000000  -0.000000   0.000000   0.000000
    19  H   -0.000000  -0.000000  -0.000000   0.000000  -0.000000   0.000000
    20  H    0.000000   0.000000   0.000000   0.000000   0.000000   0.000000
    21  Br   0.000000   0.000000   0.000000  -0.000000  -0.000000  -0.000000
    22  H   -0.000000  -0.000000   0.000000   0.000000   0.000000   0.000000
    23  N   -0.000000   0.000000   0.000000  -0.000000   0.000000  -0.000000
    24  Cl   0.000000  -0.000000   0.000000   0.000000  -0.000000   0.000000
    25  H   -0.000000  -0.000000  -0.000000  -0.000000  -0.000000   0.000000
    26  H    0.000000  -0.000000  -0.000000   0.000000   0.000000   0.000000
              13         14         15         16         17         18
     1  C   -0.000000  -0.000000   0.000000  -0.000000   0.000000  -0.000000
     2  C    0.000000  -0.000000  -0.000000  -0.000000  -0.000000   0.000000
     3  C    0.000000   0.000000  -0.000000   0.000000   0.000000  -0.000000
     4  C   -0.000000  -0.000000  -0.000000  -0.000000  -0.000000   0.000000
     5  C    0.000000   0.000000  -0.000000  -0.000000   0.000000  -0.000000
     6  C    0.000000   0.000000  -0.000000   0.000000   0.000000  -0.000000
     7  C    0.000000  -0.000000   0.000000   0.000000  -0.000000   0.000000
     8  C    0.000000  -0.000000  -0.000000   0.000000  -0.000000   0.000000
     9  C    0.000000   0.000000   0.000000  -0.000000  -0.000000   0.000000
    10  C   -0.000000  -0.000000  -0.000000  -0.000000   0.000000  -0.000000
    11  C   -0.000000   0.000000   0.000000  -0.000000  -0.000000   0.000000
    12  C   -0.000000  -0.000000   0.000000  -0.000000  -0.000000   0.000000
    13  C    0.000000  -0.000000  -0.000000   0.000000   0.000000  -0.000000
    14  C   -0.000000   0.000000  -0.000000   0.000000   0.000000  -0.000000
    15  O   -0.000000  -0.000000  -0.000000  -0.000000  -0.000000   0.000000
    16  O    0.000000   0.000000  -0.000000   0.000000   0.000000  -0.000000
    17  H    0.000000   0.000000  -0.000000   0.000000   0.000000  -0.000000
    18  H   -0.000000  -0.000000   0.000000  -0.000000  -0.000000   0.000000
    19  H    0.000000   0.000000  -0.000000   0.000000   0.000000  -0.000000
    20  H   -0.000000  -0.000000   0.000000  -0.000000  -0.000000   0.000000
    21  Br   0.000000   0.000000  -0.000000   0.000000   0.000000  -0.000000
    22  H   -0.000000  -0.000000   0.000000  -0.000000  -0.000000   0.000000
    23  N    0.000000   0.000000  -0.000000   0.000000  -0.000000   0.000000
    24  Cl  -0.000000   0.000000   0.000000   0.000000   0.000000  -0.000000
    25  H   -0.000000  -0.000000  -0.000000  -0.000000  -0.000000   0.000000
    26  H   -0.000000   0.000000   0.000000   0.000000   0.000000  -0.000000
              19         20         21         22         23         24
     1  C    0.000000  -0.000000  -0.000000   0.000000   0.000000   0.000000
     2  C    0.000000   0.000000  -0.000000  -0.000000  -0.000000  -0.000000
     3  C    0.000000  -0.000000   0.000000  -0.000000  -0.000000   0.000000
     4  C   -0.000000   0.000000  -0.000000   0.000000  -0.000000  -0.000000
     5  C    0.000000  -0.000000   0.000000  -0.000000  -0.000000   0.000000
     6  C   -0.000000  -0.000000   0.000000  -0.000000   0.000000   0.000000
     7  C   -0.000000   0.000000   0.000000  -0.000000  -0.000000   0.000000
     8  C   -0.000000   0.000000   0.000000  -0.000000   0.000000  -0.000000
     9  C   -0.000000   0.000000   0.000000   0.000000   0.000000   0.000000
    10  C    0.000000   0.000000  -0.000000   0.000000  -0.000000   0.000000
    11  C   -0.000000   0.000000  -0.000000   0.000000   0.000000  -0.000000
    12  C    0.000000   0.000000  -0.000000   0.000000  -0.000000   0.000000
    13  C    0.000000  -0.000000   0.000000  -0.000000   0.000000  -0.000000
    14  C    0.000000  -0.000000   0.000000  -0.000000   0.000000   0.000000
    15  O   -0.000000   0.000000  -0.000000   0.000000  -0.000000   0.000000
    16  O    0.000000  -0.000000   0.000000  -0.000000   0.000000   0.000000
    17  H    0.000000  -0.000000   0.000000  -0.000000  -0.000000   0.000000
    18  H   -0.000000   0.000000  -0.000000   0.000000   0.000000  -0.000000
    19  H    0.000000  -0.000000  -0.000000  -0.000000  -0.000000   0.000000
    20  H   -0.000000  -0.000000  -0.000000   0.000000  -0.000000  -0.000000
    21  Br  -0.000000  -0.000000   0.000000  -0.000000  -0.000000   0.000000
    22  H   -0.000000   0.000000  -0.000000   0.000000  -0.000000   0.000000
    23  N   -0.000000  -0.000000  -0.000000  -0.000000   0.000000  -0.000000
    24  Cl   0.000000  -0.000000   0.000000   0.000000  -0.000000   0.000000
    25  H   -0.000000   0.000000   0.000000   0.000000  -0.000000   0.000000
    26  H   -0.000000  -0.000000  -0.000000   0.000000  -0.000000   0.000000
              25         26
     1  C   -0.000000   0.000000
     2  C   -0.000000   0.000000
     3  C   -0.000000  -0.000000
     4  C    0.000000  -0.000000
     5  C   -0.000000   0.000000
     6  C   -0.000000   0.000000
     7  C   -0.000000   0.000000
     8  C   -0.000000  -0.000000
     9  C   -0.000000  -0.000000
    10  C   -0.000000   0.000000
    11  C   -0.000000   0.000000
    12  C    0.000000   0.000000
    13  C   -0.000000  -0.000000
    14  C   -0.000000   0.000000
    15  O   -0.000000   0.000000
    16  O   -0.000000   0.000000
    17  H   -0.000000   0.000000
    18  H    0.000000  -0.000000
    19  H   -0.000000  -0.000000
    20  H    0.000000  -0.000000
    21  Br   0.000000  -0.000000
    22  H    0.000000   0.000000
    23  N   -0.000000  -0.000000
    24  Cl   0.000000   0.000000
    25  H    0.000000   0.000000
    26  H    0.000000   0.000000
 Mulliken charges and spin densities:
               1          2
     1  C    0.212899  -0.000000
     2  C   -0.471025  -0.000000
     3  C   -0.391322  -0.000000
     4  C    0.004977   0.000000
     5  C    0.052668  -0.000000
     6  C    0.149941  -0.000000
     7  C   -1.194158   0.000000
     8  C   -0.694609   0.000000
     9  C    0.768054  -0.000000
    10  C    0.233851  -0.000000
    11  C    0.333164  -0.000000
    12  C   -1.031727   0.000000
    13  C    0.555031  -0.000000
    14  C    0.360546  -0.000000
    15  O   -0.165633  -0.000000
    16  O   -0.281183  -0.000000
    17  H    0.184911  -0.000000
    18  H    0.208725   0.000000
    19  H    0.209575  -0.000000
    20  H    0.182852   0.000000
    21  Br  -0.130289   0.000000
    22  H    0.235875  -0.000000
    23  N   -0.185673  -0.000000
    24  Cl   0.301495   0.000000
    25  H    0.269227   0.000000
    26  H    0.281827   0.000000
 Sum of Mulliken charges =  -0.00000   0.00000
 Mulliken charges and spin densities with hydrogens summed into heavy atoms:
               1          2
     1  C    0.397810  -0.000000
     2  C   -0.262300  -0.000000
     3  C   -0.181747  -0.000000
     4  C    0.004977   0.000000
     5  C    0.052668  -0.000000
     6  C    0.332793  -0.000000
     7  C   -1.194158   0.000000
     8  C   -0.694609   0.000000
     9  C    0.768054  -0.000000
    10  C    0.233851  -0.000000
    11  C    0.333164  -0.000000
    12  C   -1.031727   0.000000
    13  C    0.555031  -0.000000
    14  C    0.596421  -0.000000
    15  O   -0.165633  -0.000000
    16  O   -0.281183  -0.000000
    21  Br  -0.130289   0.000000
    23  N    0.365381  -0.000000
    24  Cl   0.301495   0.000000
 Electronic spatial extent (au):  <R**2>=           7480.5997
 Charge=             -0.0000 electrons
 Dipole moment (field-independent basis, Debye):
    X=             -1.0099    Y=              1.0516    Z=              0.4310  Tot=              1.5203
 Quadrupole moment (field-independent basis, Debye-Ang):
   XX=            -91.5064   YY=           -139.4969   ZZ=           -131.0411
   XY=            -11.9395   XZ=             -1.6606   YZ=              0.9304
 Traceless Quadrupole moment (field-independent basis, Debye-Ang):
   XX=             29.1751   YY=            -18.8154   ZZ=            -10.3597
   XY=            -11.9395   XZ=             -1.6606   YZ=              0.9304
 Octapole moment (field-independent basis, Debye-Ang**2):
  XXX=            -37.9420  YYY=             -4.2730  ZZZ=              0.5207  XYY=            -76.8948
  XXY=             -8.9057  XXZ=              6.1478  XZZ=            -48.4982  YZZ=             -7.8226
  YYZ=              2.0961  XYZ=             -3.2983
 Hexadecapole moment (field-independent basis, Debye-Ang**3):
 XXXX=          -5312.5700 YYYY=          -2497.4406 ZZZZ=           -148.6319 XXXY=            -55.5724
 XXXZ=            -24.4385 YYYX=             48.0771 YYYZ=              5.4501 ZZZX=             -1.7920
 ZZZY=              0.8149 XXYY=          -1364.9008 XXZZ=          -1215.1839 YYZZ=           -438.6256
 XXYZ=             11.8896 YYXZ=             -7.6201 ZZXY=             60.1732
 N-N= 1.821220490363D+03 E-N=-1.262015480645D+04  KE= 3.770331348471D+03
                          Isotropic Fermi Contact Couplings
        Atom                 a.u.       MegaHertz       Gauss      10(-4) cm-1
     1  C(13)              0.00000       0.00000       0.00000       0.00000
     2  C(13)             -0.00000      -0.00000      -0.00000      -0.00000
     3  C(13)              0.00000       0.00000       0.00000       0.00000
     4  C(13)              0.00000       0.00000       0.00000       0.00000
     5  C(13)             -0.00000      -0.00000      -0.00000      -0.00000
     6  C(13)             -0.00000      -0.00000      -0.00000      -0.00000
     7  C(13)             -0.00000      -0.00000      -0.00000      -0.00000
     8  C(13)             -0.00000      -0.00000      -0.00000      -0.00000
     9  C(13)             -0.00000      -0.00000      -0.00000      -0.00000
    10  C(13)             -0.00000      -0.00000      -0.00000      -0.00000
    11  C(13)             -0.00000      -0.00000      -0.00000      -0.00000
    12  C(13)             -0.00000      -0.00000      -0.00000      -0.00000
    13  C(13)             -0.00000      -0.00000      -0.00000      -0.00000
    14  C(13)              0.00000       0.00000       0.00000       0.00000
    15  O(17)             -0.00000       0.00000       0.00000       0.00000
    16  O(17)             -0.00000       0.00000       0.00000       0.00000
    17  H(1)              -0.00000      -0.00000      -0.00000      -0.00000
    18  H(1)               0.00000       0.00000       0.00000       0.00000
    19  H(1)               0.00000       0.00000       0.00000       0.00000
    20  H(1)               0.00000       0.00000       0.00000       0.00000
    21  Br(79)             0.00000       0.00000       0.00000       0.00000
    22  H(1)               0.00000       0.00000       0.00000       0.00000
    23  N(14)              0.00000       0.00000       0.00000       0.00000
    24  Cl(35)            -0.00000      -0.00000      -0.00000      -0.00000
    25  H(1)               0.00000       0.00000       0.00000       0.00000
    26  H(1)               0.00000       0.00000       0.00000       0.00000
 --------------------------------------------------------
       Center         ----  Spin Dipole Couplings  ----
                      3XX-RR        3YY-RR        3ZZ-RR
 --------------------------------------------------------
     1   Atom       -0.000000      0.000000     -0.000000
     2   Atom       -0.000000      0.000000     -0.000000
     3   Atom        0.000000      0.000000     -0.000000
     4   Atom        0.000000     -0.000000      0.000000
     5   Atom       -0.000000      0.000000     -0.000000
     6   Atom       -0.000000      0.000000     -0.000000
     7   Atom       -0.000000      0.000000     -0.000000
     8   Atom       -0.000000      0.000000     -0.000000
     9   Atom        0.000000      0.000000     -0.000000
    10   Atom        0.000000      0.000000     -0.000000
    11   Atom       -0.000000      0.000000     -0.000000
    12   Atom       -0.000000      0.000000     -0.000000
    13   Atom       -0.000000      0.000000      0.000000
    14   Atom        0.000000      0.000000     -0.000000
    15   Atom       -0.000000      0.000000     -0.000000
    16   Atom        0.000000     -0.000000     -0.000000
    17   Atom       -0.000000     -0.000000      0.000000
    18   Atom        0.000000     -0.000000     -0.000000
    19   Atom        0.000000     -0.000000     -0.000000
    20   Atom        0.000000     -0.000000     -0.000000
    21   Atom       -0.000000      0.000000     -0.000000
    22   Atom        0.000000     -0.000000      0.000000
    23   Atom       -0.000000      0.000000      0.000000
    24   Atom        0.000000      0.000000     -0.000000
    25   Atom        0.000000     -0.000000      0.000000
    26   Atom       -0.000000      0.000000     -0.000000
 --------------------------------------------------------
                        XY            XZ            YZ
 --------------------------------------------------------
     1   Atom       -0.000000     -0.000000      0.000000
     2   Atom       -0.000000     -0.000000     -0.000000
     3   Atom        0.000000      0.000000     -0.000000
     4   Atom        0.000000     -0.000000     -0.000000
     5   Atom        0.000000     -0.000000      0.000000
     6   Atom        0.000000     -0.000000     -0.000000
     7   Atom       -0.000000     -0.000000      0.000000
     8   Atom        0.000000     -0.000000     -0.000000
     9   Atom        0.000000      0.000000      0.000000
    10   Atom        0.000000      0.000000     -0.000000
    11   Atom       -0.000000      0.000000      0.000000
    12   Atom        0.000000      0.000000     -0.000000
    13   Atom        0.000000      0.000000      0.000000
    14   Atom       -0.000000     -0.000000     -0.000000
    15   Atom        0.000000      0.000000      0.000000
    16   Atom       -0.000000      0.000000     -0.000000
    17   Atom        0.000000     -0.000000     -0.000000
    18   Atom       -0.000000      0.000000     -0.000000
    19   Atom        0.000000     -0.000000      0.000000
    20   Atom       -0.000000      0.000000     -0.000000
    21   Atom        0.000000     -0.000000      0.000000
    22   Atom        0.000000      0.000000      0.000000
    23   Atom       -0.000000      0.000000     -0.000000
    24   Atom        0.000000     -0.000000      0.000000
    25   Atom       -0.000000      0.000000     -0.000000
    26   Atom       -0.000000      0.000000     -0.000000
 --------------------------------------------------------


 ---------------------------------------------------------------------------------
              Anisotropic Spin Dipole Couplings in Principal Axis System
 ---------------------------------------------------------------------------------

       Atom             a.u.   MegaHertz   Gauss  10(-4) cm-1        Axes

              Baa    -0.0000    -0.000    -0.000    -0.000  0.9826  0.1651 -0.0853
     1 C(13)  Bbb    -0.0000    -0.000    -0.000    -0.000  0.1150 -0.1797  0.9770
              Bcc     0.0000     0.000     0.000     0.000 -0.1460  0.9698  0.1956
 
              Baa    -0.0000    -0.000    -0.000    -0.000  0.5680  0.4178  0.7091
     2 C(13)  Bbb    -0.0000    -0.000    -0.000    -0.000 -0.6734 -0.2593  0.6923
              Bcc     0.0000     0.000     0.000     0.000 -0.4731  0.8708 -0.1340
 
              Baa    -0.0000    -0.000    -0.000    -0.000 -0.2738  0.2244  0.9352
     3 C(13)  Bbb    -0.0000    -0.000    -0.000    -0.000  0.7386 -0.5738  0.3539
              Bcc     0.0000     0.000     0.000     0.000  0.6161  0.7876 -0.0086
 
              Baa    -0.0000    -0.000    -0.000    -0.000 -0.0410  0.9938  0.1031
     4 C(13)  Bbb     0.0000     0.000     0.000     0.000  0.2295 -0.0910  0.9690
              Bcc     0.0000     0.000     0.000     0.000  0.9724  0.0634 -0.2244
 
              Baa    -0.0000    -0.000    -0.000    -0.000  0.3453 -0.0849  0.9346
     5 C(13)  Bbb    -0.0000    -0.000    -0.000    -0.000  0.9222 -0.1542 -0.3547
              Bcc     0.0000     0.000     0.000     0.000  0.1743  0.9844  0.0250
 
              Baa    -0.0000    -0.000    -0.000    -0.000 -0.0196  0.0466  0.9987
     6 C(13)  Bbb    -0.0000    -0.000    -0.000    -0.000  0.9433 -0.3303  0.0339
              Bcc     0.0000     0.000     0.000     0.000  0.3315  0.9427 -0.0374
 
              Baa    -0.0000    -0.000    -0.000    -0.000  0.9921  0.1243  0.0156
     7 C(13)  Bbb    -0.0000    -0.000    -0.000    -0.000 -0.0021 -0.1084  0.9941
              Bcc     0.0000     0.000     0.000     0.000 -0.1252  0.9863  0.1073
 
              Baa    -0.0000    -0.000    -0.000    -0.000  0.9753  0.0021  0.2209
     8 C(13)  Bbb    -0.0000    -0.000    -0.000    -0.000 -0.2188  0.1460  0.9648
              Bcc     0.0000     0.000     0.000     0.000  0.0302  0.9893 -0.1429
 
              Baa    -0.0000    -0.000    -0.000    -0.000 -0.0791 -0.0050  0.9969
     9 C(13)  Bbb     0.0000     0.000     0.000     0.000  0.8976 -0.4353  0.0690
              Bcc     0.0000     0.000     0.000     0.000  0.4336  0.9003  0.0389
 
              Baa    -0.0000    -0.000    -0.000    -0.000 -0.0172  0.0138  0.9998
    10 C(13)  Bbb     0.0000     0.000     0.000     0.000 -0.4177  0.9084 -0.0197
              Bcc     0.0000     0.000     0.000     0.000  0.9084  0.4179  0.0099
 
              Baa    -0.0000    -0.000    -0.000    -0.000  0.9593  0.2027 -0.1966
    11 C(13)  Bbb    -0.0000    -0.000    -0.000    -0.000  0.2040 -0.0157  0.9789
              Bcc     0.0000     0.000     0.000     0.000 -0.1953  0.9791  0.0564
 
              Baa    -0.0000    -0.000    -0.000    -0.000 -0.5087  0.4344  0.7433
    12 C(13)  Bbb     0.0000     0.000     0.000     0.000  0.7338 -0.2329  0.6382
              Bcc     0.0000     0.000     0.000     0.000  0.4503  0.8701 -0.2003
 
              Baa    -0.0000    -0.000    -0.000    -0.000  0.9591 -0.2776 -0.0549
    13 C(13)  Bbb     0.0000     0.000     0.000     0.000 -0.0027 -0.2028  0.9792
              Bcc     0.0000     0.000     0.000     0.000  0.2830  0.9390  0.1953
 
              Baa    -0.0000    -0.000    -0.000    -0.000  0.4458  0.6378  0.6281
    14 C(13)  Bbb    -0.0000    -0.000    -0.000    -0.000 -0.4121 -0.4766  0.7765
              Bcc     0.0000     0.000     0.000     0.000  0.7946 -0.6050  0.0504
 
              Baa    -0.0000     0.000     0.000     0.000  0.7782 -0.6280  0.0016
    15 O(17)  Bbb    -0.0000     0.000     0.000     0.000 -0.1268 -0.1546  0.9798
              Bcc     0.0000    -0.000    -0.000    -0.000  0.6151  0.7627  0.1999
 
              Baa    -0.0000     0.000     0.000     0.000  0.1735  0.8832  0.4358
    16 O(17)  Bbb    -0.0000     0.000     0.000     0.000 -0.1450 -0.4148  0.8983
              Bcc     0.0000    -0.000    -0.000    -0.000  0.9741 -0.2190  0.0561
 
              Baa    -0.0000    -0.000    -0.000    -0.000 -0.4327  0.9015  0.0032
    17 H(1)   Bbb     0.0000     0.000     0.000     0.000  0.9015  0.4327  0.0079
              Bcc     0.0000     0.000     0.000     0.000 -0.0058 -0.0064  1.0000
 
              Baa    -0.0000    -0.000    -0.000    -0.000  0.1204  0.9856  0.1188
    18 H(1)   Bbb    -0.0000    -0.000    -0.000    -0.000 -0.0393 -0.1148  0.9926
              Bcc     0.0000     0.000     0.000     0.000  0.9919 -0.1242  0.0250
 
              Baa    -0.0000    -0.000    -0.000    -0.000 -0.3140  0.8046 -0.5041
    19 H(1)   Bbb    -0.0000    -0.000    -0.000    -0.000  0.0538  0.5451  0.8366
              Bcc     0.0000     0.000     0.000     0.000  0.9479  0.2355 -0.2144
 
              Baa    -0.0000    -0.000    -0.000    -0.000  0.3643  0.9299  0.0505
    20 H(1)   Bbb    -0.0000    -0.000    -0.000    -0.000 -0.0793 -0.0231  0.9966
              Bcc     0.0000     0.000     0.000     0.000  0.9279 -0.3670  0.0654
 
              Baa    -0.0000    -0.000    -0.000    -0.000  0.3300 -0.3398  0.8807
    21 Br(79) Bbb    -0.0000    -0.000    -0.000    -0.000  0.8704 -0.2517 -0.4232
              Bcc     0.0000     0.000     0.000     0.000  0.3654  0.9062  0.2127
 
              Baa    -0.0000    -0.000    -0.000    -0.000 -0.3104  0.9505 -0.0160
    22 H(1)   Bbb     0.0000     0.000     0.000     0.000 -0.0416  0.0032  0.9991
              Bcc     0.0000     0.000     0.000     0.000  0.9497  0.3108  0.0385
 
              Baa    -0.0000    -0.000    -0.000    -0.000 -0.0600  0.5903  0.8050
    23 N(14)  Bbb    -0.0000    -0.000    -0.000    -0.000  0.9937  0.1116 -0.0077
              Bcc     0.0000     0.000     0.000     0.000 -0.0944  0.7995 -0.5933
 
              Baa    -0.0000    -0.000    -0.000    -0.000  0.0091 -0.0063  0.9999
    24 Cl(35) Bbb    -0.0000    -0.000    -0.000    -0.000  0.8903 -0.4553 -0.0110
              Bcc     0.0000     0.000     0.000     0.000  0.4553  0.8903  0.0015
 
              Baa    -0.0000    -0.000    -0.000    -0.000  0.4643  0.8853 -0.0250
    25 H(1)   Bbb    -0.0000    -0.000    -0.000    -0.000 -0.6572  0.3633  0.6603
              Bcc     0.0000     0.000     0.000     0.000  0.5937 -0.2902  0.7506
 
              Baa    -0.0000    -0.000    -0.000    -0.000 -0.1104  0.1031  0.9885
    26 H(1)   Bbb    -0.0000    -0.000    -0.000    -0.000  0.9731  0.2134  0.0864
              Bcc     0.0000     0.000     0.000     0.000 -0.2021  0.9715 -0.1239
 

 ---------------------------------------------------------------------------------

 No NMR shielding tensors so no spin-rotation constants.
 Leave Link  601 at Sun Jan 14 01:04:58 2024, MaxMem=  4026531840 cpu:               4.0 elap:               0.6
 (Enter /sysapps/ubuntu-applications/gaussian/Gaussian/AVX2/g16/l9999.exe)
 1\1\GINC-ACIDSGN006\SP\UB3LYP\6-311++G(d,p)\C14H7Br1Cl1N1O2\SELHAJJ1\1
 4-Jan-2024\0\\#P UB3LYP/6-311++G(d,p) SCRF=(PCM,Solvent=n,n-DiMethylFo
 rmamide)\\Quinone PCM in DMF\\0,1\C,0,-1.771276,1.885558,-5.155045\C,0
 ,-1.69147,0.549527,-5.527993\C,0,-1.323902,-0.421176,-4.591404\C,0,-1.
 484163,2.267167,-3.839676\C,0,-1.115787,1.291609,-2.902264\C,0,-1.0371
 51,-0.051536,-3.283424\C,0,-1.583452,3.71764,-3.484596\C,0,-0.806084,1
 .672366,-1.500564\C,0,-1.274135,4.11477,-2.067448\C,0,-0.904642,3.1112
 37,-1.140349\C,0,-1.335197,5.441208,-1.61747\C,0,-1.044148,5.801528,-0
 .27402\C,0,-0.677598,4.755919,0.600393\C,0,-0.609342,3.447465,0.181401
 \O,0,-1.906862,4.524328,-4.33633\O,0,-0.481861,0.833097,-0.672808\H,0,
 -2.054062,2.651712,-5.865675\H,0,-1.915192,0.260396,-6.548581\H,0,-1.2
 62579,-1.462814,-4.885437\H,0,-0.750127,-0.783198,-2.538533\Br,0,-0.25
 8481,5.171586,2.425167\H,0,-0.327237,2.654863,0.861373\N,0,-1.139649,7
 .087586,0.153723\Cl,0,-1.771893,6.78183,-2.661139\H,0,-1.279014,7.8219
 5,-0.520115\H,0,-0.800515,7.326772,1.070804\\Version=ES64L-G16RevA.03\
 State=1-A\HF=-3777.4980396\S2=0.\S2-1=0.\S2A=0.\RMSD=8.917e-09\Dipole=
 0.108216,0.5871831,0.0356904\Quadrupole=-8.2373844,8.0148203,0.2225641
 ,4.1388098,0.1304542,18.9824795\PG=C01 [X(C14H7Br1Cl1N1O2)]\\@


 WAR ES EIN GOTT DER DIESE ZEICHEN SCHRIEB?
          - LUDWIG BOLTZMANN, QUOTING GOETHE, ABOUT MAXWELL'S EQUATIONS.
 Job cpu time:       0 days  0 hours 41 minutes 39.6 seconds.
 Elapsed time:       0 days  0 hours  5 minutes 15.8 seconds.
 File lengths (MBytes):  RWF=    333 Int=      0 D2E=      0 Chk=     19 Scr=      1
 Normal termination of Gaussian 16 at Sun Jan 14 01:04:58 2024.
