
Running Job 1 of 1 111-CPCM.in
qchem 111-CPCM.in_4152744.0 /expanse/lustre/scratch/selhajj/temp_project/qcscratch/31246336/qchem4152744/ 0
/cm/shared/apps/spack/cpu/opt/spack/linux-centos8-zen2/gcc-10.2.0/qchem-5.4-akfmr7b3t57bfs6qan3padb2wnb2i7cl/exe/qcprog.exe_s 111-CPCM.in_4152744.0 /expanse/lustre/scratch/selhajj/temp_project/qcscratch/31246336/qchem4152744/
                  Welcome to Q-Chem
     A Quantum Leap Into The Future Of Chemistry


 Q-Chem 5.4, Q-Chem, Inc., Pleasanton, CA (2021)

 License issued to: University of California, San Diego (site)

 E. Epifanovsky,  A. T. B. Gilbert,  Xintian Feng,  Joonho Lee,  Yuezhi Mao,  
 N. Mardirossian,  P. Pokhilko,  A. White,  M. Wormit,  M. P. Coons,  
 A. L. Dempwolff,  Zhengting Gan,  D. Hait,  P. R. Horn,  L. D. Jacobson,  
 I. Kaliman,  J. Kussmann,  A. W. Lange,  Ka Un Lao,  D. S. Levine,  Jie Liu,  
 S. C. McKenzie,  A. F. Morrison,  K. Nanda,  F. Plasser,  D. R. Rehn,  
 M. L. Vidal,  Zhi-Qiang You,  Ying Zhu,  B. Alam,  B. Albrecht,  
 A. Aldossary,  E. Alguire,  J. H. Andersen,  D. Barton,  K. Begam,  A. Behn,  
 Y. A. Bernard,  E. J. Berquist,  H. Burton,  A. Carreras,  K. Carter-Fenk,  
 R. Chakraborty,  A. D. Chien,  K. D. Closser,  V. Cofer-Shabica,  
 S. Dasgupta,  Jia Deng,  M. de Wergifosse,  M. Diedenhofen,  Hainam Do,  
 S. Ehlert,  Po-Tung Fang,  S. Fatehi,  Qingguo Feng,  J. Gayvert,  
 Qinghui Ge,  G. Gidofalvi,  M. Goldey,  J. Gomes,  C. Gonzalez-Espinoza,  
 S. Gulania,  A. Gunina,  M. W. D. Hanson-Heine,  P. H. P. Harbach,  
 A. W. Hauser,  M. F. Herbst,  M. Hernandez Vera,  M. Hodecker,  
 Z. C. Holden,  S. Houck,  Xunkun Huang,  Kerwin Hui,  B. C. Huynh,  
 M. Ivanov,  Hyunjun Ji,  Hanjie Jiang,  B. Kaduk,  S. Kaehler,  
 K. Khistyaev,  Jaehoon Kim,  P. Klunzinger,  Z. Koczor-Benda,  
 Joong Hoon Koh,  D. Kosenkov,  L. Koulias,  T. Kowalczyk,  C. M. Krauter,  
 K. Kue,  A. Kunitsa,  T. Kus,  A. Landau,  K. V. Lawler,  D. Lefrancois,  
 S. Lehtola,  Rain Li,  Yi-Pei Li,  Jiashu Liang,  M. Liebenthal,  
 Hung-Hsuan Lin,  You-Sheng Lin,  Fenglai Liu,  Kuan-Yu Liu,  
 M. Loipersberger,  A. Luenser,  A. Manjanath,  P. Manohar,  E. Mansoor,  
 S. F. Manzer,  Shan-Ping Mao,  A. V. Marenich,  T. Markovich,  S. Mason,  
 S. A. Maurer,  P. F. McLaughlin,  M. F. S. J. Menger,  J.-M. Mewes,  
 S. A. Mewes,  P. Morgante,  J. W. Mullinax,  T. S. Nguyen-Beck,  
 K. J. Oosterbaan,  G. Paran,  Alexander C. Paul,  Suranjan K. Paul,  
 F. Pavosevic,  Zheng Pei,  S. Prager,  E. I. Proynov,  E. Ramos,  B. Rana,  
 A. E. Rask,  A. Rettig,  R. M. Richard,  F. Rob,  E. Rossomme,  T. Scheele,  
 M. Scheurer,  M. Schneider,  N. Sergueev,  S. M. Sharada,  W. Skomorowski,  
 D. W. Small,  C. J. Stein,  Yu-Chuan Su,  E. J. Sundstrom,  Zhen Tao,  
 J. Thirman,  T. Tsuchimochi,  N. M. Tubman,  S. P. Veccham,  O. Vydrov,  
 J. Wenzel,  J. Witte,  A. Yamada,  Kun Yao,  S. Yeganeh,  S. R. Yost,  
 A. Zech,  Igor Ying Zhang,  Xing Zhang,  Yu Zhang,  D. Zuev,  
 A. Aspuru-Guzik,  A. T. Bell,  N. A. Besley,  K. B. Bravaya,  B. R. Brooks,  
 D. Casanova,  Jeng-Da Chai,  S. Coriani,  C. J. Cramer,  
 A. E. DePrince, III,  R. A. DiStasio Jr.,  A. Dreuw,  B. D. Dunietz,  
 T. R. Furlani,  W. A. Goddard III,  S. Grimme,  S. Hammes-Schiffer,  
 T. Head-Gordon,  W. J. Hehre,  Chao-Ping Hsu,  T.-C. Jagau,  Yousung Jung,  
 A. Klamt,  Jing Kong,  D. S. Lambrecht,  WanZhen Liang,  N. J. Mayhall,  
 C. W. McCurdy,  J. B. Neaton,  C. Ochsenfeld,  J. A. Parkhill,  R. Peverati,  
 V. A. Rassolov,  Yihan Shao,  L. V. Slipchenko,  T. Stauch,  R. P. Steele,  
 J. E. Subotnik,  A. J. W. Thom,  A. Tkatchenko,  D. G. Truhlar,  
 T. Van Voorhis,  T. A. Wesolowski,  K. B. Whaley,  H. L. Woodcock III,  
 P. M. Zimmerman,  S. Faraji,  P. M. W. Gill,  M. Head-Gordon,  
 J. M. Herbert,  A. I. Krylov

 Contributors to earlier versions of Q-Chem not listed above: 
 R. D. Adamson,  B. Austin,  R. Baer,  J. Baker,  G. J. O. Beran,  
 K. Brandhorst,  S. T. Brown,  E. F. C. Byrd,  A. K. Chakraborty,  
 G. K. L. Chan,  Chun-Min Chang,  Yunqing Chen,  C.-L. Cheng,  
 Siu Hung Chien,  D. M. Chipman,  D. L. Crittenden,  H. Dachsel,  
 R. J. Doerksen,  A. D. Dutoi,  R. G. Edgar,  J. Fosso-Tande,  
 L. Fusti-Molnar,  D. Ghosh,  A. Ghysels,  A. Golubeva-Zadorozhnaya,  
 J. Gonthier,  M. S. Gordon,  S. R. Gwaltney,  G. Hawkins,  J. E. Herr,  
 A. Heyden,  S. Hirata,  E. G. Hohenstein,  G. Kedziora,  F. J. Keil,  
 C. Kelley,  Jihan Kim,  R. A. King,  R. Z. Khaliullin,  P. P. Korambath,  
 W. Kurlancheek,  A. Laurent,  A. M. Lee,  M. S. Lee,  S. V. Levchenko,  
 Ching Yeh Lin,  D. Liotard,  E. Livshits,  R. C. Lochan,  I. Lotan,  
 L. A. Martinez-Martinez,  P. E. Maslen,  N. Nair,  D. P. O'Neill,  
 D. Neuhauser,  E. Neuscamman,  C. M. Oana,  R. Olivares-Amaya,  R. Olson,  
 T. M. Perrine,  B. Peters,  P. A. Pieniazek,  A. Prociuk,  Y. M. Rhee,  
 J. Ritchie,  M. A. Rohrdanz,  E. Rosta,  N. J. Russ,  H. F. Schaefer III,  
 M. W. Schmidt,  N. E. Schultz,  S. Sharma,  N. Shenvi,  C. D. Sherrill,  
 A. C. Simmonett,  A. Sodt,  T. Stein,  D. Stuck,  K. S. Thanthiriwatte,  
 V. Vanovschi,  L. Vogt,  Tao Wang,  A. Warshel,  M. A. Watson,  
 C. F. Williams,  Q. Wu,  X. Xu,  Jun Yang,  W. Zhang,  Yan Zhao

 Please cite Q-Chem as follows:
 Y. Shao et al., Mol. Phys. 113, 184-215 (2015)
 DOI: 10.1080/00268976.2014.952696

 Q-Chem 5.4.0 for Intel X86 EM64T Linux

 Parts of Q-Chem use Armadillo 9.800.1 (Horizon Scraper).
 http://arma.sourceforge.net/

 Q-Chem begins on Tue Jun 11 17:40:35 2024  

 Host: 
0

     Scratch files written to /expanse/lustre/scratch/selhajj/temp_project/qcscratch/31246336/qchem4152744//
 May1621 |scratch|qcdevops|jenkins|workspace|build_RNUM    
 Processing $rem in /cm/shared/apps/spack/cpu/opt/spack/linux-centos8-zen2/gcc-10.2.0/qchem-5.4-akfmr7b3t57bfs6qan3padb2wnb2i7cl/config/preferences:
 Processing $rem in /home/selhajj/.qchemrc:
 Symmetry turned off for PCM/SM12/SMD calculation

 Checking the input file for inconsistencies... 	...done.

--------------------------------------------------------------
User input:
--------------------------------------------------------------
$molecule
0 1
O                 -2.6878420000     -0.1734870000      0.4461790000
C                 -1.3912890000      0.0072970000      0.2430250000
C                 -0.7850470000      1.2154900000      0.2846030000
C                  0.6346730000      1.2833430000      0.0451210000
O                  1.3082130000      2.3087770000      0.0518020000
C                  1.3913120000     -0.0072660000     -0.2430780000
C                  0.7850660000     -1.2155010000     -0.2842470000
C                 -0.6346450000     -1.2833020000     -0.0447570000
O                 -1.3083820000     -2.3086160000     -0.0513620000
O                  2.6878160000      0.1733690000     -0.4468650000
H                 -2.8408890000     -1.1382240000      0.3559620000
H                 -1.3253680000      2.1304040000      0.4894950000
H                  1.3253470000     -2.1304490000     -0.4890340000
H                  2.8410350000      1.1381650000     -0.3568440000
$end
$rem
MAX_SCF_CYCLES=200
BASIS  =  6-311++G(d,p)
GUI  =  2
JOB_TYPE  =  SP
METHOD  =  B3LYP
SOLVENT_METHOD = PCM
$end
$pcm
theory = CPCM
$end
$solvent
dielectric 37.219
opticaldielectric 1.43
$end





--------------------------------------------------------------
 ----------------------------------------------------------------
             Standard Nuclear Orientation (Angstroms)
    I     Atom           X                Y                Z
 ----------------------------------------------------------------
    1      O      -2.6878420000    -0.1734870000     0.4461790000
    2      C      -1.3912890000     0.0072970000     0.2430250000
    3      C      -0.7850470000     1.2154900000     0.2846030000
    4      C       0.6346730000     1.2833430000     0.0451210000
    5      O       1.3082130000     2.3087770000     0.0518020000
    6      C       1.3913120000    -0.0072660000    -0.2430780000
    7      C       0.7850660000    -1.2155010000    -0.2842470000
    8      C      -0.6346450000    -1.2833020000    -0.0447570000
    9      O      -1.3083820000    -2.3086160000    -0.0513620000
   10      O       2.6878160000     0.1733690000    -0.4468650000
   11      H      -2.8408890000    -1.1382240000     0.3559620000
   12      H      -1.3253680000     2.1304040000     0.4894950000
   13      H       1.3253470000    -2.1304490000    -0.4890340000
   14      H       2.8410350000     1.1381650000    -0.3568440000
 ----------------------------------------------------------------
 Nuclear Repulsion Energy =         501.63827775 hartrees
 There are       36 alpha and       36 beta electrons
 Requested basis set is 6-311++G(d,p)
 There are 80 shells and 248 basis functions

 Total QAlloc Memory Limit   8000 MB
 Mega-Array Size       188 MB
 MEM_STATIC part       192 MB
 Discretize the solute cavity surface with Lebedev spheres
	Using 110 Lebedev grid points for each H atom
	Using 194 Lebedev grid points for other atoms
	Atomic van der Waals radii will be scaled by 1.20
 Remove points where switching function is < 1.0e-08
 Keep 1084 surface tesserae and discard 1296 interior tesserae
 Molecular Surface Area = 159.850 Angst**2

                       Distance Matrix (Angstroms)
             O (  1)   C (  2)   C (  3)   C (  4)   O (  5)   C (  6)
   C (  2)  1.324766
   C (  3)  2.361354  1.352401
   C (  4)  3.649974  2.402495  1.441375
   O (  5)  4.720765  3.552561  2.373017  1.226872
   C (  6)  4.140314  2.824779  2.551493  1.523559  2.336218
   C (  7)  3.698703  2.551425  2.949333  2.524940  3.578707  1.352428
   C (  8)  2.385021  1.523474  2.524888  2.864771  4.084979  2.402520
   O (  9)  2.590219  2.336020  3.578558  4.084965  5.308251  3.552649
   O ( 10)  5.460360  4.140365  3.698897  2.385265  2.590741  1.324795
   H ( 11)  0.980959  1.851030  3.125948  4.247369  5.402719  4.421475
   H ( 12)  2.676962  2.138382  1.082125  2.180995  2.675657  3.533645
   H ( 13)  4.561799  3.533551  4.030829  3.523681  4.472083  2.138399
   H ( 14)  5.738794  4.421682  3.683192  2.247373  1.971514  1.851122
             C (  7)   C (  8)   O (  9)   O ( 10)   H ( 11)   H ( 12)
   C (  8)  1.441365
   O (  9)  2.373112  1.226880
   O ( 10)  2.361326  3.649976  4.720834
   H ( 11)  3.682851  2.247028  1.970865  5.738587
   H ( 12)  4.030842  3.523622  4.471880  4.562061  3.605352
   H ( 13)  1.082114  2.180965  2.675786  2.676878  4.365324  5.112600
   H ( 14)  3.126023  4.247500  5.402896  0.981026  6.162329  4.365746
             H ( 13)
   H ( 14)  3.605360
 
 A cutoff of  1.0D-08 yielded   2687 shell pairs
 There are     26780 function pairs (     28881 Cartesian)
 Smallest overlap matrix eigenvalue = 1.87E-06

 Q-Chem warning in module stvman/mkSTV.C, line 323:

 Overlap eigenvalue is smaller than square root of threshold
 Use THRESH >= 12 to get rid of this warning


 Scale SEOQF with 1.000000e-01/1.000000e-01/1.000000e-01

 Standard Electronic Orientation quadrupole field applied
 Nucleus-field energy     =     0.0000000161 hartrees
 Guess from superposition of atomic densities
 Warning:  Energy on first SCF cycle will be non-variational
 SAD guess density has 72.000000 electrons

 -----------------------------------------------------------------------
  General SCF calculation program by
  Eric Jon Sundstrom, Paul Horn, Yuezhi Mao, Dmitri Zuev, Alec White,
  David Stuck, Shaama M.S., Shane Yost, Joonho Lee, David Small,
  Daniel Levine, Susi Lehtola, Hugh Burton, Evgeny Epifanovsky,
  Bang C. Huynh
 -----------------------------------------------------------------------
 Exchange:     0.2000 Hartree-Fock + 0.0800 Slater + 0.7200 B88
 Correlation:  0.1900 VWN1RPA + 0.8100 LYP
 Using SG-1 standard quadrature grid
 using 8 threads for integral computing
 -------------------------------------------------------
 OpenMP Integral computing Module                
 Release: version 1.0, May 2013, Q-Chem Inc. Pittsburgh 
 -------------------------------------------------------
 A restricted SCF calculation will be
 performed using DIIS
 SCF converges when DIIS error is below 1.0e-05
 ---------------------------------------
  Cycle       Energy         DIIS error
 ---------------------------------------
    1    -534.3411648515      4.29e-02  
    2    -531.9061010713      5.75e-03  
    3    -531.5262319552      1.00e-02  
    4    -532.0722059359      1.99e-03  
    5    -532.0969922240      5.11e-04  
    6    -532.0981940398      2.03e-04  
    7    -532.0984471420      5.56e-05  
    8    -532.0984643434      1.71e-05  
    9    -532.0984661399      5.50e-06  Convergence criterion met
 ---------------------------------------
 SCF time:   CPU 64.38s  wall 8.00s 

************** Final PCM Free Energy Summary **************
 G_electrostatic  =      -0.01446072 hartree =      -9.07423608 kcal/mol
 G_cavitation     =       0.00000000 hartree =       0.00000000 kcal/mol
 G_dispersion     =       0.00000000 hartree =       0.00000000 kcal/mol
 G_repulsion      =       0.00000000 hartree =       0.00000000 kcal/mol
 --------------------------------------------------
 Non-electrostatic Free Energy =       0.00000000 hartree =       0.00000000 kcal/mol
 Total                         =      -0.01446072 hartree =      -9.07423608 kcal/mol
 --------------------------------------------------
 SCF Energy (H0 + V/2)                       =    -532.09846614 
 Solute Internal Energy (H0)                 =    -532.08400542 
 Total Free Energy (H0 + V/2 + non-elec)     =    -532.09846614 hartree
                                             = -333896.82700735 kcal/mol
***********************************************************

 SCF   energy in the final basis set =     -532.0984661399
 Total energy in the final basis set =     -532.0984661399
 
 --------------------------------------------------------------
 
                    Orbital Energies (a.u.)
 --------------------------------------------------------------
 
 Alpha MOs
 -- Occupied --
-19.1922 -19.1922 -19.1508 -19.1508 -10.2968 -10.2968 -10.2854 -10.2854
-10.1984 -10.1984  -1.1228  -1.1207  -1.0722  -1.0715  -0.8642  -0.7906
 -0.7123  -0.6517  -0.6435  -0.6017  -0.5502  -0.5374  -0.4873  -0.4868
 -0.4830  -0.4661  -0.4597  -0.4516  -0.4168  -0.4146  -0.4005  -0.3913
 -0.3131  -0.3020  -0.2959  -0.2650
 -- Virtual --
 -0.1346  -0.0187  -0.0056  -0.0013   0.0084   0.0140   0.0281   0.0485
  0.0536   0.0554   0.0743   0.0766   0.0805   0.0892   0.1116   0.1142
  0.1142   0.1169   0.1243   0.1279   0.1342   0.1364   0.1401   0.1423
  0.1431   0.1670   0.1762   0.1878   0.1886   0.1914   0.1918   0.2080
  0.2089   0.2111   0.2286   0.2349   0.2430   0.2479   0.2644   0.2692
  0.2699   0.2788   0.2808   0.3081   0.3082   0.3091   0.3123   0.3237
  0.3403   0.3489   0.3580   0.3627   0.3690   0.3695   0.3855   0.3884
  0.4150   0.4313   0.4628   0.4692   0.4818   0.5234   0.5392   0.5418
  0.5479   0.5495   0.5586   0.5773   0.5886   0.6053   0.6190   0.6268
  0.6757   0.6793   0.6960   0.7250   0.7625   0.7636   0.8224   0.8470
  0.8526   0.8771   0.8782   0.8857   0.9115   0.9296   0.9448   0.9452
  0.9866   0.9881   0.9908   1.0497   1.0505   1.0689   1.0888   1.1124
  1.1428   1.1590   1.1723   1.1724   1.1782   1.1905   1.2098   1.2123
  1.2200   1.2370   1.2409   1.2415   1.3872   1.3884   1.3996   1.4274
  1.4998   1.5092   1.5467   1.5929   1.6074   1.6215   1.6367   1.6413
  1.6680   1.6947   1.7260   1.7533   1.7579   1.7598   1.7730   1.8308
  1.8682   1.8897   1.9281   1.9647   1.9903   2.0121   2.0280   2.0371
  2.0724   2.1047   2.1411   2.1620   2.1882   2.2150   2.2937   2.4062
  2.5073   2.5417   2.5851   2.6079   2.6204   2.6457   2.6814   2.7113
  2.7275   2.7281   2.7734   2.7902   2.8670   2.9108   2.9210   2.9231
  2.9815   2.9872   2.9888   3.0655   3.0697   3.0879   3.1522   3.1691
  3.1739   3.2186   3.2425   3.3106   3.3330   3.3917   3.4253   3.4401
  3.4959   3.5036   3.6139   3.6300   3.6759   3.7163   3.8637   3.8670
  4.0311   4.1139   4.1230   4.1637   4.1737   4.6670   4.9289   4.9553
  5.0344   5.0496   5.1960   5.2283   5.4189   5.4256   5.6242   5.7400
  5.7587   5.7901  23.6192  23.6923  23.8372  23.9156  24.1276  24.1747
 49.8637  49.9156  50.0008  50.0096
 --------------------------------------------------------------
 
          Ground-State Mulliken Net Atomic Charges

     Atom                 Charge (a.u.)
  ----------------------------------------
      1 O                    -0.207775
      2 C                    -0.122218
      3 C                     0.199377
      4 C                    -0.106753
      5 O                    -0.353853
      6 C                    -0.122045
      7 C                     0.198976
      8 C                    -0.106647
      9 O                    -0.353881
     10 O                    -0.207767
     11 H                     0.324159
     12 H                     0.267121
     13 H                     0.267121
     14 H                     0.324184
  ----------------------------------------
  Sum of atomic charges =     0.000000

 -----------------------------------------------------------------
                    Cartesian Multipole Moments
 -----------------------------------------------------------------
    Charge (ESU x 10^10)
                 0.0000
    Dipole Moment (Debye)
         X       0.0015      Y       0.0000      Z      -0.0009
       Tot       0.0017
    Quadrupole Moments (Debye-Ang)
        XX     -57.0395     XY      -2.4802     YY     -66.6534
        XZ      -0.2140     YZ      -0.7867     ZZ     -56.6113
    Octopole Moments (Debye-Ang^2)
       XXX       0.0182    XXY       0.0043    XYY       0.0011
       YYY      -0.0069    XXZ      -0.0082    XYZ      -0.0095
       YYZ      -0.0085    XZZ       0.0000    YZZ       0.0012
       ZZZ      -0.0061
    Hexadecapole Moments (Debye-Ang^3)
      XXXX    -892.8824   XXXY     -41.3419   XXYY    -248.6200
      XYYY    -189.2933   YYYY    -778.7912   XXXZ      65.6806
      XXYZ     -14.9248   XYYZ       7.4301   YYYZ     -17.3846
      XXZZ    -168.2191   XYZZ     -33.7251   YYZZ    -122.8040
      XZZZ      62.9416   YZZZ     -19.2508   ZZZZ     -83.1374
 -----------------------------------------------------------------
 Total job time:  9.89s(wall), 71.28s(cpu) 
 Tue Jun 11 17:40:45 2024

        *************************************************************
        *                                                           *
        *  Thank you very much for using Q-Chem.  Have a nice day.  *
        *                                                           *
        *************************************************************


