
Running Job 1 of 1 158-rad-CPCM.in
qchem 158-rad-CPCM.in_1167791.0 /expanse/lustre/scratch/selhajj/temp_project/qcscratch/31248427/qchem1167791/ 0
/cm/shared/apps/spack/cpu/opt/spack/linux-centos8-zen2/gcc-10.2.0/qchem-5.4-akfmr7b3t57bfs6qan3padb2wnb2i7cl/exe/qcprog.exe_s 158-rad-CPCM.in_1167791.0 /expanse/lustre/scratch/selhajj/temp_project/qcscratch/31248427/qchem1167791/
                  Welcome to Q-Chem
     A Quantum Leap Into The Future Of Chemistry


 Q-Chem 5.4, Q-Chem, Inc., Pleasanton, CA (2021)

 License issued to: University of California, San Diego (site)

 E. Epifanovsky,  A. T. B. Gilbert,  Xintian Feng,  Joonho Lee,  Yuezhi Mao,  
 N. Mardirossian,  P. Pokhilko,  A. White,  M. Wormit,  M. P. Coons,  
 A. L. Dempwolff,  Zhengting Gan,  D. Hait,  P. R. Horn,  L. D. Jacobson,  
 I. Kaliman,  J. Kussmann,  A. W. Lange,  Ka Un Lao,  D. S. Levine,  Jie Liu,  
 S. C. McKenzie,  A. F. Morrison,  K. Nanda,  F. Plasser,  D. R. Rehn,  
 M. L. Vidal,  Zhi-Qiang You,  Ying Zhu,  B. Alam,  B. Albrecht,  
 A. Aldossary,  E. Alguire,  J. H. Andersen,  D. Barton,  K. Begam,  A. Behn,  
 Y. A. Bernard,  E. J. Berquist,  H. Burton,  A. Carreras,  K. Carter-Fenk,  
 R. Chakraborty,  A. D. Chien,  K. D. Closser,  V. Cofer-Shabica,  
 S. Dasgupta,  Jia Deng,  M. de Wergifosse,  M. Diedenhofen,  Hainam Do,  
 S. Ehlert,  Po-Tung Fang,  S. Fatehi,  Qingguo Feng,  J. Gayvert,  
 Qinghui Ge,  G. Gidofalvi,  M. Goldey,  J. Gomes,  C. Gonzalez-Espinoza,  
 S. Gulania,  A. Gunina,  M. W. D. Hanson-Heine,  P. H. P. Harbach,  
 A. W. Hauser,  M. F. Herbst,  M. Hernandez Vera,  M. Hodecker,  
 Z. C. Holden,  S. Houck,  Xunkun Huang,  Kerwin Hui,  B. C. Huynh,  
 M. Ivanov,  Hyunjun Ji,  Hanjie Jiang,  B. Kaduk,  S. Kaehler,  
 K. Khistyaev,  Jaehoon Kim,  P. Klunzinger,  Z. Koczor-Benda,  
 Joong Hoon Koh,  D. Kosenkov,  L. Koulias,  T. Kowalczyk,  C. M. Krauter,  
 K. Kue,  A. Kunitsa,  T. Kus,  A. Landau,  K. V. Lawler,  D. Lefrancois,  
 S. Lehtola,  Rain Li,  Yi-Pei Li,  Jiashu Liang,  M. Liebenthal,  
 Hung-Hsuan Lin,  You-Sheng Lin,  Fenglai Liu,  Kuan-Yu Liu,  
 M. Loipersberger,  A. Luenser,  A. Manjanath,  P. Manohar,  E. Mansoor,  
 S. F. Manzer,  Shan-Ping Mao,  A. V. Marenich,  T. Markovich,  S. Mason,  
 S. A. Maurer,  P. F. McLaughlin,  M. F. S. J. Menger,  J.-M. Mewes,  
 S. A. Mewes,  P. Morgante,  J. W. Mullinax,  T. S. Nguyen-Beck,  
 K. J. Oosterbaan,  G. Paran,  Alexander C. Paul,  Suranjan K. Paul,  
 F. Pavosevic,  Zheng Pei,  S. Prager,  E. I. Proynov,  E. Ramos,  B. Rana,  
 A. E. Rask,  A. Rettig,  R. M. Richard,  F. Rob,  E. Rossomme,  T. Scheele,  
 M. Scheurer,  M. Schneider,  N. Sergueev,  S. M. Sharada,  W. Skomorowski,  
 D. W. Small,  C. J. Stein,  Yu-Chuan Su,  E. J. Sundstrom,  Zhen Tao,  
 J. Thirman,  T. Tsuchimochi,  N. M. Tubman,  S. P. Veccham,  O. Vydrov,  
 J. Wenzel,  J. Witte,  A. Yamada,  Kun Yao,  S. Yeganeh,  S. R. Yost,  
 A. Zech,  Igor Ying Zhang,  Xing Zhang,  Yu Zhang,  D. Zuev,  
 A. Aspuru-Guzik,  A. T. Bell,  N. A. Besley,  K. B. Bravaya,  B. R. Brooks,  
 D. Casanova,  Jeng-Da Chai,  S. Coriani,  C. J. Cramer,  
 A. E. DePrince, III,  R. A. DiStasio Jr.,  A. Dreuw,  B. D. Dunietz,  
 T. R. Furlani,  W. A. Goddard III,  S. Grimme,  S. Hammes-Schiffer,  
 T. Head-Gordon,  W. J. Hehre,  Chao-Ping Hsu,  T.-C. Jagau,  Yousung Jung,  
 A. Klamt,  Jing Kong,  D. S. Lambrecht,  WanZhen Liang,  N. J. Mayhall,  
 C. W. McCurdy,  J. B. Neaton,  C. Ochsenfeld,  J. A. Parkhill,  R. Peverati,  
 V. A. Rassolov,  Yihan Shao,  L. V. Slipchenko,  T. Stauch,  R. P. Steele,  
 J. E. Subotnik,  A. J. W. Thom,  A. Tkatchenko,  D. G. Truhlar,  
 T. Van Voorhis,  T. A. Wesolowski,  K. B. Whaley,  H. L. Woodcock III,  
 P. M. Zimmerman,  S. Faraji,  P. M. W. Gill,  M. Head-Gordon,  
 J. M. Herbert,  A. I. Krylov

 Contributors to earlier versions of Q-Chem not listed above: 
 R. D. Adamson,  B. Austin,  R. Baer,  J. Baker,  G. J. O. Beran,  
 K. Brandhorst,  S. T. Brown,  E. F. C. Byrd,  A. K. Chakraborty,  
 G. K. L. Chan,  Chun-Min Chang,  Yunqing Chen,  C.-L. Cheng,  
 Siu Hung Chien,  D. M. Chipman,  D. L. Crittenden,  H. Dachsel,  
 R. J. Doerksen,  A. D. Dutoi,  R. G. Edgar,  J. Fosso-Tande,  
 L. Fusti-Molnar,  D. Ghosh,  A. Ghysels,  A. Golubeva-Zadorozhnaya,  
 J. Gonthier,  M. S. Gordon,  S. R. Gwaltney,  G. Hawkins,  J. E. Herr,  
 A. Heyden,  S. Hirata,  E. G. Hohenstein,  G. Kedziora,  F. J. Keil,  
 C. Kelley,  Jihan Kim,  R. A. King,  R. Z. Khaliullin,  P. P. Korambath,  
 W. Kurlancheek,  A. Laurent,  A. M. Lee,  M. S. Lee,  S. V. Levchenko,  
 Ching Yeh Lin,  D. Liotard,  E. Livshits,  R. C. Lochan,  I. Lotan,  
 L. A. Martinez-Martinez,  P. E. Maslen,  N. Nair,  D. P. O'Neill,  
 D. Neuhauser,  E. Neuscamman,  C. M. Oana,  R. Olivares-Amaya,  R. Olson,  
 T. M. Perrine,  B. Peters,  P. A. Pieniazek,  A. Prociuk,  Y. M. Rhee,  
 J. Ritchie,  M. A. Rohrdanz,  E. Rosta,  N. J. Russ,  H. F. Schaefer III,  
 M. W. Schmidt,  N. E. Schultz,  S. Sharma,  N. Shenvi,  C. D. Sherrill,  
 A. C. Simmonett,  A. Sodt,  T. Stein,  D. Stuck,  K. S. Thanthiriwatte,  
 V. Vanovschi,  L. Vogt,  Tao Wang,  A. Warshel,  M. A. Watson,  
 C. F. Williams,  Q. Wu,  X. Xu,  Jun Yang,  W. Zhang,  Yan Zhao

 Please cite Q-Chem as follows:
 Y. Shao et al., Mol. Phys. 113, 184-215 (2015)
 DOI: 10.1080/00268976.2014.952696

 Q-Chem 5.4.0 for Intel X86 EM64T Linux

 Parts of Q-Chem use Armadillo 9.800.1 (Horizon Scraper).
 http://arma.sourceforge.net/

 Q-Chem begins on Tue Jun 11 17:55:54 2024  

 Host: 
0

     Scratch files written to /expanse/lustre/scratch/selhajj/temp_project/qcscratch/31248427/qchem1167791//
 May1621 |scratch|qcdevops|jenkins|workspace|build_RNUM    
 Processing $rem in /cm/shared/apps/spack/cpu/opt/spack/linux-centos8-zen2/gcc-10.2.0/qchem-5.4-akfmr7b3t57bfs6qan3padb2wnb2i7cl/config/preferences:
 Processing $rem in /home/selhajj/.qchemrc:
 Symmetry turned off for PCM/SM12/SMD calculation

 Checking the input file for inconsistencies... 	...done.

--------------------------------------------------------------
User input:
--------------------------------------------------------------
$molecule
-1 2
N                 -2.5760950000      0.5058950000      2.3186170000
C                 -2.4270760000      0.2785920000      0.9635040000
C                 -3.5557650000      0.1778940000      0.1453250000
C                 -3.4342790000     -0.1182270000     -1.2174540000
C                 -2.1908760000     -0.3219110000     -1.7842160000
C                 -1.0256090000     -0.2144360000     -1.0002590000
C                  0.2648720000     -0.4261800000     -1.6674460000
O                  0.3467160000     -0.7160120000     -2.8852340000
C                  1.4543080000     -0.2761960000     -0.8354590000
C                  2.7266690000     -0.4646160000     -1.4116970000
C                  3.8725270000     -0.3239140000     -0.6638310000
Cl                 5.4401870000     -0.5716300000     -1.4360790000
C                  3.7821750000      0.0170890000      0.7077960000
Cl                 5.2339360000      0.2043630000      1.6943450000
C                  2.5490730000      0.2059510000      1.2884550000
C                  1.3627830000      0.0640360000      0.5407150000
C                  0.0794430000      0.2730190000      1.2069280000
O                  0.0522800000      0.5980280000      2.4327670000
C                 -1.1191120000      0.1012710000      0.3938190000
H                 -1.7061140000      0.7433130000      2.7963830000
H                 -3.4281600000      0.9576190000      2.6100300000
H                 -4.5377770000      0.3155620000      0.5901480000
H                 -4.3300830000     -0.1935100000     -1.8271860000
H                 -2.0708800000     -0.5605470000     -2.8330880000
H                  2.7746260000     -0.7222290000     -2.4620990000
H                  2.4622300000      0.4667770000      2.3352180000
$end
$rem
MAX_SCF_CYCLES=200
BASIS  =  6-311++G(d,p)
GUI  =  2
JOB_TYPE  =  SP
METHOD  =  B3LYP
SOLVENT_METHOD = PCM
$end
$pcm
theory = CPCM
$end
$solvent
dielectric 37.219
opticaldielectric 1.43
$end





--------------------------------------------------------------
 ----------------------------------------------------------------
             Standard Nuclear Orientation (Angstroms)
    I     Atom           X                Y                Z
 ----------------------------------------------------------------
    1      N      -2.5760950000     0.5058950000     2.3186170000
    2      C      -2.4270760000     0.2785920000     0.9635040000
    3      C      -3.5557650000     0.1778940000     0.1453250000
    4      C      -3.4342790000    -0.1182270000    -1.2174540000
    5      C      -2.1908760000    -0.3219110000    -1.7842160000
    6      C      -1.0256090000    -0.2144360000    -1.0002590000
    7      C       0.2648720000    -0.4261800000    -1.6674460000
    8      O       0.3467160000    -0.7160120000    -2.8852340000
    9      C       1.4543080000    -0.2761960000    -0.8354590000
   10      C       2.7266690000    -0.4646160000    -1.4116970000
   11      C       3.8725270000    -0.3239140000    -0.6638310000
   12      Cl      5.4401870000    -0.5716300000    -1.4360790000
   13      C       3.7821750000     0.0170890000     0.7077960000
   14      Cl      5.2339360000     0.2043630000     1.6943450000
   15      C       2.5490730000     0.2059510000     1.2884550000
   16      C       1.3627830000     0.0640360000     0.5407150000
   17      C       0.0794430000     0.2730190000     1.2069280000
   18      O       0.0522800000     0.5980280000     2.4327670000
   19      C      -1.1191120000     0.1012710000     0.3938190000
   20      H      -1.7061140000     0.7433130000     2.7963830000
   21      H      -3.4281600000     0.9576190000     2.6100300000
   22      H      -4.5377770000     0.3155620000     0.5901480000
   23      H      -4.3300830000    -0.1935100000    -1.8271860000
   24      H      -2.0708800000    -0.5605470000    -2.8330880000
   25      H       2.7746260000    -0.7222290000    -2.4620990000
   26      H       2.4622300000     0.4667770000     2.3352180000
 ----------------------------------------------------------------
 Nuclear Repulsion Energy =        1542.49476827 hartrees
 There are       75 alpha and       74 beta electrons
 Requested basis set is 6-311++G(d,p)
 There are 163 shells and 483 basis functions

 Total QAlloc Memory Limit   8000 MB
 Mega-Array Size       188 MB
 MEM_STATIC part       192 MB
 Discretize the solute cavity surface with Lebedev spheres
	Using 110 Lebedev grid points for each H atom
	Using 194 Lebedev grid points for other atoms
	Atomic van der Waals radii will be scaled by 1.20
 Remove points where switching function is < 1.0e-08
 Keep 1838 surface tesserae and discard 2618 interior tesserae
 Molecular Surface Area = 283.744 Angst**2
 A cutoff of  1.0D-08 yielded   8685 shell pairs
 There are     82448 function pairs (     88320 Cartesian)
 Smallest overlap matrix eigenvalue = 3.92E-08

 Q-Chem warning in module stvman/mkSTV.C, line 323:

 Overlap eigenvalue is smaller than square root of threshold
 Use THRESH >= 12 to get rid of this warning

 Linear dependence detected in AO basis
 Tighter screening thresholds may be required for diffuse basis sets
 Use S2THRESH > 14 and THRESH = 14 in case of SCF convergence issues
 Number of orthogonalized atomic orbitals = 476
 Maximum deviation from orthogonality = 5.230E-10

 Scale SEOQF with 1.000000e-02/1.000000e-01/1.000000e-01

 Standard Electronic Orientation quadrupole field applied
 Nucleus-field energy     =    -0.0000000326 hartrees
 Guess from superposition of atomic densities
 Warning:  Energy on first SCF cycle will be non-variational
 SAD guess density has 148.000000 electrons

 -----------------------------------------------------------------------
  General SCF calculation program by
  Eric Jon Sundstrom, Paul Horn, Yuezhi Mao, Dmitri Zuev, Alec White,
  David Stuck, Shaama M.S., Shane Yost, Joonho Lee, David Small,
  Daniel Levine, Susi Lehtola, Hugh Burton, Evgeny Epifanovsky,
  Bang C. Huynh
 -----------------------------------------------------------------------
 Exchange:     0.2000 Hartree-Fock + 0.0800 Slater + 0.7200 B88
 Correlation:  0.1900 VWN1RPA + 0.8100 LYP
 Using SG-1 standard quadrature grid
 using 8 threads for integral computing
 -------------------------------------------------------
 OpenMP Integral computing Module                
 Release: version 1.0, May 2013, Q-Chem Inc. Pittsburgh 
 -------------------------------------------------------
 A unrestricted SCF calculation will be
 performed using DIIS
 SCF converges when DIIS error is below 1.0e-05
 ---------------------------------------
  Cycle       Energy         DIIS error
 ---------------------------------------
    1   -1668.1433794405      1.50e-02  
    2   -1663.4109595070      1.73e-03  
    3   -1663.1096952836      2.58e-03  
    4   -1663.6907517008      5.85e-04  
    5   -1663.7224128931      1.41e-04  
    6   -1663.7241973474      5.40e-05  
    7   -1663.7244947917      2.03e-05  
    8   -1663.7245391766      7.84e-06  Convergence criterion met
 ---------------------------------------
 SCF time:   CPU 396.87s  wall 51.00s 
<S^2> =          0.758044861

************** Final PCM Free Energy Summary **************
 G_electrostatic  =      -0.07911046 hartree =     -49.64256234 kcal/mol
 G_cavitation     =       0.00000000 hartree =       0.00000000 kcal/mol
 G_dispersion     =       0.00000000 hartree =       0.00000000 kcal/mol
 G_repulsion      =       0.00000000 hartree =       0.00000000 kcal/mol
 --------------------------------------------------
 Non-electrostatic Free Energy =       0.00000000 hartree =       0.00000000 kcal/mol
 Total                         =      -0.07911046 hartree =     -49.64256234 kcal/mol
 --------------------------------------------------
 SCF Energy (H0 + V/2)                       =   -1663.72453918 
 Solute Internal Energy (H0)                 =   -1663.64542872 
 Total Free Energy (H0 + V/2 + non-elec)     =   -1663.72453918 hartree
                                             = -1044002.90546841 kcal/mol
***********************************************************

 SCF   energy in the final basis set =    -1663.7245391766
 Total energy in the final basis set =    -1663.7245391766
 
 --------------------------------------------------------------
 
                    Orbital Energies (a.u.)
 --------------------------------------------------------------
 
 Alpha MOs
 -- Occupied --
********-101.5620 -19.0848 -19.0800 -14.3055 -10.2482 -10.2475 -10.2358
-10.2296 -10.2190 -10.1886 -10.1884 -10.1845 -10.1834 -10.1778 -10.1763
-10.1723 -10.1635 -10.1592  -9.4767  -9.4766  -7.2412  -7.2412  -7.2317
 -7.2316  -7.2311  -7.2309  -1.0123  -1.0079  -0.9152  -0.9142  -0.8613
 -0.8526  -0.8348  -0.7796  -0.7597  -0.7352  -0.7314  -0.6701  -0.6440
 -0.6242  -0.5999  -0.5645  -0.5458  -0.5310  -0.5009  -0.4904  -0.4801
 -0.4724  -0.4523  -0.4472  -0.4419  -0.4359  -0.4221  -0.4187  -0.4099
 -0.4065  -0.3981  -0.3892  -0.3720  -0.3690  -0.3565  -0.3535  -0.3505
 -0.3355  -0.3262  -0.3160  -0.3118  -0.2689  -0.2648  -0.2547  -0.2496
 -0.2441  -0.2141  -0.1452
 -- Virtual --
 -0.0586  -0.0296  -0.0133  -0.0029  -0.0021   0.0083   0.0117   0.0228
  0.0279   0.0330   0.0396   0.0413   0.0465   0.0525   0.0529   0.0548
  0.0620   0.0640   0.0680   0.0773   0.0824   0.0838   0.0895   0.0900
  0.0925   0.1075   0.1118   0.1146   0.1151   0.1166   0.1193   0.1250
  0.1267   0.1281   0.1332   0.1340   0.1384   0.1424   0.1449   0.1468
  0.1503   0.1576   0.1625   0.1651   0.1738   0.1760   0.1776   0.1853
  0.1878   0.1909   0.1923   0.1977   0.1985   0.2038   0.2061   0.2105
  0.2120   0.2179   0.2287   0.2318   0.2366   0.2385   0.2423   0.2444
  0.2460   0.2504   0.2530   0.2537   0.2593   0.2624   0.2658   0.2739
  0.2762   0.2827   0.2852   0.2875   0.2920   0.2943   0.3030   0.3048
  0.3085   0.3103   0.3162   0.3209   0.3234   0.3255   0.3272   0.3365
  0.3403   0.3481   0.3505   0.3520   0.3599   0.3680   0.3733   0.3850
  0.3954   0.3975   0.4034   0.4110   0.4190   0.4318   0.4418   0.4418
  0.4579   0.4658   0.4705   0.4745   0.4780   0.4938   0.5048   0.5162
  0.5272   0.5378   0.5402   0.5501   0.5552   0.5619   0.5675   0.5768
  0.5873   0.5936   0.6002   0.6025   0.6089   0.6198   0.6237   0.6296
  0.6329   0.6427   0.6470   0.6515   0.6579   0.6685   0.6745   0.6804
  0.6850   0.6876   0.6905   0.6929   0.7018   0.7351   0.7365   0.7423
  0.7575   0.7724   0.7754   0.7904   0.7918   0.7945   0.8113   0.8182
  0.8405   0.8447   0.8523   0.8580   0.8589   0.8623   0.8650   0.8716
  0.8765   0.8939   0.8945   0.9032   0.9121   0.9198   0.9239   0.9257
  0.9302   0.9359   0.9405   0.9513   0.9528   0.9613   0.9671   0.9744
  0.9838   0.9864   0.9910   1.0029   1.0068   1.0154   1.0256   1.0358
  1.0484   1.0595   1.0685   1.0798   1.0974   1.1048   1.1147   1.1289
  1.1428   1.1676   1.1704   1.1847   1.2010   1.2129   1.2299   1.2423
  1.2529   1.2589   1.2640   1.2689   1.2828   1.2840   1.2906   1.2975
  1.3275   1.3394   1.3567   1.3787   1.3905   1.4327   1.4655   1.4806
  1.4881   1.4937   1.5016   1.5155   1.5215   1.5317   1.5518   1.5625
  1.5724   1.5745   1.5806   1.6076   1.6256   1.6301   1.6543   1.6787
  1.6927   1.6958   1.7065   1.7188   1.7368   1.7506   1.7541   1.7601
  1.7837   1.7897   1.8114   1.8187   1.8476   1.8629   1.8806   1.8881
  1.9076   1.9242   1.9338   1.9399   1.9448   1.9459   1.9643   1.9687
  1.9810   1.9880   1.9931   2.0159   2.0226   2.0332   2.0524   2.0553
  2.0926   2.1053   2.1369   2.1603   2.1726   2.1999   2.2040   2.2208
  2.2433   2.2735   2.2804   2.2924   2.3020   2.3195   2.3217   2.3340
  2.3750   2.3996   2.4044   2.4152   2.4477   2.4631   2.4780   2.5159
  2.5307   2.5584   2.5724   2.6037   2.6179   2.6282   2.6513   2.6559
  2.6679   2.7018   2.7079   2.7225   2.7332   2.7476   2.7627   2.7677
  2.7764   2.7829   2.7942   2.7974   2.8017   2.8136   2.8169   2.8360
  2.8470   2.8573   2.8739   2.8753   2.8894   2.9013   2.9397   2.9513
  2.9596   2.9892   3.0273   3.0337   3.0804   3.0909   3.1090   3.1179
  3.1328   3.1596   3.1812   3.2090   3.2260   3.2338   3.2705   3.3163
  3.3191   3.3340   3.3497   3.3691   3.4074   3.4277   3.4566   3.4950
  3.5203   3.5440   3.5525   3.5690   3.5929   3.6504   3.7417   3.7855
  3.8264   3.8491   3.8961   3.9560   4.0116   4.0642   4.1633   4.1920
  4.2726   4.3120   4.4677   4.7959   4.8320   4.8363   4.8639   5.0478
  5.0741   5.0888   5.2855   5.3559   5.7640   5.8450   9.7686   9.8034
 23.4563  23.6543  23.8632  23.8839  23.9218  23.9323  23.9425  23.9654
 24.0024  24.0318  24.0831  24.0886  24.1395  24.1940  25.7829  25.8730
 26.1216  26.2209  26.5163  26.8370  35.6828  50.0592  50.1128 215.7609
215.8001
 
 Beta MOs
 -- Occupied --
********-101.5620 -19.0802 -19.0749 -14.3053 -10.2476 -10.2468 -10.2340
-10.2276 -10.2190 -10.1887 -10.1883 -10.1834 -10.1825 -10.1777 -10.1757
-10.1720 -10.1625 -10.1586  -9.4767  -9.4765  -7.2412  -7.2412  -7.2316
 -7.2315  -7.2311  -7.2309  -1.0040  -0.9988  -0.9143  -0.9132  -0.8607
 -0.8498  -0.8337  -0.7764  -0.7576  -0.7333  -0.7291  -0.6631  -0.6427
 -0.6218  -0.5988  -0.5623  -0.5437  -0.5296  -0.4999  -0.4891  -0.4781
 -0.4708  -0.4512  -0.4460  -0.4414  -0.4273  -0.4201  -0.4148  -0.4049
 -0.4036  -0.3966  -0.3714  -0.3688  -0.3621  -0.3550  -0.3511  -0.3488
 -0.3352  -0.3189  -0.3158  -0.3051  -0.2584  -0.2525  -0.2504  -0.2446
 -0.2396  -0.2060
 -- Virtual --
 -0.0896  -0.0496  -0.0191  -0.0127  -0.0019   0.0014   0.0084   0.0118
  0.0229   0.0280   0.0334   0.0410   0.0447   0.0493   0.0527   0.0531
  0.0595   0.0629   0.0683   0.0753   0.0776   0.0827   0.0845   0.0898
  0.0913   0.0935   0.1077   0.1121   0.1148   0.1156   0.1175   0.1198
  0.1253   0.1272   0.1289   0.1337   0.1358   0.1386   0.1428   0.1455
  0.1471   0.1505   0.1578   0.1628   0.1684   0.1743   0.1764   0.1779
  0.1859   0.1892   0.1914   0.1929   0.1984   0.1993   0.2041   0.2063
  0.2113   0.2157   0.2191   0.2295   0.2337   0.2381   0.2388   0.2432
  0.2455   0.2469   0.2516   0.2547   0.2548   0.2600   0.2627   0.2666
  0.2744   0.2768   0.2831   0.2856   0.2881   0.2931   0.2957   0.3037
  0.3058   0.3101   0.3127   0.3176   0.3222   0.3243   0.3268   0.3279
  0.3378   0.3410   0.3492   0.3508   0.3530   0.3608   0.3691   0.3740
  0.3858   0.3967   0.3987   0.4042   0.4119   0.4208   0.4333   0.4420
  0.4427   0.4591   0.4666   0.4717   0.4751   0.4782   0.4949   0.5060
  0.5166   0.5287   0.5391   0.5422   0.5520   0.5563   0.5650   0.5705
  0.5782   0.5888   0.5952   0.6014   0.6046   0.6106   0.6211   0.6246
  0.6306   0.6344   0.6452   0.6483   0.6533   0.6622   0.6694   0.6754
  0.6824   0.6864   0.6884   0.6917   0.6961   0.7029   0.7361   0.7398
  0.7431   0.7579   0.7729   0.7762   0.7924   0.7929   0.7953   0.8117
  0.8189   0.8414   0.8453   0.8530   0.8585   0.8593   0.8631   0.8659
  0.8723   0.8774   0.8948   0.8962   0.9042   0.9131   0.9206   0.9250
  0.9267   0.9315   0.9368   0.9418   0.9523   0.9540   0.9643   0.9684
  0.9757   0.9852   0.9887   0.9938   1.0043   1.0092   1.0162   1.0275
  1.0384   1.0515   1.0602   1.0715   1.0810   1.1018   1.1110   1.1167
  1.1331   1.1478   1.1711   1.1715   1.1889   1.2033   1.2143   1.2384
  1.2442   1.2587   1.2607   1.2659   1.2707   1.2845   1.2860   1.2918
  1.2993   1.3290   1.3415   1.3576   1.3811   1.3917   1.4344   1.4668
  1.4840   1.4896   1.4949   1.5024   1.5191   1.5222   1.5360   1.5528
  1.5637   1.5740   1.5757   1.5820   1.6084   1.6271   1.6314   1.6558
  1.6804   1.6954   1.6977   1.7102   1.7199   1.7381   1.7516   1.7557
  1.7618   1.7853   1.7937   1.8126   1.8216   1.8503   1.8656   1.8826
  1.8909   1.9097   1.9263   1.9354   1.9415   1.9465   1.9490   1.9664
  1.9705   1.9835   1.9906   1.9946   2.0170   2.0246   2.0349   2.0542
  2.0582   2.0949   2.1068   2.1379   2.1614   2.1744   2.2030   2.2055
  2.2226   2.2437   2.2755   2.2826   2.2930   2.3028   2.3219   2.3243
  2.3374   2.3782   2.4012   2.4057   2.4176   2.4483   2.4639   2.4788
  2.5162   2.5311   2.5603   2.5735   2.6046   2.6186   2.6330   2.6529
  2.6596   2.6699   2.7048   2.7098   2.7233   2.7337   2.7480   2.7643
  2.7727   2.7773   2.7839   2.7950   2.8006   2.8039   2.8167   2.8181
  2.8372   2.8513   2.8584   2.8781   2.8810   2.8970   2.9058   2.9470
  2.9574   2.9691   2.9961   3.0348   3.0390   3.0825   3.0946   3.1129
  3.1186   3.1341   3.1604   3.1851   3.2109   3.2269   3.2352   3.2720
  3.3184   3.3314   3.3348   3.3633   3.3701   3.4088   3.4285   3.4575
  3.4958   3.5222   3.5455   3.5549   3.5702   3.5944   3.6519   3.7431
  3.7867   3.8277   3.8530   3.8973   3.9580   4.0131   4.0655   4.1647
  4.1932   4.2752   4.3151   4.4709   4.7990   4.8338   4.8376   4.8651
  5.0484   5.0942   5.1089   5.2896   5.3596   5.7684   5.8493   9.7686
  9.8035  23.4570  23.6549  23.8638  23.8852  23.9228  23.9334  23.9434
 23.9671  24.0031  24.0326  24.0840  24.0888  24.1398  24.1946  25.7830
 25.8731  26.1216  26.2209  26.5163  26.8370  35.6830  50.0640  50.1176
215.7609 215.8002
 --------------------------------------------------------------
 
          Ground-State Mulliken Net Atomic Charges

     Atom                 Charge (a.u.)    Spin (a.u.)
  --------------------------------------------------------
      1 N                    -0.427331       0.010585
      2 C                     0.155505       0.026907
      3 C                    -0.283931       0.088760
      4 C                    -0.517632       0.021734
      5 C                    -0.033751       0.069290
      6 C                     0.414205       0.014804
      7 C                    -0.707687       0.101023
      8 O                    -0.466393       0.195323
      9 C                    -0.488448       0.046905
     10 C                    -0.468436       0.029362
     11 C                     0.458044       0.029761
     12 Cl                    0.532313       0.002593
     13 C                     0.377335       0.050608
     14 Cl                    0.531123       0.003580
     15 C                    -0.253948       0.024888
     16 C                    -0.256536       0.073390
     17 C                    -0.925841       0.081867
     18 O                    -0.452388       0.175303
     19 C                     0.210469      -0.028776
     20 H                     0.320353      -0.002863
     21 H                     0.284750      -0.000575
     22 H                     0.185670      -0.006204
     23 H                     0.202742      -0.002066
     24 H                     0.160444      -0.004326
     25 H                     0.219644      -0.001682
     26 H                     0.229721      -0.000193
  --------------------------------------------------------
  Sum of atomic charges =    -1.000000
  Sum of spin   charges =     1.000000

 -----------------------------------------------------------------
                    Cartesian Multipole Moments
 -----------------------------------------------------------------
    Charge (ESU x 10^10)
                -4.8032
    Dipole Moment (Debye)
         X      -6.3487      Y       1.8244      Z       2.6276
       Tot       7.1091
    Quadrupole Moments (Debye-Ang)
        XX    -146.0920     XY      -2.8800     YY    -130.4396
        XZ      -2.2912     YZ      -3.4817     ZZ    -154.9189
    Octopole Moments (Debye-Ang^2)
       XXX    -592.9947    XXY      27.5430    XYY    -133.5740
       YYY      25.5754    XXZ      13.1285    XYZ     -15.2416
       YYZ      10.4063    XZZ    -157.9305    YZZ      25.2732
       ZZZ      50.0922
    Hexadecapole Moments (Debye-Ang^3)
      XXXX   -8335.9562   XXXY     120.8078   XXYY   -1395.3417
      XYYY     153.2802   YYYY    -267.5469   XXXZ     -52.1647
      XXYZ     -19.3413   XYYZ     -11.3985   YYYZ    -217.3665
      XXZZ   -1587.8421   XYZZ      25.6009   YYZZ    -384.1806
      XZZZ       6.3553   YZZZ    -236.2610   ZZZZ   -2176.4883
 -----------------------------------------------------------------
 Total job time:  91.70s(wall), 405.98s(cpu) 
 Tue Jun 11 17:57:26 2024

        *************************************************************
        *                                                           *
        *  Thank you very much for using Q-Chem.  Have a nice day.  *
        *                                                           *
        *************************************************************


