 Entering Gaussian System, Link 0=g16
 Input=280-PCM.com
 Output=280-PCM.log
 Initial command:
 /sysapps/ubuntu-applications/gaussian/Gaussian/AVX2/g16/l1.exe "/scratch/selhajj1/4304455/Gau-672011.inp" -scrdir="/scratch/selhajj1/4304455/"
 Entering Link 1 = /sysapps/ubuntu-applications/gaussian/Gaussian/AVX2/g16/l1.exe PID=    672013.
  
 Copyright (c) 1988,1990,1992,1993,1995,1998,2003,2009,2016,
            Gaussian, Inc.  All Rights Reserved.
  
 This is part of the Gaussian(R) 16 program.  It is based on
 the Gaussian(R) 09 system (copyright 2009, Gaussian, Inc.),
 the Gaussian(R) 03 system (copyright 2003, Gaussian, Inc.),
 the Gaussian(R) 98 system (copyright 1998, Gaussian, Inc.),
 the Gaussian(R) 94 system (copyright 1995, Gaussian, Inc.),
 the Gaussian 92(TM) system (copyright 1992, Gaussian, Inc.),
 the Gaussian 90(TM) system (copyright 1990, Gaussian, Inc.),
 the Gaussian 88(TM) system (copyright 1988, Gaussian, Inc.),
 the Gaussian 86(TM) system (copyright 1986, Carnegie Mellon
 University), and the Gaussian 82(TM) system (copyright 1983,
 Carnegie Mellon University). Gaussian is a federally registered
 trademark of Gaussian, Inc.
  
 This software contains proprietary and confidential information,
 including trade secrets, belonging to Gaussian, Inc.
  
 This software is provided under written license and may be
 used, copied, transmitted, or stored only in accord with that
 written license.
  
 The following legend is applicable only to US Government
 contracts under FAR:
  
                    RESTRICTED RIGHTS LEGEND
  
 Use, reproduction and disclosure by the US Government is
 subject to restrictions as set forth in subparagraphs (a)
 and (c) of the Commercial Computer Software - Restricted
 Rights clause in FAR 52.227-19.
  
 Gaussian, Inc.
 340 Quinnipiac St., Bldg. 40, Wallingford CT 06492
  
  
 ---------------------------------------------------------------
 Warning -- This program may not be used in any manner that
 competes with the business of Gaussian, Inc. or will provide
 assistance to any competitor of Gaussian, Inc.  The licensee
 of this program is prohibited from giving any competitor of
 Gaussian, Inc. access to this program.  By using this program,
 the user acknowledges that Gaussian, Inc. is engaged in the
 business of creating and licensing software in the field of
 computational chemistry and represents and warrants to the
 licensee that it is not a competitor of Gaussian, Inc. and that
 it will not use this program in any manner prohibited above.
 ---------------------------------------------------------------
  

 Cite this work as:
 Gaussian 16, Revision A.03,
 M. J. Frisch, G. W. Trucks, H. B. Schlegel, G. E. Scuseria, 
 M. A. Robb, J. R. Cheeseman, G. Scalmani, V. Barone, 
 G. A. Petersson, H. Nakatsuji, X. Li, M. Caricato, A. V. Marenich, 
 J. Bloino, B. G. Janesko, R. Gomperts, B. Mennucci, H. P. Hratchian, 
 J. V. Ortiz, A. F. Izmaylov, J. L. Sonnenberg, D. Williams-Young, 
 F. Ding, F. Lipparini, F. Egidi, J. Goings, B. Peng, A. Petrone, 
 T. Henderson, D. Ranasinghe, V. G. Zakrzewski, J. Gao, N. Rega, 
 G. Zheng, W. Liang, M. Hada, M. Ehara, K. Toyota, R. Fukuda, 
 J. Hasegawa, M. Ishida, T. Nakajima, Y. Honda, O. Kitao, H. Nakai, 
 T. Vreven, K. Throssell, J. A. Montgomery, Jr., J. E. Peralta, 
 F. Ogliaro, M. J. Bearpark, J. J. Heyd, E. N. Brothers, K. N. Kudin, 
 V. N. Staroverov, T. A. Keith, R. Kobayashi, J. Normand, 
 K. Raghavachari, A. P. Rendell, J. C. Burant, S. S. Iyengar, 
 J. Tomasi, M. Cossi, J. M. Millam, M. Klene, C. Adamo, R. Cammi, 
 J. W. Ochterski, R. L. Martin, K. Morokuma, O. Farkas, 
 J. B. Foresman, and D. J. Fox, Gaussian, Inc., Wallingford CT, 2016.
 
 ******************************************
 Gaussian 16:  ES64L-G16RevA.03 25-Dec-2016
                21-Jan-2024 
 ******************************************
 %chk=280-PCM.chk
 %nproc=8
 Will use up to    8 processors via shared memory.
 %mem=30GB
 ----------------------------------------------------------------
 #P UB3LYP/6-311++G(d,p) SCRF=(PCM,Solvent=n,n-DiMethylFormamide)
 ----------------------------------------------------------------
 1/38=1,172=1/1;
 2/12=2,17=6,18=5,40=1/2;
 3/5=4,6=6,7=1111,11=2,25=1,30=1,70=2201,72=148,74=-5,116=2/1,2,3;
 4//1;
 5/5=2,38=5,53=148/2;
 6/7=2,8=2,9=2,10=2,28=1/1;
 99/5=1,9=1/99;
 Leave Link    1 at Sun Jan 21 08:05:54 2024, MaxMem=  4026531840 cpu:               0.5 elap:               0.1
 (Enter /sysapps/ubuntu-applications/gaussian/Gaussian/AVX2/g16/l101.exe)
 ------------------
 Quinone PCM in DMF
 ------------------
 Symbolic Z-matrix:
 Charge =  0 Multiplicity = 1
 O                     2.35015   1.62955   0.35198 
 C                     1.66474   0.48776   0.22105 
 C                     2.38072  -0.72105   0.25589 
 C                     1.71564  -1.92737   0.12457 
 C                     0.32558  -1.97078  -0.04463 
 C                    -0.39601  -0.7871   -0.08118 
 C                    -1.87785  -0.8338   -0.26152 
 O                    -2.49018  -1.8824   -0.37992 
 C                    -2.59971   0.46263  -0.29315 
 C                    -1.96333   1.63491  -0.16661 
 C                    -0.49846   1.71189   0.01286 
 O                     0.04722   2.81808   0.1255 
 C                     0.26126   0.46024   0.05101 
 H                     1.70296   2.37229   0.30555 
 H                     3.45497  -0.67603   0.38709 
 H                     2.28072  -2.85212   0.15329 
 H                    -0.20078  -2.91086  -0.14795 
 H                    -3.67417   0.3979   -0.42517 
 H                    -2.48347   2.58627  -0.18864 
 
 ITRead=  0  0  0  0  0  0  0  0  0  0  0  0  0  0  0  0  0  0  0
 MicOpt= -1 -1 -1 -1 -1 -1 -1 -1 -1 -1 -1 -1 -1 -1 -1 -1 -1 -1 -1
 NAtoms=     19 NQM=       19 NQMF=       0 NMMI=      0 NMMIF=      0
                NMic=       0 NMicF=      0.
                    Isotopes and Nuclear Properties:
 (Nuclear quadrupole moments (NQMom) in fm**2, nuclear magnetic moments (NMagM)
  in nuclear magnetons)

  Atom         1           2           3           4           5           6           7           8           9          10
 IAtWgt=          16          12          12          12          12          12          12          16          12          12
 AtmWgt=  15.9949146  12.0000000  12.0000000  12.0000000  12.0000000  12.0000000  12.0000000  15.9949146  12.0000000  12.0000000
 NucSpn=           0           0           0           0           0           0           0           0           0           0
 AtZEff=  -0.0000000  -0.0000000  -0.0000000  -0.0000000  -0.0000000  -0.0000000  -0.0000000  -0.0000000  -0.0000000  -0.0000000
 NQMom=    0.0000000   0.0000000   0.0000000   0.0000000   0.0000000   0.0000000   0.0000000   0.0000000   0.0000000   0.0000000
 NMagM=    0.0000000   0.0000000   0.0000000   0.0000000   0.0000000   0.0000000   0.0000000   0.0000000   0.0000000   0.0000000
 AtZNuc=   8.0000000   6.0000000   6.0000000   6.0000000   6.0000000   6.0000000   6.0000000   8.0000000   6.0000000   6.0000000

  Atom        11          12          13          14          15          16          17          18          19
 IAtWgt=          12          16          12           1           1           1           1           1           1
 AtmWgt=  12.0000000  15.9949146  12.0000000   1.0078250   1.0078250   1.0078250   1.0078250   1.0078250   1.0078250
 NucSpn=           0           0           0           1           1           1           1           1           1
 AtZEff=  -0.0000000  -0.0000000  -0.0000000  -0.0000000  -0.0000000  -0.0000000  -0.0000000  -0.0000000  -0.0000000
 NQMom=    0.0000000   0.0000000   0.0000000   0.0000000   0.0000000   0.0000000   0.0000000   0.0000000   0.0000000
 NMagM=    0.0000000   0.0000000   0.0000000   2.7928460   2.7928460   2.7928460   2.7928460   2.7928460   2.7928460
 AtZNuc=   6.0000000   8.0000000   6.0000000   1.0000000   1.0000000   1.0000000   1.0000000   1.0000000   1.0000000
 Leave Link  101 at Sun Jan 21 08:05:55 2024, MaxMem=  4026531840 cpu:               2.0 elap:               0.4
 (Enter /sysapps/ubuntu-applications/gaussian/Gaussian/AVX2/g16/l202.exe)
                          Input orientation:                          
 ---------------------------------------------------------------------
 Center     Atomic      Atomic             Coordinates (Angstroms)
 Number     Number       Type             X           Y           Z
 ---------------------------------------------------------------------
      1          8           0        2.350149    1.629546    0.351976
      2          6           0        1.664744    0.487757    0.221054
      3          6           0        2.380723   -0.721053    0.255893
      4          6           0        1.715640   -1.927372    0.124565
      5          6           0        0.325577   -1.970779   -0.044631
      6          6           0       -0.396010   -0.787100   -0.081179
      7          6           0       -1.877845   -0.833803   -0.261520
      8          8           0       -2.490177   -1.882396   -0.379924
      9          6           0       -2.599712    0.462627   -0.293148
     10          6           0       -1.963333    1.634906   -0.166609
     11          6           0       -0.498460    1.711893    0.012861
     12          8           0        0.047222    2.818077    0.125500
     13          6           0        0.261261    0.460243    0.051012
     14          1           0        1.702957    2.372287    0.305545
     15          1           0        3.454965   -0.676027    0.387088
     16          1           0        2.280718   -2.852120    0.153290
     17          1           0       -0.200778   -2.910855   -0.147954
     18          1           0       -3.674169    0.397896   -0.425173
     19          1           0       -2.483473    2.586274   -0.188644
 ---------------------------------------------------------------------
                    Distance matrix (angstroms):
                    1          2          3          4          5
     1  O    0.000000
     2  C    1.338134   0.000000
     3  C    2.352761   1.405369   0.000000
     4  C    3.620219   2.417591   1.383759   0.000000
     5  C    4.149522   2.812180   2.423996   1.400995   0.000000
     6  C    3.683638   2.441989   2.797897   2.408655   1.386766
     7  C    4.931572   3.811737   4.291367   3.775989   2.488940
     8  O    6.024796   4.821013   5.047638   4.236205   2.837024
     9  C    5.126306   4.295419   5.148522   4.950641   3.813206
    10  C    4.344547   3.824811   4.959826   5.129274   4.272581
    11  C    2.869905   2.494254   3.777299   4.261334   3.774177
    12  O    2.601417   2.838292   4.241187   5.030199   4.799955
    13  C    2.412737   1.414014   2.435068   2.796665   2.433753
    14  H    0.986244   1.886810   3.167110   4.303485   4.569685
    15  H    2.556857   2.141694   1.083160   2.158711   3.414064
    16  H    4.486605   3.396880   2.135878   1.084111   2.153720
    17  H    5.231864   3.894471   3.409175   2.171212   1.082344
    18  H    6.197849   5.378631   6.194967   5.895687   4.664054
    19  H    4.956965   4.666833   5.898850   6.172815   5.355206
                    6          7          8          9         10
     6  C    0.000000
     7  C    1.493499   0.000000
     8  O    2.382112   1.220048   0.000000
     9  C    2.542253   1.484191   2.349183   0.000000
    10  C    2.886159   2.472011   3.562932   1.339861   0.000000
    11  C    2.502859   2.908360   4.127969   2.463649   1.477833
    12  O    3.638196   4.146311   5.365472   3.567866   2.351075
    13  C    1.416102   2.519525   3.639241   2.881600   2.525076
    14  H    3.812734   4.839702   6.012867   4.745334   3.769396
    15  H    3.880930   5.374425   6.114601   6.198255   5.916498
    16  H    3.388828   4.641047   4.897563   5.916541   6.184473
    17  H    2.133755   2.672002   2.520493   4.142022   4.875540
    18  H    3.502695   2.184181   2.569750   1.084472   2.126972
    19  H    3.968464   3.474050   4.472767   2.129392   1.084496
                   11         12         13         14         15
    11  C    0.000000
    12  O    1.238588   0.000000
    13  C    1.464670   2.368701   0.000000
    14  H    2.316899   1.724124   2.408150   0.000000
    15  H    4.633765   4.887730   3.406435   3.516874   0.000000
    16  H    5.345443   6.094293   3.880775   5.258462   2.483727
    17  H    4.635113   5.740814   3.408426   5.633956   4.318007
    18  H    3.464620   4.473172   3.964625   5.774569   7.255180
    19  H    2.178399   2.560632   3.480087   4.220925   6.799935
                   16         17         18         19
    16  H    0.000000
    17  H    2.500404   0.000000
    18  H    6.808664   4.805115   0.000000
    19  H    7.238133   5.952376   2.502539   0.000000
 Stoichiometry    C10H6O3
 Framework group  C1[X(C10H6O3)]
 Deg. of freedom    51
 Full point group                 C1      NOp   1
 Largest Abelian subgroup         C1      NOp   1
 Largest concise Abelian subgroup C1      NOp   1
                         Standard orientation:                         
 ---------------------------------------------------------------------
 Center     Atomic      Atomic             Coordinates (Angstroms)
 Number     Number       Type             X           Y           Z
 ---------------------------------------------------------------------
      1          8           0        2.658767    1.078327   -0.000138
      2          6           0        1.778850    0.070186   -0.000012
      3          6           0        2.278249   -1.243459    0.000079
      4          6           0        1.407211   -2.318670    0.000098
      5          6           0        0.019816   -2.123932    0.000033
      6          6           0       -0.489538   -0.834096   -0.000024
      7          6           0       -1.968598   -0.626925   -0.000050
      8          8           0       -2.759721   -1.555710   -0.000162
      9          6           0       -2.458502    0.774081    0.000050
     10          6           0       -1.621891    1.820653    0.000143
     11          6           0       -0.154389    1.646223    0.000052
     12          8           0        0.580619    2.643149   -0.000027
     13          6           0        0.380925    0.282882    0.000015
     14          1           0        2.146171    1.920896   -0.000275
     15          1           0        3.352430   -1.382638    0.000081
     16          1           0        1.806473   -3.326582    0.000153
     17          1           0       -0.666981   -2.960460    0.000038
     18          1           0       -3.536336    0.893879    0.000081
     19          1           0       -1.971876    2.847124    0.000237
 ---------------------------------------------------------------------
 Rotational constants (GHZ):           1.1671596           0.9066025           0.5102561
 Leave Link  202 at Sun Jan 21 08:05:55 2024, MaxMem=  4026531840 cpu:               0.5 elap:               0.1
 (Enter /sysapps/ubuntu-applications/gaussian/Gaussian/AVX2/g16/l301.exe)
 Standard basis: 6-311++G(d,p) (5D, 7F)
 Ernie: Thresh=  0.10000D-02 Tol=  0.10000D-05 Strict=F.
 There are   341 symmetry adapted cartesian basis functions of A   symmetry.
 There are   328 symmetry adapted basis functions of A   symmetry.
   328 basis functions,   522 primitive gaussians,   341 cartesian basis functions
    45 alpha electrons       45 beta electrons
       nuclear repulsion energy       733.9994902252 Hartrees.
 IExCor=  402 DFT=T Ex+Corr=B3LYP ExCW=0 ScaHFX=  0.200000
 ScaDFX=  0.800000  0.720000  1.000000  0.810000 ScalE2=  1.000000  1.000000
 IRadAn=      5 IRanWt=     -1 IRanGd=            0 ICorTp=0 IEmpDi=  4
 NAtoms=   19 NActive=   19 NUniq=   19 SFac= 1.00D+00 NAtFMM=   60 NAOKFM=F Big=F
 Integral buffers will be    131072 words long.
 Raffenetti 2 integral format.
 Two-electron integral symmetry is turned on.
 ------------------------------------------------------------------------------
 Polarizable Continuum Model (PCM)
 =================================
 Model                : PCM.
 Atomic radii         : UFF (Universal Force Field).
 Polarization charges : Total charges.
 Charge compensation  : None.
 Solution method      : On-the-fly selection.
 Cavity type          : Scaled VdW (van der Waals Surface) (Alpha=1.100).
 Cavity algorithm     : GePol (No added spheres)
                        Default sphere list used, NSphG=   19.
                        Lebedev-Laikov grids with approx.  5.0 points / Ang**2.
                        Smoothing algorithm: York/Karplus (Gamma=1.0000).
                        Polarization charges: spherical gaussians, with
                                              point-specific exponents (IZeta= 3).
                        Self-potential: point-specific (ISelfS= 7).
                        Self-field    : sphere-specific E.n sum rule (ISelfD= 2).
 Solvent              : n,n-DiMethylFormamide, Eps=  37.219000 Eps(inf)=   2.046330
 ------------------------------------------------------------------------------
 Spheres list:
 ISph  on   Nord     Re0    Alpha      Xe            Ye            Ze
    1   O      1    1.7500  1.100      2.658767      1.078327     -0.000138
    2   C      2    1.9255  1.100      1.778850      0.070186     -0.000012
    3   C      3    1.9255  1.100      2.278249     -1.243459      0.000079
    4   C      4    1.9255  1.100      1.407211     -2.318670      0.000098
    5   C      5    1.9255  1.100      0.019816     -2.123932      0.000033
    6   C      6    1.9255  1.100     -0.489538     -0.834096     -0.000024
    7   C      7    1.9255  1.100     -1.968598     -0.626925     -0.000050
    8   O      8    1.7500  1.100     -2.759721     -1.555710     -0.000162
    9   C      9    1.9255  1.100     -2.458502      0.774081      0.000050
   10   C     10    1.9255  1.100     -1.621891      1.820653      0.000143
   11   C     11    1.9255  1.100     -0.154389      1.646223      0.000052
   12   O     12    1.7500  1.100      0.580619      2.643149     -0.000027
   13   C     13    1.9255  1.100      0.380925      0.282882      0.000015
   14   H     14    1.4430  1.100      2.146171      1.920896     -0.000275
   15   H     15    1.4430  1.100      3.352430     -1.382638      0.000081
   16   H     16    1.4430  1.100      1.806473     -3.326582      0.000153
   17   H     17    1.4430  1.100     -0.666981     -2.960460      0.000038
   18   H     18    1.4430  1.100     -3.536336      0.893879      0.000081
   19   H     19    1.4430  1.100     -1.971876      2.847124      0.000237
 ------------------------------------------------------------------------------
 GePol: Number of generator spheres                  =      19
 GePol: Total number of spheres                      =      19
 GePol: Number of exposed spheres                    =      19 (100.00%)
 GePol: Number of points                             =    1685
 GePol: Average weight of points                     =       0.13
 GePol: Minimum weight of points                     =   0.35D-11
 GePol: Maximum weight of points                     =    0.20577
 GePol: Number of points with low weight             =     127
 GePol: Fraction of low-weight points (<1% of avg)   =       7.54%
 GePol: Cavity surface area                          =    213.189 Ang**2
 GePol: Cavity volume                                =    223.623 Ang**3
 Leave Link  301 at Sun Jan 21 08:05:55 2024, MaxMem=  4026531840 cpu:               0.7 elap:               0.1
 (Enter /sysapps/ubuntu-applications/gaussian/Gaussian/AVX2/g16/l302.exe)
 NPDir=0 NMtPBC=     1 NCelOv=     1 NCel=       1 NClECP=     1 NCelD=      1
         NCelK=      1 NCelE2=     1 NClLst=     1 CellRange=     0.0.
 One-electron integrals computed using PRISM.
 One-electron integral symmetry used in STVInt
 NBasis=   328 RedAO= T EigKep=  1.94D-06  NBF=   328
 NBsUse=   325 1.00D-06 EigRej=  8.71D-07 NBFU=   325
 Precomputing XC quadrature grid using
 IXCGrd= 4 IRadAn=           5 IRanWt=          -1 IRanGd=           0 AccXCQ= 0.00D+00.
 Generated NRdTot=       0 NPtTot=           0 NUsed=           0 NTot=          32
 NSgBfM=   341   341   341   341   341 MxSgAt=    19 MxSgA2=    19.
 Leave Link  302 at Sun Jan 21 08:05:58 2024, MaxMem=  4026531840 cpu:              16.7 elap:               2.9
 (Enter /sysapps/ubuntu-applications/gaussian/Gaussian/AVX2/g16/l303.exe)
 DipDrv:  MaxL=1.
 Leave Link  303 at Sun Jan 21 08:05:58 2024, MaxMem=  4026531840 cpu:               1.5 elap:               0.3
 (Enter /sysapps/ubuntu-applications/gaussian/Gaussian/AVX2/g16/l401.exe)
 ExpMin= 3.60D-02 ExpMax= 8.59D+03 ExpMxC= 1.30D+03 IAcc=3 IRadAn=         5 AccDes= 0.00D+00
 Harris functional with IExCor=  402 and IRadAn=       5 diagonalized for initial guess.
 HarFok:  IExCor=  402 AccDes= 0.00D+00 IRadAn=         5 IDoV= 1 UseB2=F ITyADJ=14
 ICtDFT=  3500011 ScaDFX=  1.000000  1.000000  1.000000  1.000000
 FoFCou: FMM=F IPFlag=           0 FMFlag=      100000 FMFlg1=           0
         NFxFlg=           0 DoJE=T BraDBF=F KetDBF=T FulRan=T
         wScrn=  0.000000 ICntrl=       500 IOpCl=  0 I1Cent=   200000004 NGrid=           0
         NMat0=    1 NMatS0=      1 NMatT0=    0 NMatD0=    1 NMtDS0=    0 NMtDT0=    0
 Petite list used in FoFCou.
 Harris En= -610.528921442312    
 JPrj=0 DoOrth=F DoCkMO=F.
 Initial guess <Sx>= 0.0000 <Sy>= 0.0000 <Sz>= 0.0000 <S**2>=-0.0000 S=-0.0000
 Leave Link  401 at Sun Jan 21 08:06:02 2024, MaxMem=  4026531840 cpu:              22.0 elap:               3.8
 (Enter /sysapps/ubuntu-applications/gaussian/Gaussian/AVX2/g16/l502.exe)
 Integral symmetry usage will be decided dynamically.
 UHF open shell SCF:
 Using DIIS extrapolation, IDIIS=  1040.
 NGot=  4026531840 LenX=  4026293345 LenY=  4026176623
 Requested convergence on RMS density matrix=1.00D-08 within 128 cycles.
 Requested convergence on MAX density matrix=1.00D-06.
 Requested convergence on             energy=1.00D-06.
 No special actions if energy rises.
 Fock matrices will be formed incrementally for  20 cycles.

 Cycle   1  Pass 1  IDiag  1:
 FoFJK:  IHMeth= 1 ICntrl=       0 DoSepK=F KAlg= 0 I1Cent=           0 FoldK=F
 IRaf= 920000000 NMat=       1 IRICut=       1 DoRegI=T DoRafI=F ISym2E= 0 IDoP0=0 IntGTp=1.
 FoFCou: FMM=F IPFlag=           0 FMFlag=      100000 FMFlg1=           0
         NFxFlg=           0 DoJE=F BraDBF=F KetDBF=F FulRan=T
         wScrn=  0.000000 ICntrl=         0 IOpCl=  1 I1Cent=           0 NGrid=           0
         NMat0=    1 NMatS0=      1 NMatT0=    0 NMatD0=    1 NMtDS0=    0 NMtDT0=    0
 Symmetry not used in FoFCou.
 Inv3:  Mode=1 IEnd=     8517675.
 Iteration    1 A*A^-1 deviation from unit magnitude is 3.77D-15 for    587.
 Iteration    1 A*A^-1 deviation from orthogonality  is 1.77D-15 for   1403    334.
 Iteration    1 A^-1*A deviation from unit magnitude is 3.11D-15 for   1280.
 Iteration    1 A^-1*A deviation from orthogonality  is 1.89D-15 for   1047    895.
 E= -610.255641360256    
 DIIS: error= 3.27D-02 at cycle   1 NSaved=   1.
 NSaved= 1 IEnMin= 1 EnMin= -610.255641360256     IErMin= 1 ErrMin= 3.27D-02
 ErrMax= 3.27D-02  0.00D+00 EMaxC= 1.00D-01 BMatC= 1.45D+00 BMatP= 1.45D+00
 IDIUse=3 WtCom= 6.73D-01 WtEn= 3.27D-01
 Coeff-Com:  0.100D+01
 Coeff-En:   0.100D+01
 Coeff:      0.100D+01
 Gap=     0.102 Goal=   None    Shift=    0.000
 Gap=     0.102 Goal=   None    Shift=    0.000
 GapD=    0.102 DampG=1.000 DampE=0.500 DampFc=0.5000 IDamp=-1.
 Damping current iteration by 5.00D-01
 RMSDP=1.51D-02 MaxDP=6.36D-01              OVMax= 2.17D-01

 Cycle   2  Pass 1  IDiag  1:
 RMSU=  7.24D-03    CP:  1.04D+00
 E= -610.343942142627     Delta-E=       -0.088300782371 Rises=F Damp=T
 DIIS: error= 1.43D-02 at cycle   2 NSaved=   2.
 NSaved= 2 IEnMin= 2 EnMin= -610.343942142627     IErMin= 2 ErrMin= 1.43D-02
 ErrMax= 1.43D-02  0.00D+00 EMaxC= 1.00D-01 BMatC= 1.84D-01 BMatP= 1.45D+00
 IDIUse=3 WtCom= 8.57D-01 WtEn= 1.43D-01
 Coeff-Com:  0.168D+00 0.832D+00
 Coeff-En:   0.287D+00 0.713D+00
 Coeff:      0.185D+00 0.815D+00
 Gap=     0.166 Goal=   None    Shift=    0.000
 Gap=     0.166 Goal=   None    Shift=    0.000
 RMSDP=6.43D-03 MaxDP=4.17D-01 DE=-8.83D-02 OVMax= 2.13D-01

 Cycle   3  Pass 1  IDiag  1:
 RMSU=  5.03D-03    CP:  9.92D-01  5.67D-01
 E= -610.486497455736     Delta-E=       -0.142555313109 Rises=F Damp=F
 DIIS: error= 1.84D-02 at cycle   3 NSaved=   3.
 NSaved= 3 IEnMin= 3 EnMin= -610.486497455736     IErMin= 2 ErrMin= 1.43D-02
 ErrMax= 1.84D-02  0.00D+00 EMaxC= 1.00D-01 BMatC= 1.87D-01 BMatP= 1.84D-01
 IDIUse=3 WtCom= 8.16D-01 WtEn= 1.84D-01
 Coeff-Com:  0.102D-01 0.501D+00 0.489D+00
 Coeff-En:   0.000D+00 0.000D+00 0.100D+01
 Coeff:      0.834D-02 0.409D+00 0.583D+00
 Gap=     0.124 Goal=   None    Shift=    0.000
 Gap=     0.124 Goal=   None    Shift=    0.000
 RMSDP=3.43D-03 MaxDP=1.34D-01 DE=-1.43D-01 OVMax= 8.44D-02

 Cycle   4  Pass 1  IDiag  1:
 RMSU=  2.19D-03    CP:  1.01D+00  7.65D-01  6.19D-01
 E= -610.512416574417     Delta-E=       -0.025919118681 Rises=F Damp=F
 DIIS: error= 1.12D-02 at cycle   4 NSaved=   4.
 NSaved= 4 IEnMin= 4 EnMin= -610.512416574417     IErMin= 4 ErrMin= 1.12D-02
 ErrMax= 1.12D-02  0.00D+00 EMaxC= 1.00D-01 BMatC= 6.87D-02 BMatP= 1.84D-01
 IDIUse=3 WtCom= 8.88D-01 WtEn= 1.12D-01
 Coeff-Com:  0.191D-02 0.109D+00 0.386D+00 0.504D+00
 Coeff-En:   0.000D+00 0.000D+00 0.305D+00 0.695D+00
 Coeff:      0.169D-02 0.966D-01 0.377D+00 0.525D+00
 Gap=     0.119 Goal=   None    Shift=    0.000
 Gap=     0.119 Goal=   None    Shift=    0.000
 RMSDP=1.87D-03 MaxDP=8.90D-02 DE=-2.59D-02 OVMax= 3.19D-02

 Cycle   5  Pass 1  IDiag  1:
 RMSU=  6.09D-04    CP:  9.93D-01  6.60D-01  7.26D-01  5.07D-01
 E= -610.525993170286     Delta-E=       -0.013576595869 Rises=F Damp=F
 DIIS: error= 1.29D-03 at cycle   5 NSaved=   5.
 NSaved= 5 IEnMin= 5 EnMin= -610.525993170286     IErMin= 5 ErrMin= 1.29D-03
 ErrMax= 1.29D-03  0.00D+00 EMaxC= 1.00D-01 BMatC= 2.13D-03 BMatP= 6.87D-02
 IDIUse=3 WtCom= 9.87D-01 WtEn= 1.29D-02
 Coeff-Com: -0.160D-03 0.156D-01 0.172D+00 0.300D+00 0.513D+00
 Coeff-En:   0.000D+00 0.000D+00 0.000D+00 0.000D+00 0.100D+01
 Coeff:     -0.158D-03 0.154D-01 0.170D+00 0.296D+00 0.519D+00
 Gap=     0.121 Goal=   None    Shift=    0.000
 Gap=     0.121 Goal=   None    Shift=    0.000
 RMSDP=5.71D-04 MaxDP=4.37D-02 DE=-1.36D-02 OVMax= 1.03D-02

 Cycle   6  Pass 1  IDiag  1:
 RMSU=  2.64D-04    CP:  9.84D-01  6.52D-01  7.30D-01  5.15D-01  7.10D-01
 E= -610.526413936471     Delta-E=       -0.000420766185 Rises=F Damp=F
 DIIS: error= 4.14D-04 at cycle   6 NSaved=   6.
 NSaved= 6 IEnMin= 6 EnMin= -610.526413936471     IErMin= 6 ErrMin= 4.14D-04
 ErrMax= 4.14D-04  0.00D+00 EMaxC= 1.00D-01 BMatC= 1.68D-04 BMatP= 2.13D-03
 IDIUse=3 WtCom= 9.96D-01 WtEn= 4.14D-03
 Coeff-Com: -0.325D-03-0.296D-03 0.568D-01 0.112D+00 0.289D+00 0.543D+00
 Coeff-En:   0.000D+00 0.000D+00 0.000D+00 0.000D+00 0.584D-02 0.994D+00
 Coeff:     -0.324D-03-0.295D-03 0.566D-01 0.112D+00 0.287D+00 0.545D+00
 Gap=     0.121 Goal=   None    Shift=    0.000
 Gap=     0.121 Goal=   None    Shift=    0.000
 RMSDP=1.27D-04 MaxDP=8.51D-03 DE=-4.21D-04 OVMax= 2.97D-03

 Cycle   7  Pass 1  IDiag  1:
 RMSU=  4.46D-05    CP:  9.86D-01  6.51D-01  7.40D-01  5.32D-01  7.25D-01
                    CP:  7.88D-01
 E= -610.526449396444     Delta-E=       -0.000035459973 Rises=F Damp=F
 DIIS: error= 9.62D-05 at cycle   7 NSaved=   7.
 NSaved= 7 IEnMin= 7 EnMin= -610.526449396444     IErMin= 7 ErrMin= 9.62D-05
 ErrMax= 9.62D-05  0.00D+00 EMaxC= 1.00D-01 BMatC= 1.50D-05 BMatP= 1.68D-04
 IDIUse=1 WtCom= 1.00D+00 WtEn= 0.00D+00
 Coeff-Com: -0.710D-04-0.153D-02 0.135D-01 0.307D-01 0.107D+00 0.297D+00
 Coeff-Com:  0.553D+00
 Coeff:     -0.710D-04-0.153D-02 0.135D-01 0.307D-01 0.107D+00 0.297D+00
 Coeff:      0.553D+00
 Gap=     0.121 Goal=   None    Shift=    0.000
 Gap=     0.121 Goal=   None    Shift=    0.000
 RMSDP=3.24D-05 MaxDP=3.00D-03 DE=-3.55D-05 OVMax= 6.54D-04

 Cycle   8  Pass 1  IDiag  1:
 RMSU=  1.35D-05    CP:  9.86D-01  6.52D-01  7.40D-01  5.32D-01  7.29D-01
                    CP:  7.60D-01  8.02D-01
 E= -610.526452676915     Delta-E=       -0.000003280472 Rises=F Damp=F
 DIIS: error= 1.59D-05 at cycle   8 NSaved=   8.
 NSaved= 8 IEnMin= 8 EnMin= -610.526452676915     IErMin= 8 ErrMin= 1.59D-05
 ErrMax= 1.59D-05  0.00D+00 EMaxC= 1.00D-01 BMatC= 3.87D-07 BMatP= 1.50D-05
 IDIUse=1 WtCom= 1.00D+00 WtEn= 0.00D+00
 Coeff-Com:  0.303D-04-0.544D-03 0.209D-02 0.542D-02 0.253D-01 0.805D-01
 Coeff-Com:  0.201D+00 0.687D+00
 Coeff:      0.303D-04-0.544D-03 0.209D-02 0.542D-02 0.253D-01 0.805D-01
 Coeff:      0.201D+00 0.687D+00
 Gap=     0.121 Goal=   None    Shift=    0.000
 Gap=     0.121 Goal=   None    Shift=    0.000
 RMSDP=5.73D-06 MaxDP=3.30D-04 DE=-3.28D-06 OVMax= 2.23D-04

 Cycle   9  Pass 1  IDiag  1:
 RMSU=  3.91D-06    CP:  9.86D-01  6.51D-01  7.40D-01  5.32D-01  7.31D-01
                    CP:  7.61D-01  8.08D-01  7.63D-01
 E= -610.526452720246     Delta-E=       -0.000000043331 Rises=F Damp=F
 DIIS: error= 1.36D-05 at cycle   9 NSaved=   9.
 NSaved= 9 IEnMin= 9 EnMin= -610.526452720246     IErMin= 9 ErrMin= 1.36D-05
 ErrMax= 1.36D-05  0.00D+00 EMaxC= 1.00D-01 BMatC= 2.06D-07 BMatP= 3.87D-07
 IDIUse=1 WtCom= 1.00D+00 WtEn= 0.00D+00
 Coeff-Com:  0.322D-04-0.205D-03-0.160D-03 0.464D-04 0.451D-02 0.180D-01
 Coeff-Com:  0.625D-01 0.448D+00 0.468D+00
 Coeff:      0.322D-04-0.205D-03-0.160D-03 0.464D-04 0.451D-02 0.180D-01
 Coeff:      0.625D-01 0.448D+00 0.468D+00
 Gap=     0.121 Goal=   None    Shift=    0.000
 Gap=     0.121 Goal=   None    Shift=    0.000
 RMSDP=2.27D-06 MaxDP=1.08D-04 DE=-4.33D-08 OVMax= 9.18D-05

 Cycle  10  Pass 1  IDiag  1:
 RMSU=  1.01D-06    CP:  9.86D-01  6.51D-01  7.40D-01  5.32D-01  7.32D-01
                    CP:  7.62D-01  8.05D-01  8.32D-01  6.94D-01
 E= -610.526452771816     Delta-E=       -0.000000051570 Rises=F Damp=F
 DIIS: error= 2.18D-06 at cycle  10 NSaved=  10.
 NSaved=10 IEnMin=10 EnMin= -610.526452771816     IErMin=10 ErrMin= 2.18D-06
 ErrMax= 2.18D-06  0.00D+00 EMaxC= 1.00D-01 BMatC= 4.10D-09 BMatP= 2.06D-07
 IDIUse=1 WtCom= 1.00D+00 WtEn= 0.00D+00
 Coeff-Com:  0.105D-04-0.522D-04-0.172D-03-0.284D-03 0.539D-03 0.321D-02
 Coeff-Com:  0.144D-01 0.152D+00 0.201D+00 0.630D+00
 Coeff:      0.105D-04-0.522D-04-0.172D-03-0.284D-03 0.539D-03 0.321D-02
 Coeff:      0.144D-01 0.152D+00 0.201D+00 0.630D+00
 Gap=     0.121 Goal=   None    Shift=    0.000
 Gap=     0.121 Goal=   None    Shift=    0.000
 RMSDP=8.18D-07 MaxDP=5.99D-05 DE=-5.16D-08 OVMax= 1.31D-05

 Cycle  11  Pass 1  IDiag  1:
 RMSU=  4.48D-07    CP:  9.86D-01  6.51D-01  7.40D-01  5.32D-01  7.32D-01
                    CP:  7.62D-01  8.09D-01  8.22D-01  7.29D-01  8.66D-01
 E= -610.526452772425     Delta-E=       -0.000000000608 Rises=F Damp=F
 DIIS: error= 1.64D-06 at cycle  11 NSaved=  11.
 NSaved=11 IEnMin=11 EnMin= -610.526452772425     IErMin=11 ErrMin= 1.64D-06
 ErrMax= 1.64D-06  0.00D+00 EMaxC= 1.00D-01 BMatC= 1.43D-09 BMatP= 4.10D-09
 IDIUse=1 WtCom= 1.00D+00 WtEn= 0.00D+00
 Coeff-Com:  0.293D-05-0.107D-04-0.959D-04-0.195D-03-0.145D-03 0.196D-03
 Coeff-Com:  0.249D-02 0.495D-01 0.781D-01 0.406D+00 0.464D+00
 Coeff:      0.293D-05-0.107D-04-0.959D-04-0.195D-03-0.145D-03 0.196D-03
 Coeff:      0.249D-02 0.495D-01 0.781D-01 0.406D+00 0.464D+00
 Gap=     0.121 Goal=   None    Shift=    0.000
 Gap=     0.121 Goal=   None    Shift=    0.000
 RMSDP=2.37D-07 MaxDP=1.12D-05 DE=-6.08D-10 OVMax= 8.34D-06

 Cycle  12  Pass 1  IDiag  1:
 RMSU=  1.51D-07    CP:  9.86D-01  6.51D-01  7.40D-01  5.32D-01  7.32D-01
                    CP:  7.62D-01  8.11D-01  8.25D-01  7.34D-01  8.67D-01
                    CP:  8.50D-01
 E= -610.526452772688     Delta-E=       -0.000000000263 Rises=F Damp=F
 DIIS: error= 3.79D-07 at cycle  12 NSaved=  12.
 NSaved=12 IEnMin=12 EnMin= -610.526452772688     IErMin=12 ErrMin= 3.79D-07
 ErrMax= 3.79D-07  0.00D+00 EMaxC= 1.00D-01 BMatC= 1.23D-10 BMatP= 1.43D-09
 IDIUse=1 WtCom= 1.00D+00 WtEn= 0.00D+00
 Coeff-Com:  0.164D-06 0.166D-06-0.393D-04-0.889D-04-0.178D-03-0.288D-03
 Coeff-Com: -0.348D-03 0.116D-01 0.225D-01 0.164D+00 0.276D+00 0.526D+00
 Coeff:      0.164D-06 0.166D-06-0.393D-04-0.889D-04-0.178D-03-0.288D-03
 Coeff:     -0.348D-03 0.116D-01 0.225D-01 0.164D+00 0.276D+00 0.526D+00
 Gap=     0.121 Goal=   None    Shift=    0.000
 Gap=     0.121 Goal=   None    Shift=    0.000
 RMSDP=7.54D-08 MaxDP=3.75D-06 DE=-2.63D-10 OVMax= 1.89D-06

 Cycle  13  Pass 1  IDiag  1:
 RMSU=  3.72D-08    CP:  9.86D-01  6.51D-01  7.40D-01  5.32D-01  7.32D-01
                    CP:  7.62D-01  8.11D-01  8.27D-01  7.36D-01  8.77D-01
                    CP:  8.39D-01  7.22D-01
 E= -610.526452772714     Delta-E=       -0.000000000026 Rises=F Damp=F
 DIIS: error= 1.05D-07 at cycle  13 NSaved=  13.
 NSaved=13 IEnMin=13 EnMin= -610.526452772714     IErMin=13 ErrMin= 1.05D-07
 ErrMax= 1.05D-07  0.00D+00 EMaxC= 1.00D-01 BMatC= 1.05D-11 BMatP= 1.23D-10
 IDIUse=1 WtCom= 1.00D+00 WtEn= 0.00D+00
 Coeff-Com: -0.597D-06 0.181D-05-0.303D-05-0.100D-04-0.649D-04-0.150D-03
 Coeff-Com: -0.590D-03-0.241D-02-0.211D-02 0.118D-01 0.626D-01 0.263D+00
 Coeff-Com:  0.668D+00
 Coeff:     -0.597D-06 0.181D-05-0.303D-05-0.100D-04-0.649D-04-0.150D-03
 Coeff:     -0.590D-03-0.241D-02-0.211D-02 0.118D-01 0.626D-01 0.263D+00
 Coeff:      0.668D+00
 Gap=     0.121 Goal=   None    Shift=    0.000
 Gap=     0.121 Goal=   None    Shift=    0.000
 RMSDP=2.44D-08 MaxDP=1.26D-06 DE=-2.61D-11 OVMax= 6.47D-07

 Cycle  14  Pass 1  IDiag  1:
 RMSU=  1.41D-08    CP:  9.86D-01  6.51D-01  7.40D-01  5.32D-01  7.32D-01
                    CP:  7.62D-01  8.11D-01  8.27D-01  7.38D-01  8.83D-01
                    CP:  8.58D-01  7.60D-01  8.63D-01
 E= -610.526452772717     Delta-E=       -0.000000000003 Rises=F Damp=F
 DIIS: error= 2.39D-08 at cycle  14 NSaved=  14.
 NSaved=14 IEnMin=14 EnMin= -610.526452772717     IErMin=14 ErrMin= 2.39D-08
 ErrMax= 2.39D-08  0.00D+00 EMaxC= 1.00D-01 BMatC= 4.94D-13 BMatP= 1.05D-11
 IDIUse=1 WtCom= 1.00D+00 WtEn= 0.00D+00
 Coeff-Com: -0.226D-06 0.682D-06 0.325D-06-0.377D-07-0.183D-04-0.440D-04
 Coeff-Com: -0.220D-03-0.139D-02-0.186D-02-0.333D-02 0.116D-01 0.728D-01
 Coeff-Com:  0.270D+00 0.652D+00
 Coeff:     -0.226D-06 0.682D-06 0.325D-06-0.377D-07-0.183D-04-0.440D-04
 Coeff:     -0.220D-03-0.139D-02-0.186D-02-0.333D-02 0.116D-01 0.728D-01
 Coeff:      0.270D+00 0.652D+00
 Gap=     0.121 Goal=   None    Shift=    0.000
 Gap=     0.121 Goal=   None    Shift=    0.000
 RMSDP=7.29D-09 MaxDP=4.57D-07 DE=-3.07D-12 OVMax= 2.12D-07

 Error on total polarization charges =  0.01393
 SCF Done:  E(UB3LYP) =  -610.526452773     A.U. after   14 cycles
            NFock= 14  Conv=0.73D-08     -V/T= 2.0039
 <Sx>= 0.0000 <Sy>= 0.0000 <Sz>= 0.0000 <S**2>=-0.0000 S=-0.0000
 <L.S>=  0.00000000000    
 KE= 6.081589277677D+02 PE=-2.893537379774D+03 EE= 9.408525090078D+02
 Annihilation of the first spin contaminant:
 S**2 before annihilation    -0.0000,   after    -0.0000
 Leave Link  502 at Sun Jan 21 08:07:41 2024, MaxMem=  4026531840 cpu:             787.3 elap:              99.3
 (Enter /sysapps/ubuntu-applications/gaussian/Gaussian/AVX2/g16/l601.exe)
 Copying SCF densities to generalized density rwf, IOpCl= 1 IROHF=0.

 **********************************************************************

            Population analysis using the SCF density.

 **********************************************************************

 Orbital symmetries:
 Alpha Orbitals:
       Occupied  (A) (A) (A) (A) (A) (A) (A) (A) (A) (A) (A) (A)
                 (A) (A) (A) (A) (A) (A) (A) (A) (A) (A) (A) (A)
                 (A) (A) (A) (A) (A) (A) (A) (A) (A) (A) (A) (A)
                 (A) (A) (A) (A) (A) (A) (A) (A) (A)
       Virtual   (A) (A) (A) (A) (A) (A) (A) (A) (A) (A) (A) (A)
                 (A) (A) (A) (A) (A) (A) (A) (A) (A) (A) (A) (A)
                 (A) (A) (A) (A) (A) (A) (A) (A) (A) (A) (A) (A)
                 (A) (A) (A) (A) (A) (A) (A) (A) (A) (A) (A) (A)
                 (A) (A) (A) (A) (A) (A) (A) (A) (A) (A) (A) (A)
                 (A) (A) (A) (A) (A) (A) (A) (A) (A) (A) (A) (A)
                 (A) (A) (A) (A) (A) (A) (A) (A) (A) (A) (A) (A)
                 (A) (A) (A) (A) (A) (A) (A) (A) (A) (A) (A) (A)
                 (A) (A) (A) (A) (A) (A) (A) (A) (A) (A) (A) (A)
                 (A) (A) (A) (A) (A) (A) (A) (A) (A) (A) (A) (A)
                 (A) (A) (A) (A) (A) (A) (A) (A) (A) (A) (A) (A)
                 (A) (A) (A) (A) (A) (A) (A) (A) (A) (A) (A) (A)
                 (A) (A) (A) (A) (A) (A) (A) (A) (A) (A) (A) (A)
                 (A) (A) (A) (A) (A) (A) (A) (A) (A) (A) (A) (A)
                 (A) (A) (A) (A) (A) (A) (A) (A) (A) (A) (A) (A)
                 (A) (A) (A) (A) (A) (A) (A) (A) (A) (A) (A) (A)
                 (A) (A) (A) (A) (A) (A) (A) (A) (A) (A) (A) (A)
                 (A) (A) (A) (A) (A) (A) (A) (A) (A) (A) (A) (A)
                 (A) (A) (A) (A) (A) (A) (A) (A) (A) (A) (A) (A)
                 (A) (A) (A) (A) (A) (A) (A) (A) (A) (A) (A) (A)
                 (A) (A) (A) (A) (A) (A) (A) (A) (A) (A) (A) (A)
                 (A) (A) (A) (A) (A) (A) (A) (A) (A) (A) (A) (A)
                 (A) (A) (A) (A) (A) (A) (A) (A) (A) (A) (A) (A)
                 (A) (A) (A) (A)
 Beta  Orbitals:
       Occupied  (A) (A) (A) (A) (A) (A) (A) (A) (A) (A) (A) (A)
                 (A) (A) (A) (A) (A) (A) (A) (A) (A) (A) (A) (A)
                 (A) (A) (A) (A) (A) (A) (A) (A) (A) (A) (A) (A)
                 (A) (A) (A) (A) (A) (A) (A) (A) (A)
       Virtual   (A) (A) (A) (A) (A) (A) (A) (A) (A) (A) (A) (A)
                 (A) (A) (A) (A) (A) (A) (A) (A) (A) (A) (A) (A)
                 (A) (A) (A) (A) (A) (A) (A) (A) (A) (A) (A) (A)
                 (A) (A) (A) (A) (A) (A) (A) (A) (A) (A) (A) (A)
                 (A) (A) (A) (A) (A) (A) (A) (A) (A) (A) (A) (A)
                 (A) (A) (A) (A) (A) (A) (A) (A) (A) (A) (A) (A)
                 (A) (A) (A) (A) (A) (A) (A) (A) (A) (A) (A) (A)
                 (A) (A) (A) (A) (A) (A) (A) (A) (A) (A) (A) (A)
                 (A) (A) (A) (A) (A) (A) (A) (A) (A) (A) (A) (A)
                 (A) (A) (A) (A) (A) (A) (A) (A) (A) (A) (A) (A)
                 (A) (A) (A) (A) (A) (A) (A) (A) (A) (A) (A) (A)
                 (A) (A) (A) (A) (A) (A) (A) (A) (A) (A) (A) (A)
                 (A) (A) (A) (A) (A) (A) (A) (A) (A) (A) (A) (A)
                 (A) (A) (A) (A) (A) (A) (A) (A) (A) (A) (A) (A)
                 (A) (A) (A) (A) (A) (A) (A) (A) (A) (A) (A) (A)
                 (A) (A) (A) (A) (A) (A) (A) (A) (A) (A) (A) (A)
                 (A) (A) (A) (A) (A) (A) (A) (A) (A) (A) (A) (A)
                 (A) (A) (A) (A) (A) (A) (A) (A) (A) (A) (A) (A)
                 (A) (A) (A) (A) (A) (A) (A) (A) (A) (A) (A) (A)
                 (A) (A) (A) (A) (A) (A) (A) (A) (A) (A) (A) (A)
                 (A) (A) (A) (A) (A) (A) (A) (A) (A) (A) (A) (A)
                 (A) (A) (A) (A) (A) (A) (A) (A) (A) (A) (A) (A)
                 (A) (A) (A) (A) (A) (A) (A) (A) (A) (A) (A) (A)
                 (A) (A) (A) (A)
 The electronic state is 1-A.
 Alpha  occ. eigenvalues --  -19.16992 -19.14927 -19.14094 -10.29500 -10.28967
 Alpha  occ. eigenvalues --  -10.27273 -10.21773 -10.21662 -10.21532 -10.21196
 Alpha  occ. eigenvalues --  -10.20629 -10.19972 -10.19913  -1.09841  -1.07334
 Alpha  occ. eigenvalues --   -1.06965  -0.89395  -0.84632  -0.78599  -0.77701
 Alpha  occ. eigenvalues --   -0.70921  -0.66539  -0.65499  -0.61128  -0.55060
 Alpha  occ. eigenvalues --   -0.54692  -0.54125  -0.51397  -0.48726  -0.47207
 Alpha  occ. eigenvalues --   -0.46968  -0.46759  -0.44202  -0.43585  -0.43265
 Alpha  occ. eigenvalues --   -0.41952  -0.41147  -0.39746  -0.38350  -0.36318
 Alpha  occ. eigenvalues --   -0.31635  -0.30031  -0.28872  -0.28476  -0.25638
 Alpha virt. eigenvalues --   -0.13521  -0.05383  -0.04119  -0.00423   0.00623
 Alpha virt. eigenvalues --    0.01003   0.02159   0.02203   0.02952   0.04327
 Alpha virt. eigenvalues --    0.04368   0.05191   0.05313   0.06328   0.07223
 Alpha virt. eigenvalues --    0.07302   0.08100   0.08940   0.09768   0.10296
 Alpha virt. eigenvalues --    0.10626   0.10928   0.11113   0.12440   0.12561
 Alpha virt. eigenvalues --    0.13210   0.13614   0.13790   0.14266   0.14276
 Alpha virt. eigenvalues --    0.14804   0.15268   0.15326   0.15737   0.16011
 Alpha virt. eigenvalues --    0.18016   0.18127   0.19098   0.19651   0.20072
 Alpha virt. eigenvalues --    0.20475   0.20493   0.21209   0.21776   0.22328
 Alpha virt. eigenvalues --    0.22984   0.23759   0.23967   0.25345   0.25679
 Alpha virt. eigenvalues --    0.26738   0.26769   0.26863   0.27182   0.27467
 Alpha virt. eigenvalues --    0.27791   0.29105   0.29363   0.29772   0.30334
 Alpha virt. eigenvalues --    0.30778   0.31133   0.31305   0.32252   0.32869
 Alpha virt. eigenvalues --    0.33088   0.34407   0.34952   0.36281   0.37260
 Alpha virt. eigenvalues --    0.37533   0.38570   0.40063   0.40670   0.41974
 Alpha virt. eigenvalues --    0.45380   0.46273   0.48748   0.50328   0.51140
 Alpha virt. eigenvalues --    0.51677   0.52488   0.52794   0.54480   0.56729
 Alpha virt. eigenvalues --    0.57690   0.58078   0.58525   0.59696   0.60632
 Alpha virt. eigenvalues --    0.60647   0.61346   0.62472   0.62832   0.63131
 Alpha virt. eigenvalues --    0.64449   0.65620   0.66979   0.67422   0.70818
 Alpha virt. eigenvalues --    0.72133   0.72931   0.75347   0.76440   0.77430
 Alpha virt. eigenvalues --    0.78241   0.80467   0.82316   0.84068   0.84898
 Alpha virt. eigenvalues --    0.85561   0.85996   0.87777   0.88220   0.89116
 Alpha virt. eigenvalues --    0.90556   0.91285   0.92357   0.94010   0.96738
 Alpha virt. eigenvalues --    0.96797   0.99253   1.01064   1.01313   1.02270
 Alpha virt. eigenvalues --    1.03393   1.05598   1.06462   1.07179   1.09038
 Alpha virt. eigenvalues --    1.09988   1.10850   1.11524   1.12675   1.16642
 Alpha virt. eigenvalues --    1.18698   1.20762   1.20865   1.21248   1.22340
 Alpha virt. eigenvalues --    1.24812   1.27621   1.29615   1.30233   1.34470
 Alpha virt. eigenvalues --    1.41035   1.41565   1.44170   1.46509   1.47489
 Alpha virt. eigenvalues --    1.48838   1.50259   1.52742   1.52879   1.54984
 Alpha virt. eigenvalues --    1.56032   1.56174   1.62062   1.62703   1.64386
 Alpha virt. eigenvalues --    1.64452   1.67239   1.70568   1.71333   1.72539
 Alpha virt. eigenvalues --    1.74012   1.74539   1.77903   1.78245   1.78772
 Alpha virt. eigenvalues --    1.84747   1.87206   1.88424   1.89606   1.90277
 Alpha virt. eigenvalues --    1.91395   1.92048   1.93110   1.94405   1.97390
 Alpha virt. eigenvalues --    1.98497   1.99579   2.01868   2.03386   2.05185
 Alpha virt. eigenvalues --    2.07182   2.07892   2.14140   2.16654   2.19652
 Alpha virt. eigenvalues --    2.24301   2.27071   2.29009   2.32342   2.36935
 Alpha virt. eigenvalues --    2.42094   2.43204   2.47898   2.53441   2.56343
 Alpha virt. eigenvalues --    2.58308   2.58637   2.62181   2.67782   2.68621
 Alpha virt. eigenvalues --    2.69292   2.70089   2.71402   2.72742   2.72782
 Alpha virt. eigenvalues --    2.73261   2.74995   2.75497   2.77499   2.80028
 Alpha virt. eigenvalues --    2.81566   2.81759   2.82250   2.83895   2.90380
 Alpha virt. eigenvalues --    2.92001   2.92349   2.99062   3.03922   3.05633
 Alpha virt. eigenvalues --    3.06893   3.08498   3.11025   3.16581   3.17546
 Alpha virt. eigenvalues --    3.18397   3.19779   3.21354   3.27896   3.29901
 Alpha virt. eigenvalues --    3.33518   3.34987   3.38652   3.44240   3.49697
 Alpha virt. eigenvalues --    3.50494   3.51710   3.57216   3.60699   3.64453
 Alpha virt. eigenvalues --    3.65757   3.73209   3.82390   3.91029   4.01912
 Alpha virt. eigenvalues --    4.03454   4.07720   4.11862   4.18013   4.21890
 Alpha virt. eigenvalues --    4.32485   4.69801   4.82323   4.98942   5.01523
 Alpha virt. eigenvalues --    5.03898   5.20808   5.25627   5.45620   5.70535
 Alpha virt. eigenvalues --    5.77815   5.79129  23.54370  23.73362  23.84339
 Alpha virt. eigenvalues --   23.88161  23.89237  23.92088  23.99456  24.06605
 Alpha virt. eigenvalues --   24.15838  24.21607  49.95998  49.99271  50.03676
  Beta  occ. eigenvalues --  -19.16992 -19.14927 -19.14094 -10.29500 -10.28967
  Beta  occ. eigenvalues --  -10.27273 -10.21773 -10.21662 -10.21532 -10.21196
  Beta  occ. eigenvalues --  -10.20629 -10.19972 -10.19913  -1.09841  -1.07334
  Beta  occ. eigenvalues --   -1.06965  -0.89395  -0.84632  -0.78599  -0.77701
  Beta  occ. eigenvalues --   -0.70921  -0.66539  -0.65499  -0.61128  -0.55060
  Beta  occ. eigenvalues --   -0.54692  -0.54125  -0.51397  -0.48726  -0.47207
  Beta  occ. eigenvalues --   -0.46968  -0.46759  -0.44202  -0.43585  -0.43265
  Beta  occ. eigenvalues --   -0.41952  -0.41147  -0.39746  -0.38350  -0.36318
  Beta  occ. eigenvalues --   -0.31635  -0.30031  -0.28872  -0.28476  -0.25638
  Beta virt. eigenvalues --   -0.13521  -0.05383  -0.04119  -0.00423   0.00623
  Beta virt. eigenvalues --    0.01003   0.02159   0.02203   0.02952   0.04327
  Beta virt. eigenvalues --    0.04368   0.05191   0.05313   0.06328   0.07223
  Beta virt. eigenvalues --    0.07302   0.08100   0.08940   0.09768   0.10296
  Beta virt. eigenvalues --    0.10626   0.10928   0.11113   0.12440   0.12561
  Beta virt. eigenvalues --    0.13210   0.13614   0.13790   0.14266   0.14276
  Beta virt. eigenvalues --    0.14804   0.15268   0.15326   0.15737   0.16011
  Beta virt. eigenvalues --    0.18016   0.18127   0.19098   0.19651   0.20072
  Beta virt. eigenvalues --    0.20475   0.20493   0.21209   0.21776   0.22328
  Beta virt. eigenvalues --    0.22984   0.23759   0.23967   0.25345   0.25679
  Beta virt. eigenvalues --    0.26738   0.26769   0.26863   0.27182   0.27467
  Beta virt. eigenvalues --    0.27791   0.29105   0.29363   0.29772   0.30334
  Beta virt. eigenvalues --    0.30778   0.31133   0.31305   0.32252   0.32869
  Beta virt. eigenvalues --    0.33088   0.34407   0.34952   0.36281   0.37260
  Beta virt. eigenvalues --    0.37533   0.38570   0.40063   0.40670   0.41974
  Beta virt. eigenvalues --    0.45380   0.46273   0.48748   0.50328   0.51140
  Beta virt. eigenvalues --    0.51677   0.52488   0.52794   0.54480   0.56729
  Beta virt. eigenvalues --    0.57690   0.58078   0.58525   0.59696   0.60632
  Beta virt. eigenvalues --    0.60647   0.61346   0.62472   0.62832   0.63131
  Beta virt. eigenvalues --    0.64449   0.65620   0.66979   0.67422   0.70818
  Beta virt. eigenvalues --    0.72133   0.72931   0.75347   0.76440   0.77430
  Beta virt. eigenvalues --    0.78241   0.80467   0.82316   0.84068   0.84898
  Beta virt. eigenvalues --    0.85561   0.85996   0.87777   0.88220   0.89116
  Beta virt. eigenvalues --    0.90556   0.91285   0.92357   0.94010   0.96738
  Beta virt. eigenvalues --    0.96797   0.99253   1.01064   1.01313   1.02270
  Beta virt. eigenvalues --    1.03393   1.05598   1.06462   1.07179   1.09038
  Beta virt. eigenvalues --    1.09988   1.10850   1.11524   1.12675   1.16642
  Beta virt. eigenvalues --    1.18698   1.20762   1.20865   1.21248   1.22340
  Beta virt. eigenvalues --    1.24812   1.27621   1.29615   1.30233   1.34470
  Beta virt. eigenvalues --    1.41035   1.41565   1.44170   1.46509   1.47489
  Beta virt. eigenvalues --    1.48838   1.50259   1.52742   1.52879   1.54984
  Beta virt. eigenvalues --    1.56032   1.56174   1.62062   1.62703   1.64386
  Beta virt. eigenvalues --    1.64452   1.67239   1.70568   1.71333   1.72539
  Beta virt. eigenvalues --    1.74012   1.74539   1.77903   1.78245   1.78772
  Beta virt. eigenvalues --    1.84747   1.87206   1.88424   1.89606   1.90277
  Beta virt. eigenvalues --    1.91395   1.92048   1.93110   1.94405   1.97390
  Beta virt. eigenvalues --    1.98497   1.99579   2.01868   2.03386   2.05185
  Beta virt. eigenvalues --    2.07182   2.07892   2.14140   2.16654   2.19652
  Beta virt. eigenvalues --    2.24301   2.27071   2.29009   2.32342   2.36935
  Beta virt. eigenvalues --    2.42094   2.43204   2.47898   2.53441   2.56343
  Beta virt. eigenvalues --    2.58308   2.58637   2.62181   2.67782   2.68621
  Beta virt. eigenvalues --    2.69292   2.70089   2.71402   2.72742   2.72782
  Beta virt. eigenvalues --    2.73261   2.74995   2.75497   2.77499   2.80028
  Beta virt. eigenvalues --    2.81566   2.81759   2.82250   2.83895   2.90380
  Beta virt. eigenvalues --    2.92001   2.92349   2.99062   3.03922   3.05633
  Beta virt. eigenvalues --    3.06893   3.08498   3.11025   3.16581   3.17546
  Beta virt. eigenvalues --    3.18397   3.19779   3.21354   3.27896   3.29901
  Beta virt. eigenvalues --    3.33518   3.34987   3.38652   3.44240   3.49697
  Beta virt. eigenvalues --    3.50494   3.51710   3.57216   3.60699   3.64453
  Beta virt. eigenvalues --    3.65757   3.73209   3.82390   3.91029   4.01912
  Beta virt. eigenvalues --    4.03454   4.07720   4.11862   4.18013   4.21890
  Beta virt. eigenvalues --    4.32485   4.69801   4.82323   4.98942   5.01523
  Beta virt. eigenvalues --    5.03898   5.20808   5.25627   5.45620   5.70535
  Beta virt. eigenvalues --    5.77815   5.79129  23.54370  23.73362  23.84339
  Beta virt. eigenvalues --   23.88161  23.89237  23.92088  23.99456  24.06605
  Beta virt. eigenvalues --   24.15838  24.21607  49.95998  49.99271  50.03676
          Condensed to atoms (all electrons):
               1          2          3          4          5          6
     1  O    8.093455   0.286731  -0.582556   0.027591  -0.002518  -0.006534
     2  C    0.286731  13.429313   0.123879  -0.671363   1.729980  -2.532631
     3  C   -0.582556   0.123879  13.677627  -0.506163  -1.216066   1.452317
     4  C    0.027591  -0.671363  -0.506163   6.558874   0.664979  -0.902347
     5  C   -0.002518   1.729980  -1.216066   0.664979   8.681300  -1.906337
     6  C   -0.006534  -2.532631   1.452317  -0.902347  -1.906337  12.344177
     7  C   -0.008195   0.818605   1.158446  -0.431758  -1.034924  -2.200210
     8  O    0.000024  -0.005031  -0.008884   0.042153   0.098768  -0.162117
     9  C    0.004065  -0.174470   0.054275  -0.168700  -0.337789  -1.391724
    10  C   -0.004005  -2.410696  -1.463105   0.266173   0.463893   1.259087
    11  C   -0.077987  -0.581966  -2.618296   0.381601   0.446669  -1.761456
    12  O    0.012213  -0.261538  -0.109757  -0.001859   0.009562   0.004584
    13  C    0.322688  -3.525566  -4.521238   0.751459  -1.839785   1.290326
    14  H    0.270502   0.012715   0.116457  -0.002950  -0.009839  -0.000403
    15  H   -0.029231  -0.159158   0.709679  -0.053848  -0.007544   0.040470
    16  H    0.001628   0.047311  -0.202943   0.469261  -0.030844  -0.060918
    17  H   -0.000169   0.000376   0.024946  -0.097555   0.331613   0.104366
    18  H    0.000084  -0.010322   0.005559   0.000811  -0.018229  -0.041160
    19  H    0.000013  -0.052846  -0.016892   0.002723  -0.000217   0.046988
               7          8          9         10         11         12
     1  O   -0.008195   0.000024   0.004065  -0.004005  -0.077987   0.012213
     2  C    0.818605  -0.005031  -0.174470  -2.410696  -0.581966  -0.261538
     3  C    1.158446  -0.008884   0.054275  -1.463105  -2.618296  -0.109757
     4  C   -0.431758   0.042153  -0.168700   0.266173   0.381601  -0.001859
     5  C   -1.034924   0.098768  -0.337789   0.463893   0.446669   0.009562
     6  C   -2.200210  -0.162117  -1.391724   1.259087  -1.761456   0.004584
     7  C   10.427831   0.496690  -0.098957  -1.640821   0.853427  -0.053232
     8  O    0.496690   8.183556  -0.284015   0.008919  -0.026587   0.000532
     9  C   -0.098957  -0.284015   7.947974   0.758796  -1.033918   0.014507
    10  C   -1.640821   0.008919   0.758796  11.088313   0.296164  -0.251148
    11  C    0.853427  -0.026587  -1.033918   0.296164  12.030909   0.520496
    12  O   -0.053232   0.000532   0.014507  -0.251148   0.520496   8.217528
    13  C   -1.754917  -0.037242   0.270677  -2.760197  -1.791947   0.196486
    14  H   -0.002255  -0.000227   0.006963  -0.003815  -0.073849   0.061762
    15  H    0.000933  -0.000042  -0.000097  -0.009936  -0.037091  -0.000053
    16  H   -0.007625   0.001607   0.006008   0.007964   0.009200   0.000213
    17  H   -0.057584   0.000712  -0.006106   0.003535  -0.016729  -0.000119
    18  H   -0.066971  -0.014411   0.449421  -0.063722   0.038612   0.001745
    19  H    0.013526   0.001783   0.001721   0.583293  -0.141624  -0.018076
              13         14         15         16         17         18
     1  O    0.322688   0.270502  -0.029231   0.001628  -0.000169   0.000084
     2  C   -3.525566   0.012715  -0.159158   0.047311   0.000376  -0.010322
     3  C   -4.521238   0.116457   0.709679  -0.202943   0.024946   0.005559
     4  C    0.751459  -0.002950  -0.053848   0.469261  -0.097555   0.000811
     5  C   -1.839785  -0.009839  -0.007544  -0.030844   0.331613  -0.018229
     6  C    1.290326  -0.000403   0.040470  -0.060918   0.104366  -0.041160
     7  C   -1.754917  -0.002255   0.000933  -0.007625  -0.057584  -0.066971
     8  O   -0.037242  -0.000227  -0.000042   0.001607   0.000712  -0.014411
     9  C    0.270677   0.006963  -0.000097   0.006008  -0.006106   0.449421
    10  C   -2.760197  -0.003815  -0.009936   0.007964   0.003535  -0.063722
    11  C   -1.791947  -0.073849  -0.037091   0.009200  -0.016729   0.038612
    12  O    0.196486   0.061762  -0.000053   0.000213  -0.000119   0.001745
    13  C   19.023355  -0.071378  -0.147718   0.077512   0.050655   0.035107
    14  H   -0.071378   0.347489   0.001793  -0.000320   0.000525   0.000339
    15  H   -0.147718   0.001793   0.490525  -0.019443   0.001668  -0.000015
    16  H    0.077512  -0.000320  -0.019443   0.496398  -0.015793  -0.000011
    17  H    0.050655   0.000525   0.001668  -0.015793   0.491482  -0.000578
    18  H    0.035107   0.000339  -0.000015  -0.000011  -0.000578   0.461761
    19  H   -0.109424  -0.000664  -0.000168   0.000015   0.000222  -0.016481
              19
     1  O    0.000013
     2  C   -0.052846
     3  C   -0.016892
     4  C    0.002723
     5  C   -0.000217
     6  C    0.046988
     7  C    0.013526
     8  O    0.001783
     9  C    0.001721
    10  C    0.583293
    11  C   -0.141624
    12  O   -0.018076
    13  C   -0.109424
    14  H   -0.000664
    15  H   -0.000168
    16  H    0.000015
    17  H    0.000222
    18  H   -0.016481
    19  H    0.465828
          Atomic-Atomic Spin Densities.
               1          2          3          4          5          6
     1  O   -0.000000   0.000000   0.000000  -0.000000   0.000000   0.000000
     2  C    0.000000  -0.000000  -0.000000   0.000000   0.000000   0.000000
     3  C    0.000000  -0.000000  -0.000000   0.000000  -0.000000  -0.000000
     4  C   -0.000000   0.000000   0.000000  -0.000000  -0.000000   0.000000
     5  C    0.000000   0.000000  -0.000000  -0.000000  -0.000000  -0.000000
     6  C    0.000000   0.000000  -0.000000   0.000000  -0.000000  -0.000000
     7  C    0.000000  -0.000000  -0.000000   0.000000   0.000000   0.000000
     8  O   -0.000000   0.000000   0.000000  -0.000000  -0.000000  -0.000000
     9  C    0.000000  -0.000000  -0.000000   0.000000   0.000000   0.000000
    10  C   -0.000000   0.000000   0.000000  -0.000000  -0.000000  -0.000000
    11  C   -0.000000   0.000000   0.000000  -0.000000  -0.000000   0.000000
    12  O   -0.000000   0.000000   0.000000  -0.000000   0.000000   0.000000
    13  C   -0.000000  -0.000000   0.000000  -0.000000   0.000000   0.000000
    14  H    0.000000  -0.000000  -0.000000   0.000000   0.000000  -0.000000
    15  H    0.000000   0.000000  -0.000000   0.000000  -0.000000  -0.000000
    16  H   -0.000000  -0.000000   0.000000  -0.000000   0.000000   0.000000
    17  H    0.000000  -0.000000  -0.000000   0.000000  -0.000000  -0.000000
    18  H    0.000000  -0.000000  -0.000000   0.000000   0.000000   0.000000
    19  H   -0.000000   0.000000   0.000000  -0.000000  -0.000000  -0.000000
               7          8          9         10         11         12
     1  O    0.000000  -0.000000   0.000000  -0.000000  -0.000000  -0.000000
     2  C   -0.000000   0.000000  -0.000000   0.000000   0.000000   0.000000
     3  C   -0.000000   0.000000  -0.000000   0.000000   0.000000   0.000000
     4  C    0.000000  -0.000000   0.000000  -0.000000  -0.000000  -0.000000
     5  C    0.000000  -0.000000   0.000000  -0.000000  -0.000000   0.000000
     6  C    0.000000  -0.000000   0.000000  -0.000000   0.000000   0.000000
     7  C   -0.000000   0.000000  -0.000000   0.000000   0.000000   0.000000
     8  O    0.000000  -0.000000   0.000000  -0.000000  -0.000000   0.000000
     9  C   -0.000000   0.000000  -0.000000   0.000000   0.000000   0.000000
    10  C    0.000000  -0.000000   0.000000  -0.000000  -0.000000   0.000000
    11  C    0.000000  -0.000000   0.000000  -0.000000  -0.000000  -0.000000
    12  O    0.000000   0.000000   0.000000   0.000000  -0.000000   0.000000
    13  C    0.000000   0.000000   0.000000   0.000000  -0.000000  -0.000000
    14  H    0.000000   0.000000   0.000000   0.000000   0.000000  -0.000000
    15  H   -0.000000   0.000000  -0.000000   0.000000   0.000000   0.000000
    16  H    0.000000  -0.000000   0.000000  -0.000000  -0.000000  -0.000000
    17  H    0.000000   0.000000   0.000000   0.000000   0.000000  -0.000000
    18  H   -0.000000   0.000000  -0.000000   0.000000  -0.000000  -0.000000
    19  H    0.000000  -0.000000  -0.000000  -0.000000   0.000000   0.000000
              13         14         15         16         17         18
     1  O   -0.000000   0.000000   0.000000  -0.000000   0.000000   0.000000
     2  C   -0.000000  -0.000000   0.000000  -0.000000  -0.000000  -0.000000
     3  C    0.000000  -0.000000  -0.000000   0.000000  -0.000000  -0.000000
     4  C   -0.000000   0.000000   0.000000  -0.000000   0.000000   0.000000
     5  C    0.000000   0.000000  -0.000000   0.000000  -0.000000   0.000000
     6  C    0.000000  -0.000000  -0.000000   0.000000  -0.000000   0.000000
     7  C    0.000000   0.000000  -0.000000   0.000000   0.000000  -0.000000
     8  O    0.000000   0.000000   0.000000  -0.000000   0.000000   0.000000
     9  C    0.000000   0.000000  -0.000000   0.000000   0.000000  -0.000000
    10  C    0.000000   0.000000   0.000000  -0.000000   0.000000   0.000000
    11  C   -0.000000   0.000000   0.000000  -0.000000   0.000000  -0.000000
    12  O   -0.000000  -0.000000   0.000000  -0.000000  -0.000000  -0.000000
    13  C   -0.000000   0.000000   0.000000  -0.000000  -0.000000  -0.000000
    14  H    0.000000   0.000000  -0.000000   0.000000  -0.000000  -0.000000
    15  H    0.000000  -0.000000  -0.000000   0.000000  -0.000000  -0.000000
    16  H   -0.000000   0.000000   0.000000  -0.000000   0.000000   0.000000
    17  H   -0.000000  -0.000000  -0.000000   0.000000  -0.000000   0.000000
    18  H   -0.000000  -0.000000  -0.000000   0.000000   0.000000   0.000000
    19  H    0.000000   0.000000   0.000000  -0.000000  -0.000000   0.000000
              19
     1  O   -0.000000
     2  C    0.000000
     3  C    0.000000
     4  C   -0.000000
     5  C   -0.000000
     6  C   -0.000000
     7  C    0.000000
     8  O   -0.000000
     9  C   -0.000000
    10  C   -0.000000
    11  C    0.000000
    12  O    0.000000
    13  C    0.000000
    14  H    0.000000
    15  H    0.000000
    16  H   -0.000000
    17  H   -0.000000
    18  H    0.000000
    19  H   -0.000000
 Mulliken charges and spin densities:
               1          2
     1  O   -0.307799  -0.000000
     2  C   -0.063321   0.000000
     3  C   -0.077287   0.000000
     4  C   -0.329082   0.000000
     5  C   -0.022673  -0.000000
     6  C    0.423522  -0.000000
     7  C   -0.412008   0.000000
     8  O   -0.296187   0.000000
     9  C   -0.018631   0.000000
    10  C   -0.128692  -0.000000
    11  C   -0.415627  -0.000000
    12  O   -0.343846   0.000000
    13  C    0.541147   0.000000
    14  H    0.347154   0.000000
    15  H    0.219278  -0.000000
    16  H    0.220781   0.000000
    17  H    0.184532   0.000000
    18  H    0.238459   0.000000
    19  H    0.240281   0.000000
 Sum of Mulliken charges =  -0.00000   0.00000
 Mulliken charges and spin densities with hydrogens summed into heavy atoms:
               1          2
     1  O    0.039355  -0.000000
     2  C   -0.063321   0.000000
     3  C    0.141991   0.000000
     4  C   -0.108301   0.000000
     5  C    0.161859  -0.000000
     6  C    0.423522  -0.000000
     7  C   -0.412008   0.000000
     8  O   -0.296187   0.000000
     9  C    0.219828   0.000000
    10  C    0.111589  -0.000000
    11  C   -0.415627  -0.000000
    12  O   -0.343846   0.000000
    13  C    0.541147   0.000000
 Electronic spatial extent (au):  <R**2>=           2062.6843
 Charge=             -0.0000 electrons
 Dipole moment (field-independent basis, Debye):
    X=              0.1479    Y=             -0.5996    Z=              0.0004  Tot=              0.6176
 Quadrupole moment (field-independent basis, Debye-Ang):
   XX=            -78.1112   YY=            -74.3525   ZZ=            -75.4120
   XY=            -17.1326   XZ=             -0.0013   YZ=             -0.0009
 Traceless Quadrupole moment (field-independent basis, Debye-Ang):
   XX=             -2.1526   YY=              1.6061   ZZ=              0.5466
   XY=            -17.1326   XZ=             -0.0013   YZ=             -0.0009
 Octapole moment (field-independent basis, Debye-Ang**2):
  XXX=             10.0438  YYY=            -24.0176  ZZZ=             -0.0020  XYY=             11.2033
  XXY=             21.5616  XXZ=              0.0040  XZZ=             -0.8803  YZZ=              5.6003
  YYZ=              0.0022  XYZ=             -0.0011
 Hexadecapole moment (field-independent basis, Debye-Ang**3):
 XXXX=          -1511.4299 YYYY=          -1156.0466 ZZZZ=            -80.6144 XXXY=           -129.8052
 XXXZ=             -0.0088 YYYX=            -55.4419 YYYZ=             -0.0051 ZZZX=             -0.0003
 ZZZY=              0.0000 XXYY=           -428.1620 XXZZ=           -266.1843 YYZZ=           -218.7146
 XXYZ=             -0.0068 YYXZ=             -0.0078 ZZXY=             16.2719
 N-N= 7.339994902252D+02 E-N=-2.893537380926D+03  KE= 6.081589277677D+02
                          Isotropic Fermi Contact Couplings
        Atom                 a.u.       MegaHertz       Gauss      10(-4) cm-1
     1  O(17)              0.00000      -0.00000      -0.00000      -0.00000
     2  C(13)              0.00000       0.00000       0.00000       0.00000
     3  C(13)             -0.00000      -0.00000      -0.00000      -0.00000
     4  C(13)             -0.00000      -0.00000      -0.00000      -0.00000
     5  C(13)              0.00000       0.00000       0.00000       0.00000
     6  C(13)             -0.00000      -0.00000      -0.00000      -0.00000
     7  C(13)             -0.00000      -0.00000      -0.00000      -0.00000
     8  O(17)              0.00000      -0.00000      -0.00000      -0.00000
     9  C(13)             -0.00000      -0.00000      -0.00000      -0.00000
    10  C(13)              0.00000       0.00000       0.00000       0.00000
    11  C(13)              0.00000       0.00000       0.00000       0.00000
    12  O(17)             -0.00000       0.00000       0.00000       0.00000
    13  C(13)             -0.00000      -0.00000      -0.00000      -0.00000
    14  H(1)               0.00000       0.00000       0.00000       0.00000
    15  H(1)               0.00000       0.00000       0.00000       0.00000
    16  H(1)              -0.00000      -0.00000      -0.00000      -0.00000
    17  H(1)              -0.00000      -0.00000      -0.00000      -0.00000
    18  H(1)               0.00000       0.00000       0.00000       0.00000
    19  H(1)               0.00000       0.00000       0.00000       0.00000
 --------------------------------------------------------
       Center         ----  Spin Dipole Couplings  ----
                      3XX-RR        3YY-RR        3ZZ-RR
 --------------------------------------------------------
     1   Atom        0.000000     -0.000000      0.000000
     2   Atom        0.000000     -0.000000      0.000000
     3   Atom       -0.000000     -0.000000      0.000000
     4   Atom        0.000000     -0.000000      0.000000
     5   Atom       -0.000000      0.000000      0.000000
     6   Atom       -0.000000     -0.000000      0.000000
     7   Atom       -0.000000      0.000000      0.000000
     8   Atom        0.000000     -0.000000     -0.000000
     9   Atom        0.000000     -0.000000      0.000000
    10   Atom       -0.000000     -0.000000      0.000000
    11   Atom        0.000000     -0.000000      0.000000
    12   Atom       -0.000000      0.000000      0.000000
    13   Atom       -0.000000      0.000000      0.000000
    14   Atom       -0.000000      0.000000      0.000000
    15   Atom        0.000000     -0.000000      0.000000
    16   Atom        0.000000     -0.000000     -0.000000
    17   Atom        0.000000     -0.000000     -0.000000
    18   Atom        0.000000     -0.000000      0.000000
    19   Atom       -0.000000      0.000000     -0.000000
 --------------------------------------------------------
                        XY            XZ            YZ
 --------------------------------------------------------
     1   Atom        0.000000      0.000000      0.000000
     2   Atom        0.000000     -0.000000      0.000000
     3   Atom       -0.000000     -0.000000     -0.000000
     4   Atom        0.000000      0.000000      0.000000
     5   Atom       -0.000000      0.000000     -0.000000
     6   Atom        0.000000     -0.000000      0.000000
     7   Atom        0.000000      0.000000     -0.000000
     8   Atom       -0.000000      0.000000      0.000000
     9   Atom        0.000000     -0.000000     -0.000000
    10   Atom        0.000000      0.000000      0.000000
    11   Atom       -0.000000      0.000000     -0.000000
    12   Atom        0.000000      0.000000      0.000000
    13   Atom       -0.000000      0.000000     -0.000000
    14   Atom       -0.000000     -0.000000      0.000000
    15   Atom        0.000000     -0.000000     -0.000000
    16   Atom        0.000000     -0.000000      0.000000
    17   Atom       -0.000000     -0.000000     -0.000000
    18   Atom       -0.000000     -0.000000     -0.000000
    19   Atom       -0.000000     -0.000000      0.000000
 --------------------------------------------------------


 ---------------------------------------------------------------------------------
              Anisotropic Spin Dipole Couplings in Principal Axis System
 ---------------------------------------------------------------------------------

       Atom             a.u.   MegaHertz   Gauss  10(-4) cm-1        Axes

              Baa    -0.0000     0.000     0.000     0.000 -0.5053  0.8630  0.0002
     1 O(17)  Bbb     0.0000    -0.000    -0.000    -0.000 -0.0110 -0.0067  0.9999
              Bcc     0.0000    -0.000    -0.000    -0.000  0.8629  0.5052  0.0128
 
              Baa    -0.0000    -0.000    -0.000    -0.000 -0.3935  0.9193 -0.0101
     2 C(13)  Bbb     0.0000     0.000     0.000     0.000  0.0068  0.0139  0.9999
              Bcc     0.0000     0.000     0.000     0.000  0.9193  0.3934 -0.0118
 
              Baa    -0.0000    -0.000    -0.000    -0.000  0.8207  0.5713  0.0060
     3 C(13)  Bbb     0.0000     0.000     0.000     0.000 -0.5713  0.8205  0.0199
              Bcc     0.0000     0.000     0.000     0.000  0.0064 -0.0198  0.9998
 
              Baa    -0.0000    -0.000    -0.000    -0.000 -0.1107  0.9938 -0.0075
     4 C(13)  Bbb     0.0000     0.000     0.000     0.000 -0.0186  0.0054  0.9998
              Bcc     0.0000     0.000     0.000     0.000  0.9937  0.1108  0.0179
 
              Baa    -0.0000    -0.000    -0.000    -0.000  0.8227  0.5685  0.0027
     5 C(13)  Bbb     0.0000     0.000     0.000     0.000 -0.0057  0.0035  1.0000
              Bcc     0.0000     0.000     0.000     0.000 -0.5684  0.8227 -0.0061
 
              Baa    -0.0000    -0.000    -0.000    -0.000 -0.5873  0.8094 -0.0049
     6 C(13)  Bbb     0.0000     0.000     0.000     0.000  0.8021  0.5827  0.1308
              Bcc     0.0000     0.000     0.000     0.000 -0.1087 -0.0729  0.9914
 
              Baa    -0.0000    -0.000    -0.000    -0.000  0.9356 -0.3531 -0.0014
     7 C(13)  Bbb     0.0000     0.000     0.000     0.000  0.0044  0.0077  1.0000
              Bcc     0.0000     0.000     0.000     0.000  0.3530  0.9356 -0.0088
 
              Baa    -0.0000     0.000     0.000     0.000  0.2976  0.9541 -0.0331
     8 O(17)  Bbb    -0.0000     0.000     0.000     0.000  0.0038  0.0335  0.9994
              Bcc     0.0000    -0.000    -0.000    -0.000  0.9547 -0.2976  0.0063
 
              Baa    -0.0000    -0.000    -0.000    -0.000 -0.2533  0.9674  0.0073
     9 C(13)  Bbb     0.0000     0.000     0.000     0.000  0.0108 -0.0048  0.9999
              Bcc     0.0000     0.000     0.000     0.000  0.9673  0.2534 -0.0092
 
              Baa    -0.0000    -0.000    -0.000    -0.000 -0.5435  0.8394 -0.0001
    10 C(13)  Bbb     0.0000     0.000     0.000     0.000  0.8393  0.5435 -0.0120
              Bcc     0.0000     0.000     0.000     0.000  0.0100  0.0066  0.9999
 
              Baa    -0.0000    -0.000    -0.000    -0.000  0.1131  0.9936  0.0007
    11 C(13)  Bbb     0.0000     0.000     0.000     0.000  0.9932 -0.1130 -0.0293
              Bcc     0.0000     0.000     0.000     0.000  0.0290 -0.0040  0.9996
 
              Baa    -0.0000     0.000     0.000     0.000  0.9040 -0.4276 -0.0010
    12 O(17)  Bbb     0.0000    -0.000    -0.000    -0.000 -0.0009 -0.0044  1.0000
              Bcc     0.0000    -0.000    -0.000    -0.000  0.4276  0.9040  0.0044
 
              Baa    -0.0000    -0.000    -0.000    -0.000  0.9984  0.0558 -0.0020
    13 C(13)  Bbb     0.0000     0.000     0.000     0.000 -0.0557  0.9981  0.0270
              Bcc     0.0000     0.000     0.000     0.000  0.0035 -0.0268  0.9996
 
              Baa    -0.0000    -0.000    -0.000    -0.000  0.9167  0.3996 -0.0018
    14 H(1)   Bbb     0.0000     0.000     0.000     0.000  0.0068 -0.0110  0.9999
              Bcc     0.0000     0.000     0.000     0.000 -0.3996  0.9166  0.0128
 
              Baa    -0.0000    -0.000    -0.000    -0.000 -0.3647  0.9311 -0.0033
    15 H(1)   Bbb     0.0000     0.000     0.000     0.000  0.0251  0.0134  0.9996
              Bcc     0.0000     0.000     0.000     0.000  0.9308  0.3644 -0.0283
 
              Baa    -0.0000    -0.000    -0.000    -0.000 -0.3928  0.9194 -0.0173
    16 H(1)   Bbb    -0.0000    -0.000    -0.000    -0.000 -0.0079  0.0154  0.9998
              Bcc     0.0000     0.000     0.000     0.000  0.9196  0.3929  0.0012
 
              Baa    -0.0000    -0.000    -0.000    -0.000  0.0423  0.9991  0.0075
    17 H(1)   Bbb    -0.0000    -0.000    -0.000    -0.000  0.0047 -0.0077  1.0000
              Bcc     0.0000     0.000     0.000     0.000  0.9991 -0.0423 -0.0050
 
              Baa    -0.0000    -0.000    -0.000    -0.000  0.2709  0.9623  0.0252
    18 H(1)   Bbb     0.0000     0.000     0.000     0.000  0.0167 -0.0308  0.9994
              Bcc     0.0000     0.000     0.000     0.000  0.9625 -0.2703 -0.0244
 
              Baa    -0.0000    -0.000    -0.000    -0.000  0.9839  0.1788  0.0021
    19 H(1)   Bbb    -0.0000    -0.000    -0.000    -0.000 -0.0001 -0.0110  0.9999
              Bcc     0.0000     0.000     0.000     0.000 -0.1788  0.9838  0.0108
 

 ---------------------------------------------------------------------------------

 No NMR shielding tensors so no spin-rotation constants.
 Leave Link  601 at Sun Jan 21 08:07:42 2024, MaxMem=  4026531840 cpu:               2.2 elap:               0.3
 (Enter /sysapps/ubuntu-applications/gaussian/Gaussian/AVX2/g16/l9999.exe)
 1\1\GINC-ACIDSGN003\SP\UB3LYP\6-311++G(d,p)\C10H6O3\SELHAJJ1\21-Jan-20
 24\0\\#P UB3LYP/6-311++G(d,p) SCRF=(PCM,Solvent=n,n-DiMethylFormamide)
 \\Quinone PCM in DMF\\0,1\O,0,2.350149,1.629546,0.351976\C,0,1.664744,
 0.487757,0.221054\C,0,2.380723,-0.721053,0.255893\C,0,1.71564,-1.92737
 2,0.124565\C,0,0.325577,-1.970779,-0.044631\C,0,-0.39601,-0.7871,-0.08
 1179\C,0,-1.877845,-0.833803,-0.26152\O,0,-2.490177,-1.882396,-0.37992
 4\C,0,-2.599712,0.462627,-0.293148\C,0,-1.963333,1.634906,-0.166609\C,
 0,-0.49846,1.711893,0.012861\O,0,0.047222,2.818077,0.1255\C,0,0.261261
 ,0.460243,0.051012\H,0,1.702957,2.372287,0.305545\H,0,3.454965,-0.6760
 27,0.387088\H,0,2.280718,-2.85212,0.15329\H,0,-0.200778,-2.910855,-0.1
 47954\H,0,-3.674169,0.397896,-0.425173\H,0,-2.483473,2.586274,-0.18864
 4\\Version=ES64L-G16RevA.03\State=1-A\HF=-610.5264528\S2=0.\S2-1=0.\S2
 A=0.\RMSD=7.291e-09\Dipole=0.0977826,-0.2224359,0.0024608\Quadrupole=2
 .830748,-3.1390632,0.3083152,-12.353329,-0.2345088,-1.6382508\PG=C01 [
 X(C10H6O3)]\\@


 A SOLDIER'S LIFE IS A LIFE OF HONOR, BUT A DOG WOULD NOT LEAD IT.
 -- PRINCE RUPERT, FOUNDER OF THE HUDSON'S BAY COMPANY
 Job cpu time:       0 days  0 hours 13 minutes 54.4 seconds.
 Elapsed time:       0 days  0 hours  1 minutes 47.6 seconds.
 File lengths (MBytes):  RWF=    157 Int=      0 D2E=      0 Chk=      9 Scr=      1
 Normal termination of Gaussian 16 at Sun Jan 21 08:07:42 2024.
