 Entering Gaussian System, Link 0=g16
 Input=000-rad.com
 Output=000-rad.log
 Initial command:
 /sysapps/ubuntu-applications/gaussian/Gaussian/AVX2/g16/l1.exe "/scratch/selhajj1/4217055/Gau-1080124.inp" -scrdir="/scratch/selhajj1/4217055/"
 Entering Link 1 = /sysapps/ubuntu-applications/gaussian/Gaussian/AVX2/g16/l1.exe PID=   1080126.
  
 Copyright (c) 1988,1990,1992,1993,1995,1998,2003,2009,2016,
            Gaussian, Inc.  All Rights Reserved.
  
 This is part of the Gaussian(R) 16 program.  It is based on
 the Gaussian(R) 09 system (copyright 2009, Gaussian, Inc.),
 the Gaussian(R) 03 system (copyright 2003, Gaussian, Inc.),
 the Gaussian(R) 98 system (copyright 1998, Gaussian, Inc.),
 the Gaussian(R) 94 system (copyright 1995, Gaussian, Inc.),
 the Gaussian 92(TM) system (copyright 1992, Gaussian, Inc.),
 the Gaussian 90(TM) system (copyright 1990, Gaussian, Inc.),
 the Gaussian 88(TM) system (copyright 1988, Gaussian, Inc.),
 the Gaussian 86(TM) system (copyright 1986, Carnegie Mellon
 University), and the Gaussian 82(TM) system (copyright 1983,
 Carnegie Mellon University). Gaussian is a federally registered
 trademark of Gaussian, Inc.
  
 This software contains proprietary and confidential information,
 including trade secrets, belonging to Gaussian, Inc.
  
 This software is provided under written license and may be
 used, copied, transmitted, or stored only in accord with that
 written license.
  
 The following legend is applicable only to US Government
 contracts under FAR:
  
                    RESTRICTED RIGHTS LEGEND
  
 Use, reproduction and disclosure by the US Government is
 subject to restrictions as set forth in subparagraphs (a)
 and (c) of the Commercial Computer Software - Restricted
 Rights clause in FAR 52.227-19.
  
 Gaussian, Inc.
 340 Quinnipiac St., Bldg. 40, Wallingford CT 06492
  
  
 ---------------------------------------------------------------
 Warning -- This program may not be used in any manner that
 competes with the business of Gaussian, Inc. or will provide
 assistance to any competitor of Gaussian, Inc.  The licensee
 of this program is prohibited from giving any competitor of
 Gaussian, Inc. access to this program.  By using this program,
 the user acknowledges that Gaussian, Inc. is engaged in the
 business of creating and licensing software in the field of
 computational chemistry and represents and warrants to the
 licensee that it is not a competitor of Gaussian, Inc. and that
 it will not use this program in any manner prohibited above.
 ---------------------------------------------------------------
  

 Cite this work as:
 Gaussian 16, Revision A.03,
 M. J. Frisch, G. W. Trucks, H. B. Schlegel, G. E. Scuseria, 
 M. A. Robb, J. R. Cheeseman, G. Scalmani, V. Barone, 
 G. A. Petersson, H. Nakatsuji, X. Li, M. Caricato, A. V. Marenich, 
 J. Bloino, B. G. Janesko, R. Gomperts, B. Mennucci, H. P. Hratchian, 
 J. V. Ortiz, A. F. Izmaylov, J. L. Sonnenberg, D. Williams-Young, 
 F. Ding, F. Lipparini, F. Egidi, J. Goings, B. Peng, A. Petrone, 
 T. Henderson, D. Ranasinghe, V. G. Zakrzewski, J. Gao, N. Rega, 
 G. Zheng, W. Liang, M. Hada, M. Ehara, K. Toyota, R. Fukuda, 
 J. Hasegawa, M. Ishida, T. Nakajima, Y. Honda, O. Kitao, H. Nakai, 
 T. Vreven, K. Throssell, J. A. Montgomery, Jr., J. E. Peralta, 
 F. Ogliaro, M. J. Bearpark, J. J. Heyd, E. N. Brothers, K. N. Kudin, 
 V. N. Staroverov, T. A. Keith, R. Kobayashi, J. Normand, 
 K. Raghavachari, A. P. Rendell, J. C. Burant, S. S. Iyengar, 
 J. Tomasi, M. Cossi, J. M. Millam, M. Klene, C. Adamo, R. Cammi, 
 J. W. Ochterski, R. L. Martin, K. Morokuma, O. Farkas, 
 J. B. Foresman, and D. J. Fox, Gaussian, Inc., Wallingford CT, 2016.
 
 ******************************************
 Gaussian 16:  ES64L-G16RevA.03 25-Dec-2016
                17-Dec-2023 
 ******************************************
 %chk=000-rad.chk
 %nproc=8
 Will use up to    8 processors via shared memory.
 %mem=30GB
 --------------------------------------
 #P UB3LYP/6-311++G(d,p) nosym opt freq
 --------------------------------------
 1/18=20,19=15,26=3,38=1/1,3;
 2/9=110,12=2,15=1,17=6,18=5,40=1/2;
 3/5=4,6=6,7=1111,11=2,25=1,30=1,71=1,74=-5,116=2/1,2,3;
 4//1;
 5/5=2,38=5/2;
 6/7=2,8=2,9=2,10=2,28=1/1;
 7/30=1/1,2,3,16;
 1/18=20,19=15,26=3/3(2);
 2/9=110,15=1/2;
 99//99;
 2/9=110,15=1/2;
 3/5=4,6=6,7=1111,11=2,25=1,30=1,71=1,74=-5,116=2/1,2,3;
 4/5=5,16=3,69=1/1;
 5/5=2,38=5/2;
 7/30=1/1,2,3,16;
 1/18=20,19=15,26=3/3(-5);
 2/9=110,15=1/2;
 6/7=2,8=2,9=2,10=2,19=2,28=1/1;
 99/9=1/99;
 Leave Link    1 at Sun Dec 17 20:48:51 2023, MaxMem=  4026531840 cpu:               0.7 elap:               0.1
 (Enter /sysapps/ubuntu-applications/gaussian/Gaussian/AVX2/g16/l101.exe)
 -------
 Radical
 -------
 Symbolic Z-matrix:
 Charge = -1 Multiplicity = 2
 C                    -0.3233    1.12465  -0.25237 
 C                    -1.43285   0.27709  -0.77514 
 C                    -1.36423  -1.05855  -0.69534 
 C                    -0.18822  -1.69857  -0.07406 
 C                     0.92775  -0.8656    0.43471 
 C                     0.88749   0.47628   0.34365 
 O                    -0.41264   2.34084  -0.3205 
 O                    -0.12658  -2.91475  -0.00045 
 C                     2.03481   1.2416    0.81262 
 N                     2.96365   1.82154   1.19502 
 H                    -2.30929   0.72801  -1.23227 
 H                    -2.17354  -1.67244  -1.08828 
 H                     1.79007  -1.35943   0.87145 
 
 ITRead=  0  0  0  0  0  0  0  0  0  0  0  0  0
 MicOpt= -1 -1 -1 -1 -1 -1 -1 -1 -1 -1 -1 -1 -1
 NAtoms=     13 NQM=       13 NQMF=       0 NMMI=      0 NMMIF=      0
                NMic=       0 NMicF=      0.
                    Isotopes and Nuclear Properties:
 (Nuclear quadrupole moments (NQMom) in fm**2, nuclear magnetic moments (NMagM)
  in nuclear magnetons)

  Atom         1           2           3           4           5           6           7           8           9          10
 IAtWgt=          12          12          12          12          12          12          16          16          12          14
 AtmWgt=  12.0000000  12.0000000  12.0000000  12.0000000  12.0000000  12.0000000  15.9949146  15.9949146  12.0000000  14.0030740
 NucSpn=           0           0           0           0           0           0           0           0           0           2
 AtZEff=  -0.0000000  -0.0000000  -0.0000000  -0.0000000  -0.0000000  -0.0000000  -0.0000000  -0.0000000  -0.0000000  -0.0000000
 NQMom=    0.0000000   0.0000000   0.0000000   0.0000000   0.0000000   0.0000000   0.0000000   0.0000000   0.0000000   2.0440000
 NMagM=    0.0000000   0.0000000   0.0000000   0.0000000   0.0000000   0.0000000   0.0000000   0.0000000   0.0000000   0.4037610
 AtZNuc=   6.0000000   6.0000000   6.0000000   6.0000000   6.0000000   6.0000000   8.0000000   8.0000000   6.0000000   7.0000000

  Atom        11          12          13
 IAtWgt=           1           1           1
 AtmWgt=   1.0078250   1.0078250   1.0078250
 NucSpn=           1           1           1
 AtZEff=  -0.0000000  -0.0000000  -0.0000000
 NQMom=    0.0000000   0.0000000   0.0000000
 NMagM=    2.7928460   2.7928460   2.7928460
 AtZNuc=   1.0000000   1.0000000   1.0000000
 Leave Link  101 at Sun Dec 17 20:48:52 2023, MaxMem=  4026531840 cpu:               3.7 elap:               0.7
 (Enter /sysapps/ubuntu-applications/gaussian/Gaussian/AVX2/g16/l103.exe)

 GradGradGradGradGradGradGradGradGradGradGradGradGradGradGradGradGradGrad
 Berny optimization.
 Initialization pass.
                           ----------------------------
                           !    Initial Parameters    !
                           ! (Angstroms and Degrees)  !
 --------------------------                            --------------------------
 ! Name  Definition              Value          Derivative Info.                !
 --------------------------------------------------------------------------------
 ! R1    R(1,2)                  1.4909         estimate D2E/DX2                !
 ! R2    R(1,6)                  1.4972         estimate D2E/DX2                !
 ! R3    R(1,7)                  1.2214         estimate D2E/DX2                !
 ! R4    R(2,3)                  1.3398         estimate D2E/DX2                !
 ! R5    R(2,11)                 1.0865         estimate D2E/DX2                !
 ! R6    R(3,4)                  1.476          estimate D2E/DX2                !
 ! R7    R(3,12)                 1.0891         estimate D2E/DX2                !
 ! R8    R(4,5)                  1.4826         estimate D2E/DX2                !
 ! R9    R(4,8)                  1.22           estimate D2E/DX2                !
 ! R10   R(5,6)                  1.3456         estimate D2E/DX2                !
 ! R11   R(5,13)                 1.0855         estimate D2E/DX2                !
 ! R12   R(6,9)                  1.4567         estimate D2E/DX2                !
 ! R13   R(9,10)                 1.1599         estimate D2E/DX2                !
 ! A1    A(2,1,6)              119.6862         estimate D2E/DX2                !
 ! A2    A(2,1,7)              119.4778         estimate D2E/DX2                !
 ! A3    A(6,1,7)              120.8356         estimate D2E/DX2                !
 ! A4    A(1,2,3)              120.513          estimate D2E/DX2                !
 ! A5    A(1,2,11)             120.7929         estimate D2E/DX2                !
 ! A6    A(3,2,11)             118.6933         estimate D2E/DX2                !
 ! A7    A(2,3,4)              119.8778         estimate D2E/DX2                !
 ! A8    A(2,3,12)             120.1558         estimate D2E/DX2                !
 ! A9    A(4,3,12)             119.9663         estimate D2E/DX2                !
 ! A10   A(3,4,5)              120.0363         estimate D2E/DX2                !
 ! A11   A(3,4,8)              119.8627         estimate D2E/DX2                !
 ! A12   A(5,4,8)              120.0896         estimate D2E/DX2                !
 ! A13   A(4,5,6)              120.9673         estimate D2E/DX2                !
 ! A14   A(4,5,13)             118.7148         estimate D2E/DX2                !
 ! A15   A(6,5,13)             120.3118         estimate D2E/DX2                !
 ! A16   A(1,6,5)              118.8816         estimate D2E/DX2                !
 ! A17   A(1,6,9)              122.5194         estimate D2E/DX2                !
 ! A18   A(5,6,9)              118.593          estimate D2E/DX2                !
 ! A19   L(6,9,10,13,-1)       178.3021         estimate D2E/DX2                !
 ! A20   L(6,9,10,13,-2)       180.0082         estimate D2E/DX2                !
 ! D1    D(6,1,2,3)              1.1139         estimate D2E/DX2                !
 ! D2    D(6,1,2,11)          -178.5633         estimate D2E/DX2                !
 ! D3    D(7,1,2,3)           -179.1372         estimate D2E/DX2                !
 ! D4    D(7,1,2,11)             1.1855         estimate D2E/DX2                !
 ! D5    D(2,1,6,5)             -2.1805         estimate D2E/DX2                !
 ! D6    D(2,1,6,9)            176.9165         estimate D2E/DX2                !
 ! D7    D(7,1,6,5)            178.0741         estimate D2E/DX2                !
 ! D8    D(7,1,6,9)             -2.8289         estimate D2E/DX2                !
 ! D9    D(1,2,3,4)              0.5845         estimate D2E/DX2                !
 ! D10   D(1,2,3,12)          -179.3748         estimate D2E/DX2                !
 ! D11   D(11,2,3,4)          -179.7316         estimate D2E/DX2                !
 ! D12   D(11,2,3,12)            0.3091         estimate D2E/DX2                !
 ! D13   D(2,3,4,5)             -1.2911         estimate D2E/DX2                !
 ! D14   D(2,3,4,8)            179.9336         estimate D2E/DX2                !
 ! D15   D(12,3,4,5)           178.6683         estimate D2E/DX2                !
 ! D16   D(12,3,4,8)            -0.107          estimate D2E/DX2                !
 ! D17   D(3,4,5,6)              0.1887         estimate D2E/DX2                !
 ! D18   D(3,4,5,13)          -178.9132         estimate D2E/DX2                !
 ! D19   D(8,4,5,6)            178.9612         estimate D2E/DX2                !
 ! D20   D(8,4,5,13)            -0.1407         estimate D2E/DX2                !
 ! D21   D(4,5,6,1)              1.4957         estimate D2E/DX2                !
 ! D22   D(4,5,6,9)           -177.6371         estimate D2E/DX2                !
 ! D23   D(13,5,6,1)          -179.4167         estimate D2E/DX2                !
 ! D24   D(13,5,6,9)             1.4505         estimate D2E/DX2                !
 --------------------------------------------------------------------------------
 Trust Radius=3.00D-01 FncErr=1.00D-07 GrdErr=1.00D-06 EigMax=2.50D+02 EigMin=1.00D-04
 Number of steps in this run=     67 maximum allowed number of steps=    100.
 GradGradGradGradGradGradGradGradGradGradGradGradGradGradGradGradGradGrad

 Leave Link  103 at Sun Dec 17 20:48:52 2023, MaxMem=  4026531840 cpu:               0.2 elap:               0.1
 (Enter /sysapps/ubuntu-applications/gaussian/Gaussian/AVX2/g16/l202.exe)
                          Input orientation:                          
 ---------------------------------------------------------------------
 Center     Atomic      Atomic             Coordinates (Angstroms)
 Number     Number       Type             X           Y           Z
 ---------------------------------------------------------------------
      1          6           0       -0.323300    1.124650   -0.252370
      2          6           0       -1.432850    0.277090   -0.775140
      3          6           0       -1.364230   -1.058550   -0.695340
      4          6           0       -0.188220   -1.698570   -0.074060
      5          6           0        0.927750   -0.865600    0.434710
      6          6           0        0.887490    0.476280    0.343650
      7          8           0       -0.412640    2.340840   -0.320500
      8          8           0       -0.126580   -2.914750   -0.000450
      9          6           0        2.034810    1.241600    0.812620
     10          7           0        2.963650    1.821540    1.195020
     11          1           0       -2.309290    0.728010   -1.232270
     12          1           0       -2.173540   -1.672440   -1.088280
     13          1           0        1.790070   -1.359430    0.871450
 ---------------------------------------------------------------------
                    Distance matrix (angstroms):
                    1          2          3          4          5
     1  C    0.000000
     2  C    1.490888   0.000000
     3  C    2.458886   1.339780   0.000000
     4  C    2.832069   2.438001   1.476013   0.000000
     5  C    2.449143   2.888236   2.562697   1.482591   0.000000
     6  C    1.497209   2.583669   2.916410   2.462033   1.345569
     7  O    1.221369   2.346612   3.549913   4.053138   3.556437
     8  O    4.052026   3.534732   2.336692   1.219964   2.345206
     9  C    2.590090   3.933946   4.372426   3.791130   2.410122
    10  N    3.658502   5.059256   5.531629   4.892445   3.455963
    11  H    2.249819   1.086482   2.091227   3.424716   3.974524
    12  H    3.456276   2.108873   1.089149   2.229534   3.548026
    13  H    3.449632   3.971986   3.534822   2.218702   1.085452
                    6          7          8          9         10
     6  C    0.000000
     7  O    2.368125   0.000000
     8  O    3.556097   5.273091   0.000000
     9  C    1.456705   2.912439   4.754780   0.000000
    10  N    2.616294   3.737085   5.780235   1.159872   0.000000
    11  H    3.572995   2.651382   4.421686   4.828722   5.906898
    12  H    4.004663   4.449345   2.629972   5.460335   6.619069
    13  H    2.112594   4.468185   2.617781   2.613181   3.405959
                   11         12         13
    11  H    0.000000
    12  H    2.408593   0.000000
    13  H    5.058438   4.432688   0.000000
 Symmetry turned off by external request.
 Stoichiometry    C7H3NO2(1-,2)
 Framework group  C1[X(C7H3NO2)]
 Deg. of freedom    33
 Full point group                 C1      NOp   1
 Rotational constants (GHZ):           2.2758598           1.1366291           0.7582427
 Leave Link  202 at Sun Dec 17 20:48:52 2023, MaxMem=  4026531840 cpu:               0.4 elap:               0.1
 (Enter /sysapps/ubuntu-applications/gaussian/Gaussian/AVX2/g16/l301.exe)
 Standard basis: 6-311++G(d,p) (5D, 7F)
 Ernie: Thresh=  0.10000D-02 Tol=  0.10000D-05 Strict=F.
   241 basis functions,   387 primitive gaussians,   251 cartesian basis functions
    35 alpha electrons       34 beta electrons
       nuclear repulsion energy       438.8722078309 Hartrees.
 IExCor=  402 DFT=T Ex+Corr=B3LYP ExCW=0 ScaHFX=  0.200000
 ScaDFX=  0.800000  0.720000  1.000000  0.810000 ScalE2=  1.000000  1.000000
 IRadAn=      5 IRanWt=     -1 IRanGd=            0 ICorTp=0 IEmpDi=  4
 NAtoms=   13 NActive=   13 NUniq=   13 SFac= 1.00D+00 NAtFMM=   60 NAOKFM=F Big=F
 Integral buffers will be    131072 words long.
 Raffenetti 2 integral format.
 Two-electron integral symmetry is turned off.
 Leave Link  301 at Sun Dec 17 20:48:52 2023, MaxMem=  4026531840 cpu:               0.4 elap:               0.1
 (Enter /sysapps/ubuntu-applications/gaussian/Gaussian/AVX2/g16/l302.exe)
 NPDir=0 NMtPBC=     1 NCelOv=     1 NCel=       1 NClECP=     1 NCelD=      1
         NCelK=      1 NCelE2=     1 NClLst=     1 CellRange=     0.0.
 One-electron integrals computed using PRISM.
 NBasis=   241 RedAO= T EigKep=  2.22D-06  NBF=   241
 NBsUse=   241 1.00D-06 EigRej= -1.00D+00 NBFU=   241
 Precomputing XC quadrature grid using
 IXCGrd= 4 IRadAn=           5 IRanWt=          -1 IRanGd=           0 AccXCQ= 0.00D+00.
 Generated NRdTot=       0 NPtTot=           0 NUsed=           0 NTot=          32
 NSgBfM=   251   251   251   251   251 MxSgAt=    13 MxSgA2=    13.
 Leave Link  302 at Sun Dec 17 20:48:53 2023, MaxMem=  4026531840 cpu:               8.3 elap:               1.3
 (Enter /sysapps/ubuntu-applications/gaussian/Gaussian/AVX2/g16/l303.exe)
 DipDrv:  MaxL=1.
 Leave Link  303 at Sun Dec 17 20:48:54 2023, MaxMem=  4026531840 cpu:               1.1 elap:               0.3
 (Enter /sysapps/ubuntu-applications/gaussian/Gaussian/AVX2/g16/l401.exe)
 ExpMin= 3.60D-02 ExpMax= 8.59D+03 ExpMxC= 1.30D+03 IAcc=3 IRadAn=         5 AccDes= 0.00D+00
 Harris functional with IExCor=  402 and IRadAn=       5 diagonalized for initial guess.
 HarFok:  IExCor=  402 AccDes= 0.00D+00 IRadAn=         5 IDoV= 1 UseB2=F ITyADJ=14
 ICtDFT=  3500011 ScaDFX=  1.000000  1.000000  1.000000  1.000000
 FoFCou: FMM=F IPFlag=           0 FMFlag=      100000 FMFlg1=           0
         NFxFlg=           0 DoJE=T BraDBF=F KetDBF=T FulRan=T
         wScrn=  0.000000 ICntrl=       500 IOpCl=  0 I1Cent=   200000004 NGrid=           0
         NMat0=    1 NMatS0=      1 NMatT0=    0 NMatD0=    1 NMtDS0=    0 NMtDT0=    0
 Symmetry not used in FoFCou.
 Harris En= -474.065470684015    
 JPrj=0 DoOrth=F DoCkMO=F.
 Initial guess <Sx>= 0.0000 <Sy>= 0.0000 <Sz>= 0.5000 <S**2>= 0.7500 S= 0.5000
 Leave Link  401 at Sun Dec 17 20:48:55 2023, MaxMem=  4026531840 cpu:               7.6 elap:               1.1
 (Enter /sysapps/ubuntu-applications/gaussian/Gaussian/AVX2/g16/l502.exe)
 Two-electron integral symmetry not used.
 UHF open shell SCF:
 Using DIIS extrapolation, IDIIS=  1040.
 NGot=  4026531840 LenX=  4026402026 LenY=  4026338584
 Requested convergence on RMS density matrix=1.00D-08 within 128 cycles.
 Requested convergence on MAX density matrix=1.00D-06.
 Requested convergence on             energy=1.00D-06.
 No special actions if energy rises.
 Fock matrices will be formed incrementally for  20 cycles.

 Cycle   1  Pass 1  IDiag  1:
 FoFJK:  IHMeth= 1 ICntrl=       0 DoSepK=F KAlg= 0 I1Cent=           0 FoldK=F
 IRaf= 940000000 NMat=       1 IRICut=       1 DoRegI=T DoRafI=F ISym2E= 0 IDoP0=0 IntGTp=1.
 FoFCou: FMM=F IPFlag=           0 FMFlag=      100000 FMFlg1=           0
         NFxFlg=           0 DoJE=F BraDBF=F KetDBF=F FulRan=T
         wScrn=  0.000000 ICntrl=         0 IOpCl=  1 I1Cent=           0 NGrid=           0
         NMat0=    1 NMatS0=      1 NMatT0=    0 NMatD0=    1 NMtDS0=    0 NMtDT0=    0
 Symmetry not used in FoFCou.
 E= -473.617173752509    
 DIIS: error= 5.44D-02 at cycle   1 NSaved=   1.
 NSaved= 1 IEnMin= 1 EnMin= -473.617173752509     IErMin= 1 ErrMin= 5.44D-02
 ErrMax= 5.44D-02  0.00D+00 EMaxC= 1.00D-01 BMatC= 1.50D+00 BMatP= 1.50D+00
 IDIUse=3 WtCom= 4.56D-01 WtEn= 5.44D-01
 Coeff-Com:  0.100D+01
 Coeff-En:   0.100D+01
 Coeff:      0.100D+01
 Gap=     0.086 Goal=   None    Shift=    0.000
 Gap=     0.090 Goal=   None    Shift=    0.000
 GapD=    0.086 DampG=0.500 DampE=0.500 DampFc=0.2500 IDamp=-1.
 Damping current iteration by 2.50D-01
 RMSDP=1.34D-01 MaxDP=1.85D+01              OVMax= 3.68D-01

 Cycle   2  Pass 1  IDiag  1:
 RMSU=  3.19D-02    CP:  1.18D+00
 E= -473.715347126256     Delta-E=       -0.098173373748 Rises=F Damp=T
 DIIS: error= 2.37D-02 at cycle   2 NSaved=   2.
 NSaved= 2 IEnMin= 2 EnMin= -473.715347126256     IErMin= 2 ErrMin= 2.37D-02
 ErrMax= 2.37D-02  0.00D+00 EMaxC= 1.00D-01 BMatC= 2.84D-01 BMatP= 1.50D+00
 IDIUse=3 WtCom= 7.63D-01 WtEn= 2.37D-01
 Coeff-Com: -0.487D+00 0.149D+01
 Coeff-En:   0.000D+00 0.100D+01
 Coeff:     -0.371D+00 0.137D+01
 Gap=     0.097 Goal=   None    Shift=    0.000
 Gap=     0.186 Goal=   None    Shift=    0.000
 RMSDP=2.70D-02 MaxDP=3.83D+00 DE=-9.82D-02 OVMax= 3.07D-01

 Cycle   3  Pass 1  IDiag  1:
 RMSU=  1.11D-02    CP:  9.92D-01  3.06D-01
 E= -473.864405346899     Delta-E=       -0.149058220643 Rises=F Damp=F
 DIIS: error= 1.75D-02 at cycle   3 NSaved=   3.
 NSaved= 3 IEnMin= 3 EnMin= -473.864405346899     IErMin= 3 ErrMin= 1.75D-02
 ErrMax= 1.75D-02  0.00D+00 EMaxC= 1.00D-01 BMatC= 1.83D-01 BMatP= 2.84D-01
 IDIUse=3 WtCom= 8.25D-01 WtEn= 1.75D-01
 Coeff-Com: -0.337D+00 0.862D+00 0.475D+00
 Coeff-En:   0.000D+00 0.000D+00 0.100D+01
 Coeff:     -0.278D+00 0.711D+00 0.567D+00
 Gap=     0.128 Goal=   None    Shift=    0.000
 Gap=     0.150 Goal=   None    Shift=    0.000
 RMSDP=6.34D-03 MaxDP=4.84D-01 DE=-1.49D-01 OVMax= 1.03D-01

 Cycle   4  Pass 1  IDiag  1:
 RMSU=  5.50D-03    CP:  1.04D+00  3.05D-01  8.49D-01
 E= -473.896412413276     Delta-E=       -0.032007066377 Rises=F Damp=F
 DIIS: error= 1.11D-02 at cycle   4 NSaved=   4.
 NSaved= 4 IEnMin= 4 EnMin= -473.896412413276     IErMin= 4 ErrMin= 1.11D-02
 ErrMax= 1.11D-02  0.00D+00 EMaxC= 1.00D-01 BMatC= 5.78D-02 BMatP= 1.83D-01
 IDIUse=3 WtCom= 8.89D-01 WtEn= 1.11D-01
 Coeff-Com: -0.556D-01 0.173D+00 0.360D+00 0.523D+00
 Coeff-En:   0.000D+00 0.000D+00 0.270D+00 0.730D+00
 Coeff:     -0.494D-01 0.154D+00 0.350D+00 0.546D+00
 Gap=     0.109 Goal=   None    Shift=    0.000
 Gap=     0.147 Goal=   None    Shift=    0.000
 RMSDP=4.00D-03 MaxDP=3.74D-01 DE=-3.20D-02 OVMax= 3.99D-02

 Cycle   5  Pass 1  IDiag  1:
 RMSU=  1.16D-03    CP:  9.96D-01  2.60D-01  9.07D-01  5.46D-01
 E= -473.908609753849     Delta-E=       -0.012197340573 Rises=F Damp=F
 DIIS: error= 3.25D-03 at cycle   5 NSaved=   5.
 NSaved= 5 IEnMin= 5 EnMin= -473.908609753849     IErMin= 5 ErrMin= 3.25D-03
 ErrMax= 3.25D-03  0.00D+00 EMaxC= 1.00D-01 BMatC= 7.04D-03 BMatP= 5.78D-02
 IDIUse=3 WtCom= 9.67D-01 WtEn= 3.25D-02
 Coeff-Com: -0.529D-02 0.301D-01 0.201D+00 0.387D+00 0.387D+00
 Coeff-En:   0.000D+00 0.000D+00 0.000D+00 0.508D-01 0.949D+00
 Coeff:     -0.512D-02 0.292D-01 0.195D+00 0.376D+00 0.405D+00
 Gap=     0.111 Goal=   None    Shift=    0.000
 Gap=     0.147 Goal=   None    Shift=    0.000
 RMSDP=8.16D-04 MaxDP=5.83D-02 DE=-1.22D-02 OVMax= 1.48D-02

 Cycle   6  Pass 1  IDiag  1:
 RMSU=  5.62D-04    CP:  9.90D-01  2.50D-01  8.75D-01  5.36D-01  9.16D-01
 E= -473.910011857062     Delta-E=       -0.001402103214 Rises=F Damp=F
 DIIS: error= 9.18D-04 at cycle   6 NSaved=   6.
 NSaved= 6 IEnMin= 6 EnMin= -473.910011857062     IErMin= 6 ErrMin= 9.18D-04
 ErrMax= 9.18D-04  0.00D+00 EMaxC= 1.00D-01 BMatC= 5.31D-04 BMatP= 7.04D-03
 IDIUse=3 WtCom= 9.91D-01 WtEn= 9.18D-03
 Coeff-Com:  0.865D-02-0.160D-01 0.531D-01 0.127D+00 0.242D+00 0.585D+00
 Coeff-En:   0.000D+00 0.000D+00 0.000D+00 0.000D+00 0.432D-01 0.957D+00
 Coeff:      0.857D-02-0.159D-01 0.527D-01 0.126D+00 0.240D+00 0.588D+00
 Gap=     0.111 Goal=   None    Shift=    0.000
 Gap=     0.147 Goal=   None    Shift=    0.000
 RMSDP=3.33D-04 MaxDP=2.24D-02 DE=-1.40D-03 OVMax= 4.41D-03

 Cycle   7  Pass 1  IDiag  1:
 RMSU=  2.57D-04    CP:  9.89D-01  2.45D-01  8.77D-01  5.32D-01  9.08D-01
                    CP:  8.04D-01
 E= -473.910130874749     Delta-E=       -0.000119017687 Rises=F Damp=F
 DIIS: error= 4.25D-04 at cycle   7 NSaved=   7.
 NSaved= 7 IEnMin= 7 EnMin= -473.910130874749     IErMin= 7 ErrMin= 4.25D-04
 ErrMax= 4.25D-04  0.00D+00 EMaxC= 1.00D-01 BMatC= 7.03D-05 BMatP= 5.31D-04
 IDIUse=3 WtCom= 9.96D-01 WtEn= 4.25D-03
 Coeff-Com:  0.490D-02-0.105D-01-0.779D-02-0.924D-02 0.356D-01 0.302D+00
 Coeff-Com:  0.685D+00
 Coeff-En:   0.000D+00 0.000D+00 0.000D+00 0.000D+00 0.000D+00 0.000D+00
 Coeff-En:   0.100D+01
 Coeff:      0.488D-02-0.104D-01-0.776D-02-0.920D-02 0.354D-01 0.301D+00
 Coeff:      0.686D+00
 Gap=     0.112 Goal=   None    Shift=    0.000
 Gap=     0.147 Goal=   None    Shift=    0.000
 RMSDP=1.61D-04 MaxDP=1.54D-02 DE=-1.19D-04 OVMax= 2.69D-03

 Cycle   8  Pass 1  IDiag  1:
 RMSU=  8.05D-05    CP:  9.89D-01  2.41D-01  8.72D-01  5.26D-01  9.39D-01
                    CP:  8.94D-01  9.74D-01
 E= -473.910153437134     Delta-E=       -0.000022562385 Rises=F Damp=F
 DIIS: error= 1.36D-04 at cycle   8 NSaved=   8.
 NSaved= 8 IEnMin= 8 EnMin= -473.910153437134     IErMin= 8 ErrMin= 1.36D-04
 ErrMax= 1.36D-04  0.00D+00 EMaxC= 1.00D-01 BMatC= 1.52D-05 BMatP= 7.03D-05
 IDIUse=3 WtCom= 9.99D-01 WtEn= 1.36D-03
 Coeff-Com:  0.135D-02-0.286D-02-0.158D-01-0.344D-01-0.407D-01 0.202D-01
 Coeff-Com:  0.349D+00 0.724D+00
 Coeff-En:   0.000D+00 0.000D+00 0.000D+00 0.000D+00 0.000D+00 0.000D+00
 Coeff-En:   0.000D+00 0.100D+01
 Coeff:      0.135D-02-0.286D-02-0.158D-01-0.344D-01-0.406D-01 0.202D-01
 Coeff:      0.348D+00 0.724D+00
 Gap=     0.112 Goal=   None    Shift=    0.000
 Gap=     0.148 Goal=   None    Shift=    0.000
 RMSDP=5.24D-05 MaxDP=4.46D-03 DE=-2.26D-05 OVMax= 1.39D-03

 Cycle   9  Pass 1  IDiag  1:
 RMSU=  4.15D-05    CP:  9.89D-01  2.41D-01  8.71D-01  5.23D-01  9.39D-01
                    CP:  9.23D-01  1.00D+00  1.01D+00
 E= -473.910159401561     Delta-E=       -0.000005964427 Rises=F Damp=F
 DIIS: error= 9.75D-05 at cycle   9 NSaved=   9.
 NSaved= 9 IEnMin= 9 EnMin= -473.910159401561     IErMin= 9 ErrMin= 9.75D-05
 ErrMax= 9.75D-05  0.00D+00 EMaxC= 1.00D-01 BMatC= 4.31D-06 BMatP= 1.52D-05
 IDIUse=1 WtCom= 1.00D+00 WtEn= 0.00D+00
 Coeff-Com: -0.648D-03 0.153D-02-0.600D-02-0.163D-01-0.361D-01-0.930D-01
 Coeff-Com: -0.274D-01 0.425D+00 0.753D+00
 Coeff:     -0.648D-03 0.153D-02-0.600D-02-0.163D-01-0.361D-01-0.930D-01
 Coeff:     -0.274D-01 0.425D+00 0.753D+00
 Gap=     0.112 Goal=   None    Shift=    0.000
 Gap=     0.148 Goal=   None    Shift=    0.000
 RMSDP=3.77D-05 MaxDP=3.26D-03 DE=-5.96D-06 OVMax= 7.22D-04

 Cycle  10  Pass 1  IDiag  1:
 RMSU=  2.09D-05    CP:  9.89D-01  2.41D-01  8.72D-01  5.20D-01  9.46D-01
                    CP:  9.20D-01  1.06D+00  1.12D+00  1.15D+00
 E= -473.910161014560     Delta-E=       -0.000001613000 Rises=F Damp=F
 DIIS: error= 2.29D-05 at cycle  10 NSaved=  10.
 NSaved=10 IEnMin=10 EnMin= -473.910161014560     IErMin=10 ErrMin= 2.29D-05
 ErrMax= 2.29D-05  0.00D+00 EMaxC= 1.00D-01 BMatC= 4.77D-07 BMatP= 4.31D-06
 IDIUse=1 WtCom= 1.00D+00 WtEn= 0.00D+00
 Coeff-Com: -0.390D-03 0.846D-03-0.157D-02-0.503D-02-0.141D-01-0.484D-01
 Coeff-Com: -0.430D-01 0.149D+00 0.375D+00 0.588D+00
 Coeff:     -0.390D-03 0.846D-03-0.157D-02-0.503D-02-0.141D-01-0.484D-01
 Coeff:     -0.430D-01 0.149D+00 0.375D+00 0.588D+00
 Gap=     0.112 Goal=   None    Shift=    0.000
 Gap=     0.148 Goal=   None    Shift=    0.000
 RMSDP=1.34D-05 MaxDP=1.32D-03 DE=-1.61D-06 OVMax= 1.86D-04

 Cycle  11  Pass 1  IDiag  1:
 RMSU=  9.03D-06    CP:  9.89D-01  2.41D-01  8.71D-01  5.21D-01  9.43D-01
                    CP:  9.18D-01  1.05D+00  1.13D+00  1.18D+00  1.10D+00
 E= -473.910161123404     Delta-E=       -0.000000108844 Rises=F Damp=F
 DIIS: error= 1.16D-05 at cycle  11 NSaved=  11.
 NSaved=11 IEnMin=11 EnMin= -473.910161123404     IErMin=11 ErrMin= 1.16D-05
 ErrMax= 1.16D-05  0.00D+00 EMaxC= 1.00D-01 BMatC= 1.32D-07 BMatP= 4.77D-07
 IDIUse=1 WtCom= 1.00D+00 WtEn= 0.00D+00
 Coeff-Com: -0.156D-03 0.293D-03 0.260D-03 0.154D-03-0.156D-02-0.119D-01
 Coeff-Com: -0.221D-01 0.598D-02 0.743D-01 0.366D+00 0.589D+00
 Coeff:     -0.156D-03 0.293D-03 0.260D-03 0.154D-03-0.156D-02-0.119D-01
 Coeff:     -0.221D-01 0.598D-02 0.743D-01 0.366D+00 0.589D+00
 Gap=     0.112 Goal=   None    Shift=    0.000
 Gap=     0.148 Goal=   None    Shift=    0.000
 RMSDP=4.97D-06 MaxDP=3.47D-04 DE=-1.09D-07 OVMax= 6.79D-05

 Cycle  12  Pass 1  IDiag  1:
 RMSU=  2.36D-06    CP:  9.89D-01  2.41D-01  8.71D-01  5.21D-01  9.43D-01
                    CP:  9.16D-01  1.06D+00  1.14D+00  1.21D+00  1.18D+00
                    CP:  8.94D-01
 E= -473.910161153305     Delta-E=       -0.000000029900 Rises=F Damp=F
 DIIS: error= 5.65D-06 at cycle  12 NSaved=  12.
 NSaved=12 IEnMin=12 EnMin= -473.910161153305     IErMin=12 ErrMin= 5.65D-06
 ErrMax= 5.65D-06  0.00D+00 EMaxC= 1.00D-01 BMatC= 7.61D-09 BMatP= 1.32D-07
 IDIUse=1 WtCom= 1.00D+00 WtEn= 0.00D+00
 Coeff-Com: -0.200D-04 0.302D-04 0.245D-03 0.525D-03 0.520D-03-0.452D-03
 Coeff-Com: -0.501D-02-0.106D-01-0.315D-02 0.987D-01 0.244D+00 0.676D+00
 Coeff:     -0.200D-04 0.302D-04 0.245D-03 0.525D-03 0.520D-03-0.452D-03
 Coeff:     -0.501D-02-0.106D-01-0.315D-02 0.987D-01 0.244D+00 0.676D+00
 Gap=     0.112 Goal=   None    Shift=    0.000
 Gap=     0.148 Goal=   None    Shift=    0.000
 RMSDP=2.72D-06 MaxDP=3.08D-04 DE=-2.99D-08 OVMax= 5.82D-05

 Cycle  13  Pass 1  IDiag  1:
 RMSU=  1.10D-06    CP:  9.89D-01  2.41D-01  8.71D-01  5.21D-01  9.42D-01
                    CP:  9.16D-01  1.06D+00  1.14D+00  1.22D+00  1.19D+00
                    CP:  9.74D-01  6.68D-01
 E= -473.910161154342     Delta-E=       -0.000000001038 Rises=F Damp=F
 DIIS: error= 5.54D-06 at cycle  13 NSaved=  13.
 NSaved=13 IEnMin=13 EnMin= -473.910161154342     IErMin=13 ErrMin= 5.54D-06
 ErrMax= 5.54D-06  0.00D+00 EMaxC= 1.00D-01 BMatC= 6.56D-09 BMatP= 7.61D-09
 IDIUse=1 WtCom= 1.00D+00 WtEn= 0.00D+00
 Coeff-Com:  0.168D-04-0.320D-04 0.127D-03 0.350D-03 0.665D-03 0.207D-02
 Coeff-Com:  0.824D-03-0.886D-02-0.179D-01-0.726D-02 0.434D-01 0.523D+00
 Coeff-Com:  0.464D+00
 Coeff:      0.168D-04-0.320D-04 0.127D-03 0.350D-03 0.665D-03 0.207D-02
 Coeff:      0.824D-03-0.886D-02-0.179D-01-0.726D-02 0.434D-01 0.523D+00
 Coeff:      0.464D+00
 Gap=     0.112 Goal=   None    Shift=    0.000
 Gap=     0.148 Goal=   None    Shift=    0.000
 RMSDP=1.21D-06 MaxDP=8.25D-05 DE=-1.04D-09 OVMax= 2.52D-05

 Cycle  14  Pass 1  IDiag  1:
 RMSU=  4.13D-07    CP:  9.89D-01  2.41D-01  8.71D-01  5.21D-01  9.43D-01
                    CP:  9.16D-01  1.06D+00  1.14D+00  1.22D+00  1.20D+00
                    CP:  9.32D-01  8.48D-01  6.07D-01
 E= -473.910161156225     Delta-E=       -0.000000001883 Rises=F Damp=F
 DIIS: error= 1.19D-06 at cycle  14 NSaved=  14.
 NSaved=14 IEnMin=14 EnMin= -473.910161156225     IErMin=14 ErrMin= 1.19D-06
 ErrMax= 1.19D-06  0.00D+00 EMaxC= 1.00D-01 BMatC= 3.34D-10 BMatP= 6.56D-09
 IDIUse=1 WtCom= 1.00D+00 WtEn= 0.00D+00
 Coeff-Com:  0.160D-04-0.272D-04-0.171D-05 0.316D-04 0.201D-03 0.114D-02
 Coeff-Com:  0.171D-02-0.178D-02-0.640D-02-0.271D-01-0.446D-01 0.523D-01
 Coeff-Com:  0.152D+00 0.873D+00
 Coeff:      0.160D-04-0.272D-04-0.171D-05 0.316D-04 0.201D-03 0.114D-02
 Coeff:      0.171D-02-0.178D-02-0.640D-02-0.271D-01-0.446D-01 0.523D-01
 Coeff:      0.152D+00 0.873D+00
 Gap=     0.112 Goal=   None    Shift=    0.000
 Gap=     0.148 Goal=   None    Shift=    0.000
 RMSDP=2.66D-07 MaxDP=2.15D-05 DE=-1.88D-09 OVMax= 1.07D-05

 Cycle  15  Pass 1  IDiag  1:
 RMSU=  1.74D-07    CP:  9.89D-01  2.41D-01  8.71D-01  5.21D-01  9.43D-01
                    CP:  9.16D-01  1.06D+00  1.14D+00  1.22D+00  1.20D+00
                    CP:  9.36D-01  8.86D-01  6.59D-01  1.14D+00
 E= -473.910161156441     Delta-E=       -0.000000000216 Rises=F Damp=F
 DIIS: error= 7.85D-07 at cycle  15 NSaved=  15.
 NSaved=15 IEnMin=15 EnMin= -473.910161156441     IErMin=15 ErrMin= 7.85D-07
 ErrMax= 7.85D-07  0.00D+00 EMaxC= 1.00D-01 BMatC= 1.30D-10 BMatP= 3.34D-10
 IDIUse=1 WtCom= 1.00D+00 WtEn= 0.00D+00
 Coeff-Com:  0.311D-05-0.437D-05-0.311D-04-0.676D-04-0.414D-04 0.147D-03
 Coeff-Com:  0.808D-03 0.985D-03 0.957D-03-0.136D-01-0.350D-01-0.879D-01
 Coeff-Com: -0.278D-01 0.462D+00 0.699D+00
 Coeff:      0.311D-05-0.437D-05-0.311D-04-0.676D-04-0.414D-04 0.147D-03
 Coeff:      0.808D-03 0.985D-03 0.957D-03-0.136D-01-0.350D-01-0.879D-01
 Coeff:     -0.278D-01 0.462D+00 0.699D+00
 Gap=     0.112 Goal=   None    Shift=    0.000
 Gap=     0.148 Goal=   None    Shift=    0.000
 RMSDP=2.27D-07 MaxDP=2.20D-05 DE=-2.16D-10 OVMax= 7.00D-06

 Cycle  16  Pass 1  IDiag  1:
 RMSU=  9.61D-08    CP:  9.89D-01  2.41D-01  8.71D-01  5.21D-01  9.43D-01
                    CP:  9.16D-01  1.06D+00  1.14D+00  1.22D+00  1.20D+00
                    CP:  9.33D-01  9.01D-01  6.71D-01  1.28D+00  1.22D+00
 E= -473.910161156515     Delta-E=       -0.000000000074 Rises=F Damp=F
 DIIS: error= 2.01D-07 at cycle  16 NSaved=  16.
 NSaved=16 IEnMin=16 EnMin= -473.910161156515     IErMin=16 ErrMin= 2.01D-07
 ErrMax= 2.01D-07  0.00D+00 EMaxC= 1.00D-01 BMatC= 1.95D-11 BMatP= 1.30D-10
 IDIUse=1 WtCom= 1.00D+00 WtEn= 0.00D+00
 Coeff-Com: -0.486D-05 0.702D-05-0.925D-06-0.899D-05-0.410D-04-0.276D-03
 Coeff-Com: -0.326D-03 0.328D-03 0.168D-02 0.557D-02 0.928D-02-0.142D-01
 Coeff-Com: -0.478D-01-0.214D+00 0.121D+00 0.114D+01
 Coeff:     -0.486D-05 0.702D-05-0.925D-06-0.899D-05-0.410D-04-0.276D-03
 Coeff:     -0.326D-03 0.328D-03 0.168D-02 0.557D-02 0.928D-02-0.142D-01
 Coeff:     -0.478D-01-0.214D+00 0.121D+00 0.114D+01
 Gap=     0.112 Goal=   None    Shift=    0.000
 Gap=     0.148 Goal=   None    Shift=    0.000
 RMSDP=1.26D-07 MaxDP=1.23D-05 DE=-7.45D-11 OVMax= 4.08D-06

 Cycle  17  Pass 1  IDiag  1:
 RMSU=  5.05D-08    CP:  9.89D-01  2.41D-01  8.71D-01  5.21D-01  9.43D-01
                    CP:  9.16D-01  1.06D+00  1.14D+00  1.22D+00  1.20D+00
                    CP:  9.28D-01  9.03D-01  6.56D-01  1.36D+00  1.56D+00
                    CP:  1.30D+00
 E= -473.910161156538     Delta-E=       -0.000000000023 Rises=F Damp=F
 DIIS: error= 9.56D-08 at cycle  17 NSaved=  17.
 NSaved=17 IEnMin=17 EnMin= -473.910161156538     IErMin=17 ErrMin= 9.56D-08
 ErrMax= 9.56D-08  0.00D+00 EMaxC= 1.00D-01 BMatC= 2.43D-12 BMatP= 1.95D-11
 IDIUse=1 WtCom= 1.00D+00 WtEn= 0.00D+00
 Coeff-Com: -0.130D-05 0.219D-05 0.224D-05 0.339D-05-0.127D-04-0.798D-04
 Coeff-Com: -0.138D-03 0.172D-04 0.241D-03 0.266D-02 0.496D-02 0.826D-02
 Coeff-Com: -0.103D-01-0.913D-01-0.681D-01 0.184D+00 0.969D+00
 Coeff:     -0.130D-05 0.219D-05 0.224D-05 0.339D-05-0.127D-04-0.798D-04
 Coeff:     -0.138D-03 0.172D-04 0.241D-03 0.266D-02 0.496D-02 0.826D-02
 Coeff:     -0.103D-01-0.913D-01-0.681D-01 0.184D+00 0.969D+00
 Gap=     0.112 Goal=   None    Shift=    0.000
 Gap=     0.148 Goal=   None    Shift=    0.000
 RMSDP=5.16D-08 MaxDP=5.24D-06 DE=-2.30D-11 OVMax= 1.38D-06

 Cycle  18  Pass 1  IDiag  1:
 RMSU=  2.32D-08    CP:  9.89D-01  2.41D-01  8.71D-01  5.21D-01  9.43D-01
                    CP:  9.16D-01  1.06D+00  1.14D+00  1.22D+00  1.20D+00
                    CP:  9.26D-01  9.07D-01  6.50D-01  1.38D+00  1.65D+00
                    CP:  1.46D+00  1.25D+00
 E= -473.910161156538     Delta-E=        0.000000000000 Rises=F Damp=F
 DIIS: error= 4.12D-08 at cycle  18 NSaved=  18.
 NSaved=18 IEnMin=17 EnMin= -473.910161156538     IErMin=18 ErrMin= 4.12D-08
 ErrMax= 4.12D-08  0.00D+00 EMaxC= 1.00D-01 BMatC= 1.17D-12 BMatP= 2.43D-12
 IDIUse=1 WtCom= 1.00D+00 WtEn= 0.00D+00
 Coeff-Com:  0.713D-06-0.100D-05 0.242D-05 0.653D-05 0.529D-05 0.204D-04
 Coeff-Com: -0.194D-04-0.116D-03-0.318D-03 0.440D-03 0.118D-02 0.982D-02
 Coeff-Com:  0.587D-02-0.542D-02-0.715D-01-0.149D+00 0.554D+00 0.655D+00
 Coeff:      0.713D-06-0.100D-05 0.242D-05 0.653D-05 0.529D-05 0.204D-04
 Coeff:     -0.194D-04-0.116D-03-0.318D-03 0.440D-03 0.118D-02 0.982D-02
 Coeff:      0.587D-02-0.542D-02-0.715D-01-0.149D+00 0.554D+00 0.655D+00
 Gap=     0.112 Goal=   None    Shift=    0.000
 Gap=     0.148 Goal=   None    Shift=    0.000
 RMSDP=1.78D-08 MaxDP=1.32D-06 DE= 4.55D-13 OVMax= 4.17D-07

 Cycle  19  Pass 1  IDiag  1:
 RMSU=  7.34D-09    CP:  9.89D-01  2.41D-01  8.71D-01  5.21D-01  9.43D-01
                    CP:  9.16D-01  1.06D+00  1.14D+00  1.22D+00  1.20D+00
                    CP:  9.26D-01  9.07D-01  6.47D-01  1.38D+00  1.68D+00
                    CP:  1.51D+00  1.40D+00  1.01D+00
 E= -473.910161156540     Delta-E=       -0.000000000002 Rises=F Damp=F
 DIIS: error= 1.27D-08 at cycle  19 NSaved=  19.
 NSaved=19 IEnMin=19 EnMin= -473.910161156540     IErMin=19 ErrMin= 1.27D-08
 ErrMax= 1.27D-08  0.00D+00 EMaxC= 1.00D-01 BMatC= 8.94D-14 BMatP= 1.17D-12
 IDIUse=1 WtCom= 1.00D+00 WtEn= 0.00D+00
 Coeff-Com:  0.372D-06-0.503D-06-0.362D-07-0.184D-06 0.272D-05 0.140D-04
 Coeff-Com:  0.175D-04-0.211D-05-0.601D-04-0.364D-03-0.727D-03-0.794D-03
 Coeff-Com:  0.225D-02 0.151D-01 0.176D-02-0.403D-01-0.978D-01 0.453D-01
 Coeff-Com:  0.108D+01
 Coeff:      0.372D-06-0.503D-06-0.362D-07-0.184D-06 0.272D-05 0.140D-04
 Coeff:      0.175D-04-0.211D-05-0.601D-04-0.364D-03-0.727D-03-0.794D-03
 Coeff:      0.225D-02 0.151D-01 0.176D-02-0.403D-01-0.978D-01 0.453D-01
 Coeff:      0.108D+01
 Gap=     0.112 Goal=   None    Shift=    0.000
 Gap=     0.148 Goal=   None    Shift=    0.000
 RMSDP=8.48D-09 MaxDP=4.50D-07 DE=-2.27D-12 OVMax= 2.37D-07

 SCF Done:  E(UB3LYP) =  -473.910161157     A.U. after   19 cycles
            NFock= 19  Conv=0.85D-08     -V/T= 2.0035
 <Sx>= 0.0000 <Sy>= 0.0000 <Sz>= 0.5000 <S**2>= 0.7590 S= 0.5045
 <L.S>=  0.00000000000    
 KE= 4.722586021118D+02 PE=-1.997146039854D+03 EE= 6.121050687545D+02
 Annihilation of the first spin contaminant:
 S**2 before annihilation     0.7590,   after     0.7500
 Leave Link  502 at Sun Dec 17 20:49:49 2023, MaxMem=  4026531840 cpu:             425.1 elap:              54.3
 (Enter /sysapps/ubuntu-applications/gaussian/Gaussian/AVX2/g16/l601.exe)
 Copying SCF densities to generalized density rwf, IOpCl= 1 IROHF=0.

 **********************************************************************

            Population analysis using the SCF density.

 **********************************************************************

 Alpha  occ. eigenvalues --  -18.94966 -18.94606 -14.18093 -10.10940 -10.09759
 Alpha  occ. eigenvalues --  -10.08423 -10.07205 -10.05012 -10.04844 -10.04690
 Alpha  occ. eigenvalues --   -0.89389  -0.89068  -0.77962  -0.70458  -0.65000
 Alpha  occ. eigenvalues --   -0.54686  -0.50048  -0.46652  -0.38029  -0.35902
 Alpha  occ. eigenvalues --   -0.34107  -0.32155  -0.29417  -0.27681  -0.26426
 Alpha  occ. eigenvalues --   -0.25773  -0.25665  -0.24113  -0.23286  -0.20905
 Alpha  occ. eigenvalues --   -0.15895  -0.14939  -0.11358  -0.10883  -0.02467
 Alpha virt. eigenvalues --    0.08734   0.09599   0.11334   0.12067   0.13889
 Alpha virt. eigenvalues --    0.14714   0.15380   0.15961   0.16595   0.17960
 Alpha virt. eigenvalues --    0.18357   0.18695   0.19321   0.19558   0.20666
 Alpha virt. eigenvalues --    0.21012   0.21295   0.22286   0.23444   0.23577
 Alpha virt. eigenvalues --    0.24212   0.24795   0.25127   0.26470   0.26483
 Alpha virt. eigenvalues --    0.28010   0.28233   0.29463   0.29806   0.30835
 Alpha virt. eigenvalues --    0.31315   0.31662   0.33412   0.34626   0.34787
 Alpha virt. eigenvalues --    0.35109   0.35848   0.36863   0.37118   0.37852
 Alpha virt. eigenvalues --    0.38668   0.39528   0.39846   0.40410   0.40958
 Alpha virt. eigenvalues --    0.42765   0.43481   0.44228   0.44677   0.46256
 Alpha virt. eigenvalues --    0.46901   0.49039   0.50977   0.52486   0.53031
 Alpha virt. eigenvalues --    0.53859   0.55384   0.58050   0.64684   0.65467
 Alpha virt. eigenvalues --    0.65690   0.67754   0.69920   0.70966   0.71297
 Alpha virt. eigenvalues --    0.72614   0.72943   0.74231   0.77765   0.78437
 Alpha virt. eigenvalues --    0.79842   0.80821   0.82803   0.83276   0.84339
 Alpha virt. eigenvalues --    0.86835   0.90829   0.92409   0.93917   0.95707
 Alpha virt. eigenvalues --    0.97429   0.99947   1.00987   1.02320   1.02844
 Alpha virt. eigenvalues --    1.04039   1.04762   1.06459   1.09571   1.10404
 Alpha virt. eigenvalues --    1.11404   1.14506   1.16338   1.17233   1.18439
 Alpha virt. eigenvalues --    1.20808   1.22746   1.24963   1.26525   1.26744
 Alpha virt. eigenvalues --    1.33647   1.34760   1.37441   1.39008   1.39879
 Alpha virt. eigenvalues --    1.42245   1.43045   1.44677   1.49083   1.53179
 Alpha virt. eigenvalues --    1.58737   1.61951   1.66500   1.67039   1.69522
 Alpha virt. eigenvalues --    1.70118   1.72489   1.77047   1.80332   1.82532
 Alpha virt. eigenvalues --    1.85000   1.88136   1.91034   1.91783   1.93696
 Alpha virt. eigenvalues --    1.94124   1.97774   1.98877   2.05016   2.06711
 Alpha virt. eigenvalues --    2.07552   2.10302   2.15755   2.17596   2.21237
 Alpha virt. eigenvalues --    2.23786   2.25919   2.27612   2.30486   2.32342
 Alpha virt. eigenvalues --    2.36907   2.38252   2.48223   2.58328   2.66565
 Alpha virt. eigenvalues --    2.71625   2.73117   2.75386   2.76831   2.80498
 Alpha virt. eigenvalues --    2.84059   2.85962   2.86630   2.90184   2.91175
 Alpha virt. eigenvalues --    2.91304   2.95539   2.98881   3.03645   3.05631
 Alpha virt. eigenvalues --    3.06719   3.08546   3.10093   3.12174   3.13740
 Alpha virt. eigenvalues --    3.17869   3.18062   3.21298   3.30567   3.34754
 Alpha virt. eigenvalues --    3.36409   3.42495   3.49379   3.51464   3.58221
 Alpha virt. eigenvalues --    3.61868   3.67095   3.73052   3.77691   3.81249
 Alpha virt. eigenvalues --    3.88528   4.11096   4.12794   4.18249   4.23715
 Alpha virt. eigenvalues --    4.25336   4.29945   4.35077   4.72404   4.84464
 Alpha virt. eigenvalues --    5.19283   5.21093   5.36131   5.39004   5.86783
 Alpha virt. eigenvalues --    5.94392  23.77032  23.90473  24.01421  24.07241
 Alpha virt. eigenvalues --   24.31230  24.37833  24.51842  36.01493  50.17983
 Alpha virt. eigenvalues --   50.21067
  Beta  occ. eigenvalues --  -18.94355 -18.93872 -14.18026 -10.10871 -10.09679
  Beta  occ. eigenvalues --  -10.08441 -10.07082 -10.04760 -10.04745 -10.04621
  Beta  occ. eigenvalues --   -0.88352  -0.87842  -0.77853  -0.69880  -0.64699
  Beta  occ. eigenvalues --   -0.53680  -0.49617  -0.46256  -0.37650  -0.35661
  Beta  occ. eigenvalues --   -0.33682  -0.31933  -0.27791  -0.27009  -0.26092
  Beta  occ. eigenvalues --   -0.25331  -0.23974  -0.23411  -0.22203  -0.20828
  Beta  occ. eigenvalues --   -0.14050  -0.12856  -0.10764  -0.10210
  Beta virt. eigenvalues --    0.04561   0.09608   0.10289   0.11346   0.12084
  Beta virt. eigenvalues --    0.14728   0.15151   0.15469   0.16002   0.17294
  Beta virt. eigenvalues --    0.18027   0.18395   0.18788   0.19502   0.19917
  Beta virt. eigenvalues --    0.20707   0.21304   0.21378   0.22340   0.23483
  Beta virt. eigenvalues --    0.23723   0.24237   0.24812   0.25556   0.26625
  Beta virt. eigenvalues --    0.26749   0.28186   0.28288   0.29490   0.29817
  Beta virt. eigenvalues --    0.31014   0.31662   0.32270   0.33495   0.34695
  Beta virt. eigenvalues --    0.34847   0.35206   0.36012   0.36951   0.37403
  Beta virt. eigenvalues --    0.37936   0.38816   0.39556   0.39935   0.40467
  Beta virt. eigenvalues --    0.41481   0.42874   0.44089   0.44362   0.44858
  Beta virt. eigenvalues --    0.46353   0.47000   0.49143   0.51084   0.52667
  Beta virt. eigenvalues --    0.53269   0.54107   0.55563   0.58534   0.64962
  Beta virt. eigenvalues --    0.65571   0.66063   0.67986   0.70443   0.71249
  Beta virt. eigenvalues --    0.71584   0.72798   0.73459   0.74786   0.78082
  Beta virt. eigenvalues --    0.78625   0.80015   0.81010   0.83096   0.83497
  Beta virt. eigenvalues --    0.84426   0.86981   0.91020   0.92538   0.94080
  Beta virt. eigenvalues --    0.95895   0.97653   1.00147   1.01294   1.02583
  Beta virt. eigenvalues --    1.03050   1.04199   1.04906   1.06612   1.09653
  Beta virt. eigenvalues --    1.11087   1.11550   1.14776   1.16646   1.17635
  Beta virt. eigenvalues --    1.18721   1.21338   1.23125   1.25680   1.27834
  Beta virt. eigenvalues --    1.28309   1.33932   1.35122   1.38037   1.39884
  Beta virt. eigenvalues --    1.40128   1.42531   1.43304   1.44933   1.49219
  Beta virt. eigenvalues --    1.53489   1.58866   1.62077   1.66966   1.67227
  Beta virt. eigenvalues --    1.69714   1.70468   1.73088   1.77246   1.80713
  Beta virt. eigenvalues --    1.82843   1.85181   1.88384   1.91474   1.92267
  Beta virt. eigenvalues --    1.94163   1.94607   1.98180   1.99326   2.05800
  Beta virt. eigenvalues --    2.06886   2.07687   2.10521   2.15919   2.18223
  Beta virt. eigenvalues --    2.21499   2.24029   2.26409   2.28158   2.30861
  Beta virt. eigenvalues --    2.32589   2.37615   2.38599   2.48335   2.58454
  Beta virt. eigenvalues --    2.66919   2.72099   2.73423   2.75526   2.77440
  Beta virt. eigenvalues --    2.80673   2.84150   2.86726   2.86935   2.90362
  Beta virt. eigenvalues --    2.91294   2.92003   2.96609   2.99279   3.04705
  Beta virt. eigenvalues --    3.06280   3.08090   3.10366   3.10685   3.13221
  Beta virt. eigenvalues --    3.14563   3.18088   3.18805   3.21439   3.30675
  Beta virt. eigenvalues --    3.34968   3.36671   3.42752   3.51044   3.53179
  Beta virt. eigenvalues --    3.58591   3.62029   3.67383   3.73372   3.78002
  Beta virt. eigenvalues --    3.81800   3.89135   4.11388   4.13051   4.18339
  Beta virt. eigenvalues --    4.24073   4.25686   4.30338   4.35454   4.72473
  Beta virt. eigenvalues --    4.84982   5.22071   5.23875   5.36695   5.39556
  Beta virt. eigenvalues --    5.87329   5.94949  23.77193  23.90607  24.01517
  Beta virt. eigenvalues --   24.07343  24.31433  24.37951  24.51845  36.01563
  Beta virt. eigenvalues --   50.18683  50.21717
          Condensed to atoms (all electrons):
               1          2          3          4          5          6
     1  C   12.185689  -3.153769   1.815238  -1.096621   0.786116  -2.652487
     2  C   -3.153769  12.612656  -3.264706   1.794644  -0.138691  -0.806734
     3  C    1.815238  -3.264706  10.405637  -1.759892  -1.869768  -0.365669
     4  C   -1.096621   1.794644  -1.759892   7.668217  -1.241853   1.335980
     5  C    0.786116  -0.138691  -1.869768  -1.241853  12.114372  -3.192135
     6  C   -2.652487  -0.806734  -0.365669   1.335980  -3.192135  15.416203
     7  O    0.420235  -0.128187  -0.046195   0.009893  -0.167821  -0.063762
     8  O   -0.019562  -0.002990  -0.201135   0.477829  -0.241117   0.019654
     9  C   -0.939417  -1.698429   0.917031  -0.684393   0.110533  -6.478496
    10  N    0.030149   0.067001  -0.029498   0.019051  -0.019585   0.623405
    11  H   -0.085321   0.483755  -0.084712   0.027451   0.027955  -0.025015
    12  H   -0.000263  -0.049590   0.387141  -0.009356  -0.072288   0.052497
    13  H    0.034903   0.004092  -0.042687  -0.042629   0.462633  -0.053190
               7          8          9         10         11         12
     1  C    0.420235  -0.019562  -0.939417   0.030149  -0.085321  -0.000263
     2  C   -0.128187  -0.002990  -1.698429   0.067001   0.483755  -0.049590
     3  C   -0.046195  -0.201135   0.917031  -0.029498  -0.084712   0.387141
     4  C    0.009893   0.477829  -0.684393   0.019051   0.027451  -0.009356
     5  C   -0.167821  -0.241117   0.110533  -0.019585   0.027955  -0.072288
     6  C   -0.063762   0.019654  -6.478496   0.623405  -0.025015   0.052497
     7  O    8.307528   0.000297   0.033328   0.007872  -0.016207   0.000279
     8  O    0.000297   8.339749   0.032611  -0.000406   0.000451  -0.010624
     9  C    0.033328   0.032611  15.829222  -0.354492  -0.038395  -0.002488
    10  N    0.007872  -0.000406  -0.354492   6.950211   0.001408   0.000110
    11  H   -0.016207   0.000451  -0.038395   0.001408   0.576803  -0.026192
    12  H    0.000279  -0.010624  -0.002488   0.000110  -0.026192   0.583066
    13  H   -0.002967  -0.012499  -0.060130   0.001911   0.002026  -0.004087
              13
     1  C    0.034903
     2  C    0.004092
     3  C   -0.042687
     4  C   -0.042629
     5  C    0.462633
     6  C   -0.053190
     7  O   -0.002967
     8  O   -0.012499
     9  C   -0.060130
    10  N    0.001911
    11  H    0.002026
    12  H   -0.004087
    13  H    0.548587
          Atomic-Atomic Spin Densities.
               1          2          3          4          5          6
     1  C   -0.173006   0.087024  -0.068314   0.032759  -0.047107   0.196215
     2  C    0.087024   0.045584  -0.006732  -0.059597  -0.038952   0.026345
     3  C   -0.068314  -0.006732  -0.038197   0.107762   0.113615  -0.028742
     4  C    0.032759  -0.059597   0.107762  -0.009226   0.124633  -0.072101
     5  C   -0.047107  -0.038952   0.113615   0.124633   0.104715  -0.084728
     6  C    0.196215   0.026345  -0.028742  -0.072101  -0.084728  -0.051654
     7  O   -0.037369  -0.014162   0.005511  -0.001005   0.003871  -0.042474
     8  O   -0.000818   0.003859  -0.016448  -0.074054  -0.030350   0.004042
     9  C    0.041202   0.040711  -0.021475   0.032567   0.029373   0.168199
    10  N   -0.003448  -0.002248   0.001050  -0.001694   0.002135  -0.023164
    11  H    0.000542  -0.001042   0.003722  -0.001264  -0.001119   0.000299
    12  H   -0.001965   0.002304   0.002350  -0.000344  -0.002761   0.002069
    13  H   -0.002981   0.001247  -0.002378   0.003954  -0.001930   0.004446
               7          8          9         10         11         12
     1  C   -0.037369  -0.000818   0.041202  -0.003448   0.000542  -0.001965
     2  C   -0.014162   0.003859   0.040711  -0.002248  -0.001042   0.002304
     3  C    0.005511  -0.016448  -0.021475   0.001050   0.003722   0.002350
     4  C   -0.001005  -0.074054   0.032567  -0.001694  -0.001264  -0.000344
     5  C    0.003871  -0.030350   0.029373   0.002135  -0.001119  -0.002761
     6  C   -0.042474   0.004042   0.168199  -0.023164   0.000299   0.002069
     7  O    0.303019  -0.000222  -0.001290   0.001199  -0.000524   0.000289
     8  O   -0.000222   0.370681  -0.002438  -0.000012   0.000235  -0.000628
     9  C   -0.001290  -0.002438  -0.301701   0.018893   0.001498   0.001032
    10  N    0.001199  -0.000012   0.018893   0.041111  -0.000032  -0.000019
    11  H   -0.000524   0.000235   0.001498  -0.000032  -0.010623   0.001501
    12  H    0.000289  -0.000628   0.001032  -0.000019   0.001501  -0.008539
    13  H    0.000239  -0.000051   0.003028  -0.000264  -0.000185   0.000238
              13
     1  C   -0.002981
     2  C    0.001247
     3  C   -0.002378
     4  C    0.003954
     5  C   -0.001930
     6  C    0.004446
     7  O    0.000239
     8  O   -0.000051
     9  C    0.003028
    10  N   -0.000264
    11  H   -0.000185
    12  H    0.000238
    13  H   -0.019211
 Mulliken charges and spin densities:
               1          2
     1  C   -1.324890   0.022733
     2  C    0.280950   0.084340
     3  C    0.139215   0.051724
     4  C   -0.498321   0.082389
     5  C   -0.558351   0.171396
     6  C    2.189748   0.098753
     7  O   -0.354294   0.217083
     8  O   -0.382260   0.253795
     9  C   -0.666486   0.009598
    10  N   -0.297139   0.033506
    11  H    0.155991  -0.006994
    12  H    0.151796  -0.004475
    13  H    0.164039  -0.013848
 Sum of Mulliken charges =  -1.00000   1.00000
 Mulliken charges and spin densities with hydrogens summed into heavy atoms:
               1          2
     1  C   -1.324890   0.022733
     2  C    0.436941   0.077346
     3  C    0.291011   0.047249
     4  C   -0.498321   0.082389
     5  C   -0.394312   0.157548
     6  C    2.189748   0.098753
     7  O   -0.354294   0.217083
     8  O   -0.382260   0.253795
     9  C   -0.666486   0.009598
    10  N   -0.297139   0.033506
 Electronic spatial extent (au):  <R**2>=           1423.2814
 Charge=             -1.0000 electrons
 Dipole moment (field-independent basis, Debye):
    X=             -3.5826    Y=             -1.5226    Z=             -1.3061  Tot=              4.1060
 Quadrupole moment (field-independent basis, Debye-Ang):
   XX=            -74.1285   YY=            -98.2867   ZZ=            -62.3074
   XY=             -8.8864   XZ=             -5.5052   YZ=             -2.4627
 Traceless Quadrupole moment (field-independent basis, Debye-Ang):
   XX=              4.1124   YY=            -20.0458   ZZ=             15.9335
   XY=             -8.8864   XZ=             -5.5052   YZ=             -2.4627
 Octapole moment (field-independent basis, Debye-Ang**2):
  XXX=           -106.4466  YYY=              9.7810  ZZZ=            -12.4796  XYY=            -28.8124
  XXY=            -40.6226  XXZ=            -28.1446  XZZ=            -25.6054  YZZ=             -9.1989
  YYZ=             -7.7016  XYZ=            -16.1278
 Hexadecapole moment (field-independent basis, Debye-Ang**3):
 XXXX=           -969.4002 YYYY=          -1317.8873 ZZZZ=           -222.8314 XXXY=           -257.7616
 XXXZ=           -221.3171 YYYX=           -175.0594 YYYZ=            -49.2452 ZZZX=           -173.9146
 ZZZY=            -54.3216 XXYY=           -365.8381 XXZZ=           -193.8900 YYZZ=           -211.6387
 XXYZ=            -61.7726 YYXZ=            -81.8829 ZZXY=            -66.3747
 N-N= 4.388722078309D+02 E-N=-1.997146040814D+03  KE= 4.722586021118D+02
                          Isotropic Fermi Contact Couplings
        Atom                 a.u.       MegaHertz       Gauss      10(-4) cm-1
     1  C(13)             -0.00829      -9.31808      -3.32492      -3.10818
     2  C(13)             -0.00053      -0.59328      -0.21170      -0.19790
     3  C(13)             -0.00353      -3.96641      -1.41531      -1.32305
     4  C(13)             -0.01088     -12.22711      -4.36294      -4.07853
     5  C(13)              0.00395       4.43556       1.58272       1.47954
     6  C(13)             -0.00275      -3.09544      -1.10453      -1.03253
     7  O(17)              0.02193     -13.29557      -4.74419      -4.43493
     8  O(17)              0.02663     -16.14404      -5.76059      -5.38507
     9  C(13)             -0.00637      -7.15657      -2.55364      -2.38717
    10  N(14)              0.00178       0.57379       0.20474       0.19140
    11  H(1)              -0.00132      -5.89903      -2.10492      -1.96771
    12  H(1)              -0.00095      -4.24608      -1.51511      -1.41634
    13  H(1)              -0.00285     -12.74315      -4.54707      -4.25066
 --------------------------------------------------------
       Center         ----  Spin Dipole Couplings  ----
                      3XX-RR        3YY-RR        3ZZ-RR
 --------------------------------------------------------
     1   Atom       -0.027019     -0.023865      0.050884
     2   Atom       -0.018106     -0.045429      0.063536
     3   Atom       -0.010822     -0.030871      0.041693
     4   Atom       -0.028154     -0.028451      0.056605
     5   Atom       -0.048371     -0.106287      0.154658
     6   Atom       -0.029466     -0.051446      0.080912
     7   Atom       -0.208064     -0.472913      0.680978
     8   Atom       -0.210881     -0.566869      0.777749
     9   Atom        0.006296     -0.001821     -0.004475
    10   Atom       -0.018524     -0.035674      0.054198
    11   Atom        0.006475     -0.005474     -0.001001
    12   Atom        0.005351     -0.003490     -0.001862
    13   Atom        0.010573     -0.010360     -0.000213
 --------------------------------------------------------
                        XY            XZ            YZ
 --------------------------------------------------------
     1   Atom       -0.003808     -0.047808     -0.000520
     2   Atom       -0.002774     -0.053301      0.003728
     3   Atom       -0.001598     -0.036112      0.002156
     4   Atom       -0.001352     -0.060107      0.003264
     5   Atom       -0.006518     -0.125820      0.016693
     6   Atom       -0.004527     -0.065689      0.009983
     7   Atom       -0.008149     -0.540643      0.017591
     8   Atom       -0.021811     -0.679552      0.046306
     9   Atom        0.006545      0.005564      0.002816
    10   Atom       -0.003316     -0.040359      0.004303
    11   Atom       -0.002803      0.005214     -0.001331
    12   Atom        0.002869      0.004721      0.001426
    13   Atom       -0.008101      0.007482     -0.003477
 --------------------------------------------------------


 ---------------------------------------------------------------------------------
              Anisotropic Spin Dipole Couplings in Principal Axis System
 ---------------------------------------------------------------------------------

       Atom             a.u.   MegaHertz   Gauss  10(-4) cm-1        Axes

              Baa    -0.0502    -6.742    -2.406    -2.249  0.8952  0.1376  0.4239
     1 C(13)  Bbb    -0.0234    -3.136    -1.119    -1.046 -0.1192  0.9904 -0.0698
              Bcc     0.0736     9.878     3.525     3.295 -0.4295  0.0120  0.9030
 
              Baa    -0.0460    -6.176    -2.204    -2.060  0.4288  0.8856  0.1785
     2 C(13)  Bbb    -0.0440    -5.902    -2.106    -1.969  0.7875 -0.4632  0.4065
              Bcc     0.0900    12.078     4.310     4.029 -0.4426  0.0337  0.8961
 
              Baa    -0.0311    -4.167    -1.487    -1.390  0.2222  0.9716  0.0815
     3 C(13)  Bbb    -0.0291    -3.906    -1.394    -1.303  0.8630 -0.2349  0.4473
              Bcc     0.0602     8.073     2.881     2.693 -0.4538  0.0291  0.8907
 
              Baa    -0.0593    -7.960    -2.841    -2.655  0.8876 -0.0098  0.4605
     4 C(13)  Bbb    -0.0286    -3.832    -1.367    -1.278  0.0226  0.9995 -0.0223
              Bcc     0.0879    11.792     4.208     3.933 -0.4600  0.0302  0.8874
 
              Baa    -0.1094   -14.675    -5.236    -4.895  0.7494 -0.5344  0.3909
     5 C(13)  Bbb    -0.1064   -14.284    -5.097    -4.765  0.5031  0.8434  0.1885
              Bcc     0.2158    28.958    10.333     9.660 -0.4305  0.0554  0.9009
 
              Baa    -0.0601    -8.061    -2.877    -2.689  0.9060 -0.0142  0.4231
     6 C(13)  Bbb    -0.0522    -7.002    -2.498    -2.336  0.0411  0.9977 -0.0545
              Bcc     0.1123    15.063     5.375     5.025 -0.4214  0.0668  0.9044
 
              Baa    -0.4732    34.239    12.217    11.421 -0.0077  0.9998 -0.0188
     7 O(17)  Bbb    -0.4635    33.536    11.966    11.186  0.9042  0.0150  0.4269
              Bcc     0.9366   -67.775   -24.184   -22.607 -0.4271  0.0138  0.9041
 
              Baa    -0.5686    41.145    14.682    13.725 -0.1048  0.9907 -0.0870
     8 O(17)  Bbb    -0.5567    40.281    14.373    13.436  0.8851  0.1328  0.4461
              Bcc     1.1253   -81.426   -29.055   -27.161 -0.4535  0.0302  0.8907
 
              Baa    -0.0068    -0.917    -0.327    -0.306 -0.3804 -0.0228  0.9245
     9 C(13)  Bbb    -0.0054    -0.728    -0.260    -0.243 -0.4254  0.8920 -0.1530
              Bcc     0.0123     1.645     0.587     0.549  0.8212  0.4515  0.3490
 
              Baa    -0.0375    -1.447    -0.516    -0.483  0.7234  0.6270  0.2889
    10 N(14)  Bbb    -0.0349    -1.346    -0.480    -0.449 -0.5579  0.7775 -0.2903
              Bcc     0.0724     2.793     0.997     0.932 -0.4066  0.0488  0.9123
 
              Baa    -0.0061    -3.259    -1.163    -1.087  0.1948  0.9792  0.0564
    11 H(1)   Bbb    -0.0037    -1.961    -0.700    -0.654 -0.4484  0.0378  0.8931
              Bcc     0.0098     5.220     1.863     1.741  0.8724 -0.1992  0.4464
 
              Baa    -0.0043    -2.317    -0.827    -0.773 -0.2112  0.9654 -0.1528
    12 H(1)   Bbb    -0.0042    -2.239    -0.799    -0.747 -0.4530  0.0419  0.8905
              Bcc     0.0085     4.556     1.626     1.520  0.8661  0.2573  0.4285
 
              Baa    -0.0132    -7.043    -2.513    -2.349  0.2979  0.9510  0.0829
    13 H(1)   Bbb    -0.0040    -2.139    -0.763    -0.714 -0.4308  0.0564  0.9007
              Bcc     0.0172     9.183     3.277     3.063  0.8519 -0.3041  0.4265
 

 ---------------------------------------------------------------------------------

 No NMR shielding tensors so no spin-rotation constants.
 Leave Link  601 at Sun Dec 17 20:49:49 2023, MaxMem=  4026531840 cpu:               1.8 elap:               0.3
 (Enter /sysapps/ubuntu-applications/gaussian/Gaussian/AVX2/g16/l701.exe)
 ... and contract with generalized density number  0.
 Compute integral first derivatives.
 Leave Link  701 at Sun Dec 17 20:49:50 2023, MaxMem=  4026531840 cpu:               1.6 elap:               0.3
 (Enter /sysapps/ubuntu-applications/gaussian/Gaussian/AVX2/g16/l702.exe)
 L702 exits ... SP integral derivatives will be done elsewhere.
 Leave Link  702 at Sun Dec 17 20:49:50 2023, MaxMem=  4026531840 cpu:               0.3 elap:               0.1
 (Enter /sysapps/ubuntu-applications/gaussian/Gaussian/AVX2/g16/l703.exe)
 Integral derivatives from FoFJK, PRISM(SPDF).
 Compute integral first derivatives, UseDBF=F ICtDFT=           0.
 Calling FoFJK, ICntrl=      2127 FMM=F ISym2X=0 I1Cent= 0 IOpClX= 1 NMat=1 NMatS=1 NMatT=0.
 FoFJK:  IHMeth= 1 ICntrl=    2127 DoSepK=F KAlg= 0 I1Cent=           0 FoldK=F
 IRaf=         0 NMat=       1 IRICut=       1 DoRegI=T DoRafI=F ISym2E= 0 IDoP0=0 IntGTp=1.
 FoFCou: FMM=F IPFlag=           0 FMFlag=      100000 FMFlg1=         800
         NFxFlg=           0 DoJE=F BraDBF=F KetDBF=F FulRan=T
         wScrn=  0.000000 ICntrl=      2127 IOpCl=  1 I1Cent=           0 NGrid=           0
         NMat0=    1 NMatS0=      1 NMatT0=    0 NMatD0=    1 NMtDS0=    0 NMtDT0=    0
 Symmetry not used in FoFCou.
 Leave Link  703 at Sun Dec 17 20:49:59 2023, MaxMem=  4026531840 cpu:              71.6 elap:               9.1
 (Enter /sysapps/ubuntu-applications/gaussian/Gaussian/AVX2/g16/l716.exe)
 Dipole        =-1.40951952D+00-5.99026462D-01-5.13844753D-01
 -------------------------------------------------------------------
 Center     Atomic                   Forces (Hartrees/Bohr)
 Number     Number              X              Y              Z
 -------------------------------------------------------------------
      1        6           0.000488694   -0.016929515   -0.000516279
      2        6           0.018172159    0.011051003    0.008264872
      3        6           0.015658008   -0.008312133    0.008783922
      4        6           0.004840093    0.035388225   -0.000751145
      5        6          -0.019076172   -0.034897844   -0.007725498
      6        6          -0.006269432    0.032532444   -0.005940807
      7        8          -0.002239181    0.042807469   -0.002246338
      8        8           0.003563747   -0.057837969    0.004702017
      9        6          -0.021848782   -0.002203653   -0.008165452
     10        7          -0.000394115   -0.001561467   -0.000341011
     11        1           0.005174273    0.009607702    0.002347489
     12        1           0.005341428   -0.004641303    0.003214231
     13        1          -0.003410718   -0.005002959   -0.001626001
 -------------------------------------------------------------------
 Cartesian Forces:  Max     0.057837969 RMS     0.016982953
 Leave Link  716 at Sun Dec 17 20:49:59 2023, MaxMem=  4026531840 cpu:               0.3 elap:               0.1
 (Enter /sysapps/ubuntu-applications/gaussian/Gaussian/AVX2/g16/l103.exe)

 GradGradGradGradGradGradGradGradGradGradGradGradGradGradGradGradGradGrad
 Berny optimization.
 FormGI is forming the generalized inverse of G from B-inverse, IUseBI=4.
 Internal  Forces:  Max     0.058122372 RMS     0.015519006
 Search for a local minimum.
 Step number   1 out of a maximum of   67
 All quantities printed in internal units (Hartrees-Bohrs-Radians)
 RMS Force = .15519D-01 SwitMx=.10000D-02 MixMth= 1
 Mixed Optimization -- RFO/linear search
 Second derivative matrix not updated -- first step.
 ITU=  0
     Eigenvalues ---    0.00844   0.00936   0.01040   0.01543   0.01585
     Eigenvalues ---    0.01884   0.01894   0.02162   0.02228   0.04868
     Eigenvalues ---    0.04868   0.15998   0.16000   0.16000   0.22345
     Eigenvalues ---    0.23451   0.24595   0.24994   0.24997   0.25000
     Eigenvalues ---    0.31802   0.32642   0.33944   0.34573   0.34911
     Eigenvalues ---    0.35222   0.35344   0.37380   0.53015   0.56715
     Eigenvalues ---    0.94779   0.95399   1.27877
 RFO step:  Lambda=-2.96865278D-02 EMin= 8.43792515D-03
 Linear search not attempted -- first point.
 Iteration  1 RMS(Cart)=  0.06998526 RMS(Int)=  0.00105477
 Iteration  2 RMS(Cart)=  0.00127969 RMS(Int)=  0.00010873
 Iteration  3 RMS(Cart)=  0.00000088 RMS(Int)=  0.00010873
 ITry= 1 IFail=0 DXMaxC= 1.83D-01 DCOld= 1.00D+10 DXMaxT= 3.00D-01 DXLimC= 3.00D+00 Rises=F
 Variable       Old X    -DE/DX   Delta X   Delta X   Delta X     New X
                                 (Linear)    (Quad)   (Total)
    R1        2.81737  -0.01890   0.00000  -0.05271  -0.05277   2.76460
    R2        2.82932  -0.01779   0.00000  -0.04896  -0.04899   2.78032
    R3        2.30805   0.04292   0.00000   0.04390   0.04390   2.35196
    R4        2.53182   0.03115   0.00000   0.05075   0.05072   2.58254
    R5        2.05315  -0.00117   0.00000  -0.00307  -0.00307   2.05008
    R6        2.78926  -0.00999   0.00000  -0.02721  -0.02718   2.76208
    R7        2.05819  -0.00251   0.00000  -0.00663  -0.00663   2.05156
    R8        2.80169  -0.02144   0.00000  -0.05693  -0.05687   2.74482
    R9        2.30540   0.05812   0.00000   0.05909   0.05909   2.36448
   R10        2.54276   0.04463   0.00000   0.07673   0.07676   2.61952
   R11        2.05121  -0.00109   0.00000  -0.00284  -0.00284   2.04837
   R12        2.75277  -0.02224   0.00000  -0.05511  -0.05511   2.69767
   R13        2.19184  -0.00121   0.00000  -0.00092  -0.00092   2.19092
    A1        2.08892  -0.02628   0.00000  -0.09593  -0.09605   1.99287
    A2        2.08528   0.01416   0.00000   0.05160   0.05165   2.13693
    A3        2.10898   0.01213   0.00000   0.04435   0.04440   2.15338
    A4        2.10335   0.01334   0.00000   0.04718   0.04709   2.15044
    A5        2.10823  -0.01806   0.00000  -0.08365  -0.08361   2.02463
    A6        2.07159   0.00473   0.00000   0.03648   0.03653   2.10812
    A7        2.09226   0.01446   0.00000   0.05124   0.05124   2.14350
    A8        2.09711   0.00033   0.00000   0.01425   0.01425   2.11136
    A9        2.09381  -0.01479   0.00000  -0.06549  -0.06549   2.02832
   A10        2.09503  -0.02559   0.00000  -0.09416  -0.09409   2.00094
   A11        2.09200   0.01405   0.00000   0.05174   0.05165   2.14365
   A12        2.09596   0.01154   0.00000   0.04272   0.04263   2.13859
   A13        2.11128   0.00847   0.00000   0.03491   0.03501   2.14629
   A14        2.07196  -0.01056   0.00000  -0.05077  -0.05083   2.02114
   A15        2.09984   0.00210   0.00000   0.01594   0.01588   2.11572
   A16        2.07488   0.01561   0.00000   0.05717   0.05715   2.13203
   A17        2.13837  -0.01933   0.00000  -0.06976  -0.06977   2.06860
   A18        2.06984   0.00372   0.00000   0.01271   0.01270   2.08254
   A19        3.11196  -0.00239   0.00000  -0.03052  -0.03052   3.08144
   A20        3.14174  -0.00043   0.00000  -0.00554  -0.00554   3.13619
    D1        0.01944  -0.00003   0.00000  -0.00419  -0.00436   0.01508
    D2       -3.11652  -0.00032   0.00000  -0.00861  -0.00861  -3.12513
    D3       -3.12653   0.00033   0.00000   0.00298   0.00276  -3.12377
    D4        0.02069   0.00004   0.00000  -0.00145  -0.00148   0.01921
    D5       -0.03806   0.00056   0.00000   0.01100   0.01093  -0.02712
    D6        3.08778   0.00110   0.00000   0.01993   0.01962   3.10740
    D7        3.10798   0.00019   0.00000   0.00372   0.00372   3.11170
    D8       -0.04937   0.00074   0.00000   0.01266   0.01241  -0.03696
    D9        0.01020  -0.00029   0.00000  -0.00621  -0.00635   0.00385
   D10       -3.13068  -0.00023   0.00000  -0.00534  -0.00547  -3.13615
   D11       -3.13691  -0.00008   0.00000  -0.00227  -0.00229  -3.13919
   D12        0.00540  -0.00001   0.00000  -0.00139  -0.00141   0.00399
   D13       -0.02253   0.00050   0.00000   0.01104   0.01098  -0.01155
   D14        3.14043  -0.00008   0.00000  -0.00601  -0.00617   3.13427
   D15        3.11835   0.00044   0.00000   0.01020   0.01017   3.12852
   D16       -0.00187  -0.00014   0.00000  -0.00685  -0.00698  -0.00884
   D17        0.00329   0.00008   0.00000  -0.00392  -0.00411  -0.00081
   D18       -3.12262  -0.00019   0.00000  -0.00984  -0.00995  -3.13257
   D19        3.12346   0.00069   0.00000   0.01328   0.01310   3.13656
   D20       -0.00246   0.00042   0.00000   0.00736   0.00726   0.00481
   D21        0.02611  -0.00004   0.00000  -0.00506  -0.00520   0.02090
   D22       -3.10035  -0.00035   0.00000  -0.01287  -0.01322  -3.11357
   D23       -3.13141   0.00012   0.00000   0.00036   0.00037  -3.13105
   D24        0.02532  -0.00019   0.00000  -0.00744  -0.00765   0.01767
         Item               Value     Threshold  Converged?
 Maximum Force            0.058122     0.000450     NO 
 RMS     Force            0.015519     0.000300     NO 
 Maximum Displacement     0.182651     0.001800     NO 
 RMS     Displacement     0.070159     0.001200     NO 
 Predicted change in Energy=-1.612016D-02
 Lowest energy point so far.  Saving SCF results.
 GradGradGradGradGradGradGradGradGradGradGradGradGradGradGradGradGradGrad

 Leave Link  103 at Sun Dec 17 20:50:00 2023, MaxMem=  4026531840 cpu:               1.9 elap:               0.3
 (Enter /sysapps/ubuntu-applications/gaussian/Gaussian/AVX2/g16/l202.exe)
                          Input orientation:                          
 ---------------------------------------------------------------------
 Center     Atomic      Atomic             Coordinates (Angstroms)
 Number     Number       Type             X           Y           Z
 ---------------------------------------------------------------------
      1          6           0       -0.314690    1.186396   -0.260688
      2          6           0       -1.373339    0.302623   -0.749022
      3          6           0       -1.309120   -1.059890   -0.664872
      4          6           0       -0.173751   -1.764234   -0.072254
      5          6           0        0.890916   -0.900802    0.408075
      6          6           0        0.841532    0.481334    0.314388
      7          8           0       -0.396413    2.426493   -0.327878
      8          8           0       -0.118210   -3.011405    0.011767
      9          6           0        1.947828    1.253596    0.780865
     10          7           0        2.879842    1.820878    1.172924
     11          1           0       -2.233581    0.791547   -1.193823
     12          1           0       -2.114346   -1.681629   -1.043902
     13          1           0        1.746451   -1.404237    0.843460
 ---------------------------------------------------------------------
                    Distance matrix (angstroms):
                    1          2          3          4          5
     1  C    0.000000
     2  C    1.462964   0.000000
     3  C    2.489590   1.366619   0.000000
     4  C    2.959998   2.483731   1.461629   0.000000
     5  C    2.501425   2.813176   2.452893   1.452497   0.000000
     6  C    1.471283   2.463419   2.821281   2.494567   1.386188
     7  O    1.244602   2.375410   3.619595   4.204416   3.642765
     8  O    4.211219   3.624490   2.384222   1.251231   2.372770
     9  C    2.491653   3.778234   4.248539   3.786318   2.428470
    10  N    3.558489   4.908007   5.405898   4.871132   3.456641
    11  H    2.169974   1.084855   2.135940   3.468837   3.897770
    12  H    3.475307   2.138528   1.085639   2.171827   3.427759
    13  H    3.489818   3.896468   3.424932   2.157616   1.083949
                    6          7          8          9         10
     6  C    0.000000
     7  O    2.393462   0.000000
     8  O    3.634819   5.455592   0.000000
     9  C    1.427543   2.846131   4.801068   0.000000
    10  N    2.585763   3.654180   5.804098   1.159384   0.000000
    11  H    3.439077   2.607315   4.515605   4.647264   5.727836
    12  H    3.906479   4.510061   2.620553   5.333534   6.490285
    13  H    2.157354   4.542950   2.598396   2.666186   3.434311
                   11         12         13
    11  H    0.000000
    12  H    2.480584   0.000000
    13  H    4.981229   4.306372   0.000000
 Symmetry turned off by external request.
 Stoichiometry    C7H3NO2(1-,2)
 Framework group  C1[X(C7H3NO2)]
 Deg. of freedom    33
 Full point group                 C1      NOp   1
 Rotational constants (GHZ):           2.3027755           1.1256079           0.7561558
 Leave Link  202 at Sun Dec 17 20:50:00 2023, MaxMem=  4026531840 cpu:               0.4 elap:               0.1
 (Enter /sysapps/ubuntu-applications/gaussian/Gaussian/AVX2/g16/l301.exe)
 Standard basis: 6-311++G(d,p) (5D, 7F)
 Ernie: Thresh=  0.10000D-02 Tol=  0.10000D-05 Strict=F.
   241 basis functions,   387 primitive gaussians,   251 cartesian basis functions
    35 alpha electrons       34 beta electrons
       nuclear repulsion energy       438.4052791100 Hartrees.
 IExCor=  402 DFT=T Ex+Corr=B3LYP ExCW=0 ScaHFX=  0.200000
 ScaDFX=  0.800000  0.720000  1.000000  0.810000 ScalE2=  1.000000  1.000000
 IRadAn=      5 IRanWt=     -1 IRanGd=            0 ICorTp=0 IEmpDi=  4
 NAtoms=   13 NActive=   13 NUniq=   13 SFac= 1.00D+00 NAtFMM=   60 NAOKFM=F Big=F
 Integral buffers will be    131072 words long.
 Raffenetti 2 integral format.
 Two-electron integral symmetry is turned off.
 Leave Link  301 at Sun Dec 17 20:50:00 2023, MaxMem=  4026531840 cpu:               0.4 elap:               0.1
 (Enter /sysapps/ubuntu-applications/gaussian/Gaussian/AVX2/g16/l302.exe)
 NPDir=0 NMtPBC=     1 NCelOv=     1 NCel=       1 NClECP=     1 NCelD=      1
         NCelK=      1 NCelE2=     1 NClLst=     1 CellRange=     0.0.
 One-electron integrals computed using PRISM.
 NBasis=   241 RedAO= T EigKep=  2.37D-06  NBF=   241
 NBsUse=   241 1.00D-06 EigRej= -1.00D+00 NBFU=   241
 Precomputing XC quadrature grid using
 IXCGrd= 4 IRadAn=           5 IRanWt=          -1 IRanGd=           0 AccXCQ= 0.00D+00.
 Generated NRdTot=       0 NPtTot=           0 NUsed=           0 NTot=          32
 NSgBfM=   251   251   251   251   251 MxSgAt=    13 MxSgA2=    13.
 Leave Link  302 at Sun Dec 17 20:50:00 2023, MaxMem=  4026531840 cpu:               2.5 elap:               0.4
 (Enter /sysapps/ubuntu-applications/gaussian/Gaussian/AVX2/g16/l303.exe)
 DipDrv:  MaxL=1.
 Leave Link  303 at Sun Dec 17 20:50:00 2023, MaxMem=  4026531840 cpu:               0.7 elap:               0.2
 (Enter /sysapps/ubuntu-applications/gaussian/Gaussian/AVX2/g16/l401.exe)
 Initial guess from the checkpoint file:  "000-rad.chk"
 B after Tr=    -0.013184   -0.003665   -0.008902
         Rot=    0.999997    0.001175    0.001192   -0.001595 Ang=   0.26 deg.
 Guess basis will be translated and rotated to current coordinates.
 JPrj=2 DoOrth=T DoCkMO=T.
 Initial guess <Sx>= 0.0000 <Sy>= 0.0000 <Sz>= 0.5000 <S**2>= 0.7591 S= 0.5045
 Generating alternative initial guess.
 ExpMin= 3.60D-02 ExpMax= 8.59D+03 ExpMxC= 1.30D+03 IAcc=3 IRadAn=         5 AccDes= 0.00D+00
 Harris functional with IExCor=  402 and IRadAn=       5 diagonalized for initial guess.
 HarFok:  IExCor=  402 AccDes= 0.00D+00 IRadAn=         5 IDoV= 1 UseB2=F ITyADJ=14
 ICtDFT=  3500011 ScaDFX=  1.000000  1.000000  1.000000  1.000000
 FoFCou: FMM=F IPFlag=           0 FMFlag=      100000 FMFlg1=           0
         NFxFlg=           0 DoJE=T BraDBF=F KetDBF=T FulRan=T
         wScrn=  0.000000 ICntrl=       500 IOpCl=  0 I1Cent=   200000004 NGrid=           0
         NMat0=    1 NMatS0=      1 NMatT0=    0 NMatD0=    1 NMtDS0=    0 NMtDT0=    0
 Symmetry not used in FoFCou.
 Harris En= -474.067191832558    
 Leave Link  401 at Sun Dec 17 20:50:02 2023, MaxMem=  4026531840 cpu:               9.5 elap:               1.3
 (Enter /sysapps/ubuntu-applications/gaussian/Gaussian/AVX2/g16/l502.exe)
 Two-electron integral symmetry not used.
 UHF open shell SCF:
 Using DIIS extrapolation, IDIIS=  1040.
 NGot=  4026531840 LenX=  4026402026 LenY=  4026338584
 Requested convergence on RMS density matrix=1.00D-08 within 128 cycles.
 Requested convergence on MAX density matrix=1.00D-06.
 Requested convergence on             energy=1.00D-06.
 No special actions if energy rises.
 Fock matrices will be formed incrementally for  20 cycles.

 Cycle   1  Pass 1  IDiag  1:
 FoFJK:  IHMeth= 1 ICntrl=       0 DoSepK=F KAlg= 0 I1Cent=           0 FoldK=F
 IRaf= 940000000 NMat=       1 IRICut=       1 DoRegI=T DoRafI=F ISym2E= 0 IDoP0=0 IntGTp=1.
 FoFCou: FMM=F IPFlag=           0 FMFlag=      100000 FMFlg1=           0
         NFxFlg=           0 DoJE=F BraDBF=F KetDBF=F FulRan=T
         wScrn=  0.000000 ICntrl=         0 IOpCl=  1 I1Cent=           0 NGrid=           0
         NMat0=    1 NMatS0=      1 NMatT0=    0 NMatD0=    1 NMtDS0=    0 NMtDT0=    0
 Symmetry not used in FoFCou.
 E= -473.916080118205    
 DIIS: error= 3.83D-03 at cycle   1 NSaved=   1.
 NSaved= 1 IEnMin= 1 EnMin= -473.916080118205     IErMin= 1 ErrMin= 3.83D-03
 ErrMax= 3.83D-03  0.00D+00 EMaxC= 1.00D-01 BMatC= 2.98D-02 BMatP= 2.98D-02
 IDIUse=3 WtCom= 9.62D-01 WtEn= 3.83D-02
 Coeff-Com:  0.100D+01
 Coeff-En:   0.100D+01
 Coeff:      0.100D+01
 Gap=     0.333 Goal=   None    Shift=    0.000
 Gap=     0.402 Goal=   None    Shift=    0.000
 GapD=    0.333 DampG=1.000 DampE=1.000 DampFc=1.0000 IDamp=-1.
 RMSDP=7.19D-03 MaxDP=3.76D-01              OVMax= 4.18D-02

 Cycle   2  Pass 1  IDiag  1:
 RMSU=  7.19D-03    CP:  9.97D-01
 E= -473.922938661770     Delta-E=       -0.006858543564 Rises=F Damp=F
 DIIS: error= 5.89D-03 at cycle   2 NSaved=   2.
 NSaved= 2 IEnMin= 2 EnMin= -473.922938661770     IErMin= 1 ErrMin= 3.83D-03
 ErrMax= 5.89D-03  0.00D+00 EMaxC= 1.00D-01 BMatC= 1.37D-02 BMatP= 2.98D-02
 IDIUse=3 WtCom= 9.41D-01 WtEn= 5.89D-02
 Coeff-Com:  0.347D+00 0.653D+00
 Coeff-En:   0.000D+00 0.100D+01
 Coeff:      0.327D+00 0.673D+00
 Gap=     0.119 Goal=   None    Shift=    0.000
 Gap=     0.137 Goal=   None    Shift=    0.000
 RMSDP=2.90D-03 MaxDP=1.70D-01 DE=-6.86D-03 OVMax= 3.99D-02

 Cycle   3  Pass 1  IDiag  1:
 RMSU=  2.47D-03    CP:  1.02D+00  9.29D-01
 E= -473.921788306096     Delta-E=        0.001150355674 Rises=F Damp=F
 DIIS: error= 6.95D-03 at cycle   3 NSaved=   3.
 NSaved= 3 IEnMin= 2 EnMin= -473.922938661770     IErMin= 1 ErrMin= 3.83D-03
 ErrMax= 6.95D-03  0.00D+00 EMaxC= 1.00D-01 BMatC= 1.96D-02 BMatP= 1.37D-02
 IDIUse=3 WtCom= 1.07D-01 WtEn= 8.93D-01
 Coeff-Com: -0.196D-02 0.546D+00 0.456D+00
 Coeff-En:   0.000D+00 0.567D+00 0.433D+00
 Coeff:     -0.210D-03 0.564D+00 0.436D+00
 Gap=     0.123 Goal=   None    Shift=    0.000
 Gap=     0.141 Goal=   None    Shift=    0.000
 RMSDP=1.70D-03 MaxDP=1.03D-01 DE= 1.15D-03 OVMax= 2.13D-02

 Cycle   4  Pass 1  IDiag  1:
 RMSU=  6.37D-04    CP:  1.01D+00  9.85D-01  4.95D-01
 E= -473.925524091291     Delta-E=       -0.003735785195 Rises=F Damp=F
 DIIS: error= 6.18D-04 at cycle   4 NSaved=   4.
 NSaved= 4 IEnMin= 4 EnMin= -473.925524091291     IErMin= 4 ErrMin= 6.18D-04
 ErrMax= 6.18D-04  0.00D+00 EMaxC= 1.00D-01 BMatC= 2.50D-04 BMatP= 1.37D-02
 IDIUse=3 WtCom= 9.94D-01 WtEn= 6.18D-03
 Coeff-Com: -0.729D-02 0.271D+00 0.206D+00 0.530D+00
 Coeff-En:   0.000D+00 0.000D+00 0.000D+00 0.100D+01
[...]
 ! R11   R(5,13)                 1.0848         -DE/DX =    0.0                 !
 ! R12   R(6,9)                  1.4261         -DE/DX =    0.0                 !
 ! R13   R(9,10)                 1.1594         -DE/DX =    0.0                 !
 ! A1    A(2,1,6)              114.4393         -DE/DX =    0.0                 !
 ! A2    A(2,1,7)              122.2947         -DE/DX =    0.0                 !
 ! A3    A(6,1,7)              123.266          -DE/DX =    0.0                 !
 ! A4    A(1,2,3)              123.0996         -DE/DX =    0.0                 !
 ! A5    A(1,2,11)             115.6185         -DE/DX =    0.0                 !
 ! A6    A(3,2,11)             121.2819         -DE/DX =    0.0                 !
 ! A7    A(2,3,4)              122.5813         -DE/DX =    0.0                 !
 ! A8    A(2,3,12)             121.0805         -DE/DX =    0.0                 !
 ! A9    A(4,3,12)             116.3382         -DE/DX =    0.0                 !
 ! A10   A(3,4,5)              115.2198         -DE/DX =    0.0                 !
 ! A11   A(3,4,8)              122.2259         -DE/DX =    0.0                 !
 ! A12   A(5,4,8)              122.5544         -DE/DX =    0.0                 !
 ! A13   A(4,5,6)              122.623          -DE/DX =    0.0                 !
 ! A14   A(4,5,13)             117.05           -DE/DX =    0.0                 !
 ! A15   A(6,5,13)             120.327          -DE/DX =    0.0                 !
 ! A16   A(1,6,5)              122.0371         -DE/DX =    0.0                 !
 ! A17   A(1,6,9)              118.5073         -DE/DX =    0.0                 !
 ! A18   A(5,6,9)              119.4556         -DE/DX =    0.0                 !
 ! A19   L(6,9,10,13,-1)       178.001          -DE/DX =    0.0                 !
 ! A20   L(6,9,10,13,-2)       179.988          -DE/DX =    0.0                 !
 ! D1    D(6,1,2,3)              0.0037         -DE/DX =    0.0                 !
 ! D2    D(6,1,2,11)          -179.9957         -DE/DX =    0.0                 !
 ! D3    D(7,1,2,3)           -179.9963         -DE/DX =    0.0                 !
 ! D4    D(7,1,2,11)             0.0043         -DE/DX =    0.0                 !
 ! D5    D(2,1,6,5)             -0.0041         -DE/DX =    0.0                 !
 ! D6    D(2,1,6,9)            179.9971         -DE/DX =    0.0                 !
 ! D7    D(7,1,6,5)            179.9959         -DE/DX =    0.0                 !
 ! D8    D(7,1,6,9)             -0.0029         -DE/DX =    0.0                 !
 ! D9    D(1,2,3,4)             -0.0011         -DE/DX =    0.0                 !
 ! D10   D(1,2,3,12)           179.999          -DE/DX =    0.0                 !
 ! D11   D(11,2,3,4)          -180.0018         -DE/DX =    0.0                 !
 ! D12   D(11,2,3,12)           -0.0017         -DE/DX =    0.0                 !
 ! D13   D(2,3,4,5)             -0.0013         -DE/DX =    0.0                 !
 ! D14   D(2,3,4,8)            179.9951         -DE/DX =    0.0                 !
 ! D15   D(12,3,4,5)           179.9986         -DE/DX =    0.0                 !
 ! D16   D(12,3,4,8)            -0.0049         -DE/DX =    0.0                 !
 ! D17   D(3,4,5,6)              0.0008         -DE/DX =    0.0                 !
 ! D18   D(3,4,5,13)          -179.9941         -DE/DX =    0.0                 !
 ! D19   D(8,4,5,6)           -179.9956         -DE/DX =    0.0                 !
 ! D20   D(8,4,5,13)             0.0095         -DE/DX =    0.0                 !
 ! D21   D(4,5,6,1)              0.002          -DE/DX =    0.0                 !
 ! D22   D(4,5,6,9)           -179.9992         -DE/DX =    0.0                 !
 ! D23   D(13,5,6,1)           179.9967         -DE/DX =    0.0                 !
 ! D24   D(13,5,6,9)            -0.0045         -DE/DX =    0.0                 !
 --------------------------------------------------------------------------------
 GradGradGradGradGradGradGradGradGradGradGradGradGradGradGradGradGradGrad

 Leave Link  103 at Sun Dec 17 21:07:32 2023, MaxMem=  4026531840 cpu:              18.4 elap:               4.1
 (Enter /sysapps/ubuntu-applications/gaussian/Gaussian/AVX2/g16/l9999.exe)

 ----------------------------------------------------------------------

 Electric dipole moment (input orientation):
 (Debye = 10**-18 statcoulomb cm , SI units = C m)
                  (au)            (Debye)         (10**-30 SI)
   Tot        0.154170D+01      0.391860D+01      0.130711D+02
   x         -0.134684D+01     -0.342333D+01     -0.114190D+02
   y         -0.580876D+00     -0.147644D+01     -0.492487D+01
   z         -0.474794D+00     -0.120681D+01     -0.402547D+01

 Dipole polarizability, Alpha (input orientation).
 (esu units = cm**3 , SI units = C**2 m**2 J**-1)
 Alpha(0;0):
               (au)            (10**-24 esu)      (10**-40 SI)
   iso        0.113629D+03      0.168380D+02      0.187348D+02
   aniso      0.968561D+02      0.143526D+02      0.159694D+02
   xx         0.115583D+03      0.171276D+02      0.190570D+02
   yx         0.168025D+02      0.248987D+01      0.277035D+01
   yy         0.157553D+03      0.233469D+02      0.259769D+02
   zx         0.285348D+02      0.422842D+01      0.470475D+01
   zy         0.339100D+01      0.502494D+00      0.559100D+00
   zz         0.677502D+02      0.100395D+02      0.111705D+02

 ----------------------------------------------------------------------

 Dipole orientation:
     6         -0.34658963         -2.31818802         -0.17574277
     6          0.00614460         -1.68676425          2.47823605
     6          0.55131817          0.69243434          3.29692555
     6          0.83006723          2.82156668          1.57974371
     6          0.48841298          2.23762184         -1.05673403
     6         -0.06698396         -0.17863002         -1.90868799
     8         -0.84710040         -4.51499599         -0.89653115
     8          1.33553143          5.02239930          2.35271548
     6         -0.37921998         -0.61341858         -4.54997512
     7         -0.61893450         -0.89281262         -6.70974854
     1         -0.19316194         -3.24780854          3.79596692
     1          0.80219840          1.09451785          5.29492133
     1          0.68411020          3.78480033         -2.38722857

 Electric dipole moment (dipole orientation):
 (Debye = 10**-18 statcoulomb cm , SI units = C m)
                  (au)            (Debye)         (10**-30 SI)
   Tot        0.154170D+01      0.391860D+01      0.130711D+02
   x          0.000000D+00      0.000000D+00      0.000000D+00
   y          0.000000D+00      0.000000D+00      0.000000D+00
   z          0.154170D+01      0.391860D+01      0.130711D+02

 Dipole polarizability, Alpha (dipole orientation).
 (esu units = cm**3 , SI units = C**2 m**2 J**-1)
 Alpha(0;0):
               (au)            (10**-24 esu)      (10**-40 SI)
   iso        0.113629D+03      0.168380D+02      0.187348D+02
   aniso      0.968561D+02      0.143526D+02      0.159694D+02
   xx         0.589384D+02      0.873378D+01      0.971764D+01
   yx         0.183811D+02      0.272379D+01      0.303063D+01
   yy         0.137741D+03      0.204110D+02      0.227103D+02
   zx         0.116640D+02      0.172842D+01      0.192313D+01
   zy         0.199854D+02      0.296153D+01      0.329514D+01
   zz         0.144207D+03      0.213692D+02      0.237765D+02

 ----------------------------------------------------------------------
 1\1\GINC-ACIDSGN004\Freq\UB3LYP\6-311++G(d,p)\C7H3N1O2(1-,2)\SELHAJJ1\
 17-Dec-2023\0\\#P Geom=AllCheck Guess=TCheck SCRF=Check GenChk UB3LYP/
 6-311++G(d,p) Freq\\Radical\\-1,2\C,-0.3038573931,1.1747837364,-0.2733
 367923\C,-1.3689468269,0.3007859603,-0.7430282597\C,-1.3104267313,-1.0
 574162081,-0.65411232\C,-0.1716093481,-1.7565655883,-0.0786177166\C,0.
 8941542624,-0.9099305706,0.3925658112\C,0.8438245029,0.4737449817,0.30
 64094459\O,-0.3735038595,2.4214770159,-0.3624896995\O,-0.1244592574,-3
 .0162215246,0.0005433682\C,1.9381584757,1.2470578776,0.7945158945\N,2.
 8465691503,1.8414018662,1.2016066181\H,-2.2299385704,0.80100771,-1.176
 8839171\H,-2.1252489797,-1.6788695227,-1.0155379811\H,1.7584045751,-1.
 4005857336,0.8274055483\\Version=ES64L-G16RevA.03\HF=-473.9260529\S2=0
 .761529\S2-1=0.\S2A=0.750053\RMSD=5.728e-09\RMSF=2.384e-05\ZeroPoint=0
 .0816106\Thermal=0.0894445\Dipole=-0.8890489,-0.5061712,-0.4020666\Dip
 oleDeriv=-0.0074043,-0.1205729,-0.0537688,-0.4532311,1.1391076,-0.2623
 829,-0.0388942,-0.1034407,0.1025828,0.1632338,-0.2703672,0.1750532,0.3
 993073,-0.0249687,0.1839109,0.1450183,-0.1360646,-0.1023695,0.186414,0
 .2909271,0.1507002,-0.3817769,-0.0494797,-0.1871724,0.1809102,0.134223
 1,-0.0759809,-0.2237536,-0.0598622,-0.1423353,0.0513059,1.1545874,-0.0
 238374,-0.1473554,-0.0769014,0.012868,0.034307,-0.2818671,0.0976286,0.
 5652308,0.2164352,0.2539038,0.0595507,-0.1508324,-0.108331,-0.2485911,
 0.1692378,-0.1278503,-0.6978299,-0.3297324,-0.3184791,-0.0889014,0.095
 7835,-0.0436951,-0.3694734,0.1009631,0.0133389,0.4007694,-1.4224792,0.
 2370301,-0.0001023,0.0937614,-0.4111305,-0.3658823,0.0262977,0.0296778
 ,-0.1245767,-1.5362268,-0.0098146,0.0364725,0.0622503,-0.4158395,0.774
 015,0.3795823,0.3023522,0.4804249,0.3065522,0.2205611,0.2977379,0.1723
 471,0.2401566,-0.8063994,-0.2623979,-0.1927757,-0.2795718,-0.4833564,-
 0.1289016,-0.191885,-0.1206375,-0.4646684,-0.0638434,0.0586558,-0.0945
 361,0.0896452,0.0138337,0.0479724,-0.0959445,0.0331693,0.0811705,-0.04
 99574,-0.083513,-0.0803758,-0.1121257,-0.0152598,-0.0472203,-0.0790954
 ,-0.0335485,0.089835,-0.022665,0.0529165,-0.0771088,0.0624285,0.030986
 8,0.0344301,-0.0775113,0.0298903,0.0954021\Polar=115.582877,16.8024781
 ,157.5525777,28.5347763,3.3909964,67.750217\Quadrupole=4.1914654,-16.2
 481407,12.0566753,-6.646019,-4.1414538,-1.7388652\PG=C01 [X(C7H3N1O2)]
 \NImag=0\\0.44269687,0.00055778,0.75792451,0.12702525,-0.02578596,0.23
 862838,-0.17721788,-0.04004650,-0.04907167,0.52541059,-0.01480488,-0.1
 0935749,-0.00535229,-0.05722848,0.73536749,-0.05020261,-0.01740267,-0.
 09397161,0.20098362,-0.05540572,0.20871673,0.02817007,-0.01880590,0.01
 443551,-0.11395025,-0.00964669,-0.03262759,0.51835346,-0.04139627,-0.0
 3641283,-0.01815546,0.03167569,-0.42040637,0.03199589,0.06247372,0.749
 80589,0.01545534,-0.00736522,0.00742979,-0.03447122,0.01226719,-0.0618
 0428,0.19117151,0.00123164,0.20367330,-0.03139982,-0.01237009,-0.01164
 703,0.02232370,0.05021059,0.00828652,-0.18053111,-0.00012499,-0.053781
 17,0.45765293,0.00403862,-0.00894518,0.00206590,0.02731266,-0.02136770
 ,0.01401618,0.02994913,-0.10745629,0.01608442,0.00330403,0.72897205,-0
 .01238474,-0.00577189,-0.01152319,0.00931964,0.02496509,0.00358216,-0.
 05512563,0.00171543,-0.09436989,0.13901224,-0.02369485,0.23387117,0.01
 689573,0.03327822,0.00577915,-0.00912430,-0.01288958,-0.00512032,-0.03
 175016,0.00171358,-0.01837118,-0.18869410,-0.04549778,-0.05646136,0.54
 642650,0.04961944,-0.00810461,0.02414959,-0.01609159,-0.03361573,-0.00
 604803,-0.01188361,0.04294752,-0.00731994,-0.02214986,-0.12188923,-0.0
 0809937,-0.03858265,0.68350726,0.00503972,0.01633146,0.00334935,-0.004
 97852,-0.00452019,0.00062639,-0.01774848,-0.00081392,-0.00192446,-0.05
 750762,-0.01924525,-0.09286386,0.21145015,-0.04427927,0.21047237,-0.16
 279251,0.00751399,-0.04590304,-0.02631800,-0.00505477,-0.01600063,-0.0
 0793293,0.00776879,-0.00549223,0.01240992,-0.02522307,0.00684672,-0.09
 753834,0.00724416,-0.02616568,0.48120635,-0.00051209,-0.11914119,0.002
 07941,0.00440417,0.04197935,0.00056514,0.01768657,-0.02941246,0.009890
 36,-0.04414233,-0.02434654,-0.01997586,0.02889448,-0.34933156,0.027533
 65,0.03658226,0.66233186,-0.04554368,0.00591644,-0.08942686,-0.0164380
 2,-0.00396473,-0.00001904,-0.00593744,0.00515411,-0.00023093,0.0077047
 9,-0.01093717,0.00461493,-0.02713322,0.01719903,-0.05721311,0.17388806
 ,-0.00714203,0.19718343,-0.08397336,0.02409038,-0.01294873,0.01139838,
 -0.04356178,-0.00113700,-0.00699746,0.00433687,-0.00515683,0.00354626,
 -0.00180297,0.00192790,-0.00649041,-0.00750285,-0.00432973,0.00494551,
 0.04971025,-0.00744977,0.07398800,0.02289687,-0.50641186,0.03098834,-0
 .02682135,-0.07219022,-0.00878048,-0.00657432,0.00970987,-0.00342471,0
 .01026574,0.01189375,0.00435471,-0.00368945,-0.00831798,-0.00124055,0.
 04283549,-0.03865476,0.02291034,-0.02935650,0.62494210,-0.01289473,0.0
 3155929,-0.06670894,-0.00188677,-0.01677644,0.01771602,-0.00466773,0.0
 0178864,0.00107773,0.00138617,-0.00140860,0.00040761,-0.00450190,-0.00
 306493,0.00126579,-0.00713971,0.02619404,0.01128644,0.02412161,-0.0408
 6150,0.03961529,0.00300187,0.00197420,0.00160465,-0.00676696,-0.006316
 73,-0.00451858,0.00374501,0.04903628,-0.00789561,-0.07994622,0.0125586
 3,-0.01271966,0.01001813,-0.04413847,-0.00062954,-0.00358582,0.0050005
 4,-0.00357947,0.00043040,-0.00151088,0.00017574,0.06966965,-0.00685874
 ,0.01060167,-0.00377515,0.00296425,0.00541731,0.00132102,0.02900711,-0
 .05594263,0.01708101,0.01602823,-0.47036035,0.02635052,-0.02890290,-0.
 06343284,-0.01026365,0.00025584,-0.00311843,0.00041528,0.00232499,-0.0
 1393760,0.00174461,-0.01676863,0.59078543,0.00200206,0.00044211,0.0003
 9491,-0.00493547,-0.00311418,0.00106555,-0.00699579,0.02664711,0.01111
 885,-0.01287473,0.02469659,-0.06176628,-0.00131452,-0.01754319,0.01564
 828,-0.00336632,0.00268424,0.00170601,0.00000331,-0.00008602,0.0002098
 2,0.02221204,-0.03345801,0.03687356,-0.03013891,-0.00217654,-0.0149036
 1,-0.00715527,-0.00191945,-0.00546836,-0.00389896,0.00774287,-0.001667
 51,0.01353488,0.00079898,0.00191959,-0.00560054,-0.03038725,-0.0022636
 1,-0.19045496,-0.06856076,-0.06071075,0.00019279,-0.01514609,0.0021733
 7,-0.00196663,0.00282450,-0.00075480,0.95734302,-0.00065047,0.03180922
 ,-0.00168175,0.00070688,-0.00430189,0.00073193,-0.00139912,0.00286308,
 -0.00084800,0.00956105,-0.00277458,0.00511700,-0.03830208,-0.03874349,
 -0.01647113,-0.06945013,-0.13119118,-0.02984964,-0.00264325,-0.0132895
 0,-0.00079846,-0.00258755,-0.00126084,-0.00120900,0.55631272,0.4879469
 5,-0.01497115,-0.00241239,-0.00578547,-0.00558628,-0.00052348,0.001825
 89,-0.00125639,0.00351933,-0.00189444,0.00152332,0.00093087,0.01013237
 ,-0.00190704,-0.01268477,0.00164974,-0.06066492,-0.02942373,-0.0846005
 3,0.00161323,-0.00676962,-0.00186231,-0.00051116,0.00137525,-0.0009596
 1,0.38843532,0.24787871,0.26603722,0.00340453,-0.01068575,0.00137201,0
 .00206218,0.00322738,0.00140861,0.00208569,-0.00363020,0.00106394,-0.0
 0446462,0.00029569,-0.00137910,-0.00111727,0.01293734,-0.00179626,-0.0
 1080527,-0.02479468,-0.01239187,0.00073144,0.00817076,-0.00038068,0.00
 056317,-0.00256269,0.00034196,-0.72988954,-0.45174381,-0.30845400,0.73
 690795,0.00206827,-0.01577129,0.00176478,0.00043500,0.00318046,0.00001
 135,0.00112885,-0.00203828,0.00063964,-0.00352155,0.00062298,-0.001782
 96,0.00336781,0.00902220,0.00126801,-0.02560510,0.00308623,-0.01158221
 ,0.00231396,0.00849441,0.00075866,0.00062553,-0.00085436,0.00034135,-0
 .45045704,-0.33279094,-0.20201937,0.46974810,0.32757706,0.00079867,-0.
 00432573,0.00211314,0.00153422,0.00134485,-0.00051818,0.00084996,-0.00
 163338,0.00067906,-0.00120590,0.00004100,-0.00218663,-0.00136708,0.005
 83769,0.00051265,-0.01236326,-0.01120045,0.01207629,-0.00011828,0.0035
 5493,0.00054487,0.00019837,-0.00118137,0.00023693,-0.30850334,-0.20262
 844,-0.17967821,0.32031224,0.21058998,0.16545144,-0.01560026,0.0159620
 5,-0.01002285,-0.22558206,0.09666264,-0.09584764,0.00267643,-0.0011855
 8,-0.00095396,0.00409718,-0.00141517,-0.00305021,0.00030823,-0.0010683
 9,0.00075876,-0.00229111,-0.00338483,-0.00234045,0.00290258,-0.0005605
 8,0.00269501,-0.00052009,0.00071299,0.00037811,-0.00116814,0.00085163,
 -0.00067092,-0.00015729,-0.00042916,-0.00002456,0.23564081,-0.01464372
 ,0.00910817,-0.00723164,0.09847729,-0.11076919,0.05049830,0.02703928,-
 0.01008438,0.01358641,-0.00349247,-0.00289857,-0.00106218,-0.00006080,
 -0.00081852,-0.00004507,-0.00245220,-0.00122150,-0.00098556,0.00158595
 ,0.00197968,0.00054897,0.00164177,-0.00202301,0.00081349,-0.00098800,0
 .00059582,-0.00049170,0.00008908,-0.00021580,0.00004933,-0.10690772,0.
 11547110,-0.00865090,0.00739225,-0.00058538,-0.09592989,0.04963190,-0.
 08213772,-0.00222135,0.00010174,0.00371968,-0.00295628,-0.00006964,0.0
 0920400,0.00071344,-0.00052737,-0.00081534,-0.00238134,-0.00143097,0.0
 0184977,0.00260038,-0.00047723,-0.00142623,0.00033663,0.00036920,-0.00
 123424,-0.00058849,0.00038720,-0.00014232,-0.00004795,-0.00019833,-0.0
 0007936,0.10623883,-0.05521978,0.07659073,0.00366485,0.00176129,-0.003
 57606,0.00476320,0.00240202,-0.00029049,-0.20747730,-0.11483064,-0.077
 11332,-0.01442429,-0.01957944,-0.00804012,-0.00322022,0.00333062,-0.00
 328266,0.00039693,0.00110397,0.00065847,-0.00037820,-0.00063561,0.0006
 3510,0.00290552,0.00090888,0.00259323,-0.00026485,-0.00016101,0.000217
 32,0.00003532,0.00000319,-0.00007326,-0.00019289,-0.00040314,0.0027683
 4,0.21537165,0.00358631,-0.00230709,0.00231045,-0.02574178,-0.01357185
 ,-0.01145869,-0.11628341,-0.14173313,-0.05078455,0.01073266,0.00853215
 ,0.00493608,0.00227138,-0.00061739,0.00126251,-0.00003271,-0.00057082,
 -0.00003886,-0.00137853,-0.00223876,-0.00063231,-0.00125605,0.00211545
 ,-0.00081139,0.00018941,0.00019300,0.00005008,-0.00021633,-0.00012971,
 -0.00008902,0.00066401,0.00086609,0.00001130,0.12689748,0.14895685,-0.
 00365789,0.00143783,0.00917212,0.00097231,0.00198692,0.00552196,-0.077
 04906,-0.05008929,-0.06986700,-0.00939840,-0.00954773,0.00018081,-0.00
 323518,0.00176846,0.00171194,0.00070943,0.00050491,-0.00076918,0.00066
 850,-0.00027697,-0.00131588,0.00268953,0.00022341,-0.00132785,0.000201
 39,-0.00011734,-0.00060302,-0.00006332,0.00001584,0.00015735,0.0027205
 4,-0.00049818,-0.00462655,0.08592332,0.05500608,0.06220265,0.00328882,
 -0.00105313,-0.00214357,0.00015667,-0.00108028,0.00053446,-0.00249250,
 -0.00358011,-0.00278777,-0.01410471,0.01526069,-0.00986528,-0.23011325
 ,0.09867312,-0.09854652,0.00276022,-0.00198755,-0.00072666,-0.00029593
 ,0.00012594,0.00028451,0.00245196,0.00006618,0.00271092,-0.00053289,-0
 .00049485,0.00223267,0.00064372,0.00032214,-0.00003777,-0.00011338,0.0
 0011467,0.00011859,-0.00117972,0.00056756,-0.00048118,0.23953097,-0.00
 390110,-0.00299205,-0.00137621,-0.00004624,-0.00036417,-0.00004421,-0.
 00269162,-0.00184001,-0.00103825,-0.01430100,0.01001751,-0.00705172,0.
 09839977,-0.11060564,0.05048338,0.02561746,-0.01040899,0.01290501,0.00
 188349,-0.00197913,0.00094804,0.00174135,0.00201019,0.00059691,0.00176
 665,0.00094437,0.00057083,-0.00083489,-0.00018296,-0.00035939,0.000098
 10,0.00001010,0.00002971,-0.00079761,0.00050520,-0.00041394,-0.1069343
 7,0.11488558,-0.00201533,-0.00001552,0.00691376,0.00048804,-0.00053890
 ,-0.00060388,-0.00282753,-0.00146184,0.00239259,-0.00854190,0.00706829
 ,0.00071681,-0.09853092,0.05061210,-0.08241973,-0.00196708,-0.00027871
 ,0.00354278,0.00020541,0.00010877,-0.00081022,0.00263707,-0.00020212,-
 0.00196592,0.00213079,-0.00051108,-0.00411932,0.00001441,0.00019326,0.
 00069064,0.00011933,0.00003760,-0.00031704,-0.00041988,0.00023830,-0.0
 0043734,0.10870759,-0.05525016,0.07641688\\-0.00002120,-0.00000211,-0.
 00000980,0.00000206,0.00002960,0.00000352,0.00000290,-0.00001949,0.000
 00637,-0.00001146,-0.00008897,-0.00001211,-0.00000172,0.00004483,0.000
 00361,0.00003200,-0.00005413,0.00000609,0.00000379,0.00000075,0.000002
 41,0.00000188,0.00007224,0.00000186,-0.00000961,0.00001485,0.00001231,
 0.00000052,-0.00000614,-0.00000853,0.00000043,-0.00000803,-0.00000085,
 -0.00000215,0.00001205,-0.00000113,0.00000257,0.00000455,-0.00000373\\
 \@


 FRICTION IS A DRAG,
 AND ENTROPY AIN'T WHAT IT USED TO BE.
 Job cpu time:       0 days  0 hours 46 minutes 51.9 seconds.
 Elapsed time:       0 days  0 hours  6 minutes 57.7 seconds.
 File lengths (MBytes):  RWF=    186 Int=      0 D2E=      0 Chk=      8 Scr=      1
 Normal termination of Gaussian 16 at Sun Dec 17 21:07:32 2023.
