
Running Job 1 of 1 006-an-CPCM.in
qchem 006-an-CPCM.in_2936043.0 /expanse/lustre/scratch/selhajj/temp_project/qcscratch/31246103/qchem2936043/ 0
/cm/shared/apps/spack/cpu/opt/spack/linux-centos8-zen2/gcc-10.2.0/qchem-5.4-akfmr7b3t57bfs6qan3padb2wnb2i7cl/exe/qcprog.exe_s 006-an-CPCM.in_2936043.0 /expanse/lustre/scratch/selhajj/temp_project/qcscratch/31246103/qchem2936043/
                  Welcome to Q-Chem
     A Quantum Leap Into The Future Of Chemistry


 Q-Chem 5.4, Q-Chem, Inc., Pleasanton, CA (2021)

 License issued to: University of California, San Diego (site)

 E. Epifanovsky,  A. T. B. Gilbert,  Xintian Feng,  Joonho Lee,  Yuezhi Mao,  
 N. Mardirossian,  P. Pokhilko,  A. White,  M. Wormit,  M. P. Coons,  
 A. L. Dempwolff,  Zhengting Gan,  D. Hait,  P. R. Horn,  L. D. Jacobson,  
 I. Kaliman,  J. Kussmann,  A. W. Lange,  Ka Un Lao,  D. S. Levine,  Jie Liu,  
 S. C. McKenzie,  A. F. Morrison,  K. Nanda,  F. Plasser,  D. R. Rehn,  
 M. L. Vidal,  Zhi-Qiang You,  Ying Zhu,  B. Alam,  B. Albrecht,  
 A. Aldossary,  E. Alguire,  J. H. Andersen,  D. Barton,  K. Begam,  A. Behn,  
 Y. A. Bernard,  E. J. Berquist,  H. Burton,  A. Carreras,  K. Carter-Fenk,  
 R. Chakraborty,  A. D. Chien,  K. D. Closser,  V. Cofer-Shabica,  
 S. Dasgupta,  Jia Deng,  M. de Wergifosse,  M. Diedenhofen,  Hainam Do,  
 S. Ehlert,  Po-Tung Fang,  S. Fatehi,  Qingguo Feng,  J. Gayvert,  
 Qinghui Ge,  G. Gidofalvi,  M. Goldey,  J. Gomes,  C. Gonzalez-Espinoza,  
 S. Gulania,  A. Gunina,  M. W. D. Hanson-Heine,  P. H. P. Harbach,  
 A. W. Hauser,  M. F. Herbst,  M. Hernandez Vera,  M. Hodecker,  
 Z. C. Holden,  S. Houck,  Xunkun Huang,  Kerwin Hui,  B. C. Huynh,  
 M. Ivanov,  Hyunjun Ji,  Hanjie Jiang,  B. Kaduk,  S. Kaehler,  
 K. Khistyaev,  Jaehoon Kim,  P. Klunzinger,  Z. Koczor-Benda,  
 Joong Hoon Koh,  D. Kosenkov,  L. Koulias,  T. Kowalczyk,  C. M. Krauter,  
 K. Kue,  A. Kunitsa,  T. Kus,  A. Landau,  K. V. Lawler,  D. Lefrancois,  
 S. Lehtola,  Rain Li,  Yi-Pei Li,  Jiashu Liang,  M. Liebenthal,  
 Hung-Hsuan Lin,  You-Sheng Lin,  Fenglai Liu,  Kuan-Yu Liu,  
 M. Loipersberger,  A. Luenser,  A. Manjanath,  P. Manohar,  E. Mansoor,  
 S. F. Manzer,  Shan-Ping Mao,  A. V. Marenich,  T. Markovich,  S. Mason,  
 S. A. Maurer,  P. F. McLaughlin,  M. F. S. J. Menger,  J.-M. Mewes,  
 S. A. Mewes,  P. Morgante,  J. W. Mullinax,  T. S. Nguyen-Beck,  
 K. J. Oosterbaan,  G. Paran,  Alexander C. Paul,  Suranjan K. Paul,  
 F. Pavosevic,  Zheng Pei,  S. Prager,  E. I. Proynov,  E. Ramos,  B. Rana,  
 A. E. Rask,  A. Rettig,  R. M. Richard,  F. Rob,  E. Rossomme,  T. Scheele,  
 M. Scheurer,  M. Schneider,  N. Sergueev,  S. M. Sharada,  W. Skomorowski,  
 D. W. Small,  C. J. Stein,  Yu-Chuan Su,  E. J. Sundstrom,  Zhen Tao,  
 J. Thirman,  T. Tsuchimochi,  N. M. Tubman,  S. P. Veccham,  O. Vydrov,  
 J. Wenzel,  J. Witte,  A. Yamada,  Kun Yao,  S. Yeganeh,  S. R. Yost,  
 A. Zech,  Igor Ying Zhang,  Xing Zhang,  Yu Zhang,  D. Zuev,  
 A. Aspuru-Guzik,  A. T. Bell,  N. A. Besley,  K. B. Bravaya,  B. R. Brooks,  
 D. Casanova,  Jeng-Da Chai,  S. Coriani,  C. J. Cramer,  
 A. E. DePrince, III,  R. A. DiStasio Jr.,  A. Dreuw,  B. D. Dunietz,  
 T. R. Furlani,  W. A. Goddard III,  S. Grimme,  S. Hammes-Schiffer,  
 T. Head-Gordon,  W. J. Hehre,  Chao-Ping Hsu,  T.-C. Jagau,  Yousung Jung,  
 A. Klamt,  Jing Kong,  D. S. Lambrecht,  WanZhen Liang,  N. J. Mayhall,  
 C. W. McCurdy,  J. B. Neaton,  C. Ochsenfeld,  J. A. Parkhill,  R. Peverati,  
 V. A. Rassolov,  Yihan Shao,  L. V. Slipchenko,  T. Stauch,  R. P. Steele,  
 J. E. Subotnik,  A. J. W. Thom,  A. Tkatchenko,  D. G. Truhlar,  
 T. Van Voorhis,  T. A. Wesolowski,  K. B. Whaley,  H. L. Woodcock III,  
 P. M. Zimmerman,  S. Faraji,  P. M. W. Gill,  M. Head-Gordon,  
 J. M. Herbert,  A. I. Krylov

 Contributors to earlier versions of Q-Chem not listed above: 
 R. D. Adamson,  B. Austin,  R. Baer,  J. Baker,  G. J. O. Beran,  
 K. Brandhorst,  S. T. Brown,  E. F. C. Byrd,  A. K. Chakraborty,  
 G. K. L. Chan,  Chun-Min Chang,  Yunqing Chen,  C.-L. Cheng,  
 Siu Hung Chien,  D. M. Chipman,  D. L. Crittenden,  H. Dachsel,  
 R. J. Doerksen,  A. D. Dutoi,  R. G. Edgar,  J. Fosso-Tande,  
 L. Fusti-Molnar,  D. Ghosh,  A. Ghysels,  A. Golubeva-Zadorozhnaya,  
 J. Gonthier,  M. S. Gordon,  S. R. Gwaltney,  G. Hawkins,  J. E. Herr,  
 A. Heyden,  S. Hirata,  E. G. Hohenstein,  G. Kedziora,  F. J. Keil,  
 C. Kelley,  Jihan Kim,  R. A. King,  R. Z. Khaliullin,  P. P. Korambath,  
 W. Kurlancheek,  A. Laurent,  A. M. Lee,  M. S. Lee,  S. V. Levchenko,  
 Ching Yeh Lin,  D. Liotard,  E. Livshits,  R. C. Lochan,  I. Lotan,  
 L. A. Martinez-Martinez,  P. E. Maslen,  N. Nair,  D. P. O'Neill,  
 D. Neuhauser,  E. Neuscamman,  C. M. Oana,  R. Olivares-Amaya,  R. Olson,  
 T. M. Perrine,  B. Peters,  P. A. Pieniazek,  A. Prociuk,  Y. M. Rhee,  
 J. Ritchie,  M. A. Rohrdanz,  E. Rosta,  N. J. Russ,  H. F. Schaefer III,  
 M. W. Schmidt,  N. E. Schultz,  S. Sharma,  N. Shenvi,  C. D. Sherrill,  
 A. C. Simmonett,  A. Sodt,  T. Stein,  D. Stuck,  K. S. Thanthiriwatte,  
 V. Vanovschi,  L. Vogt,  Tao Wang,  A. Warshel,  M. A. Watson,  
 C. F. Williams,  Q. Wu,  X. Xu,  Jun Yang,  W. Zhang,  Yan Zhao

 Please cite Q-Chem as follows:
 Y. Shao et al., Mol. Phys. 113, 184-215 (2015)
 DOI: 10.1080/00268976.2014.952696

 Q-Chem 5.4.0 for Intel X86 EM64T Linux

 Parts of Q-Chem use Armadillo 9.800.1 (Horizon Scraper).
 http://arma.sourceforge.net/

 Q-Chem begins on Tue Jun 11 17:31:07 2024  

 Host: 
0

     Scratch files written to /expanse/lustre/scratch/selhajj/temp_project/qcscratch/31246103/qchem2936043//
 May1621 |scratch|qcdevops|jenkins|workspace|build_RNUM    
 Processing $rem in /cm/shared/apps/spack/cpu/opt/spack/linux-centos8-zen2/gcc-10.2.0/qchem-5.4-akfmr7b3t57bfs6qan3padb2wnb2i7cl/config/preferences:
 Processing $rem in /home/selhajj/.qchemrc:
 Symmetry turned off for PCM/SM12/SMD calculation

 Checking the input file for inconsistencies... 	...done.

--------------------------------------------------------------
User input:
--------------------------------------------------------------
$molecule
-2 1
C                 -1.3210290000      2.0247720000      0.5397610000
C                 -2.5856910000      1.3693250000      0.2461820000
C                 -2.6635770000      0.0782690000     -0.2790520000
C                 -1.5307660000     -0.7449480000     -0.5899140000
C                 -0.2745070000     -0.1146530000     -0.2952390000
C                 -0.2205210000      1.1705540000      0.2345670000
O                 -1.2427290000      3.2175770000      1.0193030000
O                 -1.6228730000     -1.9390740000     -1.0803220000
H                  0.6318340000     -0.6758080000     -0.4947340000
I                  1.7451920000      2.0215470000      0.6397630000
C                 -3.8240450000      2.2011770000      0.5515590000
C                 -4.0411270000      3.2814000000     -0.5301110000
C                 -5.1126310000      1.3932530000      0.7619260000
H                 -3.6348410000     -0.3681250000     -0.4823310000
H                 -3.6008760000      2.7451550000      1.4794810000
H                 -4.2592300000      2.8142280000     -1.4986930000
H                 -3.1347570000      3.8827810000     -0.6221950000
H                 -4.8828720000      3.9454880000     -0.2725790000
H                 -5.4276030000      0.8848990000     -0.1567970000
H                 -5.9349050000      2.0523710000      1.0716530000
H                 -4.9793260000      0.6250110000      1.5303340000
$end
$rem
MAX_SCF_CYCLES=200
BASIS  =  6-311++G(d,p)
GUI  =  2
JOB_TYPE  =  SP
METHOD  =  B3LYP
SOLVENT_METHOD = PCM
$end
$pcm
theory = CPCM
$end
$solvent
dielectric 37.219
opticaldielectric 1.43
$end





--------------------------------------------------------------
 ----------------------------------------------------------------
             Standard Nuclear Orientation (Angstroms)
    I     Atom           X                Y                Z
 ----------------------------------------------------------------
    1      C      -1.3210290000     2.0247720000     0.5397610000
    2      C      -2.5856910000     1.3693250000     0.2461820000
    3      C      -2.6635770000     0.0782690000    -0.2790520000
    4      C      -1.5307660000    -0.7449480000    -0.5899140000
    5      C      -0.2745070000    -0.1146530000    -0.2952390000
    6      C      -0.2205210000     1.1705540000     0.2345670000
    7      O      -1.2427290000     3.2175770000     1.0193030000
    8      O      -1.6228730000    -1.9390740000    -1.0803220000
    9      H       0.6318340000    -0.6758080000    -0.4947340000
   10      I       1.7451920000     2.0215470000     0.6397630000
   11      C      -3.8240450000     2.2011770000     0.5515590000
   12      C      -4.0411270000     3.2814000000    -0.5301110000
   13      C      -5.1126310000     1.3932530000     0.7619260000
   14      H      -3.6348410000    -0.3681250000    -0.4823310000
   15      H      -3.6008760000     2.7451550000     1.4794810000
   16      H      -4.2592300000     2.8142280000    -1.4986930000
   17      H      -3.1347570000     3.8827810000    -0.6221950000
   18      H      -4.8828720000     3.9454880000    -0.2725790000
   19      H      -5.4276030000     0.8848990000    -0.1567970000
   20      H      -5.9349050000     2.0523710000     1.0716530000
   21      H      -4.9793260000     0.6250110000     1.5303340000
 ----------------------------------------------------------------
 Nuclear Repulsion Energy =        1099.58690749 hartrees
 There are       67 alpha and       67 beta electrons
 Requested basis set is 6-311++G(d,p)
 There are 135 shells and 367 basis functions

 Total QAlloc Memory Limit   8000 MB
 Mega-Array Size       188 MB
 MEM_STATIC part       192 MB
 Discretize the solute cavity surface with Lebedev spheres
	Using 110 Lebedev grid points for each H atom
	Using 194 Lebedev grid points for other atoms
	Atomic van der Waals radii will be scaled by 1.20
 Remove points where switching function is < 1.0e-08
 Keep 1479 surface tesserae and discard 1839 interior tesserae
 Molecular Surface Area = 233.048 Angst**2
 A cutoff of  1.0D-08 yielded   6647 shell pairs
 There are     50464 function pairs (     54496 Cartesian)
 Smallest overlap matrix eigenvalue = 1.60E-06

 Q-Chem warning in module stvman/mkSTV.C, line 323:

 Overlap eigenvalue is smaller than square root of threshold
 Use THRESH >= 12 to get rid of this warning


 Scale SEOQF with 1.000000e-02/1.000000e-01/1.000000e-01

 Standard Electronic Orientation quadrupole field applied
 Nucleus-field energy     =     0.0000000346 hartrees
 Guess from superposition of atomic densities
 Warning:  Energy on first SCF cycle will be non-variational
 SAD guess density has 132.000000 electrons

 -----------------------------------------------------------------------
  General SCF calculation program by
  Eric Jon Sundstrom, Paul Horn, Yuezhi Mao, Dmitri Zuev, Alec White,
  David Stuck, Shaama M.S., Shane Yost, Joonho Lee, David Small,
  Daniel Levine, Susi Lehtola, Hugh Burton, Evgeny Epifanovsky,
  Bang C. Huynh
 -----------------------------------------------------------------------
 Exchange:     0.2000 Hartree-Fock + 0.0800 Slater + 0.7200 B88
 Correlation:  0.1900 VWN1RPA + 0.8100 LYP
 Using SG-1 standard quadrature grid
 using 8 threads for integral computing
 -------------------------------------------------------
 OpenMP Integral computing Module                
 Release: version 1.0, May 2013, Q-Chem Inc. Pittsburgh 
 -------------------------------------------------------
 A restricted SCF calculation will be
 performed using DIIS
 SCF converges when DIIS error is below 1.0e-05
 ---------------------------------------
  Cycle       Energy         DIIS error
 ---------------------------------------
    1   -7420.5702941141      3.09e-02  
    2   -7418.3357703991      4.88e-03  
    3   -7417.0622731310      9.66e-03  
    4   -7418.6632253927      2.16e-03  
    5   -7418.7264401141      5.51e-04  
    6   -7418.7311764086      2.71e-04  
    7   -7418.7323764666      7.80e-05  
    8   -7418.7324454150      3.69e-05  
    9   -7418.7324692559      1.00e-05  
   10   -7418.7324699639      3.07e-06  Convergence criterion met
 ---------------------------------------
 SCF time:   CPU 194.11s  wall 25.00s 

************** Final PCM Free Energy Summary **************
 G_electrostatic  =      -0.29445155 hartree =    -184.77113354 kcal/mol
 G_cavitation     =       0.00000000 hartree =       0.00000000 kcal/mol
 G_dispersion     =       0.00000000 hartree =       0.00000000 kcal/mol
 G_repulsion      =       0.00000000 hartree =       0.00000000 kcal/mol
 --------------------------------------------------
 Non-electrostatic Free Energy =       0.00000000 hartree =       0.00000000 kcal/mol
 Total                         =      -0.29445155 hartree =    -184.77113354 kcal/mol
 --------------------------------------------------
 SCF Energy (H0 + V/2)                       =   -7418.73246996 
 Solute Internal Energy (H0)                 =   -7418.43801842 
 Total Free Energy (H0 + V/2 + non-elec)     =   -7418.73246996 hartree
                                             = -4655324.88771757 kcal/mol
***********************************************************

 SCF   energy in the final basis set =    -7418.7324699639
 Total energy in the final basis set =    -7418.7324699639
 
 --------------------------------------------------------------
 
                    Orbital Energies (a.u.)
 --------------------------------------------------------------
 
 Alpha MOs
 -- Occupied --
********-176.2685-165.6719-165.6703-165.6703 -35.7650 -31.2571 -31.2528
-31.2526 -22.9079 -22.9069 -22.9068 -22.9037 -22.9037 -19.0220 -19.0201
-10.1788 -10.1751 -10.1722 -10.1531 -10.1416 -10.1393 -10.1374 -10.1289
-10.1231  -6.3143  -4.7242  -4.7135  -4.7130  -1.9902  -1.9871  -1.9866
 -1.9773  -1.9772  -0.9400  -0.9325  -0.7986  -0.7683  -0.7010  -0.6670
 -0.6557  -0.6158  -0.5872  -0.5201  -0.5153  -0.4494  -0.4357  -0.4250
 -0.4147  -0.3887  -0.3737  -0.3698  -0.3582  -0.3559  -0.3471  -0.3315
 -0.3218  -0.3163  -0.3062  -0.2971  -0.2648  -0.2458  -0.2277  -0.2083
 -0.2023  -0.1986  -0.1237
 -- Virtual --
 -0.0104   0.0032   0.0146   0.0181   0.0225   0.0255   0.0389   0.0446
  0.0521   0.0556   0.0628   0.0665   0.0709   0.0796   0.0847   0.0908
  0.0968   0.1029   0.1119   0.1156   0.1202   0.1230   0.1287   0.1330
  0.1390   0.1423   0.1448   0.1483   0.1500   0.1567   0.1631   0.1667
  0.1746   0.1758   0.1764   0.1783   0.1846   0.1914   0.1923   0.2014
  0.2051   0.2091   0.2134   0.2161   0.2252   0.2317   0.2350   0.2500
  0.2504   0.2542   0.2655   0.2690   0.2794   0.2828   0.2862   0.2898
  0.2948   0.3030   0.3081   0.3157   0.3200   0.3253   0.3294   0.3351
  0.3369   0.3463   0.3520   0.3596   0.3720   0.3831   0.3930   0.4008
  0.4128   0.4274   0.4404   0.4478   0.4566   0.4576   0.4796   0.4854
  0.4883   0.5007   0.5075   0.5270   0.5379   0.5484   0.5616   0.5685
  0.5825   0.5990   0.6100   0.6116   0.6261   0.6309   0.6458   0.6506
  0.6563   0.6727   0.6807   0.6864   0.6994   0.7056   0.7183   0.7268
  0.7318   0.7420   0.7586   0.7614   0.7720   0.7732   0.7890   0.7934
  0.8083   0.8263   0.8402   0.8732   0.8819   0.9114   0.9212   0.9312
  0.9510   0.9579   0.9703   0.9890   1.0057   1.0179   1.0454   1.0662
  1.0752   1.0998   1.1337   1.1390   1.1615   1.1666   1.1854   1.2210
  1.2301   1.2456   1.2652   1.2800   1.2954   1.3090   1.3166   1.3404
  1.3436   1.3691   1.3893   1.4373   1.4652   1.4838   1.4924   1.4997
  1.5138   1.5292   1.5450   1.5616   1.5755   1.6013   1.6042   1.6148
  1.6301   1.6384   1.6478   1.6615   1.6699   1.6971   1.7077   1.7273
  1.7397   1.7674   1.8016   1.8163   1.8218   1.8302   1.8362   1.8709
  1.8801   1.8868   1.9128   1.9369   1.9707   1.9855   1.9934   2.0053
  2.0544   2.0659   2.0858   2.0928   2.1137   2.1589   2.1714   2.1794
  2.2206   2.2540   2.2880   2.2994   2.3017   2.3310   2.3850   2.3990
  2.4901   2.4919   2.5249   2.5324   2.5508   2.5569   2.5709   2.6044
  2.6218   2.6557   2.6631   2.6732   2.7051   2.7223   2.7448   2.7581
  2.7685   2.7889   2.7984   2.8283   2.8522   2.8705   2.9145   2.9300
  2.9304   2.9679   2.9727   3.0025   3.0241   3.0322   3.0470   3.0993
  3.1289   3.1798   3.2024   3.2211   3.2374   3.2792   3.3263   3.3508
  3.3719   3.4381   3.4799   3.5173   3.5793   3.5849   3.7062   3.7478
  3.7937   3.8158   3.8507   3.8632   3.9276   4.0088   4.0548   4.0671
  4.0787   4.1478   4.1889   4.2166   4.2816   4.2973   4.3479   4.4417
  4.5087   4.8228   5.1347   5.1583   5.2769   5.3293   5.7575   5.8437
  6.0493   6.1475   6.1902  23.6193  23.8618  23.8966  23.9731  23.9842
 24.0005  24.0151  24.1082  24.1587  27.9469  28.3914  28.4646  28.4670
 28.5782  28.6007  28.6027  28.6608  28.7555  50.0733  50.1155 127.9337
127.9917 128.0133 151.73831901.9029
 --------------------------------------------------------------
 
          Ground-State Mulliken Net Atomic Charges

     Atom                 Charge (a.u.)
  ----------------------------------------
      1 C                    -1.937783
      2 C                     1.293609
      3 C                    -0.517834
      4 C                    -0.409195
      5 C                    -0.206271
      6 C                     1.144390
      7 O                    -0.632883
      8 O                    -0.744851
      9 H                     0.131154
     10 I                    -0.190544
     11 C                     0.196571
     12 C                    -0.722114
     13 C                    -0.573312
     14 H                     0.137433
     15 H                     0.162312
     16 H                     0.137143
     17 H                     0.168896
     18 H                     0.127303
     19 H                     0.140367
     20 H                     0.161381
     21 H                     0.134225
  ----------------------------------------
  Sum of atomic charges =    -2.000000

 -----------------------------------------------------------------
                    Cartesian Multipole Moments
 -----------------------------------------------------------------
    Charge (ESU x 10^10)
                -9.6064
    Dipole Moment (Debye)
         X       9.6137      Y      -6.9318      Z      -0.0603
       Tot      11.8523
    Quadrupole Moments (Debye-Ang)
        XX    -126.5215     XY      -2.0073     YY    -163.1210
        XZ      -4.5051     YZ     -21.0917     ZZ    -113.9370
    Octopole Moments (Debye-Ang^2)
       XXX     388.8801    XXY    -147.1489    XYY     183.5881
       YYY    -532.3099    XXZ     -15.6649    XYZ      22.5294
       YYZ     -44.0301    XZZ     128.4576    YZZ    -147.6434
       ZZZ     -65.5732
    Hexadecapole Moments (Debye-Ang^3)
      XXXX   -4265.3021   XXXY     448.0515   XXYY   -1233.5078
      XYYY     530.7952   YYYY   -3121.9515   XXXZ     -48.3877
      XXYZ    -109.3757   XYYZ     -14.6856   YYYZ    -443.1358
      XXZZ    -787.9000   XYZZ     144.9334   YYZZ    -574.3708
      XZZZ     -48.7766   YZZZ    -305.8707   ZZZZ    -437.2077
 -----------------------------------------------------------------
 Total job time:  34.03s(wall), 201.15s(cpu) 
 Tue Jun 11 17:31:41 2024

        *************************************************************
        *                                                           *
        *  Thank you very much for using Q-Chem.  Have a nice day.  *
        *                                                           *
        *************************************************************


