
Running Job 1 of 1 303-CPCM.in
qchem 303-CPCM.in_649240.0 /expanse/lustre/scratch/selhajj/temp_project/qcscratch/31282708/qchem649240/ 0
/cm/shared/apps/spack/cpu/opt/spack/linux-centos8-zen2/gcc-10.2.0/qchem-5.4-akfmr7b3t57bfs6qan3padb2wnb2i7cl/exe/qcprog.exe_s 303-CPCM.in_649240.0 /expanse/lustre/scratch/selhajj/temp_project/qcscratch/31282708/qchem649240/
                  Welcome to Q-Chem
     A Quantum Leap Into The Future Of Chemistry


 Q-Chem 5.4, Q-Chem, Inc., Pleasanton, CA (2021)

 License issued to: University of California, San Diego (site)

 E. Epifanovsky,  A. T. B. Gilbert,  Xintian Feng,  Joonho Lee,  Yuezhi Mao,  
 N. Mardirossian,  P. Pokhilko,  A. White,  M. Wormit,  M. P. Coons,  
 A. L. Dempwolff,  Zhengting Gan,  D. Hait,  P. R. Horn,  L. D. Jacobson,  
 I. Kaliman,  J. Kussmann,  A. W. Lange,  Ka Un Lao,  D. S. Levine,  Jie Liu,  
 S. C. McKenzie,  A. F. Morrison,  K. Nanda,  F. Plasser,  D. R. Rehn,  
 M. L. Vidal,  Zhi-Qiang You,  Ying Zhu,  B. Alam,  B. Albrecht,  
 A. Aldossary,  E. Alguire,  J. H. Andersen,  D. Barton,  K. Begam,  A. Behn,  
 Y. A. Bernard,  E. J. Berquist,  H. Burton,  A. Carreras,  K. Carter-Fenk,  
 R. Chakraborty,  A. D. Chien,  K. D. Closser,  V. Cofer-Shabica,  
 S. Dasgupta,  Jia Deng,  M. de Wergifosse,  M. Diedenhofen,  Hainam Do,  
 S. Ehlert,  Po-Tung Fang,  S. Fatehi,  Qingguo Feng,  J. Gayvert,  
 Qinghui Ge,  G. Gidofalvi,  M. Goldey,  J. Gomes,  C. Gonzalez-Espinoza,  
 S. Gulania,  A. Gunina,  M. W. D. Hanson-Heine,  P. H. P. Harbach,  
 A. W. Hauser,  M. F. Herbst,  M. Hernandez Vera,  M. Hodecker,  
 Z. C. Holden,  S. Houck,  Xunkun Huang,  Kerwin Hui,  B. C. Huynh,  
 M. Ivanov,  Hyunjun Ji,  Hanjie Jiang,  B. Kaduk,  S. Kaehler,  
 K. Khistyaev,  Jaehoon Kim,  P. Klunzinger,  Z. Koczor-Benda,  
 Joong Hoon Koh,  D. Kosenkov,  L. Koulias,  T. Kowalczyk,  C. M. Krauter,  
 K. Kue,  A. Kunitsa,  T. Kus,  A. Landau,  K. V. Lawler,  D. Lefrancois,  
 S. Lehtola,  Rain Li,  Yi-Pei Li,  Jiashu Liang,  M. Liebenthal,  
 Hung-Hsuan Lin,  You-Sheng Lin,  Fenglai Liu,  Kuan-Yu Liu,  
 M. Loipersberger,  A. Luenser,  A. Manjanath,  P. Manohar,  E. Mansoor,  
 S. F. Manzer,  Shan-Ping Mao,  A. V. Marenich,  T. Markovich,  S. Mason,  
 S. A. Maurer,  P. F. McLaughlin,  M. F. S. J. Menger,  J.-M. Mewes,  
 S. A. Mewes,  P. Morgante,  J. W. Mullinax,  T. S. Nguyen-Beck,  
 K. J. Oosterbaan,  G. Paran,  Alexander C. Paul,  Suranjan K. Paul,  
 F. Pavosevic,  Zheng Pei,  S. Prager,  E. I. Proynov,  E. Ramos,  B. Rana,  
 A. E. Rask,  A. Rettig,  R. M. Richard,  F. Rob,  E. Rossomme,  T. Scheele,  
 M. Scheurer,  M. Schneider,  N. Sergueev,  S. M. Sharada,  W. Skomorowski,  
 D. W. Small,  C. J. Stein,  Yu-Chuan Su,  E. J. Sundstrom,  Zhen Tao,  
 J. Thirman,  T. Tsuchimochi,  N. M. Tubman,  S. P. Veccham,  O. Vydrov,  
 J. Wenzel,  J. Witte,  A. Yamada,  Kun Yao,  S. Yeganeh,  S. R. Yost,  
 A. Zech,  Igor Ying Zhang,  Xing Zhang,  Yu Zhang,  D. Zuev,  
 A. Aspuru-Guzik,  A. T. Bell,  N. A. Besley,  K. B. Bravaya,  B. R. Brooks,  
 D. Casanova,  Jeng-Da Chai,  S. Coriani,  C. J. Cramer,  
 A. E. DePrince, III,  R. A. DiStasio Jr.,  A. Dreuw,  B. D. Dunietz,  
 T. R. Furlani,  W. A. Goddard III,  S. Grimme,  S. Hammes-Schiffer,  
 T. Head-Gordon,  W. J. Hehre,  Chao-Ping Hsu,  T.-C. Jagau,  Yousung Jung,  
 A. Klamt,  Jing Kong,  D. S. Lambrecht,  WanZhen Liang,  N. J. Mayhall,  
 C. W. McCurdy,  J. B. Neaton,  C. Ochsenfeld,  J. A. Parkhill,  R. Peverati,  
 V. A. Rassolov,  Yihan Shao,  L. V. Slipchenko,  T. Stauch,  R. P. Steele,  
 J. E. Subotnik,  A. J. W. Thom,  A. Tkatchenko,  D. G. Truhlar,  
 T. Van Voorhis,  T. A. Wesolowski,  K. B. Whaley,  H. L. Woodcock III,  
 P. M. Zimmerman,  S. Faraji,  P. M. W. Gill,  M. Head-Gordon,  
 J. M. Herbert,  A. I. Krylov

 Contributors to earlier versions of Q-Chem not listed above: 
 R. D. Adamson,  B. Austin,  R. Baer,  J. Baker,  G. J. O. Beran,  
 K. Brandhorst,  S. T. Brown,  E. F. C. Byrd,  A. K. Chakraborty,  
 G. K. L. Chan,  Chun-Min Chang,  Yunqing Chen,  C.-L. Cheng,  
 Siu Hung Chien,  D. M. Chipman,  D. L. Crittenden,  H. Dachsel,  
 R. J. Doerksen,  A. D. Dutoi,  R. G. Edgar,  J. Fosso-Tande,  
 L. Fusti-Molnar,  D. Ghosh,  A. Ghysels,  A. Golubeva-Zadorozhnaya,  
 J. Gonthier,  M. S. Gordon,  S. R. Gwaltney,  G. Hawkins,  J. E. Herr,  
 A. Heyden,  S. Hirata,  E. G. Hohenstein,  G. Kedziora,  F. J. Keil,  
 C. Kelley,  Jihan Kim,  R. A. King,  R. Z. Khaliullin,  P. P. Korambath,  
 W. Kurlancheek,  A. Laurent,  A. M. Lee,  M. S. Lee,  S. V. Levchenko,  
 Ching Yeh Lin,  D. Liotard,  E. Livshits,  R. C. Lochan,  I. Lotan,  
 L. A. Martinez-Martinez,  P. E. Maslen,  N. Nair,  D. P. O'Neill,  
 D. Neuhauser,  E. Neuscamman,  C. M. Oana,  R. Olivares-Amaya,  R. Olson,  
 T. M. Perrine,  B. Peters,  P. A. Pieniazek,  A. Prociuk,  Y. M. Rhee,  
 J. Ritchie,  M. A. Rohrdanz,  E. Rosta,  N. J. Russ,  H. F. Schaefer III,  
 M. W. Schmidt,  N. E. Schultz,  S. Sharma,  N. Shenvi,  C. D. Sherrill,  
 A. C. Simmonett,  A. Sodt,  T. Stein,  D. Stuck,  K. S. Thanthiriwatte,  
 V. Vanovschi,  L. Vogt,  Tao Wang,  A. Warshel,  M. A. Watson,  
 C. F. Williams,  Q. Wu,  X. Xu,  Jun Yang,  W. Zhang,  Yan Zhao

 Please cite Q-Chem as follows:
 Y. Shao et al., Mol. Phys. 113, 184-215 (2015)
 DOI: 10.1080/00268976.2014.952696

 Q-Chem 5.4.0 for Intel X86 EM64T Linux

 Parts of Q-Chem use Armadillo 9.800.1 (Horizon Scraper).
 http://arma.sourceforge.net/

 Q-Chem begins on Wed Jun 12 23:31:22 2024  

 Host: 
0

     Scratch files written to /expanse/lustre/scratch/selhajj/temp_project/qcscratch/31282708/qchem649240//
 May1621 |scratch|qcdevops|jenkins|workspace|build_RNUM    
 Processing $rem in /cm/shared/apps/spack/cpu/opt/spack/linux-centos8-zen2/gcc-10.2.0/qchem-5.4-akfmr7b3t57bfs6qan3padb2wnb2i7cl/config/preferences:
 Processing $rem in /home/selhajj/.qchemrc:
 Symmetry turned off for PCM/SM12/SMD calculation

 Checking the input file for inconsistencies... 	...done.

--------------------------------------------------------------
User input:
--------------------------------------------------------------
$molecule
0 1
C                 -2.8436300000      4.1245430000      4.5575640000
C                 -3.1577750000      3.1881460000      5.5366820000
C                 -2.3520890000      2.0601520000      5.7066830000
C                 -1.7194960000      3.9301060000      3.7499880000
C                 -0.9074280000      2.7973420000      3.9178070000
C                 -1.2331680000      1.8632120000      4.8999040000
C                 -1.3685140000      4.9095730000      2.7109320000
C                 -0.1449070000      4.6602020000      1.8902850000
C                  0.6732000000      3.5883040000      2.0483160000
C                  0.3012660000      2.5633630000      3.0498600000
O                 -2.0074210000      5.9301420000      2.4791370000
O                  0.9441710000      1.5342840000      3.1812450000
O                  0.0840160000      5.6160070000      0.9745360000
H                 -3.4532060000      5.0067580000      4.4049140000
H                 -4.0274730000      3.3343240000      6.1666620000
H                 -2.5982070000      1.3315500000      6.4708290000
H                 -0.5999910000      0.9926140000      5.0169790000
H                 -0.6309440000      6.2725330000      1.0866150000
C                  3.1762940000      3.0356520000      1.9014840000
C                  3.4717900000      3.6332200000      3.1316230000
C                  4.1142800000      2.1681890000      1.3401650000
C                  5.3076300000      1.8847640000      2.0043070000
C                  5.5877200000      2.4742310000      3.2344580000
C                  4.6642670000      3.3562910000      3.7943130000
H                  2.7648810000      4.3244080000      3.5801090000
H                  3.9089350000      1.7281470000      0.3729580000
H                  6.0214680000      1.2030330000      1.5544190000
H                  4.8726570000      3.8300090000      4.7475040000
H                  6.5157790000      2.2536950000      3.7499710000
C                  1.9031600000      3.4269320000      1.1469390000
H                  2.0984960000      4.4294530000      0.7566760000
N                  1.6637660000      2.6165840000     -0.0552870000
C                  1.0654910000      1.2844290000      0.0768040000
C                  1.0780260000      0.5608380000     -1.2704670000
C                  0.4471510000     -0.8345410000     -1.2068890000
C                  0.4557780000     -1.5697090000     -2.5519130000
C                 -0.1736290000     -2.9661420000     -2.4917750000
C                 -0.1691200000     -3.7010630000     -3.8369310000
H                  1.1395420000      3.1679300000     -0.7251880000
H                  0.0307490000      1.3189450000      0.4552070000
H                  1.6416680000      0.7208800000      0.8131630000
H                  2.1123900000      0.4888090000     -1.6245550000
H                  0.5412000000      1.1673960000     -2.0128460000
H                 -0.5867310000     -0.7519430000     -0.8477270000
H                  0.9797180000     -1.4382190000     -0.4611060000
H                  1.4894450000     -1.6538510000     -2.9113280000
H                 -0.0761990000     -0.9651480000     -3.2980890000
H                 -1.2065540000     -2.8818610000     -2.1295550000
H                  0.3598800000     -3.5711030000     -1.7472090000
H                  0.8635970000     -3.7848710000     -4.1996400000
H                 -0.7032170000     -3.0960090000     -4.5811670000
C                 -0.7980320000     -5.0978050000     -3.7768460000
C                 -0.7978740000     -5.8309890000     -5.1229840000
C                 -1.4269000000     -7.2276970000     -5.0631630000
C                 -1.4302990000     -7.9590550000     -6.4103010000
C                 -2.0592020000     -9.3558300000     -6.3508320000
C                 -2.0650660000    -10.0857230000     -7.6987630000
C                 -2.6938990000    -11.4825660000     -7.6396280000
C                 -2.7015090000    -12.2116290000     -8.9877740000
C                 -3.3301870000    -13.6086060000     -8.9298790000
C                 -3.3335380000    -14.3285320000    -10.2816110000
H                 -1.8297930000     -5.0141670000     -3.4111900000
H                 -0.2621030000     -5.7038770000     -3.0348400000
H                  0.2337090000     -5.9144830000     -5.4890440000
H                 -1.3341060000     -5.2247120000     -5.8646690000
H                 -2.4576900000     -7.1443720000     -4.6947260000
H                 -0.8891720000     -7.8349310000     -4.3233840000
H                 -0.3996550000     -8.0420990000     -6.7791210000
H                 -1.9683760000     -7.3517210000     -7.1497710000
H                 -3.0892880000     -9.2729510000     -5.9803490000
H                 -1.5200540000     -9.9638840000     -5.6127540000
H                 -1.0350930000    -10.1684370000     -8.0695060000
H                 -2.6044440000     -9.4776160000     -8.4366280000
H                 -3.7235490000    -11.3999750000     -7.2678220000
H                 -2.1538030000    -12.0911980000     -6.9026880000
H                 -1.6721160000    -12.2950650000     -9.3604620000
H                 -3.2418920000    -11.6037960000     -9.7253790000
H                 -4.3588230000    -13.5257600000     -8.5580400000
H                 -2.7899500000    -14.2166660000     -8.1939430000
H                 -3.8965880000    -13.7619450000    -11.0301560000
H                 -3.7878040000    -15.3204900000    -10.2058750000
H                 -2.3157620000    -14.4578870000    -10.6633740000
$end
$rem
MAX_SCF_CYCLES=200
BASIS  =  6-311++G(d,p)
GUI  =  2
JOB_TYPE  =  SP
METHOD  =  B3LYP
SCF_ALGORITHM = RCA_DIIS
THRESH = 14
SOLVENT_METHOD = PCM
$end
$pcm
theory = CPCM
$end
$solvent
dielectric 37.219
opticaldielectric 1.43
$end






--------------------------------------------------------------
 ----------------------------------------------------------------
             Standard Nuclear Orientation (Angstroms)
    I     Atom           X                Y                Z
 ----------------------------------------------------------------
    1      C      -2.8436300000     4.1245430000     4.5575640000
    2      C      -3.1577750000     3.1881460000     5.5366820000
    3      C      -2.3520890000     2.0601520000     5.7066830000
    4      C      -1.7194960000     3.9301060000     3.7499880000
    5      C      -0.9074280000     2.7973420000     3.9178070000
    6      C      -1.2331680000     1.8632120000     4.8999040000
    7      C      -1.3685140000     4.9095730000     2.7109320000
    8      C      -0.1449070000     4.6602020000     1.8902850000
    9      C       0.6732000000     3.5883040000     2.0483160000
   10      C       0.3012660000     2.5633630000     3.0498600000
   11      O      -2.0074210000     5.9301420000     2.4791370000
   12      O       0.9441710000     1.5342840000     3.1812450000
   13      O       0.0840160000     5.6160070000     0.9745360000
   14      H      -3.4532060000     5.0067580000     4.4049140000
   15      H      -4.0274730000     3.3343240000     6.1666620000
   16      H      -2.5982070000     1.3315500000     6.4708290000
   17      H      -0.5999910000     0.9926140000     5.0169790000
   18      H      -0.6309440000     6.2725330000     1.0866150000
   19      C       3.1762940000     3.0356520000     1.9014840000
   20      C       3.4717900000     3.6332200000     3.1316230000
   21      C       4.1142800000     2.1681890000     1.3401650000
   22      C       5.3076300000     1.8847640000     2.0043070000
   23      C       5.5877200000     2.4742310000     3.2344580000
   24      C       4.6642670000     3.3562910000     3.7943130000
   25      H       2.7648810000     4.3244080000     3.5801090000
   26      H       3.9089350000     1.7281470000     0.3729580000
   27      H       6.0214680000     1.2030330000     1.5544190000
   28      H       4.8726570000     3.8300090000     4.7475040000
   29      H       6.5157790000     2.2536950000     3.7499710000
   30      C       1.9031600000     3.4269320000     1.1469390000
   31      H       2.0984960000     4.4294530000     0.7566760000
   32      N       1.6637660000     2.6165840000    -0.0552870000
   33      C       1.0654910000     1.2844290000     0.0768040000
   34      C       1.0780260000     0.5608380000    -1.2704670000
   35      C       0.4471510000    -0.8345410000    -1.2068890000
   36      C       0.4557780000    -1.5697090000    -2.5519130000
   37      C      -0.1736290000    -2.9661420000    -2.4917750000
   38      C      -0.1691200000    -3.7010630000    -3.8369310000
   39      H       1.1395420000     3.1679300000    -0.7251880000
   40      H       0.0307490000     1.3189450000     0.4552070000
   41      H       1.6416680000     0.7208800000     0.8131630000
   42      H       2.1123900000     0.4888090000    -1.6245550000
   43      H       0.5412000000     1.1673960000    -2.0128460000
   44      H      -0.5867310000    -0.7519430000    -0.8477270000
   45      H       0.9797180000    -1.4382190000    -0.4611060000
   46      H       1.4894450000    -1.6538510000    -2.9113280000
   47      H      -0.0761990000    -0.9651480000    -3.2980890000
   48      H      -1.2065540000    -2.8818610000    -2.1295550000
   49      H       0.3598800000    -3.5711030000    -1.7472090000
   50      H       0.8635970000    -3.7848710000    -4.1996400000
   51      H      -0.7032170000    -3.0960090000    -4.5811670000
   52      C      -0.7980320000    -5.0978050000    -3.7768460000
   53      C      -0.7978740000    -5.8309890000    -5.1229840000
   54      C      -1.4269000000    -7.2276970000    -5.0631630000
   55      C      -1.4302990000    -7.9590550000    -6.4103010000
   56      C      -2.0592020000    -9.3558300000    -6.3508320000
   57      C      -2.0650660000   -10.0857230000    -7.6987630000
   58      C      -2.6938990000   -11.4825660000    -7.6396280000
   59      C      -2.7015090000   -12.2116290000    -8.9877740000
   60      C      -3.3301870000   -13.6086060000    -8.9298790000
   61      C      -3.3335380000   -14.3285320000   -10.2816110000
   62      H      -1.8297930000    -5.0141670000    -3.4111900000
   63      H      -0.2621030000    -5.7038770000    -3.0348400000
   64      H       0.2337090000    -5.9144830000    -5.4890440000
   65      H      -1.3341060000    -5.2247120000    -5.8646690000
   66      H      -2.4576900000    -7.1443720000    -4.6947260000
   67      H      -0.8891720000    -7.8349310000    -4.3233840000
   68      H      -0.3996550000    -8.0420990000    -6.7791210000
   69      H      -1.9683760000    -7.3517210000    -7.1497710000
   70      H      -3.0892880000    -9.2729510000    -5.9803490000
   71      H      -1.5200540000    -9.9638840000    -5.6127540000
   72      H      -1.0350930000   -10.1684370000    -8.0695060000
   73      H      -2.6044440000    -9.4776160000    -8.4366280000
   74      H      -3.7235490000   -11.3999750000    -7.2678220000
   75      H      -2.1538030000   -12.0911980000    -6.9026880000
   76      H      -1.6721160000   -12.2950650000    -9.3604620000
   77      H      -3.2418920000   -11.6037960000    -9.7253790000
   78      H      -4.3588230000   -13.5257600000    -8.5580400000
   79      H      -2.7899500000   -14.2166660000    -8.1939430000
   80      H      -3.8965880000   -13.7619450000   -11.0301560000
   81      H      -3.7878040000   -15.3204900000   -10.2058750000
   82      H      -2.3157620000   -14.4578870000   -10.6633740000
 ----------------------------------------------------------------
 Nuclear Repulsion Energy =        3496.59306600 hartrees
 There are      137 alpha and      137 beta electrons
 Requested basis set is 6-311++G(d,p)
 There are 447 shells and 1129 basis functions

 Total QAlloc Memory Limit   8000 MB
 Mega-Array Size       188 MB
 MEM_STATIC part       192 MB
 Discretize the solute cavity surface with Lebedev spheres
	Using 110 Lebedev grid points for each H atom
	Using 194 Lebedev grid points for other atoms
	Atomic van der Waals radii will be scaled by 1.20
 Remove points where switching function is < 1.0e-08
 Keep 5081 surface tesserae and discard 7047 interior tesserae
 Molecular Surface Area = 638.782 Angst**2
 A cutoff of  1.0D-14 yielded  50377 shell pairs
 There are    314117 function pairs (    332027 Cartesian)
 Smallest overlap matrix eigenvalue = 1.07E-07
 Linear dependence detected in AO basis
 Tighter screening thresholds may be required for diffuse basis sets
 Use S2THRESH > 14 and THRESH = 14 in case of SCF convergence issues
 Number of orthogonalized atomic orbitals = 1120
 Maximum deviation from orthogonality = 1.126E-10

 Scale SEOQF with 1.000000e-02/1.000000e-02/1.000000e-02

 Standard Electronic Orientation quadrupole field applied
 Nucleus-field energy     =     0.0000000151 hartrees
 Guess from superposition of atomic densities
 Warning:  Energy on first SCF cycle will be non-variational
 SAD guess density has 274.000000 electrons
 A restricted hybrid HF-DFT SCF calculation will be
 performed using Relaxed Constraint Minimization + Pulay DIIS
 Polarizable Continuum solvation model will be applied
 Exchange:     0.2000 Hartree-Fock + 0.0800 Slater + 0.7200 B88
 Correlation:  0.1900 VWN1RPA + 0.8100 LYP
 Using SG-1 standard quadrature grid
 SCF converges when DIIS error is below 1.0E-05
 using 8 threads for integral computing
 -------------------------------------------------------
 OpenMP Integral computing Module                
 Release: version 1.0, May 2013, Q-Chem Inc. Pittsburgh 
 -------------------------------------------------------
 ---------------------------------------
  Cycle       Energy         DIIS Error
 ---------------------------------------
    1   -1573.3834797182      1.88E-02
    2   -1566.1408744146      2.22E-03
Recomputing EXC -1562.452109 -1566.140874 -1566.140874 
Recomputing EXC -1562.452109 -1566.140874 -1566.140874 
Recomputing EXC -1562.452109 -1566.140874 -1566.140874 
    3   -1562.4521091944      2.29E-03
Recomputing EXC -1561.891449 -1564.018356 -1562.452109 
Recomputing EXC -1562.321079 -1562.645234 -1562.452109 
Recomputing EXC -1562.047146 -1562.457087 -1562.452109 
    4   -1562.0471459572      2.14E-03
    5   -1564.8708299028      8.55E-04 Done RCA. Switching to DIIS
    6   -1560.4526362502      2.21E-03
    7   -1565.1125587131      1.27E-03
    8   -1565.3794746128      6.34E-04
    9   -1565.3702220625      5.96E-04
   10   -1565.4214823830      3.97E-04
   11   -1565.4215738869      3.97E-04
   12   -1565.4237714882      3.98E-04
   13   -1565.4257455916      3.96E-04
   14   -1565.4296245607      3.91E-04
   15   -1565.4392326820      3.83E-04
   16   -1565.4463240956      3.74E-04
   17   -1565.4485096141      3.74E-04
   18   -1565.4040140879      4.77E-04
   19   -1565.4845210095      3.40E-04
   20   -1565.5043135470      1.22E-04
   21   -1565.5099744834      8.50E-05
   22   -1565.5112937718      1.82E-05
   23   -1565.5113442815      7.65E-06 Convergence criterion met
 ---------------------------------------

************** Final PCM Free Energy Summary **************
 G_electrostatic  =      -0.02373560 hartree =     -14.89431611 kcal/mol
 G_cavitation     =       0.00000000 hartree =       0.00000000 kcal/mol
 G_dispersion     =       0.00000000 hartree =       0.00000000 kcal/mol
 G_repulsion      =       0.00000000 hartree =       0.00000000 kcal/mol
 --------------------------------------------------
 Non-electrostatic Free Energy =       0.00000000 hartree =       0.00000000 kcal/mol
 Total                         =      -0.02373560 hartree =     -14.89431611 kcal/mol
 --------------------------------------------------
 SCF Energy (H0 + V/2)                       =   -1565.51134428 
 Solute Internal Energy (H0)                 =   -1565.48760868 
 Total Free Energy (H0 + V/2 + non-elec)     =   -1565.51134428 hartree
                                             = -982373.19549460 kcal/mol
***********************************************************

 SCF time:  CPU 10719.90 s  wall 1812.66 s
 SCF   energy in the final basis set = -1565.51134428
 Total energy in the final basis set = -1565.51134428
 
 --------------------------------------------------------------
 
                    Orbital Energies (a.u.)
 --------------------------------------------------------------
 
 Alpha MOs
 -- Occupied --
-19.1806 -19.1516 -19.1285 -14.3034 -10.2951 -10.2823 -10.2714 -10.2212
-10.2108 -10.2101 -10.2057 -10.2010 -10.1990 -10.1970 -10.1969 -10.1863
-10.1850 -10.1745 -10.1744 -10.1729 -10.1723 -10.1703 -10.1587 -10.1585
-10.1580 -10.1565 -10.1560 -10.1559 -10.1559 -10.1558 -10.1558 -10.1557
-10.1557 -10.1556 -10.1555 -10.1555 -10.1523  -1.1110  -1.0688  -1.0646
 -0.9159  -0.8926  -0.8586  -0.8371  -0.8116  -0.8053  -0.7956  -0.7871
 -0.7801  -0.7756  -0.7629  -0.7546  -0.7476  -0.7337  -0.7125  -0.7021
 -0.6846  -0.6686  -0.6539  -0.6448  -0.6292  -0.6150  -0.6078  -0.6061
 -0.5931  -0.5803  -0.5770  -0.5747  -0.5734  -0.5715  -0.5668  -0.5661
 -0.5442  -0.5223  -0.5149  -0.4993  -0.4917  -0.4839  -0.4829  -0.4784
 -0.4743  -0.4691  -0.4672  -0.4600  -0.4568  -0.4529  -0.4519  -0.4462
 -0.4423  -0.4365  -0.4309  -0.4304  -0.4255  -0.4244  -0.4199  -0.4180
 -0.4151  -0.4087  -0.4076  -0.4050  -0.4001  -0.3973  -0.3900  -0.3820
 -0.3801  -0.3793  -0.3764  -0.3712  -0.3705  -0.3642  -0.3595  -0.3569
 -0.3453  -0.3445  -0.3436  -0.3407  -0.3393  -0.3316  -0.3308  -0.3245
 -0.3228  -0.3204  -0.3185  -0.3181  -0.3166  -0.3156  -0.3154  -0.3109
 -0.3059  -0.2915  -0.2880  -0.2842  -0.2802  -0.2685  -0.2584  -0.2460
 -0.2312
 -- Virtual --
 -0.1269  -0.0568  -0.0280  -0.0177  -0.0141  -0.0089  -0.0022   0.0005
  0.0026   0.0031   0.0073   0.0081   0.0112   0.0126   0.0161   0.0165
  0.0191   0.0202   0.0226   0.0241   0.0267   0.0287   0.0299   0.0353
  0.0368   0.0391   0.0396   0.0439   0.0460   0.0468   0.0512   0.0522
  0.0537   0.0549   0.0568   0.0597   0.0615   0.0620   0.0645   0.0666
  0.0673   0.0680   0.0697   0.0728   0.0750   0.0762   0.0791   0.0810
  0.0850   0.0872   0.0876   0.0901   0.0923   0.0973   0.0997   0.1010
  0.1032   0.1048   0.1078   0.1088   0.1096   0.1104   0.1121   0.1137
  0.1176   0.1181   0.1197   0.1210   0.1222   0.1234   0.1245   0.1251
  0.1258   0.1273   0.1282   0.1292   0.1304   0.1316   0.1319   0.1328
  0.1332   0.1346   0.1360   0.1360   0.1373   0.1393   0.1408   0.1413
  0.1426   0.1432   0.1440   0.1454   0.1466   0.1490   0.1501   0.1524
  0.1541   0.1545   0.1567   0.1570   0.1575   0.1581   0.1599   0.1608
  0.1624   0.1633   0.1643   0.1657   0.1663   0.1666   0.1690   0.1700
  0.1708   0.1723   0.1738   0.1747   0.1761   0.1778   0.1791   0.1804
  0.1814   0.1830   0.1840   0.1865   0.1871   0.1886   0.1899   0.1918
  0.1942   0.1956   0.1973   0.1979   0.1994   0.2013   0.2018   0.2038
  0.2050   0.2053   0.2096   0.2102   0.2113   0.2129   0.2149   0.2155
  0.2167   0.2176   0.2200   0.2207   0.2222   0.2232   0.2244   0.2253
  0.2261   0.2287   0.2293   0.2338   0.2345   0.2360   0.2370   0.2405
  0.2416   0.2443   0.2458   0.2480   0.2488   0.2496   0.2512   0.2526
  0.2536   0.2574   0.2590   0.2600   0.2615   0.2631   0.2646   0.2658
  0.2673   0.2678   0.2701   0.2713   0.2730   0.2744   0.2762   0.2773
  0.2787   0.2813   0.2824   0.2860   0.2883   0.2893   0.2908   0.2925
  0.2943   0.2950   0.2999   0.3017   0.3039   0.3054   0.3068   0.3084
  0.3099   0.3127   0.3134   0.3147   0.3166   0.3172   0.3193   0.3211
  0.3253   0.3261   0.3278   0.3291   0.3299   0.3308   0.3314   0.3335
  0.3362   0.3385   0.3388   0.3391   0.3414   0.3419   0.3443   0.3452
  0.3480   0.3497   0.3529   0.3546   0.3562   0.3584   0.3616   0.3640
  0.3654   0.3670   0.3700   0.3721   0.3760   0.3769   0.3794   0.3803
  0.3845   0.3861   0.3903   0.3910   0.3937   0.3950   0.3969   0.3989
  0.4018   0.4047   0.4067   0.4101   0.4146   0.4153   0.4197   0.4216
  0.4240   0.4272   0.4333   0.4346   0.4431   0.4468   0.4472   0.4487
  0.4501   0.4548   0.4569   0.4596   0.4625   0.4647   0.4666   0.4703
  0.4762   0.4821   0.4854   0.4912   0.4957   0.4997   0.5034   0.5089
  0.5126   0.5213   0.5249   0.5267   0.5296   0.5332   0.5366   0.5417
  0.5453   0.5466   0.5511   0.5554   0.5598   0.5619   0.5668   0.5680
  0.5706   0.5779   0.5802   0.5829   0.5875   0.5893   0.5925   0.5962
  0.6023   0.6051   0.6073   0.6102   0.6136   0.6195   0.6203   0.6258
  0.6323   0.6355   0.6383   0.6423   0.6445   0.6471   0.6481   0.6517
  0.6546   0.6572   0.6587   0.6591   0.6622   0.6637   0.6680   0.6703
  0.6735   0.6759   0.6772   0.6818   0.6840   0.6874   0.6892   0.6907
  0.6920   0.6948   0.6980   0.7005   0.7012   0.7046   0.7086   0.7101
  0.7107   0.7111   0.7155   0.7168   0.7195   0.7198   0.7230   0.7283
  0.7289   0.7313   0.7332   0.7343   0.7380   0.7387   0.7409   0.7434
  0.7452   0.7492   0.7521   0.7545   0.7556   0.7582   0.7601   0.7605
  0.7632   0.7647   0.7676   0.7715   0.7730   0.7744   0.7771   0.7820
  0.7836   0.7851   0.7856   0.7895   0.7906   0.7915   0.7939   0.7959
  0.7975   0.7990   0.8019   0.8053   0.8072   0.8110   0.8139   0.8151
  0.8191   0.8264   0.8315   0.8327   0.8349   0.8376   0.8413   0.8530
  0.8562   0.8593   0.8632   0.8646   0.8734   0.8754   0.8799   0.8828
  0.8941   0.8962   0.8969   0.9041   0.9166   0.9230   0.9269   0.9306
  0.9381   0.9434   0.9479   0.9529   0.9552   0.9582   0.9610   0.9690
  0.9786   0.9847   0.9859   0.9939   1.0001   1.0037   1.0066   1.0098
  1.0171   1.0200   1.0288   1.0304   1.0340   1.0382   1.0454   1.0475
  1.0497   1.0509   1.0546   1.0562   1.0594   1.0628   1.0666   1.0705
  1.0735   1.0744   1.0778   1.0822   1.0858   1.0909   1.0964   1.0987
  1.1034   1.1067   1.1122   1.1172   1.1241   1.1289   1.1344   1.1470
  1.1555   1.1645   1.1666   1.1721   1.1870   1.1956   1.1995   1.2016
  1.2107   1.2181   1.2248   1.2280   1.2399   1.2444   1.2497   1.2512
  1.2555   1.2589   1.2598   1.2660   1.2697   1.2728   1.2774   1.2779
  1.2846   1.2860   1.2908   1.2912   1.2932   1.2945   1.3033   1.3109
  1.3184   1.3296   1.3354   1.3424   1.3525   1.3587   1.3680   1.3928
  1.3986   1.4194   1.4242   1.4463   1.4520   1.4666   1.4688   1.4760
  1.4784   1.4822   1.4869   1.4917   1.4962   1.4990   1.5068   1.5128
  1.5152   1.5177   1.5195   1.5250   1.5313   1.5363   1.5390   1.5509
  1.5577   1.5592   1.5620   1.5662   1.5690   1.5743   1.5787   1.5794
  1.5820   1.5885   1.5916   1.5954   1.6003   1.6023   1.6061   1.6091
  1.6144   1.6161   1.6194   1.6283   1.6286   1.6404   1.6429   1.6462
  1.6518   1.6548   1.6570   1.6605   1.6629   1.6650   1.6704   1.6721
  1.6742   1.6762   1.6800   1.6814   1.6826   1.6849   1.6856   1.6889
  1.6904   1.6945   1.6960   1.6985   1.7026   1.7033   1.7060   1.7100
  1.7151   1.7184   1.7227   1.7305   1.7331   1.7364   1.7377   1.7459
  1.7482   1.7494   1.7512   1.7539   1.7554   1.7566   1.7581   1.7592
  1.7594   1.7605   1.7627   1.7650   1.7715   1.7731   1.7870   1.7896
  1.7972   1.8066   1.8084   1.8261   1.8301   1.8317   1.8451   1.8478
  1.8509   1.8547   1.8598   1.8629   1.8636   1.8714   1.8794   1.8857
  1.8885   1.8904   1.8934   1.8965   1.9039   1.9047   1.9109   1.9134
  1.9171   1.9238   1.9374   1.9385   1.9434   1.9444   1.9503   1.9557
  1.9572   1.9620   1.9646   1.9677   1.9724   1.9752   1.9780   1.9859
  1.9922   1.9969   2.0020   2.0035   2.0122   2.0187   2.0271   2.0330
  2.0450   2.0537   2.0582   2.0654   2.0703   2.0771   2.0950   2.0994
  2.1066   2.1078   2.1130   2.1173   2.1221   2.1307   2.1339   2.1478
  2.1590   2.1620   2.1683   2.1804   2.1901   2.1936   2.1981   2.2053
  2.2184   2.2214   2.2274   2.2355   2.2436   2.2507   2.2518   2.2556
  2.2611   2.2625   2.2661   2.2764   2.2856   2.2860   2.2937   2.2950
  2.2973   2.3082   2.3182   2.3255   2.3355   2.3430   2.3469   2.3482
  2.3510   2.3546   2.3613   2.3673   2.3725   2.3841   2.3859   2.3866
  2.3983   2.4041   2.4091   2.4181   2.4284   2.4303   2.4326   2.4407
  2.4470   2.4504   2.4566   2.4591   2.4615   2.4755   2.4837   2.4846
  2.4906   2.4926   2.5016   2.5048   2.5136   2.5217   2.5284   2.5342
  2.5421   2.5465   2.5519   2.5580   2.5662   2.5714   2.5719   2.5814
  2.5883   2.5908   2.5932   2.5952   2.6056   2.6107   2.6170   2.6205
  2.6233   2.6314   2.6351   2.6397   2.6467   2.6521   2.6555   2.6578
  2.6600   2.6635   2.6687   2.6761   2.6800   2.6811   2.6872   2.6915
  2.6991   2.7077   2.7123   2.7127   2.7156   2.7224   2.7233   2.7316
  2.7346   2.7384   2.7402   2.7435   2.7465   2.7535   2.7557   2.7589
  2.7627   2.7635   2.7656   2.7694   2.7791   2.7828   2.7848   2.7977
  2.8040   2.8130   2.8185   2.8186   2.8208   2.8224   2.8245   2.8297
  2.8356   2.8365   2.8390   2.8413   2.8425   2.8460   2.8470   2.8524
  2.8615   2.8645   2.8722   2.8759   2.8825   2.8863   2.8908   2.9012
  2.9118   2.9222   2.9253   2.9268   2.9319   2.9537   2.9564   2.9577
  2.9646   2.9655   2.9668   2.9714   2.9796   2.9822   2.9862   2.9903
  2.9929   2.9950   3.0000   3.0044   3.0073   3.0276   3.0396   3.0577
  3.0604   3.0768   3.0830   3.0871   3.0932   3.1075   3.1156   3.1242
  3.1267   3.1373   3.1465   3.1516   3.1668   3.1698   3.1766   3.2014
  3.2131   3.2154   3.2464   3.2562   3.2579   3.2691   3.2798   3.3170
  3.3276   3.3284   3.3475   3.3638   3.3798   3.4010   3.4046   3.4155
  3.4281   3.4521   3.4555   3.4639   3.4926   3.5159   3.5164   3.5234
  3.5307   3.5360   3.5597   3.5713   3.5767   3.5987   3.6148   3.6468
  3.6564   3.7415   3.7601   3.7724   3.7746   3.7840   3.7894   3.7923
  3.8025   3.8095   3.8119   3.8194   3.8239   3.8311   3.8458   3.8514
  3.8605   3.8665   3.8732   3.8809   3.8892   3.9047   3.9280   3.9316
  4.0174   4.0291   4.0462   4.0613   4.0631   4.0653   4.0738   4.0868
  4.1028   4.1089   4.1306   4.1591   4.1671   4.1751   4.1832   4.1932
  4.2153   4.2261   4.2416   4.2506   4.2842   4.3212   4.3337   4.3622
  4.3927   4.4146   4.4264   4.4417   4.7465   4.8099   4.8345   4.8601
  4.9523   5.0126   5.0696   5.1458   5.2426   5.3352   5.5214   5.6841
  5.7901   5.8580  23.5575  23.6476  23.7179  23.8467  23.8735  23.8811
 23.8912  23.8937  23.8963  23.8978  23.9040  23.9061  23.9075  23.9105
 23.9189  23.9208  23.9262  23.9316  23.9355  23.9381  23.9398  23.9474
 23.9593  23.9882  23.9901  23.9961  24.0505  24.0800  24.0896  24.1102
 24.1533  24.1698  24.2034  35.6233  49.9275  50.0277  50.0757
 --------------------------------------------------------------
 
          Ground-State Mulliken Net Atomic Charges

     Atom                 Charge (a.u.)
  ----------------------------------------
      1 C                     0.140864
      2 C                    -0.507684
      3 C                    -0.458223
      4 C                     0.451005
      5 C                     0.340101
      6 C                    -0.067376
      7 C                    -0.278901
      8 C                    -0.323112
      9 C                     0.429410
     10 C                    -0.062779
     11 O                    -0.316147
     12 O                    -0.236930
     13 O                    -0.225120
     14 H                     0.224693
     15 H                     0.218162
     16 H                     0.231441
     17 H                     0.210035
     18 H                     0.328993
     19 C                     0.412758
     20 C                    -0.375858
     21 C                    -0.181035
     22 C                    -0.326092
     23 C                    -0.409656
     24 C                    -0.379726
     25 H                     0.201680
     26 H                     0.195995
     27 H                     0.219385
     28 H                     0.211790
     29 H                     0.188074
     30 C                    -0.080771
     31 H                     0.272792
     32 N                    -0.035242
     33 C                    -0.797608
     34 C                    -0.756253
     35 C                     0.147410
     36 C                    -0.084268
     37 C                    -0.143027
     38 C                    -0.260042
     39 H                     0.322626
     40 H                     0.194197
     41 H                     0.224148
     42 H                     0.149707
     43 H                     0.136556
     44 H                     0.115501
     45 H                     0.120326
     46 H                     0.131027
     47 H                     0.132976
     48 H                     0.136795
     49 H                     0.136606
     50 H                     0.137224
     51 H                     0.135660
     52 C                    -0.407683
     53 C                    -0.417110
     54 C                    -0.351604
     55 C                    -0.200074
     56 C                    -0.047301
     57 C                    -0.028347
     58 C                    -0.193854
     59 C                    -0.400813
     60 C                    -0.274682
     61 C                    -0.709452
     62 H                     0.134591
     63 H                     0.134963
     64 H                     0.133855
     65 H                     0.133522
     66 H                     0.134524
     67 H                     0.134437
     68 H                     0.135085
     69 H                     0.134339
     70 H                     0.133293
     71 H                     0.132982
     72 H                     0.133646
     73 H                     0.133171
     74 H                     0.131355
     75 H                     0.131148
     76 H                     0.128430
     77 H                     0.128004
     78 H                     0.135464
     79 H                     0.135369
     80 H                     0.144785
     81 H                     0.150994
     82 H                     0.144875
  ----------------------------------------
  Sum of atomic charges =     0.000000

 -----------------------------------------------------------------
                    Cartesian Multipole Moments
 -----------------------------------------------------------------
    Charge (ESU x 10^10)
                -0.0000
    Dipole Moment (Debye)
         X      -4.4597      Y       0.6157      Z       2.0793
       Tot       4.9590
    Quadrupole Moments (Debye-Ang)
        XX    -227.2336     XY     -11.0930     YY    -231.1671
        XZ     -15.5658     YZ       6.7776     ZZ    -209.0299
    Octopole Moments (Debye-Ang^2)
       XXX      57.5790    XXY     292.2697    XYY      38.7359
       YYY     990.3567    XXZ     264.5925    XYZ     -13.6699
       YYZ     266.1794    XZZ     -70.7525    YZZ     437.0591
       ZZZ     859.3529
    Hexadecapole Moments (Debye-Ang^3)
      XXXX   -8131.8634   XXXY   -5498.9104   XXYY  -10502.7556
      XYYY   -5619.6379   YYYY  -54634.9600   XXXZ   -3470.3376
      XXYZ   -6166.3403   XYYZ   -1338.1888   YYYZ  -20017.6421
      XXZZ   -6137.0160   XYZZ   -2028.0115   YYZZ  -14726.6738
      XZZZ   -4095.2775   YZZZ  -19614.0743   ZZZZ  -31343.5273
 -----------------------------------------------------------------
 Total job time:  1909.03s(wall), 10737.48s(cpu) 
 Thu Jun 13 00:03:11 2024

        *************************************************************
        *                                                           *
        *  Thank you very much for using Q-Chem.  Have a nice day.  *
        *                                                           *
        *************************************************************


