 Entering Gaussian System, Link 0=g16
 Input=099.com
 Output=099.log
 Initial command:
 /sysapps/ubuntu-applications/gaussian/Gaussian/AVX2/g16/l1.exe "/scratch/selhajj1/4267628/Gau-3554080.inp" -scrdir="/scratch/selhajj1/4267628/"
 Entering Link 1 = /sysapps/ubuntu-applications/gaussian/Gaussian/AVX2/g16/l1.exe PID=   3554082.
  
 Copyright (c) 1988,1990,1992,1993,1995,1998,2003,2009,2016,
            Gaussian, Inc.  All Rights Reserved.
  
 This is part of the Gaussian(R) 16 program.  It is based on
 the Gaussian(R) 09 system (copyright 2009, Gaussian, Inc.),
 the Gaussian(R) 03 system (copyright 2003, Gaussian, Inc.),
 the Gaussian(R) 98 system (copyright 1998, Gaussian, Inc.),
 the Gaussian(R) 94 system (copyright 1995, Gaussian, Inc.),
 the Gaussian 92(TM) system (copyright 1992, Gaussian, Inc.),
 the Gaussian 90(TM) system (copyright 1990, Gaussian, Inc.),
 the Gaussian 88(TM) system (copyright 1988, Gaussian, Inc.),
 the Gaussian 86(TM) system (copyright 1986, Carnegie Mellon
 University), and the Gaussian 82(TM) system (copyright 1983,
 Carnegie Mellon University). Gaussian is a federally registered
 trademark of Gaussian, Inc.
  
 This software contains proprietary and confidential information,
 including trade secrets, belonging to Gaussian, Inc.
  
 This software is provided under written license and may be
 used, copied, transmitted, or stored only in accord with that
 written license.
  
 The following legend is applicable only to US Government
 contracts under FAR:
  
                    RESTRICTED RIGHTS LEGEND
  
 Use, reproduction and disclosure by the US Government is
 subject to restrictions as set forth in subparagraphs (a)
 and (c) of the Commercial Computer Software - Restricted
 Rights clause in FAR 52.227-19.
  
 Gaussian, Inc.
 340 Quinnipiac St., Bldg. 40, Wallingford CT 06492
  
  
 ---------------------------------------------------------------
 Warning -- This program may not be used in any manner that
 competes with the business of Gaussian, Inc. or will provide
 assistance to any competitor of Gaussian, Inc.  The licensee
 of this program is prohibited from giving any competitor of
 Gaussian, Inc. access to this program.  By using this program,
 the user acknowledges that Gaussian, Inc. is engaged in the
 business of creating and licensing software in the field of
 computational chemistry and represents and warrants to the
 licensee that it is not a competitor of Gaussian, Inc. and that
 it will not use this program in any manner prohibited above.
 ---------------------------------------------------------------
  

 Cite this work as:
 Gaussian 16, Revision A.03,
 M. J. Frisch, G. W. Trucks, H. B. Schlegel, G. E. Scuseria, 
 M. A. Robb, J. R. Cheeseman, G. Scalmani, V. Barone, 
 G. A. Petersson, H. Nakatsuji, X. Li, M. Caricato, A. V. Marenich, 
 J. Bloino, B. G. Janesko, R. Gomperts, B. Mennucci, H. P. Hratchian, 
 J. V. Ortiz, A. F. Izmaylov, J. L. Sonnenberg, D. Williams-Young, 
 F. Ding, F. Lipparini, F. Egidi, J. Goings, B. Peng, A. Petrone, 
 T. Henderson, D. Ranasinghe, V. G. Zakrzewski, J. Gao, N. Rega, 
 G. Zheng, W. Liang, M. Hada, M. Ehara, K. Toyota, R. Fukuda, 
 J. Hasegawa, M. Ishida, T. Nakajima, Y. Honda, O. Kitao, H. Nakai, 
 T. Vreven, K. Throssell, J. A. Montgomery, Jr., J. E. Peralta, 
 F. Ogliaro, M. J. Bearpark, J. J. Heyd, E. N. Brothers, K. N. Kudin, 
 V. N. Staroverov, T. A. Keith, R. Kobayashi, J. Normand, 
 K. Raghavachari, A. P. Rendell, J. C. Burant, S. S. Iyengar, 
 J. Tomasi, M. Cossi, J. M. Millam, M. Klene, C. Adamo, R. Cammi, 
 J. W. Ochterski, R. L. Martin, K. Morokuma, O. Farkas, 
 J. B. Foresman, and D. J. Fox, Gaussian, Inc., Wallingford CT, 2016.
 
 ******************************************
 Gaussian 16:  ES64L-G16RevA.03 25-Dec-2016
                10-Jan-2024 
 ******************************************
 %chk=099.chk
 %nproc=8
 Will use up to    8 processors via shared memory.
 %mem=30GB
 --------------------------------------
 #P UB3LYP/6-311++G(d,p) nosym opt freq
 --------------------------------------
 1/18=20,19=15,26=3,38=1/1,3;
 2/9=110,12=2,15=1,17=6,18=5,40=1/2;
 3/5=4,6=6,7=1111,11=2,25=1,30=1,71=1,74=-5,116=2/1,2,3;
 4//1;
 5/5=2,38=5/2;
 6/7=2,8=2,9=2,10=2,28=1/1;
 7/30=1/1,2,3,16;
 1/18=20,19=15,26=3/3(2);
 2/9=110,15=1/2;
 99//99;
 2/9=110,15=1/2;
 3/5=4,6=6,7=1111,11=2,25=1,30=1,71=1,74=-5,116=2/1,2,3;
 4/5=5,16=3,69=1/1;
 5/5=2,38=5/2;
 7/30=1/1,2,3,16;
 1/18=20,19=15,26=3/3(-5);
 2/9=110,15=1/2;
 6/7=2,8=2,9=2,10=2,19=2,28=1/1;
 99/9=1/99;
 Leave Link    1 at Wed Jan 10 16:48:24 2024, MaxMem=  4026531840 cpu:               0.8 elap:               0.1
 (Enter /sysapps/ubuntu-applications/gaussian/Gaussian/AVX2/g16/l101.exe)
 --------
 Oxidized
 --------
 Symbolic Z-matrix:
 Charge =  0 Multiplicity = 1
 C                     0.07951  -0.90414   1.44563 
 C                    -0.07257  -0.80689  -0.04889 
 C                    -0.72759  -1.7755   -0.71396 
 C                    -1.37469  -2.91264  -0.02341 
 C                    -1.29338  -2.95122   1.45725 
 C                    -0.62184  -2.01286   2.13519 
 O                     0.7834   -0.12653   2.06324 
 O                    -1.95882  -3.78315  -0.64936 
 C                     0.61483   0.30591  -0.7492 
 H                    -1.7968   -3.7797    1.94299 
 H                    -0.84511  -1.75445  -1.79187 
 H                    -0.53089  -2.02024   3.2156 
 C                     0.40681   1.667    -0.4748 
 C                     1.12107   2.67205  -1.11636 
 C                     2.06535   2.33363  -2.07886 
 C                     2.28846   0.99332  -2.38223 
 C                     1.57653  -0.00278  -1.71895 
 N                    -0.64197   2.09849   0.47655 
 O                    -0.55236   3.22088   0.94969 
 O                    -1.55469   1.31385   0.71112 
 H                     0.91817   3.70265  -0.85985 
 H                     2.61892   3.11321  -2.58778 
 H                     3.02412   0.71812  -3.12888 
 H                     1.78038  -1.04504  -1.93262 
 
 ITRead=  0  0  0  0  0  0  0  0  0  0  0  0  0  0  0  0  0  0  0  0
 ITRead=  0  0  0  0
 MicOpt= -1 -1 -1 -1 -1 -1 -1 -1 -1 -1 -1 -1 -1 -1 -1 -1 -1 -1 -1 -1
 MicOpt= -1 -1 -1 -1
 NAtoms=     24 NQM=       24 NQMF=       0 NMMI=      0 NMMIF=      0
                NMic=       0 NMicF=      0.
                    Isotopes and Nuclear Properties:
 (Nuclear quadrupole moments (NQMom) in fm**2, nuclear magnetic moments (NMagM)
  in nuclear magnetons)

  Atom         1           2           3           4           5           6           7           8           9          10
 IAtWgt=          12          12          12          12          12          12          16          16          12           1
 AtmWgt=  12.0000000  12.0000000  12.0000000  12.0000000  12.0000000  12.0000000  15.9949146  15.9949146  12.0000000   1.0078250
 NucSpn=           0           0           0           0           0           0           0           0           0           1
 AtZEff=  -0.0000000  -0.0000000  -0.0000000  -0.0000000  -0.0000000  -0.0000000  -0.0000000  -0.0000000  -0.0000000  -0.0000000
 NQMom=    0.0000000   0.0000000   0.0000000   0.0000000   0.0000000   0.0000000   0.0000000   0.0000000   0.0000000   0.0000000
 NMagM=    0.0000000   0.0000000   0.0000000   0.0000000   0.0000000   0.0000000   0.0000000   0.0000000   0.0000000   2.7928460
 AtZNuc=   6.0000000   6.0000000   6.0000000   6.0000000   6.0000000   6.0000000   8.0000000   8.0000000   6.0000000   1.0000000

  Atom        11          12          13          14          15          16          17          18          19          20
 IAtWgt=           1           1          12          12          12          12          12          14          16          16
 AtmWgt=   1.0078250   1.0078250  12.0000000  12.0000000  12.0000000  12.0000000  12.0000000  14.0030740  15.9949146  15.9949146
 NucSpn=           1           1           0           0           0           0           0           2           0           0
 AtZEff=  -0.0000000  -0.0000000  -0.0000000  -0.0000000  -0.0000000  -0.0000000  -0.0000000  -0.0000000  -0.0000000  -0.0000000
 NQMom=    0.0000000   0.0000000   0.0000000   0.0000000   0.0000000   0.0000000   0.0000000   2.0440000   0.0000000   0.0000000
 NMagM=    2.7928460   2.7928460   0.0000000   0.0000000   0.0000000   0.0000000   0.0000000   0.4037610   0.0000000   0.0000000
 AtZNuc=   1.0000000   1.0000000   6.0000000   6.0000000   6.0000000   6.0000000   6.0000000   7.0000000   8.0000000   8.0000000

  Atom        21          22          23          24
 IAtWgt=           1           1           1           1
 AtmWgt=   1.0078250   1.0078250   1.0078250   1.0078250
 NucSpn=           1           1           1           1
 AtZEff=  -0.0000000  -0.0000000  -0.0000000  -0.0000000
 NQMom=    0.0000000   0.0000000   0.0000000   0.0000000
 NMagM=    2.7928460   2.7928460   2.7928460   2.7928460
 AtZNuc=   1.0000000   1.0000000   1.0000000   1.0000000
 Leave Link  101 at Wed Jan 10 16:48:25 2024, MaxMem=  4026531840 cpu:               6.5 elap:               0.8
 (Enter /sysapps/ubuntu-applications/gaussian/Gaussian/AVX2/g16/l103.exe)

 GradGradGradGradGradGradGradGradGradGradGradGradGradGradGradGradGradGrad
 Berny optimization.
 Initialization pass.
                           ----------------------------
                           !    Initial Parameters    !
                           ! (Angstroms and Degrees)  !
 --------------------------                            --------------------------
 ! Name  Definition              Value          Derivative Info.                !
 --------------------------------------------------------------------------------
 ! R1    R(1,2)                  1.5054         estimate D2E/DX2                !
 ! R2    R(1,6)                  1.4821         estimate D2E/DX2                !
 ! R3    R(1,7)                  1.2172         estimate D2E/DX2                !
 ! R4    R(2,3)                  1.3452         estimate D2E/DX2                !
 ! R5    R(2,9)                  1.4837         estimate D2E/DX2                !
 ! R6    R(3,4)                  1.4794         estimate D2E/DX2                !
 ! R7    R(3,11)                 1.0845         estimate D2E/DX2                !
 ! R8    R(4,5)                  1.4834         estimate D2E/DX2                !
 ! R9    R(4,8)                  1.221          estimate D2E/DX2                !
 ! R10   R(5,6)                  1.3383         estimate D2E/DX2                !
 ! R11   R(5,10)                 1.0843         estimate D2E/DX2                !
 ! R12   R(6,12)                 1.0843         estimate D2E/DX2                !
 ! R13   R(9,13)                 1.404          estimate D2E/DX2                !
 ! R14   R(9,17)                 1.4002         estimate D2E/DX2                !
 ! R15   R(13,14)                1.3899         estimate D2E/DX2                !
 ! R16   R(13,18)                1.4803         estimate D2E/DX2                !
 ! R17   R(14,15)                1.3902         estimate D2E/DX2                !
 ! R18   R(14,21)                1.0812         estimate D2E/DX2                !
 ! R19   R(15,16)                1.3922         estimate D2E/DX2                !
 ! R20   R(15,22)                1.0831         estimate D2E/DX2                !
 ! R21   R(16,17)                1.3925         estimate D2E/DX2                !
 ! R22   R(16,23)                1.0837         estimate D2E/DX2                !
 ! R23   R(17,24)                1.0833         estimate D2E/DX2                !
 ! R24   R(18,19)                1.2213         estimate D2E/DX2                !
 ! R25   R(18,20)                1.2263         estimate D2E/DX2                !
 ! A1    A(2,1,6)              117.5434         estimate D2E/DX2                !
 ! A2    A(2,1,7)              121.392          estimate D2E/DX2                !
 ! A3    A(6,1,7)              121.0296         estimate D2E/DX2                !
 ! A4    A(1,2,3)              119.5713         estimate D2E/DX2                !
 ! A5    A(1,2,9)              118.0509         estimate D2E/DX2                !
 ! A6    A(3,2,9)              122.1608         estimate D2E/DX2                !
 ! A7    A(2,3,4)              122.3893         estimate D2E/DX2                !
 ! A8    A(2,3,11)             122.0182         estimate D2E/DX2                !
 ! A9    A(4,3,11)             115.5596         estimate D2E/DX2                !
 ! A10   A(3,4,5)              117.5113         estimate D2E/DX2                !
 ! A11   A(3,4,8)              121.1962         estimate D2E/DX2                !
 ! A12   A(5,4,8)              121.2917         estimate D2E/DX2                !
 ! A13   A(4,5,6)              120.9909         estimate D2E/DX2                !
 ! A14   A(4,5,10)             116.2039         estimate D2E/DX2                !
 ! A15   A(6,5,10)             122.8028         estimate D2E/DX2                !
 ! A16   A(1,6,5)              121.754          estimate D2E/DX2                !
 ! A17   A(1,6,12)             115.4041         estimate D2E/DX2                !
 ! A18   A(5,6,12)             122.8259         estimate D2E/DX2                !
 ! A19   A(2,9,13)             124.488          estimate D2E/DX2                !
 ! A20   A(2,9,17)             118.6701         estimate D2E/DX2                !
 ! A21   A(13,9,17)            116.7979         estimate D2E/DX2                !
 ! A22   A(9,13,14)            122.3214         estimate D2E/DX2                !
 ! A23   A(9,13,18)            120.8754         estimate D2E/DX2                !
 ! A24   A(14,13,18)           116.7411         estimate D2E/DX2                !
 ! A25   A(13,14,15)           119.5117         estimate D2E/DX2                !
 ! A26   A(13,14,21)           118.901          estimate D2E/DX2                !
 ! A27   A(15,14,21)           121.5837         estimate D2E/DX2                !
 ! A28   A(14,15,16)           119.6092         estimate D2E/DX2                !
 ! A29   A(14,15,22)           119.8182         estimate D2E/DX2                !
 ! A30   A(16,15,22)           120.5723         estimate D2E/DX2                !
 ! A31   A(15,16,17)           120.1953         estimate D2E/DX2                !
 ! A32   A(15,16,23)           120.2249         estimate D2E/DX2                !
 ! A33   A(17,16,23)           119.577          estimate D2E/DX2                !
 ! A34   A(9,17,16)            121.557          estimate D2E/DX2                !
 ! A35   A(9,17,24)            118.5518         estimate D2E/DX2                !
 ! A36   A(16,17,24)           119.8739         estimate D2E/DX2                !
 ! A37   A(13,18,19)           117.7017         estimate D2E/DX2                !
 ! A38   A(13,18,20)           117.6306         estimate D2E/DX2                !
 ! A39   A(19,18,20)           124.6479         estimate D2E/DX2                !
 ! D1    D(6,1,2,3)             -5.7743         estimate D2E/DX2                !
 ! D2    D(6,1,2,9)            179.4617         estimate D2E/DX2                !
 ! D3    D(7,1,2,3)            172.0982         estimate D2E/DX2                !
 ! D4    D(7,1,2,9)             -2.6658         estimate D2E/DX2                !
 ! D5    D(2,1,6,5)              4.453          estimate D2E/DX2                !
 ! D6    D(2,1,6,12)          -176.9606         estimate D2E/DX2                !
 ! D7    D(7,1,6,5)           -173.4277         estimate D2E/DX2                !
 ! D8    D(7,1,6,12)             5.1587         estimate D2E/DX2                !
 ! D9    D(1,2,3,4)              3.2853         estimate D2E/DX2                !
 ! D10   D(1,2,3,11)          -178.8947         estimate D2E/DX2                !
 ! D11   D(9,2,3,4)            177.8261         estimate D2E/DX2                !
 ! D12   D(9,2,3,11)            -4.3539         estimate D2E/DX2                !
 ! D13   D(1,2,9,13)           -58.2561         estimate D2E/DX2                !
 ! D14   D(1,2,9,17)           119.2493         estimate D2E/DX2                !
 ! D15   D(3,2,9,13)           127.1237         estimate D2E/DX2                !
 ! D16   D(3,2,9,17)           -55.3709         estimate D2E/DX2                !
 ! D17   D(2,3,4,5)              0.645          estimate D2E/DX2                !
 ! D18   D(2,3,4,8)           -179.6789         estimate D2E/DX2                !
 ! D19   D(11,3,4,5)          -177.3061         estimate D2E/DX2                !
 ! D20   D(11,3,4,8)             2.3699         estimate D2E/DX2                !
 ! D21   D(3,4,5,6)             -2.0895         estimate D2E/DX2                !
 ! D22   D(3,4,5,10)           178.4583         estimate D2E/DX2                !
 ! D23   D(8,4,5,6)            178.2348         estimate D2E/DX2                !
 ! D24   D(8,4,5,10)            -1.2174         estimate D2E/DX2                !
 ! D25   D(4,5,6,1)             -0.5867         estimate D2E/DX2                !
 ! D26   D(4,5,6,12)          -179.0671         estimate D2E/DX2                !
 ! D27   D(10,5,6,1)           178.8287         estimate D2E/DX2                !
 ! D28   D(10,5,6,12)            0.3482         estimate D2E/DX2                !
 ! D29   D(2,9,13,14)          176.9586         estimate D2E/DX2                !
 ! D30   D(2,9,13,18)           -6.0035         estimate D2E/DX2                !
 ! D31   D(17,9,13,14)          -0.5893         estimate D2E/DX2                !
 ! D32   D(17,9,13,18)         176.4486         estimate D2E/DX2                !
 ! D33   D(2,9,17,16)         -177.9208         estimate D2E/DX2                !
 ! D34   D(2,9,17,24)            0.5658         estimate D2E/DX2                !
 ! D35   D(13,9,17,16)          -0.2243         estimate D2E/DX2                !
 ! D36   D(13,9,17,24)         178.2624         estimate D2E/DX2                !
 ! D37   D(9,13,14,15)           0.884          estimate D2E/DX2                !
 ! D38   D(9,13,14,21)        -179.8011         estimate D2E/DX2                !
 ! D39   D(18,13,14,15)       -176.2692         estimate D2E/DX2                !
 ! D40   D(18,13,14,21)          3.0457         estimate D2E/DX2                !
 ! D41   D(9,13,18,19)         160.7015         estimate D2E/DX2                !
 ! D42   D(9,13,18,20)         -20.8422         estimate D2E/DX2                !
 ! D43   D(14,13,18,19)        -22.1013         estimate D2E/DX2                !
 ! D44   D(14,13,18,20)        156.355          estimate D2E/DX2                !
 ! D45   D(13,14,15,16)         -0.3508         estimate D2E/DX2                !
 ! D46   D(13,14,15,22)        179.4929         estimate D2E/DX2                !
 ! D47   D(21,14,15,16)       -179.6467         estimate D2E/DX2                !
 ! D48   D(21,14,15,22)          0.1969         estimate D2E/DX2                !
 ! D49   D(14,15,16,17)         -0.4387         estimate D2E/DX2                !
 ! D50   D(14,15,16,23)       -179.8314         estimate D2E/DX2                !
 ! D51   D(22,15,16,17)        179.7189         estimate D2E/DX2                !
 ! D52   D(22,15,16,23)          0.3262         estimate D2E/DX2                !
 ! D53   D(15,16,17,9)           0.7364         estimate D2E/DX2                !
 ! D54   D(15,16,17,24)       -177.7306         estimate D2E/DX2                !
 ! D55   D(23,16,17,9)        -179.8669         estimate D2E/DX2                !
 ! D56   D(23,16,17,24)          1.6661         estimate D2E/DX2                !
 --------------------------------------------------------------------------------
 Trust Radius=3.00D-01 FncErr=1.00D-07 GrdErr=1.00D-06 EigMax=2.50D+02 EigMin=1.00D-04
 Number of steps in this run=    130 maximum allowed number of steps=    144.
 GradGradGradGradGradGradGradGradGradGradGradGradGradGradGradGradGradGrad

 Leave Link  103 at Wed Jan 10 16:48:25 2024, MaxMem=  4026531840 cpu:               0.3 elap:               0.1
 (Enter /sysapps/ubuntu-applications/gaussian/Gaussian/AVX2/g16/l202.exe)
                          Input orientation:                          
 ---------------------------------------------------------------------
 Center     Atomic      Atomic             Coordinates (Angstroms)
 Number     Number       Type             X           Y           Z
 ---------------------------------------------------------------------
      1          6           0        0.079506   -0.904136    1.445631
      2          6           0       -0.072565   -0.806888   -0.048893
      3          6           0       -0.727594   -1.775497   -0.713963
      4          6           0       -1.374692   -2.912642   -0.023414
      5          6           0       -1.293377   -2.951224    1.457245
      6          6           0       -0.621839   -2.012864    2.135190
      7          8           0        0.783403   -0.126533    2.063244
      8          8           0       -1.958819   -3.783153   -0.649362
      9          6           0        0.614825    0.305910   -0.749197
     10          1           0       -1.796800   -3.779698    1.942988
     11          1           0       -0.845113   -1.754453   -1.791868
     12          1           0       -0.530886   -2.020242    3.215603
     13          6           0        0.406814    1.666997   -0.474802
     14          6           0        1.121067    2.672050   -1.116359
     15          6           0        2.065352    2.333630   -2.078857
     16          6           0        2.288458    0.993318   -2.382228
     17          6           0        1.576530   -0.002777   -1.718953
     18          7           0       -0.641967    2.098486    0.476553
     19          8           0       -0.552357    3.220884    0.949687
     20          8           0       -1.554687    1.313854    0.711115
     21          1           0        0.918174    3.702645   -0.859851
     22          1           0        2.618916    3.113209   -2.587782
     23          1           0        3.024122    0.718117   -3.128881
     24          1           0        1.780377   -1.045041   -1.932618
 ---------------------------------------------------------------------
                    Distance matrix (angstroms):
                    1          2          3          4          5
     1  C    0.000000
     2  C    1.505385   0.000000
     3  C    2.464655   1.345208   0.000000
     4  C    2.882166   2.475961   1.479423   0.000000
     5  C    2.464855   2.890849   2.533099   1.483392   0.000000
     6  C    1.482111   2.554662   2.860979   2.456819   1.338317
     7  O    1.217203   2.378379   3.565820   4.095598   3.557967
     8  O    4.102743   3.574447   2.356007   1.220985   2.360659
     9  C    2.562820   1.483661   2.477011   3.852793   4.372476
    10  H    3.469401   3.972175   3.495628   2.190137   1.084320
    11  H    3.472659   2.129007   1.084497   2.179285   3.491409
    12  H    2.179695   3.512723   3.942091   3.464046   2.130714
    13  C    3.225821   2.555643   3.632471   4.934634   5.286910
    14  C    4.520813   3.829785   4.833233   6.213866   6.638839
    15  C    5.181576   4.307470   5.152515   6.601675   7.191297
    16  C    4.809606   3.776192   4.421087   5.851427   6.567382
    17  C    3.614986   2.480969   3.075960   4.477932   5.197878
    18  N    3.236568   3.006910   4.053690   5.089033   5.185139
    19  O    4.202499   4.177357   5.268991   6.264447   6.237118
    20  O    2.851242   2.696636   3.501288   4.293623   4.337728
    21  H    5.219295   4.687761   5.721877   7.051162   7.384705
    22  H    6.233465   5.390472   6.213676   7.670448   8.273187
    23  H    5.677026   4.626169   5.111293   6.494298   7.289541
    24  H    3.784889   2.653023   2.882465   4.133697   4.957083
                    6          7          8          9         10
     6  C    0.000000
     7  O    2.353322   0.000000
     8  O    3.560220   5.314968   0.000000
     9  C    3.902017   2.850482   4.832602   0.000000
    10  H    2.130535   4.474095   2.597410   5.454905   0.000000
    11  H    3.941879   4.490443   2.580946   2.731973   4.353903
    12  H    1.084260   2.577095   4.481607   4.737433   2.513518
    13  C    4.627263   3.130535   5.943974   1.403965   6.353590
    14  C    5.963113   4.249230   7.167526   2.447388   7.713534
    15  C    6.623534   4.985258   7.460056   2.825539   8.274312
    16  C    6.157436   4.825088   6.622451   2.437287   7.627484
    17  C    4.871108   3.866443   5.285259   1.400211   6.249344
    18  N    4.433360   3.082203   6.131514   2.509047   6.167424
    19  O    5.366783   3.772196   7.320630   3.570097   7.179376
    20  O    3.737011   3.060986   5.290907   2.802721   5.245989
    21  H    6.633924   4.819258   8.022379   3.412048   8.438747
    22  H    7.686715   5.957943   8.501349   3.908670   9.356206
    23  H    6.961446   5.717728   7.158152   3.411381   8.318382
    24  H    4.822280   4.219541   4.808907   2.141043   5.940948
                   11         12         13         14         15
    11  H    0.000000
    12  H    5.024356   0.000000
    13  C    3.874055   5.300387   0.000000
    14  C    4.890409   6.596397   1.389922   0.000000
    15  C    5.026489   7.329936   2.401695   1.390182   0.000000
    16  C    4.209280   6.954564   2.762734   2.404863   1.392209
    17  C    2.989656   5.732470   2.388366   2.779436   2.413975
    18  N    4.475728   4.947591   1.480270   2.444306   3.730280
    19  O    5.688217   5.710012   2.315976   2.714795   4.100207
    20  O    4.022801   4.293812   2.319180   3.513405   4.682795
    21  H    5.810142   7.173600   2.133920   1.081244   2.162451
    22  H    6.027197   8.363782   3.383727   2.145521   1.083135
    23  H    4.782487   7.771047   3.846402   3.389649   2.152132
    24  H    2.723284   5.726878   3.371506   3.862348   3.393820
                   16         17         18         19         20
    16  C    0.000000
    17  C    1.392473   0.000000
    18  N    4.240450   3.762616   0.000000
    19  O    4.912630   4.695294   1.221337   0.000000
    20  O    4.943812   4.176514   1.226264   2.167567   0.000000
    21  H    3.396434   3.860264   2.606404   2.380963   3.780119
    22  H    2.155317   3.398647   4.588373   4.752079   5.615992
    23  H    1.083710   2.145485   5.323982   5.974091   6.005494
    24  H    2.148302   1.083292   4.642587   5.652207   4.865836
                   21         22         23         24
    21  H    0.000000
    22  H    2.495136   0.000000
    23  H    4.300107   2.488663   0.000000
    24  H    4.943151   4.292252   2.467118   0.000000
 Symmetry turned off by external request.
 Stoichiometry    C12H7NO4
 Framework group  C1[X(C12H7NO4)]
 Deg. of freedom    66
 Full point group                 C1      NOp   1
 Rotational constants (GHZ):           0.8260647           0.3678077           0.3006872
 Leave Link  202 at Wed Jan 10 16:48:25 2024, MaxMem=  4026531840 cpu:               0.2 elap:               0.0
 (Enter /sysapps/ubuntu-applications/gaussian/Gaussian/AVX2/g16/l301.exe)
 Standard basis: 6-311++G(d,p) (5D, 7F)
 Ernie: Thresh=  0.10000D-02 Tol=  0.10000D-05 Strict=F.
   423 basis functions,   675 primitive gaussians,   440 cartesian basis functions
    59 alpha electrons       59 beta electrons
       nuclear repulsion energy      1135.3965989574 Hartrees.
 IExCor=  402 DFT=T Ex+Corr=B3LYP ExCW=0 ScaHFX=  0.200000
 ScaDFX=  0.800000  0.720000  1.000000  0.810000 ScalE2=  1.000000  1.000000
 IRadAn=      5 IRanWt=     -1 IRanGd=            0 ICorTp=0 IEmpDi=  4
 NAtoms=   24 NActive=   24 NUniq=   24 SFac= 1.00D+00 NAtFMM=   60 NAOKFM=F Big=F
 Integral buffers will be    131072 words long.
 Raffenetti 2 integral format.
 Two-electron integral symmetry is turned off.
 Leave Link  301 at Wed Jan 10 16:48:25 2024, MaxMem=  4026531840 cpu:               0.6 elap:               0.1
 (Enter /sysapps/ubuntu-applications/gaussian/Gaussian/AVX2/g16/l302.exe)
 NPDir=0 NMtPBC=     1 NCelOv=     1 NCel=       1 NClECP=     1 NCelD=      1
         NCelK=      1 NCelE2=     1 NClLst=     1 CellRange=     0.0.
 One-electron integrals computed using PRISM.
 NBasis=   423 RedAO= T EigKep=  1.77D-06  NBF=   423
 NBsUse=   420 1.00D-06 EigRej=  8.92D-07 NBFU=   420
 Precomputing XC quadrature grid using
 IXCGrd= 4 IRadAn=           5 IRanWt=          -1 IRanGd=           0 AccXCQ= 0.00D+00.
 Generated NRdTot=       0 NPtTot=           0 NUsed=           0 NTot=          32
 NSgBfM=   440   440   440   440   440 MxSgAt=    24 MxSgA2=    24.
 Leave Link  302 at Wed Jan 10 16:48:26 2024, MaxMem=  4026531840 cpu:               3.3 elap:               0.4
 (Enter /sysapps/ubuntu-applications/gaussian/Gaussian/AVX2/g16/l303.exe)
 DipDrv:  MaxL=1.
 Leave Link  303 at Wed Jan 10 16:48:26 2024, MaxMem=  4026531840 cpu:               0.6 elap:               0.1
 (Enter /sysapps/ubuntu-applications/gaussian/Gaussian/AVX2/g16/l401.exe)
 ExpMin= 3.60D-02 ExpMax= 8.59D+03 ExpMxC= 1.30D+03 IAcc=3 IRadAn=         5 AccDes= 0.00D+00
 Harris functional with IExCor=  402 and IRadAn=       5 diagonalized for initial guess.
 HarFok:  IExCor=  402 AccDes= 0.00D+00 IRadAn=         5 IDoV= 1 UseB2=F ITyADJ=14
 ICtDFT=  3500011 ScaDFX=  1.000000  1.000000  1.000000  1.000000
 FoFCou: FMM=F IPFlag=           0 FMFlag=      100000 FMFlg1=           0
         NFxFlg=           0 DoJE=T BraDBF=F KetDBF=T FulRan=T
         wScrn=  0.000000 ICntrl=       500 IOpCl=  0 I1Cent=   200000004 NGrid=           0
         NMat0=    1 NMatS0=      1 NMatT0=    0 NMatD0=    1 NMtDS0=    0 NMtDT0=    0
 Symmetry not used in FoFCou.
 Harris En= -817.276250439343    
 JPrj=0 DoOrth=F DoCkMO=F.
 Initial guess <Sx>= 0.0000 <Sy>= 0.0000 <Sz>= 0.0000 <S**2>= 0.0000 S= 0.0000
 Leave Link  401 at Wed Jan 10 16:48:27 2024, MaxMem=  4026531840 cpu:              13.5 elap:               1.7
 (Enter /sysapps/ubuntu-applications/gaussian/Gaussian/AVX2/g16/l502.exe)
 Two-electron integral symmetry not used.
 UHF open shell SCF:
 Using DIIS extrapolation, IDIIS=  1040.
 NGot=  4026531840 LenX=  4026138052 LenY=  4025944011
 Requested convergence on RMS density matrix=1.00D-08 within 128 cycles.
 Requested convergence on MAX density matrix=1.00D-06.
 Requested convergence on             energy=1.00D-06.
 No special actions if energy rises.
 Fock matrices will be formed incrementally for  20 cycles.

 Cycle   1  Pass 1  IDiag  1:
 FoFJK:  IHMeth= 1 ICntrl=       0 DoSepK=F KAlg= 0 I1Cent=           0 FoldK=F
 IRaf= 870000000 NMat=       1 IRICut=       1 DoRegI=T DoRafI=F ISym2E= 0 IDoP0=0 IntGTp=1.
 FoFCou: FMM=F IPFlag=           0 FMFlag=      100000 FMFlg1=           0
         NFxFlg=           0 DoJE=F BraDBF=F KetDBF=F FulRan=T
         wScrn=  0.000000 ICntrl=         0 IOpCl=  1 I1Cent=           0 NGrid=           0
         NMat0=    1 NMatS0=      1 NMatT0=    0 NMatD0=    1 NMtDS0=    0 NMtDT0=    0
 Symmetry not used in FoFCou.
 E= -816.780671620164    
 DIIS: error= 2.87D-02 at cycle   1 NSaved=   1.
 NSaved= 1 IEnMin= 1 EnMin= -816.780671620164     IErMin= 1 ErrMin= 2.87D-02
 ErrMax= 2.87D-02  0.00D+00 EMaxC= 1.00D-01 BMatC= 2.41D+00 BMatP= 2.41D+00
 IDIUse=3 WtCom= 7.13D-01 WtEn= 2.87D-01
 Coeff-Com:  0.100D+01
 Coeff-En:   0.100D+01
 Coeff:      0.100D+01
 Gap=     0.162 Goal=   None    Shift=    0.000
 Gap=     0.162 Goal=   None    Shift=    0.000
 GapD=    0.162 DampG=1.000 DampE=0.500 DampFc=0.5000 IDamp=-1.
 Damping current iteration by 5.00D-01
 RMSDP=3.95D-02 MaxDP=2.84D+00              OVMax= 2.85D-01

 Cycle   2  Pass 1  IDiag  1:
 RMSU=  1.95D-02    CP:  9.56D-01
 E= -816.854721386560     Delta-E=       -0.074049766396 Rises=F Damp=T
 DIIS: error= 1.44D-02 at cycle   2 NSaved=   2.
 NSaved= 2 IEnMin= 2 EnMin= -816.854721386560     IErMin= 2 ErrMin= 1.44D-02
 ErrMax= 1.44D-02  0.00D+00 EMaxC= 1.00D-01 BMatC= 5.33D-01 BMatP= 2.41D+00
 IDIUse=3 WtCom= 8.56D-01 WtEn= 1.44D-01
 Coeff-Com:  0.270D+00 0.730D+00
 Coeff-En:   0.424D+00 0.576D+00
 Coeff:      0.293D+00 0.707D+00
 Gap=     0.193 Goal=   None    Shift=    0.000
 Gap=     0.193 Goal=   None    Shift=    0.000
 RMSDP=1.21D-02 MaxDP=9.75D-01 DE=-7.40D-02 OVMax= 2.34D-01

 Cycle   3  Pass 1  IDiag  1:
 RMSU=  6.56D-03    CP:  8.65D-01  6.24D-01
 E= -817.168985472814     Delta-E=       -0.314264086253 Rises=F Damp=F
 DIIS: error= 1.34D-02 at cycle   3 NSaved=   3.
 NSaved= 3 IEnMin= 3 EnMin= -817.168985472814     IErMin= 3 ErrMin= 1.34D-02
 ErrMax= 1.34D-02  0.00D+00 EMaxC= 1.00D-01 BMatC= 2.52D-01 BMatP= 5.33D-01
 IDIUse=3 WtCom= 8.66D-01 WtEn= 1.34D-01
 Coeff-Com:  0.841D-01 0.404D+00 0.511D+00
 Coeff-En:   0.000D+00 0.000D+00 0.100D+01
 Coeff:      0.728D-01 0.350D+00 0.577D+00
 Gap=     0.158 Goal=   None    Shift=    0.000
 Gap=     0.158 Goal=   None    Shift=    0.000
 RMSDP=8.95D-03 MaxDP=6.71D-01 DE=-3.14D-01 OVMax= 1.07D-01

 Cycle   4  Pass 1  IDiag  1:
 RMSU=  5.27D-03    CP:  9.51D-01  7.22D-01  6.66D-01
 E= -817.192457092093     Delta-E=       -0.023471619279 Rises=F Damp=F
 DIIS: error= 9.67D-03 at cycle   4 NSaved=   4.
 NSaved= 4 IEnMin= 4 EnMin= -817.192457092093     IErMin= 4 ErrMin= 9.67D-03
 ErrMax= 9.67D-03  0.00D+00 EMaxC= 1.00D-01 BMatC= 1.71D-01 BMatP= 2.52D-01
 IDIUse=3 WtCom= 9.03D-01 WtEn= 9.67D-02
 Coeff-Com:  0.316D-01 0.160D+00 0.433D+00 0.376D+00
 Coeff-En:   0.000D+00 0.000D+00 0.407D+00 0.593D+00
 Coeff:      0.285D-01 0.144D+00 0.430D+00 0.397D+00
 Gap=     0.148 Goal=   None    Shift=    0.000
 Gap=     0.148 Goal=   None    Shift=    0.000
 RMSDP=4.41D-03 MaxDP=5.52D-01 DE=-2.35D-02 OVMax= 7.96D-02

 Cycle   5  Pass 1  IDiag  1:
 RMSU=  1.43D-03    CP:  9.05D-01  6.94D-01  8.35D-01  6.47D-01
 E= -817.225298854253     Delta-E=       -0.032841762160 Rises=F Damp=F
 DIIS: error= 4.08D-03 at cycle   5 NSaved=   5.
 NSaved= 5 IEnMin= 5 EnMin= -817.225298854253     IErMin= 5 ErrMin= 4.08D-03
 ErrMax= 4.08D-03  0.00D+00 EMaxC= 1.00D-01 BMatC= 2.24D-02 BMatP= 1.71D-01
 IDIUse=3 WtCom= 9.59D-01 WtEn= 4.08D-02
 Coeff-Com:  0.956D-02 0.365D-01 0.237D+00 0.306D+00 0.411D+00
 Coeff-En:   0.000D+00 0.000D+00 0.000D+00 0.934D-01 0.907D+00
 Coeff:      0.917D-02 0.350D-01 0.228D+00 0.297D+00 0.431D+00
 Gap=     0.144 Goal=   None    Shift=    0.000
 Gap=     0.144 Goal=   None    Shift=    0.000
 RMSDP=1.98D-03 MaxDP=1.52D-01 DE=-3.28D-02 OVMax= 3.78D-02

 Cycle   6  Pass 1  IDiag  1:
 RMSU=  9.05D-04    CP:  8.86D-01  6.92D-01  7.94D-01  4.79D-01  7.03D-01
 E= -817.229236380002     Delta-E=       -0.003937525749 Rises=F Damp=F
 DIIS: error= 1.25D-03 at cycle   6 NSaved=   6.
 NSaved= 6 IEnMin= 6 EnMin= -817.229236380002     IErMin= 6 ErrMin= 1.25D-03
 ErrMax= 1.25D-03  0.00D+00 EMaxC= 1.00D-01 BMatC= 2.86D-03 BMatP= 2.24D-02
 IDIUse=3 WtCom= 9.87D-01 WtEn= 1.25D-02
 Coeff-Com:  0.181D-02 0.497D-02 0.109D+00 0.161D+00 0.310D+00 0.414D+00
 Coeff-En:   0.000D+00 0.000D+00 0.000D+00 0.000D+00 0.120D+00 0.880D+00
 Coeff:      0.179D-02 0.491D-02 0.108D+00 0.159D+00 0.307D+00 0.419D+00
 Gap=     0.142 Goal=   None    Shift=    0.000
 Gap=     0.142 Goal=   None    Shift=    0.000
 RMSDP=5.29D-04 MaxDP=3.82D-02 DE=-3.94D-03 OVMax= 1.19D-02

 Cycle   7  Pass 1  IDiag  1:
 RMSU=  2.75D-04    CP:  8.88D-01  6.91D-01  8.14D-01  5.35D-01  7.47D-01
                    CP:  6.98D-01
 E= -817.229736985129     Delta-E=       -0.000500605127 Rises=F Damp=F
 DIIS: error= 3.47D-04 at cycle   7 NSaved=   7.
 NSaved= 7 IEnMin= 7 EnMin= -817.229736985129     IErMin= 7 ErrMin= 3.47D-04
 ErrMax= 3.47D-04  0.00D+00 EMaxC= 1.00D-01 BMatC= 2.74D-04 BMatP= 2.86D-03
 IDIUse=3 WtCom= 9.97D-01 WtEn= 3.47D-03
 Coeff-Com: -0.212D-03-0.163D-02 0.336D-01 0.559D-01 0.137D+00 0.283D+00
 Coeff-Com:  0.493D+00
 Coeff-En:   0.000D+00 0.000D+00 0.000D+00 0.000D+00 0.000D+00 0.800D-01
 Coeff-En:   0.920D+00
 Coeff:     -0.211D-03-0.162D-02 0.335D-01 0.558D-01 0.136D+00 0.282D+00
 Coeff:      0.494D+00
 Gap=     0.143 Goal=   None    Shift=    0.000
 Gap=     0.143 Goal=   None    Shift=    0.000
 RMSDP=2.37D-04 MaxDP=2.51D-02 DE=-5.01D-04 OVMax= 2.96D-03

 Cycle   8  Pass 1  IDiag  1:
 RMSU=  8.10D-05    CP:  8.90D-01  6.88D-01  8.14D-01  5.42D-01  7.43D-01
                    CP:  6.69D-01  5.18D-01
 E= -817.229783382413     Delta-E=       -0.000046397284 Rises=F Damp=F
 DIIS: error= 1.60D-04 at cycle   8 NSaved=   8.
 NSaved= 8 IEnMin= 8 EnMin= -817.229783382413     IErMin= 8 ErrMin= 1.60D-04
 ErrMax= 1.60D-04  0.00D+00 EMaxC= 1.00D-01 BMatC= 3.50D-05 BMatP= 2.74D-04
 IDIUse=3 WtCom= 9.98D-01 WtEn= 1.60D-03
 Coeff-Com: -0.280D-03-0.143D-02 0.921D-02 0.173D-01 0.539D-01 0.139D+00
 Coeff-Com:  0.326D+00 0.456D+00
 Coeff-En:   0.000D+00 0.000D+00 0.000D+00 0.000D+00 0.000D+00 0.000D+00
 Coeff-En:   0.109D+00 0.891D+00
 Coeff:     -0.280D-03-0.143D-02 0.919D-02 0.173D-01 0.538D-01 0.139D+00
 Coeff:      0.326D+00 0.457D+00
 Gap=     0.142 Goal=   None    Shift=    0.000
 Gap=     0.142 Goal=   None    Shift=    0.000
 RMSDP=4.96D-05 MaxDP=2.95D-03 DE=-4.64D-05 OVMax= 1.38D-03

 Cycle   9  Pass 1  IDiag  1:
 RMSU=  2.94D-05    CP:  8.90D-01  6.88D-01  8.15D-01  5.43D-01  7.35D-01
                    CP:  6.75D-01  5.76D-01  6.34D-01
 E= -817.229790270868     Delta-E=       -0.000006888455 Rises=F Damp=F
 DIIS: error= 6.17D-05 at cycle   9 NSaved=   9.
 NSaved= 9 IEnMin= 9 EnMin= -817.229790270868     IErMin= 9 ErrMin= 6.17D-05
 ErrMax= 6.17D-05  0.00D+00 EMaxC= 1.00D-01 BMatC= 3.85D-06 BMatP= 3.50D-05
 IDIUse=1 WtCom= 1.00D+00 WtEn= 0.00D+00
 Coeff-Com: -0.131D-03-0.696D-03 0.220D-02 0.464D-02 0.193D-01 0.557D-01
 Coeff-Com:  0.147D+00 0.291D+00 0.481D+00
 Coeff:     -0.131D-03-0.696D-03 0.220D-02 0.464D-02 0.193D-01 0.557D-01
 Coeff:      0.147D+00 0.291D+00 0.481D+00
 Gap=     0.143 Goal=   None    Shift=    0.000
 Gap=     0.143 Goal=   None    Shift=    0.000
 RMSDP=1.88D-05 MaxDP=1.25D-03 DE=-6.89D-06 OVMax= 4.62D-04

 Cycle  10  Pass 1  IDiag  1:
 RMSU=  1.08D-05    CP:  8.90D-01  6.89D-01  8.15D-01  5.43D-01  7.36D-01
                    CP:  6.75D-01  5.80D-01  6.08D-01  8.04D-01
 E= -817.229790940482     Delta-E=       -0.000000669614 Rises=F Damp=F
 DIIS: error= 1.74D-05 at cycle  10 NSaved=  10.
 NSaved=10 IEnMin=10 EnMin= -817.229790940482     IErMin=10 ErrMin= 1.74D-05
 ErrMax= 1.74D-05  0.00D+00 EMaxC= 1.00D-01 BMatC= 6.26D-07 BMatP= 3.85D-06
 IDIUse=1 WtCom= 1.00D+00 WtEn= 0.00D+00
 Coeff-Com: -0.265D-04-0.188D-03-0.314D-03-0.445D-03 0.247D-02 0.101D-01
 Coeff-Com:  0.327D-01 0.103D+00 0.317D+00 0.535D+00
 Coeff:     -0.265D-04-0.188D-03-0.314D-03-0.445D-03 0.247D-02 0.101D-01
 Coeff:      0.327D-01 0.103D+00 0.317D+00 0.535D+00
 Gap=     0.143 Goal=   None    Shift=    0.000
 Gap=     0.143 Goal=   None    Shift=    0.000
 RMSDP=1.02D-05 MaxDP=1.15D-03 DE=-6.70D-07 OVMax= 8.40D-05

 Cycle  11  Pass 1  IDiag  1:
 RMSU=  3.30D-06    CP:  8.90D-01  6.89D-01  8.15D-01  5.43D-01  7.39D-01
                    CP:  6.77D-01  5.78D-01  6.48D-01  8.36D-01  5.77D-01
 E= -817.229791057159     Delta-E=       -0.000000116676 Rises=F Damp=F
 DIIS: error= 6.03D-06 at cycle  11 NSaved=  11.
 NSaved=11 IEnMin=11 EnMin= -817.229791057159     IErMin=11 ErrMin= 6.03D-06
 ErrMax= 6.03D-06  0.00D+00 EMaxC= 1.00D-01 BMatC= 5.23D-08 BMatP= 6.26D-07
 IDIUse=1 WtCom= 1.00D+00 WtEn= 0.00D+00
 Coeff-Com: -0.365D-05-0.676D-04-0.309D-03-0.583D-03 0.918D-04 0.214D-02
 Coeff-Com:  0.900D-02 0.400D-01 0.150D+00 0.320D+00 0.480D+00
 Coeff:     -0.365D-05-0.676D-04-0.309D-03-0.583D-03 0.918D-04 0.214D-02
 Coeff:      0.900D-02 0.400D-01 0.150D+00 0.320D+00 0.480D+00
 Gap=     0.143 Goal=   None    Shift=    0.000
 Gap=     0.143 Goal=   None    Shift=    0.000
 RMSDP=2.39D-06 MaxDP=2.47D-04 DE=-1.17D-07 OVMax= 4.12D-05

 Cycle  12  Pass 1  IDiag  1:
 RMSU=  1.45D-06    CP:  8.90D-01  6.89D-01  8.15D-01  5.43D-01  7.39D-01
                    CP:  6.77D-01  5.80D-01  6.40D-01  8.15D-01  6.27D-01
                    CP:  7.19D-01
 E= -817.229791069710     Delta-E=       -0.000000012551 Rises=F Damp=F
 DIIS: error= 1.96D-06 at cycle  12 NSaved=  12.
 NSaved=12 IEnMin=12 EnMin= -817.229791069710     IErMin=12 ErrMin= 1.96D-06
 ErrMax= 1.96D-06  0.00D+00 EMaxC= 1.00D-01 BMatC= 5.50D-09 BMatP= 5.23D-08
 IDIUse=1 WtCom= 1.00D+00 WtEn= 0.00D+00
 Coeff-Com:  0.331D-05-0.147D-04-0.107D-03-0.239D-03-0.287D-03-0.149D-03
 Coeff-Com:  0.343D-03 0.679D-02 0.345D-01 0.963D-01 0.278D+00 0.585D+00
 Coeff:      0.331D-05-0.147D-04-0.107D-03-0.239D-03-0.287D-03-0.149D-03
 Coeff:      0.343D-03 0.679D-02 0.345D-01 0.963D-01 0.278D+00 0.585D+00
 Gap=     0.143 Goal=   None    Shift=    0.000
 Gap=     0.143 Goal=   None    Shift=    0.000
 RMSDP=1.19D-06 MaxDP=1.25D-04 DE=-1.26D-08 OVMax= 1.23D-05

 Cycle  13  Pass 1  IDiag  1:
 RMSU=  4.64D-07    CP:  8.90D-01  6.89D-01  8.15D-01  5.43D-01  7.39D-01
                    CP:  6.77D-01  5.80D-01  6.40D-01  8.31D-01  6.46D-01
                    CP:  7.16D-01  6.01D-01
 E= -817.229791070981     Delta-E=       -0.000000001271 Rises=F Damp=F
 DIIS: error= 6.02D-07 at cycle  13 NSaved=  13.
 NSaved=13 IEnMin=13 EnMin= -817.229791070981     IErMin=13 ErrMin= 6.02D-07
 ErrMax= 6.02D-07  0.00D+00 EMaxC= 1.00D-01 BMatC= 6.95D-10 BMatP= 5.50D-09
 IDIUse=1 WtCom= 1.00D+00 WtEn= 0.00D+00
 Coeff-Com:  0.251D-05-0.225D-05-0.406D-04-0.101D-03-0.229D-03-0.384D-03
 Coeff-Com: -0.878D-03-0.163D-03 0.548D-02 0.245D-01 0.116D+00 0.347D+00
 Coeff-Com:  0.509D+00
 Coeff:      0.251D-05-0.225D-05-0.406D-04-0.101D-03-0.229D-03-0.384D-03
 Coeff:     -0.878D-03-0.163D-03 0.548D-02 0.245D-01 0.116D+00 0.347D+00
 Coeff:      0.509D+00
 Gap=     0.143 Goal=   None    Shift=    0.000
 Gap=     0.143 Goal=   None    Shift=    0.000
 RMSDP=4.02D-07 MaxDP=4.84D-05 DE=-1.27D-09 OVMax= 3.33D-06

 Cycle  14  Pass 1  IDiag  1:
 RMSU=  1.34D-07    CP:  8.90D-01  6.89D-01  8.15D-01  5.43D-01  7.39D-01
                    CP:  6.77D-01  5.80D-01  6.40D-01  8.33D-01  6.49D-01
                    CP:  7.20D-01  6.62D-01  8.73D-01
 E= -817.229791071161     Delta-E=       -0.000000000181 Rises=F Damp=F
 DIIS: error= 1.42D-07 at cycle  14 NSaved=  14.
 NSaved=14 IEnMin=14 EnMin= -817.229791071161     IErMin=14 ErrMin= 1.42D-07
 ErrMax= 1.42D-07  0.00D+00 EMaxC= 1.00D-01 BMatC= 6.75D-11 BMatP= 6.95D-10
 IDIUse=1 WtCom= 1.00D+00 WtEn= 0.00D+00
 Coeff-Com:  0.839D-06 0.753D-06-0.511D-05-0.182D-04-0.811D-04-0.178D-03
 Coeff-Com: -0.508D-03-0.108D-02-0.204D-02-0.216D-02 0.168D-01 0.974D-01
 Coeff-Com:  0.267D+00 0.625D+00
 Coeff:      0.839D-06 0.753D-06-0.511D-05-0.182D-04-0.811D-04-0.178D-03
 Coeff:     -0.508D-03-0.108D-02-0.204D-02-0.216D-02 0.168D-01 0.974D-01
 Coeff:      0.267D+00 0.625D+00
 Gap=     0.143 Goal=   None    Shift=    0.000
 Gap=     0.143 Goal=   None    Shift=    0.000
 RMSDP=1.27D-07 MaxDP=1.35D-05 DE=-1.81D-10 OVMax= 1.95D-06

 Cycle  15  Pass 1  IDiag  1:
 RMSU=  5.63D-08    CP:  8.90D-01  6.89D-01  8.15D-01  5.43D-01  7.39D-01
                    CP:  6.77D-01  5.80D-01  6.41D-01  8.33D-01  6.46D-01
                    CP:  7.28D-01  6.65D-01  9.08D-01  6.16D-01
 E= -817.229791071164     Delta-E=       -0.000000000003 Rises=F Damp=F
 DIIS: error= 8.11D-08 at cycle  15 NSaved=  15.
 NSaved=15 IEnMin=15 EnMin= -817.229791071164     IErMin=15 ErrMin= 8.11D-08
 ErrMax= 8.11D-08  0.00D+00 EMaxC= 1.00D-01 BMatC= 1.96D-11 BMatP= 6.75D-11
 IDIUse=1 WtCom= 1.00D+00 WtEn= 0.00D+00
 Coeff-Com:  0.149D-06 0.548D-06 0.283D-05 0.373D-05-0.166D-04-0.557D-04
 Coeff-Com: -0.200D-03-0.688D-03-0.226D-02-0.533D-02-0.682D-02 0.133D-01
 Coeff-Com:  0.914D-01 0.404D+00 0.507D+00
 Coeff:      0.149D-06 0.548D-06 0.283D-05 0.373D-05-0.166D-04-0.557D-04
 Coeff:     -0.200D-03-0.688D-03-0.226D-02-0.533D-02-0.682D-02 0.133D-01
 Coeff:      0.914D-01 0.404D+00 0.507D+00
 Gap=     0.143 Goal=   None    Shift=    0.000
 Gap=     0.143 Goal=   None    Shift=    0.000
 RMSDP=1.14D-07 MaxDP=1.55D-05 DE=-3.18D-12 OVMax= 6.99D-07

 Cycle  16  Pass 1  IDiag  1:
 RMSU=  2.18D-08    CP:  8.90D-01  6.89D-01  8.15D-01  5.43D-01  7.39D-01
                    CP:  6.77D-01  5.80D-01  6.41D-01  8.33D-01  6.47D-01
                    CP:  7.28D-01  6.62D-01  9.39D-01  7.46D-01  7.63D-01
 E= -817.229791071184     Delta-E=       -0.000000000020 Rises=F Damp=F
 DIIS: error= 1.02D-08 at cycle  16 NSaved=  16.
 NSaved=16 IEnMin=16 EnMin= -817.229791071184     IErMin=16 ErrMin= 1.02D-08
 ErrMax= 1.02D-08  0.00D+00 EMaxC= 1.00D-01 BMatC= 4.14D-13 BMatP= 1.96D-11
 IDIUse=1 WtCom= 1.00D+00 WtEn= 0.00D+00
 Coeff-Com: -0.241D-07 0.158D-06 0.123D-05 0.254D-05 0.360D-05 0.565D-06
 Coeff-Com: -0.120D-04-0.831D-04-0.452D-03-0.128D-02-0.383D-02-0.555D-02
 Coeff-Com: -0.310D-02 0.530D-01 0.151D+00 0.810D+00
 Coeff:     -0.241D-07 0.158D-06 0.123D-05 0.254D-05 0.360D-05 0.565D-06
 Coeff:     -0.120D-04-0.831D-04-0.452D-03-0.128D-02-0.383D-02-0.555D-02
 Coeff:     -0.310D-02 0.530D-01 0.151D+00 0.810D+00
 Gap=     0.143 Goal=   None    Shift=    0.000
 Gap=     0.143 Goal=   None    Shift=    0.000
 RMSDP=2.02D-08 MaxDP=3.18D-06 DE=-2.00D-11 OVMax= 1.76D-07

 Cycle  17  Pass 1  IDiag  1:
 RMSU=  4.90D-09    CP:  8.90D-01  6.89D-01  8.15D-01  5.43D-01  7.39D-01
                    CP:  6.77D-01  5.80D-01  6.41D-01  8.33D-01  6.47D-01
                    CP:  7.27D-01  6.64D-01  9.45D-01  7.55D-01  8.10D-01
                    CP:  8.74D-01
 E= -817.229791071184     Delta-E=        0.000000000000 Rises=F Damp=F
 DIIS: error= 4.46D-09 at cycle  17 NSaved=  17.
 NSaved=17 IEnMin=16 EnMin= -817.229791071184     IErMin=17 ErrMin= 4.46D-09
 ErrMax= 4.46D-09  0.00D+00 EMaxC= 1.00D-01 BMatC= 6.27D-14 BMatP= 4.14D-13
 IDIUse=1 WtCom= 1.00D+00 WtEn= 0.00D+00
 Coeff-Com: -0.133D-07 0.334D-07 0.377D-06 0.813D-06 0.270D-05 0.413D-05
 Coeff-Com:  0.704D-05 0.960D-05-0.471D-04-0.207D-03-0.120D-02-0.279D-02
 Coeff-Com: -0.591D-02 0.375D-02 0.448D-01 0.388D+00 0.573D+00
 Coeff:     -0.133D-07 0.334D-07 0.377D-06 0.813D-06 0.270D-05 0.413D-05
 Coeff:      0.704D-05 0.960D-05-0.471D-04-0.207D-03-0.120D-02-0.279D-02
 Coeff:     -0.591D-02 0.375D-02 0.448D-01 0.388D+00 0.573D+00
 Gap=     0.143 Goal=   None    Shift=    0.000
 Gap=     0.143 Goal=   None    Shift=    0.000
 RMSDP=5.03D-09 MaxDP=4.93D-07 DE= 2.27D-13 OVMax= 5.65D-08

 SCF Done:  E(UB3LYP) =  -817.229791071     A.U. after   17 cycles
            NFock= 17  Conv=0.50D-08     -V/T= 2.0038
 <Sx>= 0.0000 <Sy>= 0.0000 <Sz>= 0.0000 <S**2>=-0.0000 S=-0.0000
 <L.S>=  0.00000000000    
 KE= 8.141516897684D+02 PE=-4.179497166319D+03 EE= 1.412719086522D+03
 Annihilation of the first spin contaminant:
 S**2 before annihilation    -0.0000,   after    -0.0000
 Leave Link  502 at Wed Jan 10 16:51:07 2024, MaxMem=  4026531840 cpu:            1260.5 elap:             159.9
 (Enter /sysapps/ubuntu-applications/gaussian/Gaussian/AVX2/g16/l601.exe)
 Copying SCF densities to generalized density rwf, IOpCl= 1 IROHF=0.

 **********************************************************************

            Population analysis using the SCF density.

 **********************************************************************

 Alpha  occ. eigenvalues --  -19.17538 -19.17498 -19.14919 -19.14474 -14.56966
 Alpha  occ. eigenvalues --  -10.29753 -10.29125 -10.26344 -10.24169 -10.24136
 Alpha  occ. eigenvalues --  -10.22328 -10.22236 -10.22168 -10.22051 -10.22034
 Alpha  occ. eigenvalues --  -10.21967 -10.21754  -1.25383  -1.08315  -1.07881
 Alpha  occ. eigenvalues --   -1.07381  -0.92125  -0.87769  -0.83145  -0.82718
 Alpha  occ. eigenvalues --   -0.78264  -0.73052  -0.71469  -0.67232  -0.63791
 Alpha  occ. eigenvalues --   -0.63547  -0.60730  -0.57721  -0.55870  -0.53882
 Alpha  occ. eigenvalues --   -0.53530  -0.53138  -0.51608  -0.50063  -0.49735
 Alpha  occ. eigenvalues --   -0.48205  -0.47275  -0.45649  -0.45534  -0.44079
 Alpha  occ. eigenvalues --   -0.42690  -0.42611  -0.41181  -0.40931  -0.39754
 Alpha  occ. eigenvalues --   -0.34296  -0.33417  -0.32644  -0.31920  -0.31292
 Alpha  occ. eigenvalues --   -0.30036  -0.29638  -0.29000  -0.28486
 Alpha virt. eigenvalues --   -0.14234  -0.11277  -0.06262  -0.04348  -0.02598
 Alpha virt. eigenvalues --   -0.01870  -0.00971  -0.00397   0.00180   0.01116
 Alpha virt. eigenvalues --    0.01913   0.02446   0.03410   0.03797   0.04531
 Alpha virt. eigenvalues --    0.05088   0.05972   0.06891   0.07077   0.07721
 Alpha virt. eigenvalues --    0.08096   0.08884   0.08929   0.09375   0.09820
 Alpha virt. eigenvalues --    0.10125   0.10556   0.10682   0.10765   0.11385
 Alpha virt. eigenvalues --    0.11577   0.11893   0.11916   0.12266   0.12872
 Alpha virt. eigenvalues --    0.13443   0.13617   0.13708   0.14637   0.14733
 Alpha virt. eigenvalues --    0.15013   0.15246   0.16094   0.16282   0.16944
 Alpha virt. eigenvalues --    0.17554   0.17956   0.18426   0.18582   0.19215
 Alpha virt. eigenvalues --    0.19578   0.20053   0.20088   0.20891   0.21275
 Alpha virt. eigenvalues --    0.21440   0.22671   0.22843   0.23069   0.23281
 Alpha virt. eigenvalues --    0.23629   0.24245   0.24876   0.25183   0.25468
 Alpha virt. eigenvalues --    0.26042   0.26095   0.26486   0.27334   0.27562
 Alpha virt. eigenvalues --    0.27954   0.28538   0.29214   0.29826   0.30348
 Alpha virt. eigenvalues --    0.30723   0.30899   0.31448   0.32026   0.32799
 Alpha virt. eigenvalues --    0.32903   0.33483   0.33970   0.34360   0.34783
 Alpha virt. eigenvalues --    0.35067   0.35972   0.36507   0.37064   0.37313
 Alpha virt. eigenvalues --    0.37965   0.38263   0.39238   0.39963   0.41092
 Alpha virt. eigenvalues --    0.41653   0.42860   0.44501   0.45124   0.45625
 Alpha virt. eigenvalues --    0.49154   0.50422   0.50726   0.52215   0.52324
 Alpha virt. eigenvalues --    0.53176   0.53722   0.53791   0.54626   0.55244
 Alpha virt. eigenvalues --    0.55982   0.56446   0.57154   0.57869   0.59427
 Alpha virt. eigenvalues --    0.59510   0.60996   0.62095   0.63039   0.63751
 Alpha virt. eigenvalues --    0.64041   0.64401   0.65177   0.66179   0.67181
 Alpha virt. eigenvalues --    0.68320   0.68871   0.70131   0.70808   0.71258
 Alpha virt. eigenvalues --    0.71845   0.73020   0.73470   0.74565   0.76637
 Alpha virt. eigenvalues --    0.78185   0.79671   0.80605   0.81949   0.83249
 Alpha virt. eigenvalues --    0.84225   0.84486   0.85515   0.86061   0.86866
 Alpha virt. eigenvalues --    0.87581   0.88083   0.88928   0.89877   0.90351
 Alpha virt. eigenvalues --    0.90612   0.92651   0.94460   0.95320   0.96318
 Alpha virt. eigenvalues --    0.97352   0.97855   0.99750   1.00440   1.00715
 Alpha virt. eigenvalues --    1.03321   1.03723   1.03990   1.05172   1.06386
 Alpha virt. eigenvalues --    1.07961   1.09324   1.11206   1.11975   1.14038
 Alpha virt. eigenvalues --    1.14881   1.15441   1.17543   1.18085   1.20158
 Alpha virt. eigenvalues --    1.21295   1.22091   1.23920   1.24483   1.25762
 Alpha virt. eigenvalues --    1.27003   1.29425   1.30634   1.31149   1.32374
 Alpha virt. eigenvalues --    1.35675   1.39885   1.41087   1.43856   1.45670
 Alpha virt. eigenvalues --    1.46320   1.47383   1.48809   1.50112   1.51324
 Alpha virt. eigenvalues --    1.52454   1.53026   1.54027   1.55201   1.56831
 Alpha virt. eigenvalues --    1.57720   1.60069   1.60647   1.61553   1.62450
 Alpha virt. eigenvalues --    1.64600   1.67116   1.67444   1.69752   1.71399
 Alpha virt. eigenvalues --    1.71826   1.72979   1.74584   1.76293   1.77274
 Alpha virt. eigenvalues --    1.78385   1.79685   1.81901   1.82955   1.84669
 Alpha virt. eigenvalues --    1.85559   1.86204   1.88611   1.90000   1.90880
 Alpha virt. eigenvalues --    1.91283   1.92040   1.93114   1.94441   1.94817
 Alpha virt. eigenvalues --    1.95891   1.97912   1.99659   2.01534   2.02569
 Alpha virt. eigenvalues --    2.04955   2.07424   2.09329   2.11504   2.14619
 Alpha virt. eigenvalues --    2.15251   2.18462   2.20927   2.22504   2.24980
 Alpha virt. eigenvalues --    2.27050   2.27820   2.34298   2.38562   2.40097
 Alpha virt. eigenvalues --    2.42415   2.43897   2.46145   2.47655   2.51409
 Alpha virt. eigenvalues --    2.55076   2.57064   2.59374   2.61657   2.64262
 Alpha virt. eigenvalues --    2.64724   2.66563   2.67891   2.68335   2.70238
 Alpha virt. eigenvalues --    2.70486   2.71702   2.72354   2.73419   2.73948
 Alpha virt. eigenvalues --    2.75530   2.76874   2.77836   2.79653   2.80489
 Alpha virt. eigenvalues --    2.80760   2.81803   2.84057   2.84906   2.85655
 Alpha virt. eigenvalues --    2.86827   2.88223   2.89478   2.90168   2.90678
 Alpha virt. eigenvalues --    2.92401   2.93474   2.96259   2.97918   3.02035
 Alpha virt. eigenvalues --    3.05796   3.07476   3.10411   3.15552   3.16294
 Alpha virt. eigenvalues --    3.18274   3.19131   3.25238   3.26932   3.29421
 Alpha virt. eigenvalues --    3.32628   3.33998   3.34961   3.36980   3.39115
 Alpha virt. eigenvalues --    3.43095   3.44824   3.50213   3.50872   3.53219
 Alpha virt. eigenvalues --    3.58008   3.59225   3.59620   3.63698   3.66081
 Alpha virt. eigenvalues --    3.69609   3.77298   3.79339   3.85690   3.86983
 Alpha virt. eigenvalues --    4.00654   4.02096   4.05672   4.07670   4.10067
 Alpha virt. eigenvalues --    4.14847   4.16262   4.39228   4.53403   4.67013
 Alpha virt. eigenvalues --    4.71658   4.80879   5.01357   5.03224   5.07044
 Alpha virt. eigenvalues --    5.09250   5.11412   5.18612   5.20029   5.24256
 Alpha virt. eigenvalues --    5.69700   5.72493   5.78160   6.25276  23.53887
 Alpha virt. eigenvalues --   23.69414  23.75165  23.83506  23.88612  23.91137
 Alpha virt. eigenvalues --   23.92939  24.01601  24.05623  24.14727  24.17363
 Alpha virt. eigenvalues --   24.22321  35.40503  49.88989  49.98306  49.98649
 Alpha virt. eigenvalues --   50.02277
  Beta  occ. eigenvalues --  -19.17538 -19.17498 -19.14919 -19.14474 -14.56966
  Beta  occ. eigenvalues --  -10.29753 -10.29125 -10.26344 -10.24169 -10.24136
  Beta  occ. eigenvalues --  -10.22328 -10.22236 -10.22168 -10.22051 -10.22034
  Beta  occ. eigenvalues --  -10.21967 -10.21754  -1.25383  -1.08315  -1.07881
  Beta  occ. eigenvalues --   -1.07381  -0.92125  -0.87769  -0.83145  -0.82718
  Beta  occ. eigenvalues --   -0.78264  -0.73052  -0.71469  -0.67232  -0.63791
  Beta  occ. eigenvalues --   -0.63547  -0.60730  -0.57721  -0.55870  -0.53882
  Beta  occ. eigenvalues --   -0.53530  -0.53138  -0.51608  -0.50063  -0.49735
  Beta  occ. eigenvalues --   -0.48205  -0.47275  -0.45649  -0.45534  -0.44079
  Beta  occ. eigenvalues --   -0.42690  -0.42611  -0.41181  -0.40931  -0.39754
  Beta  occ. eigenvalues --   -0.34296  -0.33417  -0.32644  -0.31920  -0.31292
  Beta  occ. eigenvalues --   -0.30036  -0.29638  -0.29000  -0.28486
  Beta virt. eigenvalues --   -0.14234  -0.11277  -0.06262  -0.04348  -0.02598
  Beta virt. eigenvalues --   -0.01870  -0.00971  -0.00397   0.00180   0.01116
  Beta virt. eigenvalues --    0.01913   0.02446   0.03410   0.03797   0.04531
  Beta virt. eigenvalues --    0.05088   0.05972   0.06891   0.07077   0.07721
  Beta virt. eigenvalues --    0.08096   0.08884   0.08929   0.09375   0.09820
  Beta virt. eigenvalues --    0.10125   0.10556   0.10682   0.10765   0.11385
  Beta virt. eigenvalues --    0.11577   0.11893   0.11916   0.12266   0.12872
  Beta virt. eigenvalues --    0.13443   0.13617   0.13708   0.14637   0.14733
  Beta virt. eigenvalues --    0.15013   0.15246   0.16094   0.16282   0.16944
  Beta virt. eigenvalues --    0.17554   0.17956   0.18426   0.18582   0.19215
  Beta virt. eigenvalues --    0.19578   0.20053   0.20088   0.20891   0.21275
  Beta virt. eigenvalues --    0.21440   0.22671   0.22843   0.23069   0.23281
  Beta virt. eigenvalues --    0.23629   0.24245   0.24876   0.25183   0.25468
  Beta virt. eigenvalues --    0.26042   0.26095   0.26486   0.27334   0.27562
  Beta virt. eigenvalues --    0.27954   0.28538   0.29214   0.29826   0.30348
  Beta virt. eigenvalues --    0.30723   0.30899   0.31448   0.32026   0.32799
  Beta virt. eigenvalues --    0.32903   0.33483   0.33970   0.34360   0.34783
  Beta virt. eigenvalues --    0.35067   0.35972   0.36507   0.37064   0.37313
  Beta virt. eigenvalues --    0.37965   0.38263   0.39238   0.39963   0.41092
  Beta virt. eigenvalues --    0.41653   0.42860   0.44501   0.45124   0.45625
  Beta virt. eigenvalues --    0.49154   0.50422   0.50726   0.52215   0.52324
  Beta virt. eigenvalues --    0.53176   0.53722   0.53791   0.54626   0.55244
  Beta virt. eigenvalues --    0.55982   0.56446   0.57154   0.57869   0.59427
  Beta virt. eigenvalues --    0.59510   0.60996   0.62095   0.63039   0.63751
  Beta virt. eigenvalues --    0.64041   0.64401   0.65177   0.66179   0.67181
  Beta virt. eigenvalues --    0.68320   0.68871   0.70131   0.70808   0.71258
  Beta virt. eigenvalues --    0.71845   0.73020   0.73470   0.74565   0.76637
  Beta virt. eigenvalues --    0.78185   0.79671   0.80605   0.81949   0.83249
  Beta virt. eigenvalues --    0.84225   0.84486   0.85515   0.86061   0.86866
  Beta virt. eigenvalues --    0.87581   0.88083   0.88928   0.89877   0.90351
  Beta virt. eigenvalues --    0.90612   0.92651   0.94460   0.95320   0.96318
  Beta virt. eigenvalues --    0.97352   0.97855   0.99750   1.00440   1.00715
  Beta virt. eigenvalues --    1.03321   1.03723   1.03990   1.05172   1.06386
  Beta virt. eigenvalues --    1.07961   1.09324   1.11206   1.11975   1.14038
  Beta virt. eigenvalues --    1.14881   1.15441   1.17543   1.18085   1.20158
  Beta virt. eigenvalues --    1.21295   1.22091   1.23920   1.24483   1.25762
  Beta virt. eigenvalues --    1.27003   1.29425   1.30634   1.31149   1.32374
  Beta virt. eigenvalues --    1.35675   1.39885   1.41087   1.43856   1.45670
  Beta virt. eigenvalues --    1.46320   1.47383   1.48809   1.50112   1.51324
  Beta virt. eigenvalues --    1.52454   1.53026   1.54027   1.55201   1.56831
  Beta virt. eigenvalues --    1.57720   1.60069   1.60647   1.61553   1.62450
  Beta virt. eigenvalues --    1.64600   1.67116   1.67444   1.69752   1.71399
  Beta virt. eigenvalues --    1.71826   1.72979   1.74584   1.76293   1.77274
  Beta virt. eigenvalues --    1.78385   1.79685   1.81901   1.82955   1.84669
  Beta virt. eigenvalues --    1.85559   1.86204   1.88611   1.90000   1.90880
  Beta virt. eigenvalues --    1.91283   1.92040   1.93114   1.94441   1.94817
  Beta virt. eigenvalues --    1.95891   1.97912   1.99659   2.01534   2.02569
  Beta virt. eigenvalues --    2.04955   2.07424   2.09329   2.11504   2.14619
  Beta virt. eigenvalues --    2.15251   2.18462   2.20927   2.22504   2.24980
  Beta virt. eigenvalues --    2.27050   2.27820   2.34298   2.38562   2.40097
  Beta virt. eigenvalues --    2.42415   2.43897   2.46145   2.47655   2.51409
  Beta virt. eigenvalues --    2.55076   2.57064   2.59374   2.61657   2.64262
  Beta virt. eigenvalues --    2.64724   2.66563   2.67891   2.68335   2.70238
  Beta virt. eigenvalues --    2.70486   2.71702   2.72354   2.73419   2.73948
  Beta virt. eigenvalues --    2.75530   2.76874   2.77836   2.79653   2.80489
  Beta virt. eigenvalues --    2.80760   2.81803   2.84057   2.84906   2.85655
  Beta virt. eigenvalues --    2.86827   2.88223   2.89478   2.90168   2.90678
  Beta virt. eigenvalues --    2.92401   2.93474   2.96259   2.97918   3.02035
  Beta virt. eigenvalues --    3.05796   3.07476   3.10411   3.15552   3.16294
  Beta virt. eigenvalues --    3.18274   3.19131   3.25238   3.26932   3.29421
  Beta virt. eigenvalues --    3.32628   3.33998   3.34961   3.36980   3.39115
  Beta virt. eigenvalues --    3.43095   3.44824   3.50213   3.50872   3.53219
  Beta virt. eigenvalues --    3.58008   3.59225   3.59620   3.63698   3.66081
  Beta virt. eigenvalues --    3.69609   3.77298   3.79339   3.85690   3.86983
  Beta virt. eigenvalues --    4.00654   4.02096   4.05672   4.07670   4.10067
  Beta virt. eigenvalues --    4.14847   4.16262   4.39228   4.53403   4.67013
  Beta virt. eigenvalues --    4.71658   4.80879   5.01357   5.03224   5.07044
  Beta virt. eigenvalues --    5.09250   5.11412   5.18612   5.20029   5.24256
  Beta virt. eigenvalues --    5.69700   5.72493   5.78160   6.25276  23.53887
  Beta virt. eigenvalues --   23.69414  23.75165  23.83506  23.88612  23.91137
  Beta virt. eigenvalues --   23.92939  24.01601  24.05623  24.14727  24.17363
  Beta virt. eigenvalues --   24.22321  35.40503  49.88989  49.98306  49.98649
  Beta virt. eigenvalues --   50.02277
          Condensed to atoms (all electrons):
               1          2          3          4          5          6
     1  C   18.701780  -1.171784  -6.018169  -2.563839   1.853155  -4.174318
     2  C   -1.171784  20.702338  -3.446103  -1.940483  -0.059441  -2.989104
     3  C   -6.018169  -3.446103  25.741932   0.126403  -0.637141   0.331987
     4  C   -2.563839  -1.940483   0.126403   9.156126  -1.796280   1.783136
     5  C    1.853155  -0.059441  -0.637141  -1.796280  10.926133  -3.647181
     6  C   -4.174318  -2.989104   0.331987   1.783136  -3.647181  12.979669
     7  O    0.262736   0.009827   0.023099   0.012202  -0.016572  -0.120462
     8  O   -0.029098   0.038813  -0.192312   0.493963  -0.152412  -0.001284
     9  C   -0.410087   1.018432  -6.318345   0.903650  -0.820432   0.859219
    10  H    0.024262   0.043468  -0.057700  -0.081247   0.467955  -0.069210
    11  H    0.108055   0.062539   0.403092  -0.158472  -0.084829   0.036663
    12  H   -0.138611  -0.047404   0.063419   0.053047  -0.151875   0.560055
    13  C    1.156506  -0.840751  -4.853696   0.168004  -0.151842   0.290015
    14  C   -0.096950  -2.819291  -0.074980   0.037388   0.046886   0.063450
    15  C   -0.134017   0.323725   0.280917   0.007031  -0.002471   0.022700
    16  C    0.100781   0.703645   0.045116   0.004112  -0.059226   0.007627
    17  C   -0.651065  -5.216701   1.004367   0.286344   0.134438   0.066153
    18  N    0.440071  -0.290744  -0.252499  -0.030999  -0.018810   0.141894
    19  O   -0.052970   0.245834   0.093062  -0.004488   0.010754  -0.028103
    20  O    0.123394   0.003739   0.096836  -0.036594   0.025122  -0.075359
    21  H    0.015545  -0.044088  -0.019365  -0.001500   0.001013   0.000421
    22  H   -0.001862   0.013314  -0.001401   0.000032  -0.000144   0.000521
    23  H    0.004286   0.012476  -0.015576   0.000024   0.000307  -0.001488
    24  H   -0.045497  -0.080113   0.046347   0.012020   0.014052  -0.007105
               7          8          9         10         11         12
     1  C    0.262736  -0.029098  -0.410087   0.024262   0.108055  -0.138611
     2  C    0.009827   0.038813   1.018432   0.043468   0.062539  -0.047404
     3  C    0.023099  -0.192312  -6.318345  -0.057700   0.403092   0.063419
     4  C    0.012202   0.493963   0.903650  -0.081247  -0.158472   0.053047
     5  C   -0.016572  -0.152412  -0.820432   0.467955  -0.084829  -0.151875
     6  C   -0.120462  -0.001284   0.859219  -0.069210   0.036663   0.560055
     7  O    7.970734   0.000566   0.065111   0.001648  -0.000123  -0.019703
     8  O    0.000566   8.084405   0.008541  -0.012333  -0.016116   0.001264
     9  C    0.065111   0.008541  16.286664  -0.000768  -0.032099  -0.016314
    10  H    0.001648  -0.012333  -0.000768   0.478542  -0.004093  -0.019207
    11  H   -0.000123  -0.016116  -0.032099  -0.004093   0.483149   0.002342
    12  H   -0.019703   0.001264  -0.016314  -0.019207   0.002342   0.489990
    13  C   -0.033619   0.000622   2.291113  -0.002346  -0.015920  -0.005791
    14  C    0.036259   0.000883  -3.476878   0.000659  -0.018587  -0.001620
    15  C    0.024045   0.000247   2.283562  -0.000378  -0.006013   0.000101
    16  C   -0.005863  -0.001240  -1.382829   0.000183   0.031252   0.002284
    17  C   -0.013386  -0.003426  -6.061418   0.003064  -0.034318  -0.002034
    18  N   -0.000324  -0.000012  -0.037636  -0.000365   0.006734   0.004505
    19  O   -0.008918   0.000001   0.056704   0.000106   0.000111  -0.000895
    20  O   -0.005872   0.000247  -0.103378  -0.000037   0.001540  -0.000684
    21  H   -0.000180   0.000008  -0.051586   0.000024   0.000380  -0.000052
    22  H    0.000213   0.000000   0.131864  -0.000003  -0.000250  -0.000007
    23  H   -0.000311  -0.000029  -0.037747   0.000026   0.000472  -0.000030
    24  H   -0.001921  -0.000427  -0.082065   0.000341  -0.004343  -0.000487
              13         14         15         16         17         18
     1  C    1.156506  -0.096950  -0.134017   0.100781  -0.651065   0.440071
     2  C   -0.840751  -2.819291   0.323725   0.703645  -5.216701  -0.290744
     3  C   -4.853696  -0.074980   0.280917   0.045116   1.004367  -0.252499
     4  C    0.168004   0.037388   0.007031   0.004112   0.286344  -0.030999
     5  C   -0.151842   0.046886  -0.002471  -0.059226   0.134438  -0.018810
     6  C    0.290015   0.063450   0.022700   0.007627   0.066153   0.141894
     7  O   -0.033619   0.036259   0.024045  -0.005863  -0.013386  -0.000324
     8  O    0.000622   0.000883   0.000247  -0.001240  -0.003426  -0.000012
     9  C    2.291113  -3.476878   2.283562  -1.382829  -6.061418  -0.037636
    10  H   -0.002346   0.000659  -0.000378   0.000183   0.003064  -0.000365
    11  H   -0.015920  -0.018587  -0.006013   0.031252  -0.034318   0.006734
    12  H   -0.005791  -0.001620   0.000101   0.002284  -0.002034   0.004505
    13  C   17.055248  -4.067746  -1.523715   1.410784  -3.434485  -0.492435
    14  C   -4.067746  13.444765  -2.072265  -1.419332   5.822338   0.125981
    15  C   -1.523715  -2.072265   8.938158  -0.098944  -2.272311   0.015872
    16  C    1.410784  -1.419332  -0.098944   8.810487  -1.801177   0.007732
    17  C   -3.434485   5.822338  -2.272311  -1.801177  18.392905  -0.202340
    18  N   -0.492435   0.125981   0.015872   0.007732  -0.202340   7.968681
    19  O   -0.320994  -0.134035   0.275126  -0.028741  -0.155130  -0.037999
    20  O   -0.343027   0.163444   0.042448  -0.074350   0.110866  -0.040335
    21  H   -0.147857   0.562454  -0.155140   0.016573   0.133693  -0.004705
    22  H    0.074833  -0.174382   0.492394  -0.096572  -0.114950  -0.005561
    23  H    0.031750   0.028658  -0.092991   0.470447  -0.072596   0.000636
    24  H   -0.082110   0.116864   0.004305  -0.253645   0.657559  -0.005248
              19         20         21         22         23         24
     1  C   -0.052970   0.123394   0.015545  -0.001862   0.004286  -0.045497
     2  C    0.245834   0.003739  -0.044088   0.013314   0.012476  -0.080113
     3  C    0.093062   0.096836  -0.019365  -0.001401  -0.015576   0.046347
     4  C   -0.004488  -0.036594  -0.001500   0.000032   0.000024   0.012020
     5  C    0.010754   0.025122   0.001013  -0.000144   0.000307   0.014052
     6  C   -0.028103  -0.075359   0.000421   0.000521  -0.001488  -0.007105
     7  O   -0.008918  -0.005872  -0.000180   0.000213  -0.000311  -0.001921
     8  O    0.000001   0.000247   0.000008   0.000000  -0.000029  -0.000427
     9  C    0.056704  -0.103378  -0.051586   0.131864  -0.037747  -0.082065
    10  H    0.000106  -0.000037   0.000024  -0.000003   0.000026   0.000341
    11  H    0.000111   0.001540   0.000380  -0.000250   0.000472  -0.004343
    12  H   -0.000895  -0.000684  -0.000052  -0.000007  -0.000030  -0.000487
    13  C   -0.320994  -0.343027  -0.147857   0.074833   0.031750  -0.082110
    14  C   -0.134035   0.163444   0.562454  -0.174382   0.028658   0.116864
    15  C    0.275126   0.042448  -0.155140   0.492394  -0.092991   0.004305
    16  C   -0.028741  -0.074350   0.016573  -0.096572   0.470447  -0.253645
    17  C   -0.155130   0.110866   0.133693  -0.114950  -0.072596   0.657559
    18  N   -0.037999  -0.040335  -0.004705  -0.005561   0.000636  -0.005248
    19  O    8.012015   0.035436  -0.009519   0.004776  -0.000852  -0.000275
    20  O    0.035436   8.058317  -0.009506   0.002244  -0.000948   0.004505
    21  H   -0.009519  -0.009506   0.476614  -0.018375   0.001810   0.001346
    22  H    0.004776   0.002244  -0.018375   0.523464  -0.015219   0.000578
    23  H   -0.000852  -0.000948   0.001810  -0.015219   0.516904  -0.016067
    24  H   -0.000275   0.004505   0.001346   0.000578  -0.016067   0.524641
          Atomic-Atomic Spin Densities.
               1          2          3          4          5          6
     1  C   -0.000000   0.000000  -0.000000   0.000000   0.000000  -0.000000
     2  C    0.000000  -0.000000  -0.000000  -0.000000   0.000000  -0.000000
     3  C   -0.000000  -0.000000  -0.000000  -0.000000  -0.000000   0.000000
     4  C    0.000000  -0.000000  -0.000000  -0.000000   0.000000  -0.000000
     5  C    0.000000   0.000000  -0.000000   0.000000  -0.000000   0.000000
     6  C   -0.000000  -0.000000   0.000000  -0.000000   0.000000  -0.000000
     7  O    0.000000   0.000000   0.000000  -0.000000   0.000000  -0.000000
     8  O    0.000000  -0.000000  -0.000000   0.000000  -0.000000   0.000000
     9  C    0.000000   0.000000  -0.000000  -0.000000   0.000000  -0.000000
    10  H    0.000000   0.000000  -0.000000   0.000000  -0.000000   0.000000
    11  H   -0.000000  -0.000000   0.000000   0.000000   0.000000   0.000000
    12  H   -0.000000   0.000000   0.000000  -0.000000   0.000000  -0.000000
    13  C    0.000000  -0.000000  -0.000000  -0.000000   0.000000  -0.000000
    14  C   -0.000000   0.000000   0.000000   0.000000  -0.000000   0.000000
    15  C    0.000000   0.000000  -0.000000  -0.000000   0.000000  -0.000000
    16  C   -0.000000  -0.000000  -0.000000   0.000000  -0.000000   0.000000
    17  C   -0.000000   0.000000   0.000000   0.000000  -0.000000   0.000000
    18  N    0.000000   0.000000  -0.000000  -0.000000   0.000000  -0.000000
    19  O    0.000000  -0.000000  -0.000000  -0.000000   0.000000   0.000000
    20  O   -0.000000   0.000000   0.000000   0.000000  -0.000000   0.000000
    21  H   -0.000000   0.000000   0.000000   0.000000  -0.000000   0.000000
    22  H    0.000000  -0.000000  -0.000000  -0.000000   0.000000  -0.000000
    23  H   -0.000000   0.000000   0.000000   0.000000   0.000000   0.000000
    24  H   -0.000000  -0.000000   0.000000   0.000000  -0.000000   0.000000
               7          8          9         10         11         12
     1  C    0.000000   0.000000   0.000000   0.000000  -0.000000  -0.000000
     2  C    0.000000  -0.000000   0.000000   0.000000  -0.000000   0.000000
     3  C    0.000000  -0.000000  -0.000000  -0.000000   0.000000   0.000000
     4  C   -0.000000   0.000000  -0.000000   0.000000   0.000000  -0.000000
     5  C    0.000000  -0.000000   0.000000  -0.000000   0.000000   0.000000
     6  C   -0.000000   0.000000  -0.000000   0.000000   0.000000  -0.000000
     7  O   -0.000000   0.000000  -0.000000   0.000000   0.000000   0.000000
     8  O    0.000000  -0.000000   0.000000  -0.000000   0.000000   0.000000
     9  C   -0.000000   0.000000  -0.000000   0.000000   0.000000  -0.000000
    10  H    0.000000  -0.000000   0.000000  -0.000000   0.000000   0.000000
    11  H    0.000000   0.000000   0.000000   0.000000  -0.000000  -0.000000
    12  H    0.000000   0.000000  -0.000000   0.000000  -0.000000  -0.000000
    13  C   -0.000000  -0.000000  -0.000000   0.000000  -0.000000  -0.000000
    14  C    0.000000  -0.000000   0.000000  -0.000000  -0.000000   0.000000
    15  C   -0.000000   0.000000  -0.000000   0.000000   0.000000  -0.000000
    16  C    0.000000   0.000000   0.000000  -0.000000  -0.000000   0.000000
    17  C    0.000000  -0.000000   0.000000  -0.000000  -0.000000   0.000000
    18  N   -0.000000   0.000000  -0.000000   0.000000   0.000000  -0.000000
    19  O    0.000000   0.000000  -0.000000   0.000000   0.000000   0.000000
    20  O   -0.000000  -0.000000   0.000000  -0.000000  -0.000000   0.000000
    21  H    0.000000  -0.000000   0.000000  -0.000000  -0.000000   0.000000
    22  H   -0.000000   0.000000  -0.000000   0.000000   0.000000  -0.000000
    23  H    0.000000   0.000000   0.000000   0.000000  -0.000000  -0.000000
    24  H   -0.000000  -0.000000  -0.000000  -0.000000  -0.000000   0.000000
              13         14         15         16         17         18
     1  C    0.000000  -0.000000   0.000000  -0.000000  -0.000000   0.000000
     2  C   -0.000000   0.000000   0.000000  -0.000000   0.000000   0.000000
     3  C   -0.000000   0.000000  -0.000000  -0.000000   0.000000  -0.000000
     4  C   -0.000000   0.000000  -0.000000   0.000000   0.000000  -0.000000
     5  C    0.000000  -0.000000   0.000000  -0.000000  -0.000000   0.000000
     6  C   -0.000000   0.000000  -0.000000   0.000000   0.000000  -0.000000
     7  O   -0.000000   0.000000  -0.000000   0.000000   0.000000  -0.000000
     8  O   -0.000000  -0.000000   0.000000   0.000000  -0.000000   0.000000
     9  C   -0.000000   0.000000  -0.000000   0.000000   0.000000  -0.000000
    10  H    0.000000  -0.000000   0.000000  -0.000000  -0.000000   0.000000
    11  H   -0.000000  -0.000000   0.000000  -0.000000  -0.000000   0.000000
    12  H   -0.000000   0.000000  -0.000000   0.000000   0.000000  -0.000000
    13  C   -0.000000   0.000000   0.000000   0.000000   0.000000   0.000000
    14  C    0.000000  -0.000000   0.000000  -0.000000  -0.000000  -0.000000
    15  C    0.000000   0.000000  -0.000000  -0.000000   0.000000  -0.000000
    16  C    0.000000  -0.000000  -0.000000  -0.000000   0.000000   0.000000
    17  C    0.000000  -0.000000   0.000000   0.000000  -0.000000  -0.000000
    18  N    0.000000  -0.000000  -0.000000   0.000000  -0.000000  -0.000000
    19  O   -0.000000   0.000000  -0.000000   0.000000   0.000000   0.000000
    20  O    0.000000  -0.000000   0.000000  -0.000000  -0.000000  -0.000000
    21  H    0.000000  -0.000000   0.000000   0.000000  -0.000000  -0.000000
    22  H   -0.000000   0.000000  -0.000000  -0.000000   0.000000   0.000000
    23  H   -0.000000  -0.000000  -0.000000  -0.000000  -0.000000   0.000000
    24  H    0.000000  -0.000000   0.000000   0.000000  -0.000000  -0.000000
              19         20         21         22         23         24
     1  C    0.000000  -0.000000  -0.000000   0.000000  -0.000000  -0.000000
     2  C   -0.000000   0.000000   0.000000  -0.000000   0.000000  -0.000000
     3  C   -0.000000   0.000000   0.000000  -0.000000   0.000000   0.000000
     4  C   -0.000000   0.000000   0.000000  -0.000000   0.000000   0.000000
     5  C    0.000000  -0.000000  -0.000000   0.000000   0.000000  -0.000000
     6  C    0.000000   0.000000   0.000000  -0.000000   0.000000   0.000000
     7  O    0.000000  -0.000000   0.000000  -0.000000   0.000000  -0.000000
     8  O    0.000000  -0.000000  -0.000000   0.000000   0.000000  -0.000000
     9  C   -0.000000   0.000000   0.000000  -0.000000   0.000000  -0.000000
    10  H    0.000000  -0.000000  -0.000000   0.000000   0.000000  -0.000000
    11  H    0.000000  -0.000000  -0.000000   0.000000  -0.000000  -0.000000
    12  H    0.000000   0.000000   0.000000  -0.000000  -0.000000   0.000000
    13  C   -0.000000   0.000000   0.000000  -0.000000  -0.000000   0.000000
    14  C    0.000000  -0.000000  -0.000000   0.000000  -0.000000  -0.000000
    15  C   -0.000000   0.000000   0.000000  -0.000000  -0.000000   0.000000
    16  C    0.000000  -0.000000   0.000000  -0.000000  -0.000000   0.000000
    17  C    0.000000  -0.000000  -0.000000   0.000000  -0.000000  -0.000000
    18  N    0.000000  -0.000000  -0.000000   0.000000   0.000000  -0.000000
    19  O   -0.000000   0.000000   0.000000  -0.000000   0.000000   0.000000
    20  O    0.000000   0.000000  -0.000000   0.000000  -0.000000  -0.000000
    21  H    0.000000  -0.000000  -0.000000   0.000000  -0.000000  -0.000000
    22  H   -0.000000   0.000000   0.000000  -0.000000   0.000000   0.000000
    23  H    0.000000  -0.000000  -0.000000   0.000000   0.000000  -0.000000
    24  H    0.000000  -0.000000  -0.000000   0.000000  -0.000000   0.000000
 Mulliken charges and spin densities:
               1          2
     1  C   -1.302307  -0.000000
     2  C    1.767856   0.000000
     3  C   -0.369289  -0.000000
     4  C   -0.429578   0.000000
     5  C    0.118840  -0.000000
     6  C   -0.029896   0.000000
     7  O   -0.179185   0.000000
     8  O   -0.220871   0.000000
     9  C    0.926723   0.000000
    10  H    0.227408   0.000000
    11  H    0.238834  -0.000000
    12  H    0.227708   0.000000
    13  C   -0.162541  -0.000000
    14  C   -0.093963   0.000000
    15  C   -0.352385  -0.000000
    16  C   -0.389105  -0.000000
    17  C   -0.576390  -0.000000
    18  N   -0.292093   0.000000
    19  O    0.048993   0.000000
    20  O    0.021952  -0.000000
    21  H    0.251995   0.000000
    22  H    0.184493  -0.000000
    23  H    0.186057   0.000000
    24  H    0.196745   0.000000
 Sum of Mulliken charges =  -0.00000  -0.00000
 Mulliken charges and spin densities with hydrogens summed into heavy atoms:
               1          2
     1  C   -1.302307  -0.000000
     2  C    1.767856   0.000000
     3  C   -0.130455  -0.000000
     4  C   -0.429578   0.000000
     5  C    0.346248  -0.000000
     6  C    0.197812   0.000000
     7  O   -0.179185   0.000000
     8  O   -0.220871   0.000000
     9  C    0.926723   0.000000
    13  C   -0.162541  -0.000000
    14  C    0.158032   0.000000
    15  C   -0.167892  -0.000000
    16  C   -0.203049  -0.000000
    17  C   -0.379646  -0.000000
    18  N   -0.292093   0.000000
    19  O    0.048993   0.000000
    20  O    0.021952  -0.000000
 Electronic spatial extent (au):  <R**2>=           3685.2654
 Charge=              0.0000 electrons
 Dipole moment (field-independent basis, Debye):
    X=              3.3151    Y=             -0.3512    Z=             -2.7891  Tot=              4.3465
 Quadrupole moment (field-independent basis, Debye-Ang):
   XX=            -98.8160   YY=           -102.9613   ZZ=            -91.4176
   XY=              0.8746   XZ=            -10.7327   YZ=            -16.4303
 Traceless Quadrupole moment (field-independent basis, Debye-Ang):
   XX=             -1.0844   YY=             -5.2297   ZZ=              6.3140
   XY=              0.8746   XZ=            -10.7327   YZ=            -16.4303
 Octapole moment (field-independent basis, Debye-Ang**2):
  XXX=             13.0409  YYY=             59.0985  ZZZ=             13.4674  XYY=             42.9094
  XXY=             20.5008  XXZ=            -11.1139  XZZ=              6.1212  YZZ=             -9.9030
  YYZ=             12.6176  XYZ=             11.2357
 Hexadecapole moment (field-independent basis, Debye-Ang**3):
 XXXX=          -1034.1875 YYYY=          -2850.9103 ZZZZ=          -1178.1993 XXXY=           -429.8156
 XXXZ=            241.7985 YYYX=           -465.2239 YYYZ=             28.5355 ZZZX=            222.2721
 ZZZY=            179.7334 XXYY=           -657.7151 XXZZ=           -326.3009 YYZZ=           -605.9133
 XXYZ=             18.1158 YYXZ=             15.4507 ZZXY=            -98.4318
 N-N= 1.135396598957D+03 E-N=-4.179497166598D+03  KE= 8.141516897684D+02
                          Isotropic Fermi Contact Couplings
        Atom                 a.u.       MegaHertz       Gauss      10(-4) cm-1
     1  C(13)              0.00000       0.00000       0.00000       0.00000
     2  C(13)              0.00000       0.00000       0.00000       0.00000
     3  C(13)             -0.00000      -0.00000      -0.00000      -0.00000
     4  C(13)             -0.00000      -0.00000      -0.00000      -0.00000
     5  C(13)             -0.00000      -0.00000      -0.00000      -0.00000
     6  C(13)              0.00000       0.00000       0.00000       0.00000
     7  O(17)             -0.00000       0.00000       0.00000       0.00000
     8  O(17)             -0.00000       0.00000       0.00000       0.00000
     9  C(13)              0.00000       0.00000       0.00000       0.00000
    10  H(1)              -0.00000      -0.00000      -0.00000      -0.00000
    11  H(1)              -0.00000      -0.00000      -0.00000      -0.00000
    12  H(1)               0.00000       0.00000       0.00000       0.00000
    13  C(13)             -0.00000      -0.00000      -0.00000      -0.00000
[...]
 63,0.00036300,-0.00053134,-0.00013979,0.00001869,0.00008712,-0.0000549
 3,-0.01434861,-0.06162781,0.00872471,0.05998184,0.00573101,-0.05902475
 ,0.00560926,-0.32075735,-0.02213582,-0.00134282,0.66691275,-0.00047982
 ,-0.00029190,-0.00053760,0.00489741,-0.00255028,0.00261634,0.00008912,
 0.00093115,-0.00067067,-0.00045425,-0.00006749,0.00061852,0.00002622,-
 0.00010912,-0.00004245,0.00003480,0.00003070,0.00020014,0.00005037,0.0
 0018897,-0.00001277,0.00017979,0.00012998,-0.00005810,0.02662847,0.006
 38630,-0.02049001,-0.00000678,-0.00000273,0.00000865,0.00041901,0.0000
 9125,0.00015280,-0.00007479,-0.00003849,0.00002631,0.00005877,0.009894
 76,-0.00479894,0.00325731,-0.02839094,0.00190657,0.03961603,-0.0674874
 6,-0.10665161,-0.29809290,0.02968351,0.43693786,-0.00247942,-0.0025091
 0,-0.00439304,-0.01216418,-0.00531874,0.01843547,-0.00053702,0.0014315
 5,0.00186203,0.00126487,0.00055937,-0.00042785,-0.00002891,0.00003458,
 0.00037993,0.00007791,-0.00008234,0.00059044,0.00177486,0.00213931,-0.
 00020951,-0.00031398,-0.00021666,0.00004736,-0.17917786,0.00730475,0.1
 1535808,-0.00000754,0.00000962,0.00002275,-0.00014727,0.00016480,0.000
 20860,-0.00001590,-0.00013870,0.00005276,0.00316696,0.05941258,0.00770
 886,-0.03417526,-0.01382039,0.02813895,0.03237374,-0.03798001,-0.02637
 337,-0.14995781,-0.05147424,0.08304713,0.39458683,-0.00279622,-0.00354
 437,0.00000523,-0.01753392,0.00719448,0.01873889,-0.00145433,-0.002688
 54,0.00206009,0.00243299,0.00101990,-0.00122346,-0.00019295,0.00013306
 ,0.00046631,0.00030051,-0.00020326,0.00109284,0.00050738,0.00094635,0.
 00007527,-0.00086811,-0.00086581,-0.00007985,0.05082107,-0.13219294,-0
 .05558080,-0.00004663,-0.00000967,0.00003786,-0.00127760,0.00070878,0.
 00005807,-0.00001404,-0.00030048,0.00016815,0.02498698,0.00574189,-0.0
 2306748,-0.01175242,-0.00661859,0.01194136,-0.00638539,-0.05110348,0.0
 0307421,-0.09821023,-0.23347057,0.09133033,0.00173646,0.73423294,0.000
 82851,0.00141721,0.00219665,0.02083082,0.01030667,-0.01350773,-0.00115
 324,-0.00521434,-0.00268649,-0.00022132,0.00090351,-0.00019225,0.00001
 928,-0.00003690,-0.00017027,-0.00000280,0.00035052,-0.00025204,-0.0006
 1642,-0.00099459,0.00030331,-0.00007137,-0.00030433,-0.00014618,0.1144
 0391,-0.01402687,-0.17835023,0.00001481,-0.00001473,0.00001885,-0.0001
 4619,0.00011081,0.00025101,0.00001038,0.00012965,-0.00004392,0.0054548
 4,-0.05870590,-0.00215364,0.02783786,0.01296790,-0.03101074,-0.0243744
 0,0.03453712,0.03307163,0.08188556,0.04516504,-0.14186863,-0.25831606,
 0.01302293,0.38919977,0.00135771,-0.00403462,-0.00237463,0.00139186,-0
 .00111047,-0.00360967,-0.00265803,-0.00131059,0.00193252,0.00113505,-0
 .00051941,-0.00121898,-0.00041181,-0.00021105,0.00050093,-0.00012251,-
 0.00037726,0.00092902,-0.00267523,0.00249257,0.00091167,-0.00056951,-0
 .00010897,0.00043640,-0.00789424,0.01657595,0.00775748,0.00007927,-0.0
 0009493,0.00006384,0.00037904,0.00011020,-0.00005212,-0.00000088,-0.00
 026623,0.00017578,-0.09267796,0.00495303,0.01673753,-0.02491044,-0.002
 79179,0.01985670,0.00566975,-0.00600353,0.00152654,-0.00063504,-0.0013
 1036,-0.00060918,0.00853770,0.00105090,-0.00208522,0.56860727,0.001085
 00,-0.00537523,0.00227202,0.00269391,-0.00140218,-0.00100312,-0.000740
 38,0.00037364,-0.00077155,-0.00088196,-0.00251319,0.00086153,-0.000294
 81,-0.00010472,-0.00043041,0.00021915,0.00014162,0.00023039,-0.0015948
 2,0.00094969,-0.00145513,0.00072837,0.00146900,0.00020204,0.02336428,-
 0.00429178,-0.02229831,0.00007433,0.00002172,-0.00002702,0.00028040,-0
 .00005886,-0.00012642,0.00009927,-0.00000654,-0.00002076,0.00143229,-0
 .10671577,0.00059322,-0.00774528,0.02221645,0.00881957,-0.00595920,-0.
 00401846,0.00495055,-0.00032762,-0.00401608,0.00048313,0.00036669,-0.0
 0691304,-0.00195912,0.19035129,0.81878393,0.00060264,0.00468507,0.0035
 2326,-0.00308978,0.00020023,-0.00212949,0.00117258,0.00019000,-0.00105
 086,-0.00064329,-0.00087189,0.00138340,0.00011440,0.00012978,-0.000497
 55,-0.00048265,-0.00004345,-0.00087669,0.00005921,-0.00172513,-0.00256
 828,0.00042374,0.00051650,-0.00045719,0.00341039,-0.01607174,-0.009380
 53,-0.00000767,0.00004276,-0.00008442,-0.00036374,-0.00005758,-0.00003
 531,0.00012219,0.00028591,-0.00015595,0.01400261,0.00335030,-0.0900480
 5,0.02591002,0.00344403,-0.02269448,0.00225859,0.00565066,0.00783016,-
 0.00083710,-0.00004310,-0.00068681,0.00087973,-0.00129091,0.00819275,-
 0.15246911,0.13140902,0.39370159,-0.00025767,0.00107533,0.00029721,-0.
 00086298,-0.00045448,0.00101315,0.00078334,0.00033181,-0.00050714,-0.0
 0035668,0.00003771,0.00032383,0.00011907,0.00007052,-0.00015976,0.0000
 2602,0.00011817,-0.00027879,0.00050149,-0.00033942,-0.00014973,0.00018
 974,0.00007614,-0.00010846,-0.00079881,-0.00215753,0.00365697,-0.00001
 979,0.00002923,-0.00001921,-0.00014630,-0.00002340,-0.00000219,0.00000
 164,0.00006490,-0.00004833,0.01138213,0.02478941,0.01614004,-0.0028377
 3,0.00057329,0.00576170,0.00049586,0.00054672,-0.00150027,-0.00021258,
 0.00150069,0.00021459,-0.00181546,0.00107781,0.00042155,-0.11356769,-0
 .01486896,0.02112988,0.10451406,-0.00151243,0.00070004,-0.00221846,-0.
 00160765,0.00069911,0.00051364,0.00033867,-0.00086243,0.00061412,0.000
 86745,0.00178259,-0.00088167,0.00021603,0.00015256,0.00032297,0.000056
 55,-0.00012088,-0.00001660,0.00107739,0.00087957,0.00127217,-0.0005774
 6,-0.00099371,-0.00005047,0.00199580,0.00511328,-0.00221006,-0.0000436
 0,-0.00000143,0.00004471,-0.00015446,0.00008836,0.00013026,-0.00007476
 ,-0.00002548,0.00002711,0.01430179,-0.03212500,-0.03447869,-0.00645656
 ,-0.00584586,0.00511273,0.00191088,0.00036507,-0.00134676,-0.00052786,
 0.00051922,0.00029006,0.00163687,-0.00052778,0.00009185,-0.01798611,-0
 .45008243,-0.16186684,0.06223321,0.56817110,-0.00048081,-0.00051463,-0
 .00157208,0.00046224,0.00090541,0.00044853,-0.00034805,-0.00067136,0.0
 0033502,0.00050953,0.00088521,-0.00078590,0.00001090,0.00001084,0.0002
 4474,0.00017680,0.00003256,0.00021674,0.00026254,0.00058351,0.00116629
 ,-0.00033551,-0.00051718,0.00012558,0.00484544,0.00391322,-0.00201627,
 -0.00001198,-0.00002093,0.00003748,0.00000469,0.00005082,0.00005869,-0
 .00004426,-0.00010627,0.00005702,0.01274677,-0.04314443,-0.00940083,0.
 00085908,-0.00177524,-0.00186965,-0.00031974,-0.00134832,0.00001554,0.
 00014927,-0.00080126,0.00006201,0.00052915,-0.00180068,-0.00142266,0.0
 1973251,-0.16536233,-0.16664187,-0.02644871,0.21481259,0.15148754,-0.0
 0236040,0.00360259,0.00024700,-0.00275703,0.00166964,0.00150661,0.0014
 2277,0.00076075,-0.00072744,-0.00063761,-0.00020810,0.00106836,0.00029
 954,0.00021636,-0.00043899,0.00000288,0.00002054,-0.00057577,0.0005836
 0,-0.00003273,-0.00057266,0.00032439,0.00019074,-0.00033996,-0.0001327
 8,-0.00429144,-0.00112918,-0.00005361,0.00007946,-0.00004451,-0.000238
 40,-0.00001446,0.00003371,-0.00002306,0.00015982,-0.00011178,-0.041449
 10,-0.03009773,0.02869968,-0.00091483,0.00757542,0.00252700,-0.0015314
 8,-0.00030742,0.00219108,-0.00006624,-0.00055575,0.00003358,-0.0008056
 2,-0.00020982,0.00079781,-0.34011752,-0.18615992,0.09205445,0.00456988
 ,-0.05741637,-0.01424402,0.38431429,0.00208127,0.00183367,0.00166644,0
 .00047637,-0.00257906,-0.00194165,0.00170818,-0.00199324,-0.00001134,0
 .00129106,0.00283224,-0.00143425,0.00011890,0.00013789,0.00031711,-0.0
 0010243,0.00008934,-0.00053553,0.00191840,-0.00281675,0.00059054,-0.00
 073273,-0.00136731,-0.00010920,0.00150599,-0.00475121,-0.00125452,-0.0
 0004321,-0.00002730,0.00005142,-0.00038790,0.00008078,0.00020563,0.000
 06190,0.00009385,-0.00003966,-0.01725676,0.01186679,0.00738785,0.00221
 739,0.00042405,-0.00108516,0.00021734,0.00206449,0.00096828,0.00007796
 ,0.00033064,-0.00016717,-0.00082082,0.00029048,0.00217256,-0.17933897,
 -0.25492300,0.03393514,-0.07702058,-0.09073633,-0.00360204,0.26410249,
 0.33791515,-0.00100099,-0.00320919,-0.00232256,0.00159936,-0.00018366,
 -0.00098016,-0.00027377,-0.00088091,0.00085321,0.00049164,0.00069916,-
 0.00137143,-0.00019440,-0.00015517,0.00046729,0.00010158,-0.00006737,0
 .00058414,-0.00145448,0.00315156,0.00101051,-0.00016274,-0.00020435,0.
 00050888,0.00296862,0.00175294,-0.00060899,0.00002902,-0.00001596,0.00
 008738,0.00023437,0.00005830,0.00012132,0.00002098,-0.00019090,0.00010
 455,0.03467147,0.01511422,0.00105854,0.00139389,-0.00426463,0.00140382
 ,0.00035444,-0.00054600,-0.00258021,0.00065616,0.00121471,-0.00023751,
 -0.00117184,0.00004904,0.00002885,0.09317506,0.04190210,-0.11539986,-0
 .02206842,-0.01866659,0.03231672,-0.11025876,-0.03550417,0.08503764,-0
 .00009701,-0.00008878,-0.00006242,0.00087522,-0.00040254,-0.00003910,-
 0.00015626,-0.00016443,0.00011932,0.00000673,0.00023185,-0.00015455,0.
 00000720,-0.00000368,0.00003639,-0.00000460,-0.00001987,0.00004679,-0.
 00000192,0.00001023,0.00007025,-0.00004895,-0.00012773,0.00000189,0.00
 082274,-0.00272011,0.00417894,0.00000110,-0.00000571,0.00000447,0.0000
 4177,-0.00001050,-0.00003085,-0.00000748,-0.00000828,0.00001310,0.0069
 7702,-0.01450816,-0.00255639,-0.05826816,0.04961340,0.02096691,0.00156
 449,0.02015556,0.00416045,0.00103503,0.00063446,0.00623778,-0.00132197
 ,-0.00031978,0.00006583,-0.00156359,-0.00194489,-0.00395341,-0.0012158
 4,0.00116846,0.00156043,0.00045357,0.00032877,0.00058754,0.05285818,-0
 .00009056,-0.00014414,-0.00013845,0.00041162,-0.00045119,-0.00058133,-
 0.00010148,-0.00016232,0.00023821,-0.00005514,0.00010248,-0.00011443,0
 .00000902,-0.00001351,0.00001634,0.00001062,0.00001280,0.00004378,0.00
 004909,0.00012038,0.00007245,-0.00001830,-0.00006703,0.00002001,-0.002
 66233,-0.00091159,0.00234140,0.00000150,-0.00000202,0.00000522,0.00003
 201,-0.00002781,-0.00001242,-0.00000584,-0.00000860,0.00000826,0.00442
 101,-0.01799137,-0.00556960,0.04796417,-0.32120502,-0.06242063,-0.0003
 9608,-0.00001592,0.00010355,0.00011337,0.00135467,-0.00053669,-0.00012
 669,0.00065929,0.00027172,0.00054453,-0.00358408,-0.00187023,0.0020739
 7,0.00271354,-0.00138162,0.00029731,0.00084224,0.00010718,-0.05267358,
 0.33826273,0.00005865,0.00022897,0.00025233,-0.00001872,0.00065885,0.0
 0066385,0.00014033,0.00018784,-0.00025123,0.00005688,-0.00004403,0.000
 11238,0.00000694,0.00002181,-0.00002983,-0.00002404,-0.00001257,-0.000
 04757,-0.00003127,-0.00021715,-0.00013167,0.00001134,0.00004171,-0.000
 04373,0.00414693,0.00180352,0.00124411,-0.00000138,0.00000201,-0.00000
 905,-0.00003793,0.00002841,-0.00001310,0.00000299,0.00001481,-0.000010
 32,-0.00311055,0.01416019,0.00840264,0.02100323,-0.06442490,-0.0610963
 6,0.00358018,-0.02037860,-0.00020762,0.00622813,-0.00032695,0.00092710
 ,-0.00011247,0.00035524,-0.00105480,-0.00144462,0.00149502,-0.00205731
 ,0.00203923,-0.00091233,-0.00216327,-0.00125053,-0.00142885,0.00051585
 ,-0.02833086,0.06924399,0.05696139,0.00013491,0.00014934,0.00003917,-0
 .00047249,-0.00007751,-0.00052959,-0.00010123,-0.00012421,0.00013285,0
 .00010060,0.00008110,-0.00007270,0.00000603,0.00001170,0.00000682,-0.0
 0002671,-0.00000814,-0.00003857,-0.00001710,-0.00007332,0.00000114,-0.
 00005929,-0.00005832,-0.00001588,-0.00073197,0.00074849,-0.00018722,0.
 00000058,-0.00000148,0.00000164,-0.00001655,-0.00001272,-0.00000669,0.
 00000742,0.00001202,-0.00000594,0.00186715,0.00197207,0.00547997,-0.00
 716051,-0.01597666,0.00968829,-0.12152023,-0.10379746,0.07801851,0.006
 46345,0.00519896,-0.00255920,0.00415410,0.00118763,0.00314494,0.000378
 76,-0.00120078,0.00030839,-0.00000078,0.00024831,0.00000102,-0.0006185
 0,-0.00005255,0.00007306,-0.00154174,0.00026546,-0.00258254,0.12060730
 ,-0.00004308,-0.00003877,-0.00011164,0.00000024,0.00004841,0.00012500,
 -0.00004014,-0.00001273,0.00002424,0.00004808,0.00009761,-0.00003419,0
 .00000167,-0.00000465,0.00002255,-0.00000097,-0.00001813,0.00001954,0.
 00002335,0.00003523,0.00004948,-0.00003150,-0.00005015,-0.00000247,0.0
 0067555,-0.00032069,-0.00065555,-0.00000073,-0.00000170,0.00000432,0.0
 0003435,0.00000448,0.00001846,-0.00000121,-0.00000532,0.00000491,0.001
 17728,0.00068432,-0.00170713,0.00564941,0.00948134,-0.00536560,-0.1039
 3260,-0.20452139,0.09444514,-0.01658807,-0.01599825,0.01543253,0.00173
 308,-0.00450891,-0.00239835,0.00035707,0.00055709,-0.00042367,-0.00006
 479,-0.00004046,0.00009260,0.00023509,-0.00002332,-0.00006661,-0.00014
 192,0.00062233,0.00042784,0.11139438,0.21381520,0.00009968,0.00000819,
 0.00000641,-0.00051612,-0.00003728,-0.00044318,-0.00010996,-0.00006298
 ,0.00011823,0.00011024,0.00001473,-0.00006399,-0.00000106,0.00000542,0
 .00001090,-0.00001126,-0.00000523,-0.00002756,-0.00003083,0.00003607,-
 0.00001559,-0.00004328,-0.00001357,-0.00000046,-0.00034514,-0.00051754
 ,-0.00068476,0.00000155,0.00000018,0.00000233,-0.00000821,-0.00000417,
 -0.00000040,0.00000854,0.00000873,-0.00000574,0.00545351,-0.00204590,0
 .00143951,0.01066933,0.01649807,-0.00640731,0.07798847,0.09419474,-0.1
 0999778,-0.00405104,-0.00643551,0.00718832,0.00339145,-0.00212380,0.00
 366708,0.00034369,0.00124339,0.00032347,0.00010880,-0.00022580,-0.0001
 2801,0.00051010,-0.00009849,-0.00055211,-0.00267107,0.00004013,-0.0015
 0034,-0.08850204,-0.10060187,0.10847063,-0.00003229,-0.00006496,0.0000
 6427,-0.00028923,0.00041920,0.00014843,-0.00008096,-0.00014011,0.00012
 257,0.00016264,0.00012169,-0.00008456,-0.00001111,0.00000357,0.0000262
 6,0.00002006,-0.00003457,0.00004007,-0.00004764,-0.00001824,0.00001597
 ,-0.00007635,-0.00010846,-0.00002529,0.00286419,-0.00243911,0.00399989
 ,-0.00000660,0.00000136,0.00000528,-0.00008070,0.00002124,0.00004475,-
 0.00000257,-0.00001261,0.00000822,0.00025790,-0.00031538,-0.00039152,0
 .00426357,0.00040242,0.00286403,0.00106879,-0.00064540,0.00310076,-0.1
 7769002,0.04779687,0.14070482,-0.00653852,0.00566290,0.01067893,-0.000
 60178,0.00010328,-0.00081617,0.00007251,-0.00006352,0.00008196,-0.0000
 6653,-0.00011336,0.00014395,-0.00017121,-0.00010738,0.00000058,-0.0016
 0220,0.00029488,-0.00223442,0.18013813,-0.00011029,-0.00022750,-0.0000
 1071,-0.00038986,0.00062724,0.00055294,-0.00001474,-0.00017385,0.00004
 431,0.00010396,0.00009834,-0.00009348,-0.00000894,0.00001015,0.0000186
 7,0.00002179,-0.00000373,0.00007426,0.00001993,0.00005512,0.00003207,-
 0.00004720,-0.00007585,-0.00000785,-0.00284806,-0.00264131,0.00228610,
 -0.00000273,-0.00000151,0.00000264,-0.00006022,0.00002212,-0.00001120,
 -0.00000086,-0.00002004,0.00001233,-0.00052912,-0.00146453,0.00031156,
 0.00052014,-0.00553378,-0.00120663,0.02122881,-0.00231313,-0.02152067,
 0.04765893,-0.07732245,-0.04926336,-0.01623274,0.00940280,0.01636971,-
 0.00011515,-0.00036799,-0.00003169,0.00014530,0.00028515,-0.00006893,0
 .00015520,0.00019439,-0.00001615,0.00095763,-0.00005419,-0.00090051,-0
 .00020022,0.00098963,0.00046064,-0.05065347,0.07771007,0.00025766,0.00
 022405,0.00024680,0.00009240,-0.00047818,-0.00047792,0.00001542,0.0001
 8172,-0.00008195,-0.00008652,-0.00016267,0.00011666,-0.00000863,-0.000
 00142,-0.00002702,-0.00000585,-0.00001585,-0.00009248,-0.00013645,-0.0
 0009167,-0.00008915,0.00006351,0.00010030,0.00000060,0.00381141,0.0022
 6612,0.00320095,0.00000162,0.00000553,-0.00000402,-0.00001318,-0.00001
 428,0.00002807,0.00000995,0.00002026,-0.00001436,-0.00051709,0.0005345
 8,0.00042420,0.00282681,-0.00157639,0.00430243,0.00461039,0.00010468,-
 0.00023891,0.14057965,-0.04897049,-0.18155369,0.00956633,-0.00534037,-
 0.00567907,-0.00050604,0.00007241,-0.00093045,0.00012692,-0.00006383,-
 0.00000918,-0.00003072,-0.00016583,0.00013589,0.00006405,0.00012571,-0
 .00020321,-0.00229921,-0.00004942,-0.00164475,-0.15608777,0.05316828,0
 .18415303,0.00060534,0.00034502,0.00061181,-0.00169840,0.00100749,-0.0
 0261326,-0.00027265,-0.00027567,0.00078428,0.00007947,-0.00045578,-0.0
 0018579,-0.00000581,0.00012232,-0.00009151,-0.00003049,0.00004510,-0.0
 0014448,-0.00027208,-0.00026886,-0.00022233,-0.00002047,0.00009259,-0.
 00001209,-0.00120433,0.02109964,0.00509630,-0.00000082,0.00000474,-0.0
 0003732,-0.00068627,-0.00009090,-0.00015116,0.00002698,0.00002533,-0.0
 0002685,0.00047940,-0.00053106,0.00522302,-0.00076236,-0.00009564,-0.0
 0026647,0.00157807,-0.00224629,0.00505157,0.00649611,-0.01712126,-0.00
 321826,-0.05645026,0.05129681,0.02059199,0.00086980,0.00092035,0.00021
 408,-0.00056346,0.00036936,0.00030073,-0.00019822,-0.00023671,0.000084
 26,-0.00024433,0.00004371,-0.00033050,0.00014900,-0.00077939,-0.000160
 93,-0.00155007,0.00040191,-0.00233466,0.05367585,0.00004034,0.00021619
 ,-0.00030074,-0.00128667,0.00041914,0.00110625,-0.00031708,0.00039790,
 0.00015893,0.00003970,0.00009845,0.00012205,-0.00001143,-0.00002544,0.
 00004780,0.00000353,-0.00008900,-0.00004031,-0.00004178,0.00008132,0.0
 0006188,0.00000851,0.00000885,-0.00001878,-0.00011773,-0.00429524,-0.0
 0006505,0.00000210,0.00000211,0.00000747,0.00002481,0.00000005,0.00017
 200,0.00001933,-0.00000057,-0.00000731,0.00090342,0.00127152,-0.000856
 41,-0.00033534,0.00051545,0.00040767,-0.00277115,-0.00113581,0.0026094
 0,0.00552162,-0.01616499,-0.00596703,0.05219076,-0.31738256,-0.0541620
 7,-0.00085610,-0.00013978,0.00045683,0.00018494,-0.00010781,-0.0001715
 1,0.00022832,0.00022151,-0.00007757,0.00003960,-0.00005169,-0.00002433
 ,0.00031392,-0.00079118,-0.00033814,-0.00011086,0.00080485,0.00012676,
 -0.05367278,0.33614671,0.00054917,0.00007815,-0.00029163,-0.00291183,-
 0.00232594,-0.00170854,-0.00040249,0.00034806,0.00106374,0.00033012,0.
 00042783,-0.00029794,0.00001712,0.00004488,0.00010745,-0.00007247,-0.0
 0012354,-0.00014930,-0.00013318,0.00011557,0.00007588,-0.00015396,-0.0
 0021279,-0.00005467,0.00520931,-0.01968146,-0.00218622,0.00000786,-0.0
 0000183,0.00000664,0.00008144,-0.00013797,0.00004366,0.00002806,0.0000
 2717,-0.00001667,0.00549142,-0.00025274,0.00091634,0.00032333,0.000434
 56,-0.00142234,0.00459362,0.00240651,0.00254228,-0.00315944,0.01482622
 ,0.00696418,0.02078512,-0.05196845,-0.05839124,0.00028991,-0.00108021,
 0.00074046,0.00005713,-0.00029412,-0.00056218,0.00005492,0.00008287,-0
 .00018176,-0.00031550,-0.00001256,-0.00026024,-0.00009624,0.00074990,0
 .00024509,-0.00241100,-0.00020231,-0.00156248,-0.02816243,0.05675218,0
 .05437949\\-0.00000130,-0.00000502,0.00000545,-0.00000227,-0.00001009,
 0.00001343,-0.00000403,-0.00000553,-0.00000912,-0.00000100,0.00000873,
 -0.00000870,0.00000350,0.00000565,0.00000221,0.00000727,0.00000827,0.0
 0000026,0.00000078,0.00000333,-0.00000198,-0.00000076,-0.00000587,0.00
 000344,-0.00000182,0.00001633,0.00000290,-0.00000218,-0.00000105,-0.00
 000169,0.00000105,0.00000369,0.00000086,-0.00000210,-0.00000590,-0.000
 00055,0.00001558,-0.00001999,-0.00001363,0.00000353,-0.00000040,-0.000
 00349,-0.00000446,0.00001084,0.00000769,-0.00000133,-0.00001426,-0.000
 00124,0.00000409,0.00000169,-0.00000855,-0.00001701,0.00001984,0.00002
 349,-0.00000209,-0.00001664,-0.00000785,0.00000583,0.00000417,-0.00000
 245,0.00000128,0.00000110,0.00000024,-0.00000014,-0.00000015,-0.000000
 57,-0.00000054,0.00000159,-0.00000024,-0.00000186,-0.00000035,0.000000
 10\\\@


          EVOLUTION
 IN THE BEGINNING GOD MADE MAN.
 HE WORKED THE DIRT WITH HIS HANDS.
 THEN GOD DECIDED TO GIVE MAN SCIENCE,
 MAN SHOULD BE USEFUL (LIKE AN APPLIANCE.)
 BUT SOON MAN'S KNOWLEDGE GREW TOO GREAT,
 TO THE HEADING SCIENCE HE COULDN'T RELATE
 SO GOD SAID "LETS HAVE DIFFERENT FIELDS,
 WE'LL DIVIDE THEM UP, SEE WHAT IT YIELDS."
 ENTER PHYSICS, CHEMISTRY, BIO
 THEY SPRANG UP AROUND THE NILE.
 BUT CHEMISTRY SURPASSED THE REST
 FAR AND AWAY IT WAS THE BEST.
 EXPERIMENT WAS GOD'S DECREE
 EXPERIMENT DID CHEMISTS WITH LOTS OF GLEE
 BUT SOON THEIR TESTS BEGAN TO BOG,
 THEY FOUND THEMSELVES DEEP IN A FOG.
 "GIVE US SOME HELP" THEY CRIED TO GOD.
 GOD LOOKED AROUND, THEN GAVE THE NOD.
 ENTER EINSTEIN, HEISENBERG, BOHR,
 REACTION PATHS WERE CLEAR ONCE MORE.
 WITH THEORISTS GOD SEND DIRECTION
 AND THEN HE STOPPED, HE'D MADE PERFECTION.
          -- THOMAS A. HOLME, 1981
 Job cpu time:       0 days  3 hours 18 minutes 18.5 seconds.
 Elapsed time:       0 days  0 hours 24 minutes 53.6 seconds.
 File lengths (MBytes):  RWF=    821 Int=      0 D2E=      0 Chk=     20 Scr=      1
 Normal termination of Gaussian 16 at Wed Jan 10 17:16:35 2024.
