 Entering Gaussian System, Link 0=g16
 Input=139-an.com
 Output=139-an.log
 Initial command:
 /sysapps/ubuntu-applications/gaussian/Gaussian/AVX2/g16/l1.exe "/scratch/selhajj1/4234772/Gau-1404273.inp" -scrdir="/scratch/selhajj1/4234772/"
 Entering Link 1 = /sysapps/ubuntu-applications/gaussian/Gaussian/AVX2/g16/l1.exe PID=   1404275.
  
 Copyright (c) 1988,1990,1992,1993,1995,1998,2003,2009,2016,
            Gaussian, Inc.  All Rights Reserved.
  
 This is part of the Gaussian(R) 16 program.  It is based on
 the Gaussian(R) 09 system (copyright 2009, Gaussian, Inc.),
 the Gaussian(R) 03 system (copyright 2003, Gaussian, Inc.),
 the Gaussian(R) 98 system (copyright 1998, Gaussian, Inc.),
 the Gaussian(R) 94 system (copyright 1995, Gaussian, Inc.),
 the Gaussian 92(TM) system (copyright 1992, Gaussian, Inc.),
 the Gaussian 90(TM) system (copyright 1990, Gaussian, Inc.),
 the Gaussian 88(TM) system (copyright 1988, Gaussian, Inc.),
 the Gaussian 86(TM) system (copyright 1986, Carnegie Mellon
 University), and the Gaussian 82(TM) system (copyright 1983,
 Carnegie Mellon University). Gaussian is a federally registered
 trademark of Gaussian, Inc.
  
 This software contains proprietary and confidential information,
 including trade secrets, belonging to Gaussian, Inc.
  
 This software is provided under written license and may be
 used, copied, transmitted, or stored only in accord with that
 written license.
  
 The following legend is applicable only to US Government
 contracts under FAR:
  
                    RESTRICTED RIGHTS LEGEND
  
 Use, reproduction and disclosure by the US Government is
 subject to restrictions as set forth in subparagraphs (a)
 and (c) of the Commercial Computer Software - Restricted
 Rights clause in FAR 52.227-19.
  
 Gaussian, Inc.
 340 Quinnipiac St., Bldg. 40, Wallingford CT 06492
  
  
 ---------------------------------------------------------------
 Warning -- This program may not be used in any manner that
 competes with the business of Gaussian, Inc. or will provide
 assistance to any competitor of Gaussian, Inc.  The licensee
 of this program is prohibited from giving any competitor of
 Gaussian, Inc. access to this program.  By using this program,
 the user acknowledges that Gaussian, Inc. is engaged in the
 business of creating and licensing software in the field of
 computational chemistry and represents and warrants to the
 licensee that it is not a competitor of Gaussian, Inc. and that
 it will not use this program in any manner prohibited above.
 ---------------------------------------------------------------
  

 Cite this work as:
 Gaussian 16, Revision A.03,
 M. J. Frisch, G. W. Trucks, H. B. Schlegel, G. E. Scuseria, 
 M. A. Robb, J. R. Cheeseman, G. Scalmani, V. Barone, 
 G. A. Petersson, H. Nakatsuji, X. Li, M. Caricato, A. V. Marenich, 
 J. Bloino, B. G. Janesko, R. Gomperts, B. Mennucci, H. P. Hratchian, 
 J. V. Ortiz, A. F. Izmaylov, J. L. Sonnenberg, D. Williams-Young, 
 F. Ding, F. Lipparini, F. Egidi, J. Goings, B. Peng, A. Petrone, 
 T. Henderson, D. Ranasinghe, V. G. Zakrzewski, J. Gao, N. Rega, 
 G. Zheng, W. Liang, M. Hada, M. Ehara, K. Toyota, R. Fukuda, 
 J. Hasegawa, M. Ishida, T. Nakajima, Y. Honda, O. Kitao, H. Nakai, 
 T. Vreven, K. Throssell, J. A. Montgomery, Jr., J. E. Peralta, 
 F. Ogliaro, M. J. Bearpark, J. J. Heyd, E. N. Brothers, K. N. Kudin, 
 V. N. Staroverov, T. A. Keith, R. Kobayashi, J. Normand, 
 K. Raghavachari, A. P. Rendell, J. C. Burant, S. S. Iyengar, 
 J. Tomasi, M. Cossi, J. M. Millam, M. Klene, C. Adamo, R. Cammi, 
 J. W. Ochterski, R. L. Martin, K. Morokuma, O. Farkas, 
 J. B. Foresman, and D. J. Fox, Gaussian, Inc., Wallingford CT, 2016.
 
 ******************************************
 Gaussian 16:  ES64L-G16RevA.03 25-Dec-2016
                27-Dec-2023 
 ******************************************
 %chk=139-an.chk
 %nproc=8
 Will use up to    8 processors via shared memory.
 %mem=30GB
 --------------------------------------
 #P UB3LYP/6-311++G(d,p) nosym opt freq
 --------------------------------------
 1/18=20,19=15,26=3,38=1/1,3;
 2/9=110,12=2,15=1,17=6,18=5,40=1/2;
 3/5=4,6=6,7=1111,11=2,25=1,30=1,71=1,74=-5,116=2/1,2,3;
 4//1;
 5/5=2,38=5/2;
 6/7=2,8=2,9=2,10=2,28=1/1;
 7/30=1/1,2,3,16;
 1/18=20,19=15,26=3/3(2);
 2/9=110,15=1/2;
 99//99;
 2/9=110,15=1/2;
 3/5=4,6=6,7=1111,11=2,25=1,30=1,71=1,74=-5,116=2/1,2,3;
 4/5=5,16=3,69=1/1;
 5/5=2,38=5/2;
 7/30=1/1,2,3,16;
 1/18=20,19=15,26=3/3(-5);
 2/9=110,15=1/2;
 6/7=2,8=2,9=2,10=2,19=2,28=1/1;
 99/9=1/99;
 Leave Link    1 at Wed Dec 27 20:23:04 2023, MaxMem=  4026531840 cpu:               1.4 elap:               0.2
 (Enter /sysapps/ubuntu-applications/gaussian/Gaussian/AVX2/g16/l101.exe)
 -------
 Reduced
 -------
 Symbolic Z-matrix:
 Charge = -2 Multiplicity = 1
 C                    -3.23568   2.99757   0.01961 
 O                    -1.91823   2.51633   0.01384 
 C                    -1.71219   1.15492  -0.03805 
 C                    -2.77608   0.27926  -0.03786 
 C                    -2.55439  -1.1204   -0.07624 
 C                    -1.27357  -1.62599  -0.027 
 O                    -1.04807  -2.98429  -0.07965 
 C                    -2.15199  -3.84792  -0.13287 
 C                    -0.12359  -0.76109   0.05397 
 C                     1.21222  -1.3134    0.246 
 O                     1.47208  -2.53553   0.47259 
 C                     2.30857  -0.34881   0.15959 
 C                     3.63764  -0.81594   0.29077 
 C                     4.72214   0.03608   0.20787 
 C                     4.50839   1.4205   -0.01188 
 C                     3.21872   1.89791  -0.14524 
 C                     2.09369   1.04356  -0.06635 
 C                     0.75828   1.62453  -0.20446 
 O                     0.63861   2.86885  -0.42751 
 C                    -0.34951   0.68656  -0.06534 
 H                    -3.15907   4.08686   0.07493 
 H                    -3.81659   2.64034   0.88521 
 H                    -3.78655   2.72624  -0.89409 
 H                    -3.79786   0.63608  -0.02821 
 H                    -3.41546  -1.77429  -0.12586 
 H                    -2.79485  -3.7638    0.7568 
 H                    -1.74148  -4.86033  -0.17709 
 H                    -2.78044  -3.68295  -1.02293 
 H                     3.76095  -1.88087   0.45807 
 H                     5.73408  -0.35182   0.30939 
 H                     5.35512   2.10167  -0.07384 
 H                     3.01509   2.95018  -0.31417 
 
 ITRead=  0  0  0  0  0  0  0  0  0  0  0  0  0  0  0  0  0  0  0  0
 ITRead=  0  0  0  0  0  0  0  0  0  0  0  0
 MicOpt= -1 -1 -1 -1 -1 -1 -1 -1 -1 -1 -1 -1 -1 -1 -1 -1 -1 -1 -1 -1
 MicOpt= -1 -1 -1 -1 -1 -1 -1 -1 -1 -1 -1 -1
 NAtoms=     32 NQM=       32 NQMF=       0 NMMI=      0 NMMIF=      0
                NMic=       0 NMicF=      0.
                    Isotopes and Nuclear Properties:
 (Nuclear quadrupole moments (NQMom) in fm**2, nuclear magnetic moments (NMagM)
  in nuclear magnetons)

  Atom         1           2           3           4           5           6           7           8           9          10
 IAtWgt=          12          16          12          12          12          12          16          12          12          12
 AtmWgt=  12.0000000  15.9949146  12.0000000  12.0000000  12.0000000  12.0000000  15.9949146  12.0000000  12.0000000  12.0000000
 NucSpn=           0           0           0           0           0           0           0           0           0           0
 AtZEff=  -0.0000000  -0.0000000  -0.0000000  -0.0000000  -0.0000000  -0.0000000  -0.0000000  -0.0000000  -0.0000000  -0.0000000
 NQMom=    0.0000000   0.0000000   0.0000000   0.0000000   0.0000000   0.0000000   0.0000000   0.0000000   0.0000000   0.0000000
 NMagM=    0.0000000   0.0000000   0.0000000   0.0000000   0.0000000   0.0000000   0.0000000   0.0000000   0.0000000   0.0000000
 AtZNuc=   6.0000000   8.0000000   6.0000000   6.0000000   6.0000000   6.0000000   8.0000000   6.0000000   6.0000000   6.0000000

  Atom        11          12          13          14          15          16          17          18          19          20
 IAtWgt=          16          12          12          12          12          12          12          12          16          12
 AtmWgt=  15.9949146  12.0000000  12.0000000  12.0000000  12.0000000  12.0000000  12.0000000  12.0000000  15.9949146  12.0000000
 NucSpn=           0           0           0           0           0           0           0           0           0           0
 AtZEff=  -0.0000000  -0.0000000  -0.0000000  -0.0000000  -0.0000000  -0.0000000  -0.0000000  -0.0000000  -0.0000000  -0.0000000
 NQMom=    0.0000000   0.0000000   0.0000000   0.0000000   0.0000000   0.0000000   0.0000000   0.0000000   0.0000000   0.0000000
 NMagM=    0.0000000   0.0000000   0.0000000   0.0000000   0.0000000   0.0000000   0.0000000   0.0000000   0.0000000   0.0000000
 AtZNuc=   8.0000000   6.0000000   6.0000000   6.0000000   6.0000000   6.0000000   6.0000000   6.0000000   8.0000000   6.0000000

  Atom        21          22          23          24          25          26          27          28          29          30
 IAtWgt=           1           1           1           1           1           1           1           1           1           1
 AtmWgt=   1.0078250   1.0078250   1.0078250   1.0078250   1.0078250   1.0078250   1.0078250   1.0078250   1.0078250   1.0078250
 NucSpn=           1           1           1           1           1           1           1           1           1           1
 AtZEff=  -0.0000000  -0.0000000  -0.0000000  -0.0000000  -0.0000000  -0.0000000  -0.0000000  -0.0000000  -0.0000000  -0.0000000
 NQMom=    0.0000000   0.0000000   0.0000000   0.0000000   0.0000000   0.0000000   0.0000000   0.0000000   0.0000000   0.0000000
 NMagM=    2.7928460   2.7928460   2.7928460   2.7928460   2.7928460   2.7928460   2.7928460   2.7928460   2.7928460   2.7928460
 AtZNuc=   1.0000000   1.0000000   1.0000000   1.0000000   1.0000000   1.0000000   1.0000000   1.0000000   1.0000000   1.0000000

  Atom        31          32
 IAtWgt=           1           1
 AtmWgt=   1.0078250   1.0078250
 NucSpn=           1           1
 AtZEff=  -0.0000000  -0.0000000
 NQMom=    0.0000000   0.0000000
 NMagM=    2.7928460   2.7928460
 AtZNuc=   1.0000000   1.0000000
 Leave Link  101 at Wed Dec 27 20:23:05 2023, MaxMem=  4026531840 cpu:               7.0 elap:               1.0
 (Enter /sysapps/ubuntu-applications/gaussian/Gaussian/AVX2/g16/l103.exe)

 GradGradGradGradGradGradGradGradGradGradGradGradGradGradGradGradGradGrad
 Berny optimization.
 Initialization pass.
                           ----------------------------
                           !    Initial Parameters    !
                           ! (Angstroms and Degrees)  !
 --------------------------                            --------------------------
 ! Name  Definition              Value          Derivative Info.                !
 --------------------------------------------------------------------------------
 ! R1    R(1,2)                  1.4026         estimate D2E/DX2                !
 ! R2    R(1,21)                 1.0934         estimate D2E/DX2                !
 ! R3    R(1,22)                 1.102          estimate D2E/DX2                !
 ! R4    R(1,23)                 1.1009         estimate D2E/DX2                !
 ! R5    R(2,3)                  1.3779         estimate D2E/DX2                !
 ! R6    R(3,4)                  1.3779         estimate D2E/DX2                !
 ! R7    R(3,20)                 1.4412         estimate D2E/DX2                !
 ! R8    R(4,5)                  1.4176         estimate D2E/DX2                !
 ! R9    R(4,24)                 1.0823         estimate D2E/DX2                !
 ! R10   R(5,6)                  1.3779         estimate D2E/DX2                !
 ! R11   R(5,25)                 1.0824         estimate D2E/DX2                !
 ! R12   R(6,7)                  1.3779         estimate D2E/DX2                !
 ! R13   R(6,9)                  1.4412         estimate D2E/DX2                !
 ! R14   R(7,8)                  1.4026         estimate D2E/DX2                !
 ! R15   R(8,26)                 1.1009         estimate D2E/DX2                !
 ! R16   R(8,27)                 1.0934         estimate D2E/DX2                !
 ! R17   R(8,28)                 1.102          estimate D2E/DX2                !
 ! R18   R(9,10)                 1.4582         estimate D2E/DX2                !
 ! R19   R(9,20)                 1.47           estimate D2E/DX2                !
 ! R20   R(10,11)                1.2698         estimate D2E/DX2                !
 ! R21   R(10,12)                1.4628         estimate D2E/DX2                !
 ! R22   R(12,13)                1.4149         estimate D2E/DX2                !
 ! R23   R(12,17)                1.4269         estimate D2E/DX2                !
 ! R24   R(13,14)                1.3816         estimate D2E/DX2                !
 ! R25   R(13,29)                1.085          estimate D2E/DX2                !
 ! R26   R(14,15)                1.418          estimate D2E/DX2                !
 ! R27   R(14,30)                1.0885         estimate D2E/DX2                !
 ! R28   R(15,16)                1.3817         estimate D2E/DX2                !
 ! R29   R(15,31)                1.0885         estimate D2E/DX2                !
 ! R30   R(16,17)                1.4149         estimate D2E/DX2                !
 ! R31   R(16,32)                1.085          estimate D2E/DX2                !
 ! R32   R(17,18)                1.4628         estimate D2E/DX2                !
 ! R33   R(18,19)                1.2698         estimate D2E/DX2                !
 ! R34   R(18,20)                1.4582         estimate D2E/DX2                !
 ! A1    A(2,1,21)             106.0346         estimate D2E/DX2                !
 ! A2    A(2,1,22)             112.7776         estimate D2E/DX2                !
 ! A3    A(2,1,23)             112.4599         estimate D2E/DX2                !
 ! A4    A(21,1,22)            108.6721         estimate D2E/DX2                !
 ! A5    A(21,1,23)            108.82           estimate D2E/DX2                !
 ! A6    A(22,1,23)            107.9551         estimate D2E/DX2                !
 ! A7    A(1,2,3)              118.6594         estimate D2E/DX2                !
 ! A8    A(2,3,4)              120.8267         estimate D2E/DX2                !
 ! A9    A(2,3,20)             117.593          estimate D2E/DX2                !
 ! A10   A(4,3,20)             121.5691         estimate D2E/DX2                !
 ! A11   A(3,4,5)              120.444          estimate D2E/DX2                !
 ! A12   A(3,4,24)             121.2919         estimate D2E/DX2                !
 ! A13   A(5,4,24)             118.2535         estimate D2E/DX2                !
 ! A14   A(4,5,6)              120.4434         estimate D2E/DX2                !
 ! A15   A(4,5,25)             118.2498         estimate D2E/DX2                !
 ! A16   A(6,5,25)             121.2967         estimate D2E/DX2                !
 ! A17   A(5,6,7)              120.8292         estimate D2E/DX2                !
 ! A18   A(5,6,9)              121.5689         estimate D2E/DX2                !
 ! A19   A(7,6,9)              117.5906         estimate D2E/DX2                !
 ! A20   A(6,7,8)              118.6601         estimate D2E/DX2                !
 ! A21   A(7,8,26)             112.4512         estimate D2E/DX2                !
 ! A22   A(7,8,27)             106.0318         estimate D2E/DX2                !
 ! A23   A(7,8,28)             112.7882         estimate D2E/DX2                !
 ! A24   A(26,8,27)            108.8254         estimate D2E/DX2                !
 ! A25   A(26,8,28)            107.9554         estimate D2E/DX2                !
 ! A26   A(27,8,28)            108.6671         estimate D2E/DX2                !
 ! A27   A(6,9,10)             120.7341         estimate D2E/DX2                !
 ! A28   A(6,9,20)             117.6326         estimate D2E/DX2                !
 ! A29   A(10,9,20)            121.6332         estimate D2E/DX2                !
 ! A30   A(9,10,11)            125.1351         estimate D2E/DX2                !
 ! A31   A(9,10,12)            115.406          estimate D2E/DX2                !
 ! A32   A(11,10,12)           119.4587         estimate D2E/DX2                !
 ! A33   A(10,12,13)           118.7403         estimate D2E/DX2                !
 ! A34   A(10,12,17)           122.6806         estimate D2E/DX2                !
 ! A35   A(13,12,17)           118.5755         estimate D2E/DX2                !
 ! A36   A(12,13,14)           121.8825         estimate D2E/DX2                !
 ! A37   A(12,13,29)           116.4294         estimate D2E/DX2                !
 ! A38   A(14,13,29)           121.688          estimate D2E/DX2                !
 ! A39   A(13,14,15)           119.5416         estimate D2E/DX2                !
 ! A40   A(13,14,30)           120.2903         estimate D2E/DX2                !
 ! A41   A(15,14,30)           120.168          estimate D2E/DX2                !
 ! A42   A(14,15,16)           119.5402         estimate D2E/DX2                !
 ! A43   A(14,15,31)           120.1692         estimate D2E/DX2                !
 ! A44   A(16,15,31)           120.2906         estimate D2E/DX2                !
 ! A45   A(15,16,17)           121.8828         estimate D2E/DX2                !
 ! A46   A(15,16,32)           121.689          estimate D2E/DX2                !
 ! A47   A(17,16,32)           116.4281         estimate D2E/DX2                !
 ! A48   A(12,17,16)           118.5769         estimate D2E/DX2                !
 ! A49   A(12,17,18)           122.6816         estimate D2E/DX2                !
 ! A50   A(16,17,18)           118.7378         estimate D2E/DX2                !
 ! A51   A(17,18,19)           119.4585         estimate D2E/DX2                !
 ! A52   A(17,18,20)           115.4076         estimate D2E/DX2                !
 ! A53   A(19,18,20)           125.1338         estimate D2E/DX2                !
 ! A54   A(3,20,9)             117.6333         estimate D2E/DX2                !
 ! A55   A(3,20,18)            120.7365         estimate D2E/DX2                !
 ! A56   A(9,20,18)            121.6301         estimate D2E/DX2                !
 ! D1    D(21,1,2,3)           179.3807         estimate D2E/DX2                !
 ! D2    D(22,1,2,3)            60.5669         estimate D2E/DX2                !
 ! D3    D(23,1,2,3)           -61.8023         estimate D2E/DX2                !
 ! D4    D(1,2,3,4)             -2.2087         estimate D2E/DX2                !
 ! D5    D(1,2,3,20)           178.9919         estimate D2E/DX2                !
 ! D6    D(2,3,4,5)           -179.2859         estimate D2E/DX2                !
 ! D7    D(2,3,4,24)             1.9244         estimate D2E/DX2                !
 ! D8    D(20,3,4,5)            -0.5347         estimate D2E/DX2                !
 ! D9    D(20,3,4,24)         -179.3244         estimate D2E/DX2                !
 ! D10   D(2,3,20,9)           172.3038         estimate D2E/DX2                !
 ! D11   D(2,3,20,18)           -7.5927         estimate D2E/DX2                !
 ! D12   D(4,3,20,9)            -6.4862         estimate D2E/DX2                !
 ! D13   D(4,3,20,18)          173.6172         estimate D2E/DX2                !
 ! D14   D(3,4,5,6)              4.2098         estimate D2E/DX2                !
 ! D15   D(3,4,5,25)          -176.9295         estimate D2E/DX2                !
 ! D16   D(24,4,5,6)          -176.9643         estimate D2E/DX2                !
 ! D17   D(24,4,5,25)            1.8964         estimate D2E/DX2                !
 ! D18   D(4,5,6,7)           -179.2292         estimate D2E/DX2                !
 ! D19   D(4,5,6,9)             -0.4824         estimate D2E/DX2                !
 ! D20   D(25,5,6,7)             1.9454         estimate D2E/DX2                !
 ! D21   D(25,5,6,9)          -179.3079         estimate D2E/DX2                !
 ! D22   D(5,6,7,8)             -2.4134         estimate D2E/DX2                !
 ! D23   D(9,6,7,8)            178.7914         estimate D2E/DX2                !
 ! D24   D(5,6,9,10)           173.5339         estimate D2E/DX2                !
 ! D25   D(5,6,9,20)            -6.5371         estimate D2E/DX2                !
 ! D26   D(7,6,9,10)            -7.6803         estimate D2E/DX2                !
 ! D27   D(7,6,9,20)           172.2486         estimate D2E/DX2                !
 ! D28   D(6,7,8,26)           -61.6631         estimate D2E/DX2                !
 ! D29   D(6,7,8,27)           179.5199         estimate D2E/DX2                !
 ! D30   D(6,7,8,28)            60.708          estimate D2E/DX2                !
 ! D31   D(6,9,10,11)           -6.5273         estimate D2E/DX2                !
 ! D32   D(6,9,10,12)          173.3316         estimate D2E/DX2                !
 ! D33   D(20,9,10,11)         173.5466         estimate D2E/DX2                !
 ! D34   D(20,9,10,12)          -6.5945         estimate D2E/DX2                !
 ! D35   D(6,9,20,3)             9.7739         estimate D2E/DX2                !
 ! D36   D(6,9,20,18)         -170.3305         estimate D2E/DX2                !
 ! D37   D(10,9,20,3)         -170.2978         estimate D2E/DX2                !
 ! D38   D(10,9,20,18)           9.5977         estimate D2E/DX2                !
 ! D39   D(9,10,12,13)        -177.9248         estimate D2E/DX2                !
 ! D40   D(9,10,12,17)           1.3733         estimate D2E/DX2                !
 ! D41   D(11,10,12,13)          1.9426         estimate D2E/DX2                !
 ! D42   D(11,10,12,17)       -178.7592         estimate D2E/DX2                !
 ! D43   D(10,12,13,14)        179.4138         estimate D2E/DX2                !
 ! D44   D(10,12,13,29)         -0.4576         estimate D2E/DX2                !
 ! D45   D(17,12,13,14)          0.0865         estimate D2E/DX2                !
 ! D46   D(17,12,13,29)       -179.7849         estimate D2E/DX2                !
 ! D47   D(10,12,17,16)       -179.4986         estimate D2E/DX2                !
 ! D48   D(10,12,17,18)          1.2086         estimate D2E/DX2                !
 ! D49   D(13,12,17,16)         -0.1993         estimate D2E/DX2                !
 ! D50   D(13,12,17,18)       -179.4922         estimate D2E/DX2                !
 ! D51   D(12,13,14,15)          0.1372         estimate D2E/DX2                !
 ! D52   D(12,13,14,30)       -179.7997         estimate D2E/DX2                !
 ! D53   D(29,13,14,15)       -179.9981         estimate D2E/DX2                !
 ! D54   D(29,13,14,30)          0.065          estimate D2E/DX2                !
 ! D55   D(13,14,15,16)         -0.2458         estimate D2E/DX2                !
 ! D56   D(13,14,15,31)        179.688          estimate D2E/DX2                !
 ! D57   D(30,14,15,16)        179.6913         estimate D2E/DX2                !
 ! D58   D(30,14,15,31)         -0.375          estimate D2E/DX2                !
 ! D59   D(14,15,16,17)          0.1308         estimate D2E/DX2                !
 ! D60   D(14,15,16,32)        179.9972         estimate D2E/DX2                !
 ! D61   D(31,15,16,17)       -179.8028         estimate D2E/DX2                !
 ! D62   D(31,15,16,32)          0.0636         estimate D2E/DX2                !
 ! D63   D(15,16,17,12)          0.0928         estimate D2E/DX2                !
 ! D64   D(15,16,17,18)        179.414          estimate D2E/DX2                !
 ! D65   D(32,16,17,12)       -179.7802         estimate D2E/DX2                !
 ! D66   D(32,16,17,18)         -0.459          estimate D2E/DX2                !
 ! D67   D(12,17,18,19)       -178.7883         estimate D2E/DX2                !
 ! D68   D(12,17,18,20)          1.3306         estimate D2E/DX2                !
 ! D69   D(16,17,18,19)          1.9199         estimate D2E/DX2                !
 ! D70   D(16,17,18,20)       -177.9611         estimate D2E/DX2                !
 ! D71   D(17,18,20,3)         173.3404         estimate D2E/DX2                !
 ! D72   D(17,18,20,9)          -6.5519         estimate D2E/DX2                !
 ! D73   D(19,18,20,3)          -6.5329         estimate D2E/DX2                !
 ! D74   D(19,18,20,9)         173.5747         estimate D2E/DX2                !
 --------------------------------------------------------------------------------
 Trust Radius=3.00D-01 FncErr=1.00D-07 GrdErr=1.00D-06 EigMax=2.50D+02 EigMin=1.00D-04
 Number of steps in this run=    174 maximum allowed number of steps=    192.
 GradGradGradGradGradGradGradGradGradGradGradGradGradGradGradGradGradGrad

 Leave Link  103 at Wed Dec 27 20:23:05 2023, MaxMem=  4026531840 cpu:               0.3 elap:               0.1
 (Enter /sysapps/ubuntu-applications/gaussian/Gaussian/AVX2/g16/l202.exe)
                          Input orientation:                          
 ---------------------------------------------------------------------
 Center     Atomic      Atomic             Coordinates (Angstroms)
 Number     Number       Type             X           Y           Z
 ---------------------------------------------------------------------
      1          6           0       -3.235678    2.997568    0.019606
      2          8           0       -1.918226    2.516331    0.013837
      3          6           0       -1.712194    1.154916   -0.038047
      4          6           0       -2.776082    0.279257   -0.037864
      5          6           0       -2.554389   -1.120397   -0.076236
      6          6           0       -1.273567   -1.625992   -0.027003
      7          8           0       -1.048066   -2.984291   -0.079647
      8          6           0       -2.151988   -3.847915   -0.132873
      9          6           0       -0.123589   -0.761090    0.053974
     10          6           0        1.212220   -1.313404    0.246000
     11          8           0        1.472083   -2.535531    0.472587
     12          6           0        2.308565   -0.348812    0.159588
     13          6           0        3.637639   -0.815937    0.290766
     14          6           0        4.722141    0.036081    0.207874
     15          6           0        4.508390    1.420501   -0.011884
     16          6           0        3.218718    1.897913   -0.145237
     17          6           0        2.093694    1.043558   -0.066352
     18          6           0        0.758279    1.624525   -0.204455
     19          8           0        0.638608    2.868851   -0.427507
     20          6           0       -0.349512    0.686563   -0.065340
     21          1           0       -3.159073    4.086861    0.074925
     22          1           0       -3.816586    2.640338    0.885214
     23          1           0       -3.786546    2.726239   -0.894091
     24          1           0       -3.797861    0.636076   -0.028211
     25          1           0       -3.415458   -1.774294   -0.125855
     26          1           0       -2.794852   -3.763800    0.756802
     27          1           0       -1.741478   -4.860332   -0.177086
     28          1           0       -2.780440   -3.682954   -1.022930
     29          1           0        3.760951   -1.880870    0.458071
     30          1           0        5.734080   -0.351818    0.309389
     31          1           0        5.355122    2.101672   -0.073840
     32          1           0        3.015094    2.950184   -0.314174
 ---------------------------------------------------------------------
                    Distance matrix (angstroms):
                    1          2          3          4          5
     1  C    0.000000
     2  O    1.402605   0.000000
     3  C    2.391588   1.377894   0.000000
     4  C    2.757489   2.396474   1.377910   0.000000
     5  C    4.175042   3.693048   2.426479   1.417622   0.000000
     6  C    5.022884   4.192385   2.815309   2.426447   1.377881
     7  O    6.370097   5.569808   4.192354   3.693038   2.396481
     8  C    6.932407   6.370227   5.023020   4.175173   2.757624
     9  C    4.879937   3.736820   2.490625   2.850697   2.460659
    10  C    6.198349   4.951814   3.837380   4.303917   3.785291
    11  O    7.278969   6.101308   4.900996   5.121572   4.303056
    12  C    6.477383   5.108429   4.297297   5.127094   4.929430
    13  C    7.865039   6.484469   5.710787   6.514850   6.210362
    14  C    8.493099   7.091105   6.535513   7.506189   7.373334
    15  C    7.903083   6.519425   6.226306   7.373374   7.506207
    16  C    6.549476   5.176479   4.987728   6.210411   6.514885
    17  C    5.676949   4.274458   3.807622   4.929471   5.127131
    18  C    4.229319   2.829602   2.520211   3.785394   4.304045
    19  O    3.902124   2.618483   2.935221   4.303246   5.121789
    20  C    3.698366   2.411469   1.441181   2.460670   2.850738
    21  H    1.093384   2.002498   3.271471   3.828479   5.244428
    22  H    1.101973   2.092474   2.736303   2.740333   4.081747
    23  H    1.100871   2.087825   2.739490   2.782424   4.121129
    24  H    2.427958   2.658976   2.149255   1.082333   2.152609
    25  H    4.777462   4.546502   3.389556   2.152584   1.082351
    26  H    6.815709   6.384396   5.098794   4.120456   2.781969
    27  H    8.001120   7.381250   6.016926   5.244537   3.828591
    28  H    6.776688   6.344244   5.051349   4.082829   2.741173
    29  H    8.540739   7.196233   6.278331   6.902529   6.383363
    30  H    9.579088   8.177495   7.605127   8.540591   8.332955
    31  H    8.637894   7.285686   7.130539   8.333005   8.540615
    32  H    6.259857   4.963211   5.064236   6.383410   6.902564
                    6          7          8          9         10
     6  C    0.000000
     7  O    1.377896   0.000000
     8  C    2.391605   1.402613   0.000000
     9  C    1.441202   2.411459   3.698351   0.000000
    10  C    2.520194   2.829629   4.229088   1.458187   0.000000
    11  O    2.935208   2.618683   3.901644   2.422818   1.269829
    12  C    3.807581   4.274337   5.676776   2.469109   1.462832
    13  C    4.987696   5.176369   6.549209   3.769073   2.476315
    14  C    6.226248   6.519249   7.902859   4.913274   3.760600
    15  C    6.535471   7.090909   8.493025   5.120440   4.290161
    16  C    5.710736   6.484263   7.865060   4.275628   3.806791
    17  C    4.297266   5.108268   6.477403   2.861394   2.535711
    18  C    3.837414   4.951731   6.198579   2.556489   3.006726
    19  O    4.901064   6.101241   7.279367   3.740219   4.274798
    20  C    2.490634   3.736757   4.880059   1.470026   2.556523
    21  H    6.016827   7.381154   8.001129   5.719898   6.949844
    22  H    5.049818   6.342879   6.775309   5.089096   6.428807
    23  H    5.099884   6.385354   6.816945   5.145634   6.527341
    24  H    3.389545   4.546545   4.777659   3.931806   5.382989
    25  H    2.149293   2.659092   2.428232   3.448960   4.665415
    26  H    2.738409   2.087712   1.100850   4.079936   4.724615
    27  H    3.271455   2.002460   1.093372   4.413019   4.635087
    28  H    2.737449   2.092614   1.101983   4.093393   4.813137
    29  H    5.064250   4.963197   6.259499   4.062863   2.619737
    30  H    7.130484   7.285518   8.637613   5.877502   4.623406
    31  H    7.605077   8.177278   9.579028   6.182881   5.378539
    32  H    6.278254   7.195990   8.540829   4.874466   4.662867
                   11         12         13         14         15
    11  O    0.000000
    12  C    2.362078   0.000000
    13  C    2.771226   1.414868   0.000000
    14  C    4.152847   2.444550   1.381648   0.000000
    15  C    5.010395   2.828268   2.418979   1.417957   0.000000
    16  C    4.804983   2.443168   2.780391   2.418964   1.381651
    17  C    3.672429   1.426854   2.443158   2.828240   2.444547
    18  C    4.274806   2.535739   3.806811   4.290148   3.760591
    19  O    5.541858   3.672437   4.804973   5.010343   4.152791
    20  C    3.740249   2.861462   4.275709   5.120492   4.913322
    21  H    8.090848   7.041124   8.383276   8.862281   8.118313
    22  H    7.411471   6.854125   8.238002   8.952698   8.461561
    23  H    7.563545   6.907717   8.310801   8.991609   8.443293
    24  H    6.171078   6.188191   7.582661   8.544364   8.343224
    25  H    4.982537   5.905753   7.130091   8.343222   8.544418
    26  H    4.449287   6.169576   7.091123   8.440711   8.989171
    27  H    4.019173   6.072068   6.746178   8.117969   8.862111
    28  H    4.651570   6.197808   7.151036   8.463736   8.955139
    29  H    2.380695   2.132069   1.085025   2.158978   3.417393
    30  H    4.791644   3.428790   2.147282   1.088481   2.178680
    31  H    6.072909   3.916742   3.405162   2.178691   1.088479
    32  H    5.752647   3.406906   3.864865   3.417388   2.158991
                   16         17         18         19         20
    16  C    0.000000
    17  C    1.414858   0.000000
    18  C    2.476289   1.462849   0.000000
    19  O    2.771167   2.362076   1.269811   0.000000
    20  C    3.769087   2.469150   1.458193   2.422793   0.000000
    21  H    6.746568   6.072332   4.635385   4.019747   4.413087
    22  H    7.149023   6.195692   4.811304   4.650184   4.091625
    23  H    7.093704   6.172017   4.727029   4.451969   4.081704
    24  H    7.130099   5.905753   4.665459   4.982668   3.448918
    25  H    7.582728   6.188262   5.383143   6.171324   3.931858
    26  H    8.308531   6.905516   6.525550   7.561964   5.144058
    27  H    8.383223   7.041074   6.950029   8.091217   5.719974
    28  H    8.240529   6.856540   6.431311   7.414214   5.091077
    29  H    3.864867   3.406911   4.662915   5.752662   4.874585
    30  H    3.405146   3.916716   5.378528   6.072854   6.182940
    31  H    2.147286   3.428786   4.623386   4.791571   5.877538
    32  H    1.085024   2.132045   2.619661   2.380577   4.062816
                   21         22         23         24         25
    21  H    0.000000
    22  H    1.783626   0.000000
    23  H    1.784378   1.781631   0.000000
    24  H    3.510926   2.202672   2.262445   0.000000
    25  H    5.870195   4.546663   4.580687   2.442468   0.000000
    26  H    7.888631   6.486402   6.769750   4.580522   2.263265
    27  H    9.062304   7.854591   7.890023   5.870381   3.511191
    28  H    7.856123   6.685704   6.488960   4.547376   2.202493
    29  H    9.145892   8.834186   8.945306   7.981674   7.200915
    30  H    9.942083  10.024959  10.077952   9.588942   9.269677
    31  H    8.743833   9.237433   9.199619   9.269690   9.588998
    32  H    6.289974   6.943082   6.829990   7.200918   7.981739
                   26         27         28         29         30
    26  H    0.000000
    27  H    1.784412   0.000000
    28  H    1.781626   1.783568   0.000000
    29  H    6.827387   6.289463   6.944830   0.000000
    30  H    9.196982   8.743416   9.239513   2.500669   0.000000
    31  H   10.075505   9.941926  10.027464   4.322609   2.511989
    32  H    8.943156   9.145924   8.836802   4.948914   4.322607
                   31         32
    31  H    0.000000
    32  H    2.500693   0.000000
 Symmetry turned off by external request.
 Stoichiometry    C16H12O4(2-)
 Framework group  C1[X(C16H12O4)]
 Deg. of freedom    90
 Full point group                 C1      NOp   1
 Rotational constants (GHZ):           0.4657499           0.3093089           0.1873984
 Leave Link  202 at Wed Dec 27 20:23:06 2023, MaxMem=  4026531840 cpu:               0.2 elap:               0.1
 (Enter /sysapps/ubuntu-applications/gaussian/Gaussian/AVX2/g16/l301.exe)
 Standard basis: 6-311++G(d,p) (5D, 7F)
 Ernie: Thresh=  0.10000D-02 Tol=  0.10000D-05 Strict=F.
   524 basis functions,   828 primitive gaussians,   544 cartesian basis functions
    71 alpha electrons       71 beta electrons
       nuclear repulsion energy      1480.2323033907 Hartrees.
 IExCor=  402 DFT=T Ex+Corr=B3LYP ExCW=0 ScaHFX=  0.200000
 ScaDFX=  0.800000  0.720000  1.000000  0.810000 ScalE2=  1.000000  1.000000
 IRadAn=      5 IRanWt=     -1 IRanGd=            0 ICorTp=0 IEmpDi=  4
 NAtoms=   32 NActive=   32 NUniq=   32 SFac= 1.00D+00 NAtFMM=   60 NAOKFM=F Big=F
 Integral buffers will be    131072 words long.
 Raffenetti 2 integral format.
 Two-electron integral symmetry is turned off.
 Leave Link  301 at Wed Dec 27 20:23:06 2023, MaxMem=  4026531840 cpu:               1.0 elap:               0.2
 (Enter /sysapps/ubuntu-applications/gaussian/Gaussian/AVX2/g16/l302.exe)
 NPDir=0 NMtPBC=     1 NCelOv=     1 NCel=       1 NClECP=     1 NCelD=      1
         NCelK=      1 NCelE2=     1 NClLst=     1 CellRange=     0.0.
 One-electron integrals computed using PRISM.
 NBasis=   524 RedAO= T EigKep=  1.41D-06  NBF=   524
 NBsUse=   517 1.00D-06 EigRej=  6.78D-07 NBFU=   517
 Precomputing XC quadrature grid using
 IXCGrd= 4 IRadAn=           5 IRanWt=          -1 IRanGd=           0 AccXCQ= 0.00D+00.
 Generated NRdTot=       0 NPtTot=           0 NUsed=           0 NTot=          32
 NSgBfM=   542   542   542   542   542 MxSgAt=    32 MxSgA2=    32.
 Leave Link  302 at Wed Dec 27 20:23:07 2023, MaxMem=  4026531840 cpu:               4.9 elap:               0.7
 (Enter /sysapps/ubuntu-applications/gaussian/Gaussian/AVX2/g16/l303.exe)
 DipDrv:  MaxL=1.
 Leave Link  303 at Wed Dec 27 20:23:07 2023, MaxMem=  4026531840 cpu:               1.3 elap:               0.2
 (Enter /sysapps/ubuntu-applications/gaussian/Gaussian/AVX2/g16/l401.exe)
 ExpMin= 3.60D-02 ExpMax= 8.59D+03 ExpMxC= 1.30D+03 IAcc=3 IRadAn=         5 AccDes= 0.00D+00
 Harris functional with IExCor=  402 and IRadAn=       5 diagonalized for initial guess.
 HarFok:  IExCor=  402 AccDes= 0.00D+00 IRadAn=         5 IDoV= 1 UseB2=F ITyADJ=14
 ICtDFT=  3500011 ScaDFX=  1.000000  1.000000  1.000000  1.000000
 FoFCou: FMM=F IPFlag=           0 FMFlag=      100000 FMFlg1=           0
         NFxFlg=           0 DoJE=T BraDBF=F KetDBF=T FulRan=T
         wScrn=  0.000000 ICntrl=       500 IOpCl=  0 I1Cent=   200000004 NGrid=           0
         NMat0=    1 NMatS0=      1 NMatT0=    0 NMatD0=    1 NMtDS0=    0 NMtDT0=    0
 Symmetry not used in FoFCou.
 Harris En= -918.508181335150    
 JPrj=0 DoOrth=F DoCkMO=F.
 Initial guess <Sx>= 0.0000 <Sy>= 0.0000 <Sz>= 0.0000 <S**2>=-0.0000 S=-0.0000
 Leave Link  401 at Wed Dec 27 20:23:10 2023, MaxMem=  4026531840 cpu:              21.9 elap:               2.8
 (Enter /sysapps/ubuntu-applications/gaussian/Gaussian/AVX2/g16/l502.exe)
 Two-electron integral symmetry not used.
 UHF open shell SCF:
 Using DIIS extrapolation, IDIIS=  1040.
 NGot=  4026531840 LenX=  4025931732 LenY=  4025635252
 Requested convergence on RMS density matrix=1.00D-08 within 128 cycles.
 Requested convergence on MAX density matrix=1.00D-06.
 Requested convergence on             energy=1.00D-06.
 No special actions if energy rises.
 Fock matrices will be formed incrementally for  20 cycles.

 Cycle   1  Pass 1  IDiag  1:
 FoFJK:  IHMeth= 1 ICntrl=       0 DoSepK=F KAlg= 0 I1Cent=           0 FoldK=F
 IRaf= 830000000 NMat=       1 IRICut=       1 DoRegI=T DoRafI=F ISym2E= 0 IDoP0=0 IntGTp=1.
 FoFCou: FMM=F IPFlag=           0 FMFlag=      100000 FMFlg1=           0
         NFxFlg=           0 DoJE=F BraDBF=F KetDBF=F FulRan=T
         wScrn=  0.000000 ICntrl=         0 IOpCl=  1 I1Cent=           0 NGrid=           0
         NMat0=    1 NMatS0=      1 NMatT0=    0 NMatD0=    1 NMtDS0=    0 NMtDT0=    0
 Symmetry not used in FoFCou.
 E= -917.341624706468    
 DIIS: error= 4.08D-02 at cycle   1 NSaved=   1.
 NSaved= 1 IEnMin= 1 EnMin= -917.341624706468     IErMin= 1 ErrMin= 4.08D-02
 ErrMax= 4.08D-02  0.00D+00 EMaxC= 1.00D-01 BMatC= 2.82D+00 BMatP= 2.82D+00
 IDIUse=3 WtCom= 5.92D-01 WtEn= 4.08D-01
 Coeff-Com:  0.100D+01
 Coeff-En:   0.100D+01
 Coeff:      0.100D+01
 Gap=     0.063 Goal=   None    Shift=    0.000
 Gap=     0.063 Goal=   None    Shift=    0.000
 GapD=    0.063 DampG=0.500 DampE=0.500 DampFc=0.2500 IDamp=-1.
 Damping current iteration by 2.50D-01
 RMSDP=1.84D+00 MaxDP=1.15D+02              OVMax= 9.75D-01

 Cycle   2  Pass 1  IDiag  1:
 RMSU=  4.07D-01    CP:  3.00D+00
 E= -917.251297892537     Delta-E=        0.090326813932 Rises=F Damp=T
 DIIS: error= 1.51D-02 at cycle   2 NSaved=   2.
 NSaved= 2 IEnMin= 1 EnMin= -917.341624706468     IErMin= 2 ErrMin= 1.51D-02
 ErrMax= 1.51D-02  0.00D+00 EMaxC= 1.00D-01 BMatC= 6.02D-01 BMatP= 2.82D+00
 IDIUse=3 WtCom= 8.49D-01 WtEn= 1.51D-01
 Coeff-Com:  0.402D-02 0.996D+00
 Coeff-En:   0.560D+00 0.440D+00
 Coeff:      0.878D-01 0.912D+00
 Gap=     0.031 Goal=   None    Shift=    0.000
 Gap=     0.031 Goal=   None    Shift=    0.000
 RMSDP=4.62D-01 MaxDP=2.89D+01 DE= 9.03D-02 OVMax= 6.94D-01

 Cycle   3  Pass 1  IDiag  1:
 RMSU=  1.97D-02    CP:  1.00D+00 -4.95D-03
 E= -917.277201756655     Delta-E=       -0.025903864119 Rises=F Damp=F
 DIIS: error= 4.35D-02 at cycle   3 NSaved=   3.
 NSaved= 3 IEnMin= 1 EnMin= -917.341624706468     IErMin= 2 ErrMin= 1.51D-02
 ErrMax= 4.35D-02  0.00D+00 EMaxC= 1.00D-01 BMatC= 2.57D+00 BMatP= 6.02D-01
 IDIUse=2 WtCom= 0.00D+00 WtEn= 1.00D+00
 EnCoef did     3 forward-backward iterations
 Coeff-En:   0.136D+00 0.432D+00 0.432D+00
 Coeff:      0.136D+00 0.432D+00 0.432D+00
 Gap=     0.160 Goal=   None    Shift=    0.000
 Gap=     0.160 Goal=   None    Shift=    0.000
 RMSDP=2.11D-01 MaxDP=1.99D+01 DE=-2.59D-02 OVMax= 9.99D-01

 Cycle   4  Pass 1  IDiag  1:
 RMSU=  1.90D-01    CP:  2.09D+00  9.51D-02 -1.09D+00
 E= -917.340980895711     Delta-E=       -0.063779139055 Rises=F Damp=F
 DIIS: error= 4.68D-02 at cycle   4 NSaved=   4.
 NSaved= 4 IEnMin= 1 EnMin= -917.341624706468     IErMin= 2 ErrMin= 1.51D-02
 ErrMax= 4.68D-02  0.00D+00 EMaxC= 1.00D-01 BMatC= 2.08D+00 BMatP= 6.02D-01
 IDIUse=2 WtCom= 0.00D+00 WtEn= 1.00D+00
 EnCoef did     4 forward-backward iterations
 Coeff-En:   0.771D-01 0.000D+00 0.428D+00 0.495D+00
 Coeff:      0.771D-01 0.000D+00 0.428D+00 0.495D+00
 Gap=    -0.020 Goal=   None    Shift=    0.000
 Gap=    -0.020 Goal=   None    Shift=    0.000
 RMSDP=2.02D-01 MaxDP=1.99D+01 DE=-6.38D-02 OVMax= 9.71D-01

 Cycle   5  Pass 1  IDiag  1:
 RMSU=  1.32D-02    CP:  1.23D+00  6.52D-03 -4.50D-02  5.65D-03
 E= -917.935394783362     Delta-E=       -0.594413887651 Rises=F Damp=F
 DIIS: error= 8.85D-03 at cycle   5 NSaved=   5.
 NSaved= 5 IEnMin= 5 EnMin= -917.935394783362     IErMin= 5 ErrMin= 8.85D-03
 ErrMax= 8.85D-03  0.00D+00 EMaxC= 1.00D-01 BMatC= 1.80D-01 BMatP= 6.02D-01
 IDIUse=3 WtCom= 9.12D-01 WtEn= 8.85D-02
 Coeff-Com: -0.119D+00 0.267D+00 0.194D+00 0.142D+00 0.516D+00
 Coeff-En:   0.000D+00 0.000D+00 0.000D+00 0.152D+00 0.848D+00
 Coeff:     -0.108D+00 0.244D+00 0.177D+00 0.143D+00 0.545D+00
 Gap=     0.046 Goal=   None    Shift=    0.000
 Gap=     0.046 Goal=   None    Shift=    0.000
 RMSDP=1.03D-02 MaxDP=7.75D-01 DE=-5.94D-01 OVMax= 8.73D-02

 Cycle   6  Pass 1  IDiag  1:
 RMSU=  7.33D-03    CP:  1.31D+00  1.02D-02 -2.80D-01  5.94D-03  1.09D+00
 E= -917.948225068672     Delta-E=       -0.012830285310 Rises=F Damp=F
 DIIS: error= 1.57D-02 at cycle   6 NSaved=   6.
 NSaved= 6 IEnMin= 6 EnMin= -917.948225068672     IErMin= 5 ErrMin= 8.85D-03
 ErrMax= 1.57D-02  0.00D+00 EMaxC= 1.00D-01 BMatC= 2.13D-01 BMatP= 1.80D-01
 IDIUse=2 WtCom= 0.00D+00 WtEn= 1.00D+00
 EnCoef did     1 forward-backward iterations
 Coeff-En:   0.000D+00 0.000D+00 0.000D+00 0.132D+00 0.323D+00 0.546D+00
 Coeff:      0.000D+00 0.000D+00 0.000D+00 0.132D+00 0.323D+00 0.546D+00
 Gap=    -0.006 Goal=   None    Shift=    0.000
 Gap=    -0.006 Goal=   None    Shift=    0.000
 RMSDP=2.13D-01 MaxDP=2.56D+01 DE=-1.28D-02 OVMax= 9.98D-01

 Cycle   7  Pass 1  IDiag  1:
 RMSU=  6.24D-02    CP:  1.72D+00  9.47D-02 -6.36D-01  1.04D+00 -6.12D-01
                    CP:  3.91D-01
 E= -917.755123504716     Delta-E=        0.193101563956 Rises=F Damp=F
 DIIS: error= 2.06D-02 at cycle   7 NSaved=   7.
 NSaved= 7 IEnMin= 6 EnMin= -917.948225068672     IErMin= 5 ErrMin= 8.85D-03
 ErrMax= 2.06D-02  0.00D+00 EMaxC= 1.00D-01 BMatC= 5.38D-01 BMatP= 1.80D-01
 IDIUse=2 WtCom= 0.00D+00 WtEn= 1.00D+00
 EnCoef did     4 forward-backward iterations
 Coeff-En:   0.000D+00 0.000D+00 0.000D+00 0.000D+00 0.295D+00 0.449D+00
 Coeff-En:   0.257D+00
 Coeff:      0.000D+00 0.000D+00 0.000D+00 0.000D+00 0.295D+00 0.449D+00
 Coeff:      0.257D+00
 Gap=     0.008 Goal=   None    Shift=    0.000
 Gap=     0.008 Goal=   None    Shift=    0.000
 RMSDP=2.12D-01 MaxDP=2.56D+01 DE= 1.93D-01 OVMax= 9.95D-01

 Cycle   8  Pass 1  IDiag  1:
 RMSU=  4.75D-03    CP:  1.43D+00  1.24D-02 -4.26D-01  9.35D-03  1.49D+00
                    CP:  8.53D-01  6.37D-03
 E= -917.990398187979     Delta-E=       -0.235274683263 Rises=F Damp=F
 DIIS: error= 5.09D-03 at cycle   8 NSaved=   8.
 NSaved= 8 IEnMin= 8 EnMin= -917.990398187979     IErMin= 8 ErrMin= 5.09D-03
 ErrMax= 5.09D-03  0.00D+00 EMaxC= 1.00D-01 BMatC= 2.79D-02 BMatP= 1.80D-01
 IDIUse=3 WtCom= 9.49D-01 WtEn= 5.09D-02
 EnCoef did     7 forward-backward iterations
 Coeff-Com: -0.504D-01 0.599D-01-0.435D-01-0.595D-01 0.151D+00 0.399D+00
 Coeff-Com:  0.198D+00 0.346D+00
 Coeff-En:   0.000D+00 0.000D+00 0.000D+00 0.000D+00 0.000D+00 0.123D+00
 Coeff-En:   0.104D+00 0.773D+00
 Coeff:     -0.479D-01 0.569D-01-0.413D-01-0.565D-01 0.143D+00 0.384D+00
 Coeff:      0.193D+00 0.368D+00
 Gap=     0.017 Goal=   None    Shift=    0.000
 Gap=     0.017 Goal=   None    Shift=    0.000
 RMSDP=2.71D-03 MaxDP=1.77D-01 DE=-2.35D-01 OVMax= 2.40D-02

 Cycle   9  Pass 1  IDiag  1:
 RMSU=  1.44D-03    CP:  1.41D+00  1.19D-02 -4.22D-01  8.53D-03  1.38D+00
                    CP:  1.03D+00  7.92D-03  9.34D-01
 E= -917.992387356220     Delta-E=       -0.001989168241 Rises=F Damp=F
 DIIS: error= 4.62D-03 at cycle   9 NSaved=   9.
 NSaved= 9 IEnMin= 9 EnMin= -917.992387356220     IErMin= 9 ErrMin= 4.62D-03
 ErrMax= 4.62D-03  0.00D+00 EMaxC= 1.00D-01 BMatC= 1.87D-02 BMatP= 2.79D-02
 IDIUse=3 WtCom= 9.54D-01 WtEn= 4.62D-02
 EnCoef did     3 forward-backward iterations
 Coeff-Com: -0.290D-01 0.421D-01-0.372D-01-0.248D-01-0.306D-01 0.966D-01
 Coeff-Com:  0.927D-01 0.159D+00 0.731D+00
 Coeff-En:   0.000D+00 0.000D+00 0.000D+00 0.000D+00 0.000D+00 0.000D+00
 Coeff-En:   0.116D+00 0.631D-01 0.821D+00
 Coeff:     -0.277D-01 0.401D-01-0.355D-01-0.237D-01-0.292D-01 0.922D-01
 Coeff:      0.938D-01 0.155D+00 0.735D+00
 Gap=     0.008 Goal=   None    Shift=    0.000
 Gap=     0.008 Goal=   None    Shift=    0.000
 RMSDP=7.21D-03 MaxDP=4.18D-01 DE=-1.99D-03 OVMax= 9.42D-02

 Cycle  10  Pass 1  IDiag  1:
 RMSU=  3.47D-03    CP:  1.47D+00  1.43D-02 -5.06D-01  2.04D-02  1.47D+00
                    CP:  1.17D+00  3.22D-02  1.60D+00  1.61D+00
 E= -917.997550001311     Delta-E=       -0.005162645091 Rises=F Damp=F
 DIIS: error= 2.35D-03 at cycle  10 NSaved=  10.
 NSaved=10 IEnMin=10 EnMin= -917.997550001311     IErMin=10 ErrMin= 2.35D-03
 ErrMax= 2.35D-03  0.00D+00 EMaxC= 1.00D-01 BMatC= 5.41D-03 BMatP= 1.87D-02
 IDIUse=3 WtCom= 9.77D-01 WtEn= 2.35D-02
 Coeff-Com: -0.217D-02 0.108D-01-0.197D-01 0.558D-02-0.116D+00-0.122D+00
 Coeff-Com:  0.138D-01-0.319D-01 0.643D+00 0.619D+00
 Coeff-En:   0.000D+00 0.000D+00 0.000D+00 0.000D+00 0.000D+00 0.000D+00
 Coeff-En:   0.622D-01 0.000D+00 0.000D+00 0.938D+00
 Coeff:     -0.211D-02 0.105D-01-0.193D-01 0.545D-02-0.114D+00-0.119D+00
 Coeff:      0.149D-01-0.311D-01 0.628D+00 0.627D+00
 Gap=     0.002 Goal=   None    Shift=    0.000
 Gap=     0.002 Goal=   None    Shift=    0.000
 RMSDP=9.84D-02 MaxDP=1.13D+01 DE=-5.16D-03 OVMax= 5.56D-01

 Cycle  11  Pass 1  IDiag  1:
 RMSU=  1.56D-02    CP:  1.61D+00  5.58D-02 -5.93D-01  4.82D-01  6.20D-01
                    CP:  5.57D-01  5.43D-01  2.96D+00  2.35D+00  3.00D+00
 E= -917.974240193628     Delta-E=        0.023309807683 Rises=F Damp=F
 DIIS: error= 5.69D-03 at cycle  11 NSaved=  11.
 NSaved=11 IEnMin=10 EnMin= -917.997550001311     IErMin=10 ErrMin= 2.35D-03
 ErrMax= 5.69D-03  0.00D+00 EMaxC= 1.00D-01 BMatC= 6.34D-02 BMatP= 5.41D-03
 IDIUse=3 WtCom= 9.77D-01 WtEn= 2.35D-02
 Coeff-Com:  0.400D-03 0.676D-02-0.932D-02 0.403D-02-0.835D-01-0.114D+00
 Coeff-Com: -0.116D-01 0.274D-01 0.513D+00 0.540D+00 0.127D+00
 Coeff-En:   0.000D+00 0.000D+00 0.000D+00 0.000D+00 0.000D+00 0.000D+00
 Coeff-En:   0.000D+00 0.000D+00 0.000D+00 0.765D+00 0.235D+00
 Coeff:      0.391D-03 0.660D-02-0.910D-02 0.394D-02-0.816D-01-0.111D+00
 Coeff:     -0.113D-01 0.267D-01 0.501D+00 0.545D+00 0.129D+00
 Gap=     0.006 Goal=   None    Shift=    0.000
 Gap=     0.006 Goal=   None    Shift=    0.000
 RMSDP=2.94D-02 MaxDP=3.42D+00 DE= 2.33D-02 OVMax= 1.30D-01

 Cycle  12  Pass 1  IDiag  1:
 RMSU=  1.81D-03    CP:  1.56D+00  4.37D-02 -5.45D-01  3.40D-01  9.10D-01
                    CP:  6.41D-01  4.01D-01  2.98D+00  2.07D+00  3.00D+00
                    CP:  8.10D-01
 E= -917.993377204428     Delta-E=       -0.019137010800 Rises=F Damp=F
 DIIS: error= 3.75D-03 at cycle  12 NSaved=  12.
 NSaved=12 IEnMin=10 EnMin= -917.997550001311     IErMin=10 ErrMin= 2.35D-03
 ErrMax= 3.75D-03  0.00D+00 EMaxC= 1.00D-01 BMatC= 2.37D-02 BMatP= 5.41D-03
 IDIUse=3 WtCom= 9.77D-01 WtEn= 2.35D-02
 Coeff-Com: -0.132D-02 0.370D-02-0.897D-03 0.207D-02-0.881D-02-0.163D-01
 Coeff-Com: -0.295D-02 0.583D-01 0.216D+00 0.233D+00-0.489D+00 0.101D+01
 Coeff-En:   0.000D+00 0.000D+00 0.000D+00 0.000D+00 0.000D+00 0.000D+00
 Coeff-En:   0.000D+00 0.000D+00 0.000D+00 0.608D+00 0.000D+00 0.392D+00
 Coeff:     -0.128D-02 0.361D-02-0.876D-03 0.202D-02-0.860D-02-0.159D-01
 Coeff:     -0.288D-02 0.570D-01 0.211D+00 0.242D+00-0.477D+00 0.991D+00
 Gap=     0.010 Goal=   None    Shift=    0.000
 Gap=     0.010 Goal=   None    Shift=    0.000
 RMSDP=6.82D-03 MaxDP=5.86D-01 DE=-1.91D-02 OVMax= 1.58D-02

 Cycle  13  Pass 1  IDiag  1:
 RMSU=  2.25D-03    CP:  1.54D+00  4.62D-02 -5.14D-01  3.67D-01  8.10D-01
                    CP:  5.00D-01  4.35D-01  2.92D+00  1.76D+00  3.00D+00
                    CP:  8.91D-01  1.79D+00
 E= -917.994896457088     Delta-E=       -0.001519252660 Rises=F Damp=F
 DIIS: error= 3.32D-03 at cycle  13 NSaved=  13.
 NSaved=13 IEnMin=10 EnMin= -917.997550001311     IErMin=10 ErrMin= 2.35D-03
 ErrMax= 3.32D-03  0.00D+00 EMaxC= 1.00D-01 BMatC= 1.85D-02 BMatP= 5.41D-03
 IDIUse=3 WtCom= 9.77D-01 WtEn= 2.35D-02
 Coeff-Com: -0.726D-03 0.241D-02-0.122D-02 0.299D-03-0.157D-02 0.111D-02
 Coeff-Com:  0.374D-02 0.619D-01 0.193D+00 0.147D+00-0.584D+00 0.885D+00
 Coeff-Com:  0.293D+00
 Coeff-En:   0.000D+00 0.000D+00 0.000D+00 0.000D+00 0.000D+00 0.000D+00
 Coeff-En:   0.000D+00 0.000D+00 0.000D+00 0.577D+00 0.000D+00 0.000D+00
 Coeff-En:   0.423D+00
 Coeff:     -0.709D-03 0.236D-02-0.120D-02 0.292D-03-0.153D-02 0.109D-02
 Coeff:      0.365D-02 0.605D-01 0.188D+00 0.157D+00-0.570D+00 0.864D+00
 Coeff:      0.297D+00
 Gap=     0.011 Goal=   None    Shift=    0.000
 Gap=     0.011 Goal=   None    Shift=    0.000
 RMSDP=8.92D-03 MaxDP=1.05D+00 DE=-1.52D-03 OVMax= 4.18D-02

 Cycle  14  Pass 1  IDiag  1:
 RMSU=  5.81D-04    CP:  1.52D+00  4.25D-02 -4.93D-01  3.25D-01  8.81D-01
                    CP:  5.02D-01  3.92D-01  2.84D+00  1.66D+00  3.00D+00
                    CP:  8.20D-01  1.99D+00  1.07D+00
 E= -917.998835597965     Delta-E=       -0.003939140878 Rises=F Damp=F
 DIIS: error= 2.56D-03 at cycle  14 NSaved=  14.
 NSaved=14 IEnMin=14 EnMin= -917.998835597965     IErMin=10 ErrMin= 2.35D-03
 ErrMax= 2.56D-03  0.00D+00 EMaxC= 1.00D-01 BMatC= 1.01D-02 BMatP= 5.41D-03
 IDIUse=3 WtCom= 9.77D-01 WtEn= 2.35D-02
 Coeff-Com:  0.729D-03 0.852D-04 0.278D-03-0.460D-03 0.113D-02 0.127D-02
 Coeff-Com:  0.420D-02 0.333D-01 0.904D-01 0.220D-01 0.441D-01-0.365D+00
 Coeff-Com: -0.166D+01 0.283D+01
 Coeff-En:   0.000D+00 0.000D+00 0.000D+00 0.000D+00 0.000D+00 0.000D+00
 Coeff-En:   0.000D+00 0.000D+00 0.000D+00 0.443D+00 0.000D+00 0.000D+00
 Coeff-En:   0.000D+00 0.557D+00
 Coeff:      0.712D-03 0.832D-04 0.271D-03-0.449D-03 0.110D-02 0.124D-02
 Coeff:      0.410D-02 0.325D-01 0.883D-01 0.319D-01 0.431D-01-0.356D+00
 Coeff:     -0.162D+01 0.277D+01
 Gap=     0.014 Goal=   None    Shift=    0.000
 Gap=     0.014 Goal=   None    Shift=    0.000
 RMSDP=1.63D-02 MaxDP=1.91D+00 DE=-3.94D-03 OVMax= 8.37D-02

 Cycle  15  Pass 1  IDiag  1:
 RMSU=  7.57D-04    CP:  1.47D+00  3.59D-02 -4.37D-01  2.48D-01  9.80D-01
                    CP:  4.47D-01  3.14D-01  2.58D+00  1.41D+00  3.00D+00
                    CP:  6.83D-01  2.29D+00  1.53D+00  3.00D+00
 E= -918.003106889335     Delta-E=       -0.004271291370 Rises=F Damp=F
 DIIS: error= 5.66D-04 at cycle  15 NSaved=  15.
 NSaved=15 IEnMin=15 EnMin= -918.003106889335     IErMin=15 ErrMin= 5.66D-04
 ErrMax= 5.66D-04  0.00D+00 EMaxC= 1.00D-01 BMatC= 4.31D-04 BMatP= 5.41D-03
 IDIUse=3 WtCom= 9.94D-01 WtEn= 5.66D-03
 Coeff-Com:  0.363D-03-0.218D-03 0.863D-03-0.343D-03 0.282D-02 0.167D-02
 Coeff-Com:  0.105D-02 0.142D-01 0.189D-01-0.108D-01 0.233D+00-0.550D+00
 Coeff-Com: -0.145D+01 0.215D+01 0.589D+00
 Coeff-En:   0.000D+00 0.000D+00 0.000D+00 0.000D+00 0.000D+00 0.000D+00
 Coeff-En:   0.000D+00 0.000D+00 0.000D+00 0.000D+00 0.000D+00 0.000D+00
 Coeff-En:   0.000D+00 0.000D+00 0.100D+01
 Coeff:      0.361D-03-0.217D-03 0.858D-03-0.341D-03 0.280D-02 0.166D-02
 Coeff:      0.105D-02 0.141D-01 0.188D-01-0.108D-01 0.232D+00-0.547D+00
 Coeff:     -0.144D+01 0.214D+01 0.591D+00
 Gap=     0.016 Goal=   None    Shift=    0.000
 Gap=     0.016 Goal=   None    Shift=    0.000
 RMSDP=2.15D-03 MaxDP=2.41D-01 DE=-4.27D-03 OVMax= 1.21D-02

 Cycle  16  Pass 1  IDiag  1:
 RMSU=  4.22D-04    CP:  1.46D+00  3.54D-02 -4.20D-01  2.41D-01  9.73D-01
                    CP:  4.02D-01  3.08D-01  2.51D+00  1.34D+00  3.00D+00
                    CP:  6.81D-01  2.46D+00  1.85D+00  3.00D+00  1.82D+00
 E= -918.003272416609     Delta-E=       -0.000165527274 Rises=F Damp=F
 DIIS: error= 6.15D-05 at cycle  16 NSaved=  16.
 NSaved=16 IEnMin=16 EnMin= -918.003272416609     IErMin=16 ErrMin= 6.15D-05
 ErrMax= 6.15D-05  0.00D+00 EMaxC= 1.00D-01 BMatC= 5.15D-06 BMatP= 4.31D-04
 IDIUse=1 WtCom= 1.00D+00 WtEn= 0.00D+00
 Coeff-Com: -0.740D-05 0.273D-04 0.464D-03-0.134D-03 0.154D-02 0.114D-02
 Coeff-Com: -0.141D-03 0.375D-02 0.190D-02-0.109D-01 0.120D+00-0.254D+00
 Coeff-Com: -0.560D+00 0.780D+00 0.328D+00 0.588D+00
 Coeff:     -0.740D-05 0.273D-04 0.464D-03-0.134D-03 0.154D-02 0.114D-02
 Coeff:     -0.141D-03 0.375D-02 0.190D-02-0.109D-01 0.120D+00-0.254D+00
 Coeff:     -0.560D+00 0.780D+00 0.328D+00 0.588D+00
 Gap=     0.016 Goal=   None    Shift=    0.000
 Gap=     0.016 Goal=   None    Shift=    0.000
 RMSDP=5.54D-04 MaxDP=3.92D-02 DE=-1.66D-04 OVMax= 9.48D-04

 Cycle  17  Pass 1  IDiag  1:
 RMSU=  1.07D-04    CP:  1.46D+00  3.57D-02 -4.18D-01  2.41D-01  9.65D-01
                    CP:  3.87D-01  3.10D-01  2.51D+00  1.36D+00  3.00D+00
                    CP:  6.93D-01  2.49D+00  1.98D+00  3.00D+00  2.17D+00
                    CP:  1.34D+00
 E= -918.003274175959     Delta-E=       -0.000001759350 Rises=F Damp=F
 DIIS: error= 1.61D-05 at cycle  17 NSaved=  17.
 NSaved=17 IEnMin=17 EnMin= -918.003274175959     IErMin=17 ErrMin= 1.61D-05
 ErrMax= 1.61D-05  0.00D+00 EMaxC= 1.00D-01 BMatC= 4.98D-07 BMatP= 5.15D-06
 IDIUse=1 WtCom= 1.00D+00 WtEn= 0.00D+00
 Coeff-Com: -0.310D-04 0.524D-05 0.148D-03-0.265D-04 0.545D-03 0.577D-03
 Coeff-Com: -0.278D-03 0.707D-03-0.662D-03-0.554D-02 0.416D-01-0.786D-01
 Coeff-Com: -0.148D+00 0.185D+00 0.132D+00 0.417D+00 0.455D+00
 Coeff:     -0.310D-04 0.524D-05 0.148D-03-0.265D-04 0.545D-03 0.577D-03
 Coeff:     -0.278D-03 0.707D-03-0.662D-03-0.554D-02 0.416D-01-0.786D-01
 Coeff:     -0.148D+00 0.185D+00 0.132D+00 0.417D+00 0.455D+00
 Gap=     0.016 Goal=   None    Shift=    0.000
 Gap=     0.016 Goal=   None    Shift=    0.000
 RMSDP=3.47D-04 MaxDP=2.46D-02 DE=-1.76D-06 OVMax= 1.15D-03

 Cycle  18  Pass 1  IDiag  1:
 RMSU=  2.80D-05    CP:  1.46D+00  3.58D-02 -4.19D-01  2.43D-01  9.62D-01
                    CP:  3.83D-01  3.12D-01  2.52D+00  1.38D+00  3.00D+00
                    CP:  7.00D-01  2.50D+00  2.03D+00  3.00D+00  2.29D+00
                    CP:  1.57D+00  1.40D+00
 E= -918.003274276977     Delta-E=       -0.000000101018 Rises=F Damp=F
 DIIS: error= 7.27D-06 at cycle  18 NSaved=  18.
 NSaved=18 IEnMin=18 EnMin= -918.003274276977     IErMin=18 ErrMin= 7.27D-06
 ErrMax= 7.27D-06  0.00D+00 EMaxC= 1.00D-01 BMatC= 1.74D-07 BMatP= 4.98D-07
 IDIUse=1 WtCom= 1.00D+00 WtEn= 0.00D+00
 Coeff-Com: -0.377D-05-0.225D-04-0.498D-05 0.129D-04 0.794D-04 0.277D-03
 Coeff-Com: -0.148D-03-0.118D-04-0.603D-03-0.207D-02 0.437D-02-0.254D-02
 Coeff-Com:  0.417D-02-0.222D-01 0.258D-01 0.167D+00 0.331D+00 0.496D+00
 Coeff:     -0.377D-05-0.225D-04-0.498D-05 0.129D-04 0.794D-04 0.277D-03
 Coeff:     -0.148D-03-0.118D-04-0.603D-03-0.207D-02 0.437D-02-0.254D-02
 Coeff:      0.417D-02-0.222D-01 0.258D-01 0.167D+00 0.331D+00 0.496D+00
 Gap=     0.016 Goal=   None    Shift=    0.000
 Gap=     0.016 Goal=   None    Shift=    0.000
 RMSDP=1.17D-04 MaxDP=9.53D-03 DE=-1.01D-07 OVMax= 1.78D-04

 Cycle  19  Pass 1  IDiag  1:
 RMSU=  8.56D-06    CP:  1.46D+00  3.59D-02 -4.20D-01  2.43D-01  9.61D-01
                    CP:  3.82D-01  3.12D-01  2.52D+00  1.39D+00  3.00D+00
                    CP:  7.02D-01  2.50D+00  2.06D+00  3.00D+00  2.39D+00
                    CP:  1.65D+00  1.72D+00  1.16D+00
 E= -918.003274303399     Delta-E=       -0.000000026422 Rises=F Damp=F
 DIIS: error= 8.08D-06 at cycle  19 NSaved=  19.
 NSaved=19 IEnMin=19 EnMin= -918.003274303399     IErMin=18 ErrMin= 7.27D-06
 ErrMax= 8.08D-06  0.00D+00 EMaxC= 1.00D-01 BMatC= 9.50D-08 BMatP= 1.74D-07
 IDIUse=1 WtCom= 1.00D+00 WtEn= 0.00D+00
 Coeff-Com: -0.666D-05 0.697D-05-0.221D-04 0.116D-04-0.146D-04 0.142D-03
 Coeff-Com: -0.367D-04-0.152D-03-0.227D-03-0.100D-02-0.271D-02 0.811D-02
 Coeff-Com:  0.198D-01-0.351D-01-0.518D-02 0.291D-01 0.118D+00 0.298D+00
 Coeff-Com:  0.572D+00
 Coeff:     -0.666D-05 0.697D-05-0.221D-04 0.116D-04-0.146D-04 0.142D-03
 Coeff:     -0.367D-04-0.152D-03-0.227D-03-0.100D-02-0.271D-02 0.811D-02
 Coeff:      0.198D-01-0.351D-01-0.518D-02 0.291D-01 0.118D+00 0.298D+00
 Coeff:      0.572D+00
 Gap=     0.016 Goal=   None    Shift=    0.000
 Gap=     0.016 Goal=   None    Shift=    0.000
 RMSDP=1.45D-04 MaxDP=1.82D-02 DE=-2.64D-08 OVMax= 6.93D-04

 Cycle  20  Pass 1  IDiag  1:
 RMSU=  4.97D-06    CP:  1.46D+00  3.59D-02 -4.20D-01  2.42D-01  9.62D-01
                    CP:  3.81D-01  3.12D-01  2.52D+00  1.40D+00  3.00D+00
                    CP:  7.02D-01  2.50D+00  2.07D+00  3.00D+00  2.45D+00
                    CP:  1.72D+00  1.85D+00  1.37D+00  1.57D+00
 E= -918.003274340260     Delta-E=       -0.000000036861 Rises=F Damp=F
 DIIS: error= 6.51D-06 at cycle  20 NSaved=  20.
 NSaved=20 IEnMin=20 EnMin= -918.003274340260     IErMin=20 ErrMin= 6.51D-06
 ErrMax= 6.51D-06  0.00D+00 EMaxC= 1.00D-01 BMatC= 5.14D-08 BMatP= 9.50D-08
 IDIUse=1 WtCom= 1.00D+00 WtEn= 0.00D+00
 Coeff-Com:  0.211D-05-0.180D-05-0.647D-05 0.244D-05-0.264D-04-0.301D-04
 Coeff-Com:  0.142D-04-0.830D-04 0.289D-04 0.106D-03-0.179D-02 0.293D-02
 Coeff-Com:  0.379D-02-0.254D-02-0.332D-02-0.151D-01-0.288D-01-0.220D-01
 Coeff-Com:  0.982D-01 0.969D+00
 Coeff:      0.211D-05-0.180D-05-0.647D-05 0.244D-05-0.264D-04-0.301D-04
 Coeff:      0.142D-04-0.830D-04 0.289D-04 0.106D-03-0.179D-02 0.293D-02
 Coeff:      0.379D-02-0.254D-02-0.332D-02-0.151D-01-0.288D-01-0.220D-01
 Coeff:      0.982D-01 0.969D+00
 Gap=     0.016 Goal=   None    Shift=    0.000
 Gap=     0.016 Goal=   None    Shift=    0.000
 RMSDP=6.72D-05 MaxDP=5.40D-03 DE=-3.69D-08 OVMax= 1.18D-04

 Cycle  21  Pass 1  IDiag  1:
 Restarting incremental Fock formation.
 E= -918.003274359375     Delta-E=       -0.000000019115 Rises=F Damp=F
 DIIS: error= 2.25D-06 at cycle  21 NSaved=  20.
 NSaved=20 IEnMin=20 EnMin= -918.003274359375     IErMin=20 ErrMin= 2.25D-06
 ErrMax= 2.25D-06  0.00D+00 EMaxC= 1.00D-01 BMatC= 6.30D-09 BMatP= 5.14D-08
 IDIUse=1 WtCom= 1.00D+00 WtEn= 0.00D+00
 Coeff-Com:  0.494D-06 0.519D-06-0.837D-07-0.109D-04-0.344D-04 0.917D-05
 Coeff-Com: -0.372D-04 0.131D-04 0.179D-03-0.566D-03 0.213D-03-0.700D-03
 Coeff-Com:  0.413D-02-0.925D-03-0.117D-01-0.313D-01-0.567D-01-0.315D-01
 Coeff-Com:  0.462D+00 0.667D+00
 Coeff:      0.494D-06 0.519D-06-0.837D-07-0.109D-04-0.344D-04 0.917D-05
 Coeff:     -0.372D-04 0.131D-04 0.179D-03-0.566D-03 0.213D-03-0.700D-03
 Coeff:      0.413D-02-0.925D-03-0.117D-01-0.313D-01-0.567D-01-0.315D-01
 Coeff:      0.462D+00 0.667D+00
 Gap=     0.016 Goal=   None    Shift=    0.000
 Gap=     0.016 Goal=   None    Shift=    0.000
 RMSDP=2.99D-05 MaxDP=2.14D-03 DE=-1.91D-08 OVMax= 6.91D-05

 Cycle  22  Pass 1  IDiag  1:
 RMSU=  2.64D-05    CP:  1.00D+00
 E= -918.003274362266     Delta-E=       -0.000000002890 Rises=F Damp=F
 DIIS: error= 4.34D-07 at cycle  22 NSaved=  20.
 NSaved=20 IEnMin=20 EnMin= -918.003274362266     IErMin=20 ErrMin= 4.34D-07
 ErrMax= 4.34D-07  0.00D+00 EMaxC= 1.00D-01 BMatC= 2.34D-10 BMatP= 6.30D-09
 IDIUse=1 WtCom= 1.00D+00 WtEn= 0.00D+00
 Coeff-Com: -0.232D-06-0.178D-05-0.184D-05-0.988D-05 0.551D-05-0.626D-05
 Coeff-Com: -0.111D-04 0.827D-04-0.124D-03-0.304D-03-0.530D-03 0.240D-02
 Coeff-Com: -0.313D-03-0.500D-02-0.146D-01-0.316D-01-0.393D-01 0.774D-01
 Coeff-Com:  0.431D+00 0.581D+00
 Coeff:     -0.232D-06-0.178D-05-0.184D-05-0.988D-05 0.551D-05-0.626D-05
 Coeff:     -0.111D-04 0.827D-04-0.124D-03-0.304D-03-0.530D-03 0.240D-02
 Coeff:     -0.313D-03-0.500D-02-0.146D-01-0.316D-01-0.393D-01 0.774D-01
 Coeff:      0.431D+00 0.581D+00
 Gap=     0.016 Goal=   None    Shift=    0.000
 Gap=     0.016 Goal=   None    Shift=    0.000
 RMSDP=1.36D-05 MaxDP=1.01D-03 DE=-2.89D-09 OVMax= 2.72D-05

 Cycle  23  Pass 1  IDiag  1:
 RMSU=  1.20D-06    CP:  1.00D+00  1.47D+00
 E= -918.003274362401     Delta-E=       -0.000000000136 Rises=F Damp=F
 DIIS: error= 1.33D-07 at cycle  23 NSaved=  20.
 NSaved=20 IEnMin=20 EnMin= -918.003274362401     IErMin=20 ErrMin= 1.33D-07
 ErrMax= 1.33D-07  0.00D+00 EMaxC= 1.00D-01 BMatC= 3.90D-11 BMatP= 2.34D-10
 IDIUse=1 WtCom= 1.00D+00 WtEn= 0.00D+00
 Coeff-Com: -0.108D-06-0.370D-06-0.222D-05 0.182D-06-0.264D-05-0.701D-05
 Coeff-Com:  0.188D-04-0.439D-04-0.850D-04 0.136D-03 0.245D-03-0.224D-03
 Coeff-Com: -0.129D-02-0.351D-02-0.829D-02-0.151D-01-0.164D-01 0.126D+00
 Coeff-Com:  0.298D+00 0.621D+00
 Coeff:     -0.108D-06-0.370D-06-0.222D-05 0.182D-06-0.264D-05-0.701D-05
 Coeff:      0.188D-04-0.439D-04-0.850D-04 0.136D-03 0.245D-03-0.224D-03
 Coeff:     -0.129D-02-0.351D-02-0.829D-02-0.151D-01-0.164D-01 0.126D+00
 Coeff:      0.298D+00 0.621D+00
 Gap=     0.016 Goal=   None    Shift=    0.000
 Gap=     0.016 Goal=   None    Shift=    0.000
 RMSDP=3.72D-06 MaxDP=2.89D-04 DE=-1.36D-10 OVMax= 4.64D-06

 Cycle  24  Pass 1  IDiag  1:
 RMSU=  5.52D-07    CP:  1.00D+00  1.60D+00  1.58D+00
 E= -918.003274362432     Delta-E=       -0.000000000030 Rises=F Damp=F
 DIIS: error= 9.31D-08 at cycle  24 NSaved=  20.
 NSaved=20 IEnMin=20 EnMin= -918.003274362432     IErMin=20 ErrMin= 9.31D-08
 ErrMax= 9.31D-08  0.00D+00 EMaxC= 1.00D-01 BMatC= 1.53D-11 BMatP= 3.90D-11
 IDIUse=1 WtCom= 1.00D+00 WtEn= 0.00D+00
 Coeff-Com:  0.187D-05 0.388D-05-0.343D-06 0.265D-05-0.320D-05-0.184D-04
 Coeff-Com:  0.387D-04-0.794D-04 0.240D-04-0.144D-03 0.379D-04 0.586D-03
 Coeff-Com:  0.120D-02 0.200D-02-0.123D-02-0.247D-01-0.318D-01 0.268D-01
 Coeff-Com:  0.380D+00 0.647D+00
 Coeff:      0.187D-05 0.388D-05-0.343D-06 0.265D-05-0.320D-05-0.184D-04
 Coeff:      0.387D-04-0.794D-04 0.240D-04-0.144D-03 0.379D-04 0.586D-03
 Coeff:      0.120D-02 0.200D-02-0.123D-02-0.247D-01-0.318D-01 0.268D-01
 Coeff:      0.380D+00 0.647D+00
 Gap=     0.016 Goal=   None    Shift=    0.000
 Gap=     0.016 Goal=   None    Shift=    0.000
 RMSDP=1.68D-06 MaxDP=1.70D-04 DE=-3.05D-11 OVMax= 6.60D-06

 Cycle  25  Pass 1  IDiag  1:
 RMSU=  4.23D-07    CP:  1.00D+00  1.64D+00  2.16D+00  2.72D+00
 E= -918.003274362439     Delta-E=       -0.000000000008 Rises=F Damp=F
 DIIS: error= 5.00D-08 at cycle  25 NSaved=  20.
 NSaved=20 IEnMin=20 EnMin= -918.003274362439     IErMin=20 ErrMin= 5.00D-08
 ErrMax= 5.00D-08  0.00D+00 EMaxC= 1.00D-01 BMatC= 3.17D-12 BMatP= 1.53D-11
 IDIUse=1 WtCom= 1.00D+00 WtEn= 0.00D+00
 Coeff-Com:  0.381D-06 0.106D-05 0.861D-06-0.230D-06-0.149D-05 0.935D-05
 Coeff-Com: -0.919D-05-0.125D-04-0.289D-04 0.424D-04 0.275D-03 0.533D-03
 Coeff-Com:  0.936D-03 0.834D-03-0.463D-02-0.198D-01-0.189D-01 0.435D-01
 Coeff-Com:  0.154D+00 0.844D+00
 Coeff:      0.381D-06 0.106D-05 0.861D-06-0.230D-06-0.149D-05 0.935D-05
 Coeff:     -0.919D-05-0.125D-04-0.289D-04 0.424D-04 0.275D-03 0.533D-03
 Coeff:      0.936D-03 0.834D-03-0.463D-02-0.198D-01-0.189D-01 0.435D-01
 Coeff:      0.154D+00 0.844D+00
 Gap=     0.016 Goal=   None    Shift=    0.000
 Gap=     0.016 Goal=   None    Shift=    0.000
 RMSDP=6.97D-07 MaxDP=4.68D-05 DE=-7.73D-12 OVMax= 1.82D-06

 Cycle  26  Pass 1  IDiag  1:
 RMSU=  3.36D-07    CP:  1.00D+00  1.65D+00  2.41D+00  2.57D+00  9.44D-01
 E= -918.003274362430     Delta-E=        0.000000000009 Rises=F Damp=F
 DIIS: error= 4.74D-09 at cycle  26 NSaved=  20.
 NSaved=20 IEnMin=19 EnMin= -918.003274362439     IErMin=20 ErrMin= 4.74D-09
 ErrMax= 4.74D-09  0.00D+00 EMaxC= 1.00D-01 BMatC= 4.74D-14 BMatP= 3.17D-12
 IDIUse=1 WtCom= 1.00D+00 WtEn= 0.00D+00
 Coeff-Com:  0.237D-06 0.532D-07-0.123D-06-0.447D-06 0.496D-06 0.679D-05
 Coeff-Com:  0.891D-05-0.350D-04 0.122D-04 0.110D-03 0.238D-03 0.541D-03
 Coeff-Com:  0.829D-03-0.329D-04-0.917D-02-0.148D-01-0.102D-01 0.137D-01
 Coeff-Com:  0.382D+00 0.637D+00
 Coeff:      0.237D-06 0.532D-07-0.123D-06-0.447D-06 0.496D-06 0.679D-05
 Coeff:      0.891D-05-0.350D-04 0.122D-04 0.110D-03 0.238D-03 0.541D-03
 Coeff:      0.829D-03-0.329D-04-0.917D-02-0.148D-01-0.102D-01 0.137D-01
 Coeff:      0.382D+00 0.637D+00
 Gap=     0.016 Goal=   None    Shift=    0.000
 Gap=     0.016 Goal=   None    Shift=    0.000
 RMSDP=2.35D-07 MaxDP=1.55D-05 DE= 9.09D-12 OVMax= 4.68D-07

 Cycle  27  Pass 1  IDiag  1:
 RMSU=  4.42D-08    CP:  1.00D+00  1.65D+00  2.57D+00  2.63D+00  1.01D+00
                    CP:  1.35D+00
 E= -918.003274362451     Delta-E=       -0.000000000020 Rises=F Damp=F
 DIIS: error= 4.04D-09 at cycle  27 NSaved=  20.
 NSaved=20 IEnMin=20 EnMin= -918.003274362451     IErMin=20 ErrMin= 4.04D-09
 ErrMax= 4.04D-09  0.00D+00 EMaxC= 1.00D-01 BMatC= 2.52D-14 BMatP= 4.74D-14
 IDIUse=1 WtCom= 1.00D+00 WtEn= 0.00D+00
 Coeff-Com: -0.775D-07-0.124D-06-0.504D-06-0.131D-05 0.417D-05 0.795D-05
 Coeff-Com: -0.143D-04-0.131D-05 0.926D-05 0.250D-04 0.132D-03 0.255D-03
 Coeff-Com:  0.765D-03-0.154D-02-0.423D-02-0.765D-02-0.167D-01-0.814D-02
 Coeff-Com:  0.392D+00 0.645D+00
 Coeff:     -0.775D-07-0.124D-06-0.504D-06-0.131D-05 0.417D-05 0.795D-05
 Coeff:     -0.143D-04-0.131D-05 0.926D-05 0.250D-04 0.132D-03 0.255D-03
 Coeff:      0.765D-03-0.154D-02-0.423D-02-0.765D-02-0.167D-01-0.814D-02
 Coeff:      0.392D+00 0.645D+00
 Gap=     0.016 Goal=   None    Shift=    0.000
 Gap=     0.016 Goal=   None    Shift=    0.000
 RMSDP=1.75D-07 MaxDP=1.18D-05 DE=-2.05D-11 OVMax= 2.77D-07

 Cycle  28  Pass 1  IDiag  1:
 RMSU=  5.98D-09    CP:  1.00D+00  1.66D+00  2.68D+00  2.64D+00  1.08D+00
                    CP:  1.61D+00  2.06D+00
 E= -918.003274362450     Delta-E=        0.000000000001 Rises=F Damp=F
 DIIS: error= 5.62D-09 at cycle  28 NSaved=  20.
 NSaved=20 IEnMin=19 EnMin= -918.003274362451     IErMin=19 ErrMin= 4.04D-09
 ErrMax= 5.62D-09  0.00D+00 EMaxC= 1.00D-01 BMatC= 3.32D-14 BMatP= 2.52D-14
 IDIUse=1 WtCom= 1.00D+00 WtEn= 0.00D+00
 Large coefficients: NSaved= 20 BigCof=    0.00 CofMax=   10.00 Det=-8.14D-15
 Inversion failed.  Reducing to 19 matrices.
 Large coefficients: NSaved= 19 BigCof=    0.00 CofMax=   10.00 Det=-8.18D-15
 Inversion failed.  Reducing to 18 matrices.
 Large coefficients: NSaved= 18 BigCof=    0.00 CofMax=   10.00 Det=-8.18D-15
 Inversion failed.  Reducing to 17 matrices.
 Large coefficients: NSaved= 17 BigCof=    0.00 CofMax=   10.00 Det=-8.20D-15
 Inversion failed.  Reducing to 16 matrices.
 Large coefficients: NSaved= 16 BigCof=    0.00 CofMax=   10.00 Det=-8.30D-15
 Inversion failed.  Reducing to 15 matrices.
 Coeff-Com:  0.427D-06 0.393D-05 0.105D-04-0.488D-05-0.856D-05-0.155D-04
 Coeff-Com:  0.172D-03 0.135D-03-0.887D-03-0.309D-02-0.878D-02-0.475D-01
 Coeff-Com:  0.112D+00 0.314D+00 0.634D+00
 Coeff:      0.427D-06 0.393D-05 0.105D-04-0.488D-05-0.856D-05-0.155D-04
 Coeff:      0.172D-03 0.135D-03-0.887D-03-0.309D-02-0.878D-02-0.475D-01
 Coeff:      0.112D+00 0.314D+00 0.634D+00
 Gap=     0.016 Goal=   None    Shift=    0.000
 Gap=     0.016 Goal=   None    Shift=    0.000
 RMSDP=1.07D-07 MaxDP=8.57D-06 DE= 9.09D-13 OVMax= 2.81D-07

 Cycle  29  Pass 1  IDiag  1:
 RMSU=  4.65D-09    CP:  1.00D+00  1.66D+00  2.74D+00  2.61D+00  1.11D+00
                    CP:  1.78D+00  2.75D+00  2.19D+00
 E= -918.003274362444     Delta-E=        0.000000000006 Rises=F Damp=F
 DIIS: error= 1.77D-09 at cycle  29 NSaved=  16.
 NSaved=16 IEnMin=14 EnMin= -918.003274362451     IErMin=16 ErrMin= 1.77D-09
 ErrMax= 1.77D-09  0.00D+00 EMaxC= 1.00D-01 BMatC= 4.00D-15 BMatP= 2.52D-14
 IDIUse=1 WtCom= 1.00D+00 WtEn= 0.00D+00
 Large coefficients: NSaved= 16 BigCof=    0.00 CofMax=   10.00 Det=-2.69D-15
 Inversion failed.  Reducing to 15 matrices.
 Coeff-Com:  0.207D-06-0.677D-05-0.261D-04-0.501D-04-0.629D-04 0.627D-04
 Coeff-Com:  0.669D-03 0.639D-03 0.120D-02-0.212D-02-0.834D-01-0.667D-01
 Coeff-Com:  0.195D-01 0.367D+00 0.763D+00
 Coeff:      0.207D-06-0.677D-05-0.261D-04-0.501D-04-0.629D-04 0.627D-04
 Coeff:      0.669D-03 0.639D-03 0.120D-02-0.212D-02-0.834D-01-0.667D-01
 Coeff:      0.195D-01 0.367D+00 0.763D+00
 Gap=     0.016 Goal=   None    Shift=    0.000
 Gap=     0.016 Goal=   None    Shift=    0.000
 RMSDP=1.25D-07 MaxDP=9.30D-06 DE= 5.91D-12 OVMax= 2.24D-07

 Cycle  30  Pass 1  IDiag  1:
 RMSU=  3.15D-08    CP:  1.00D+00  1.66D+00  2.82D+00  2.64D+00  1.18D+00
                    CP:  1.95D+00  3.00D+00  3.00D+00  3.00D+00
 E= -918.003274362419     Delta-E=        0.000000000025 Rises=F Damp=F
 DIIS: error= 8.72D-10 at cycle  30 NSaved=  16.
 NSaved=16 IEnMin=13 EnMin= -918.003274362451     IErMin=16 ErrMin= 8.72D-10
 ErrMax= 8.72D-10  0.00D+00 EMaxC= 1.00D-01 BMatC= 6.07D-16 BMatP= 4.00D-15
 IDIUse=1 WtCom= 1.00D+00 WtEn= 0.00D+00
 Large coefficients: NSaved= 16 BigCof=    0.00 CofMax=   10.00 Det=-6.50D-16
 Inversion failed.  Reducing to 15 matrices.
 Coeff-Com: -0.335D-05-0.160D-04-0.386D-04-0.520D-04 0.957D-04 0.611D-03
 Coeff-Com:  0.920D-03 0.265D-02 0.283D-02-0.432D-01-0.732D-01-0.595D-01
 Coeff-Com:  0.124D+00 0.451D+00 0.594D+00
 Coeff:     -0.335D-05-0.160D-04-0.386D-04-0.520D-04 0.957D-04 0.611D-03
 Coeff:      0.920D-03 0.265D-02 0.283D-02-0.432D-01-0.732D-01-0.595D-01
 Coeff:      0.124D+00 0.451D+00 0.594D+00
 Gap=     0.016 Goal=   None    Shift=    0.000
 Gap=     0.016 Goal=   None    Shift=    0.000
 RMSDP=5.31D-08 MaxDP=4.40D-06 DE= 2.46D-11 OVMax= 1.34D-07

 Cycle  31  Pass 1  IDiag  1:
 RMSU=  2.01D-08    CP:  1.00D+00  1.66D+00  2.85D+00  2.63D+00  1.20D+00
                    CP:  2.01D+00  3.00D+00  3.00D+00  3.00D+00  1.77D+00
 E= -918.003274362433     Delta-E=       -0.000000000014 Rises=F Damp=F
 DIIS: error= 7.81D-10 at cycle  31 NSaved=  16.
 NSaved=16 IEnMin=12 EnMin= -918.003274362451     IErMin=16 ErrMin= 7.81D-10
 ErrMax= 7.81D-10  0.00D+00 EMaxC= 1.00D-01 BMatC= 4.20D-16 BMatP= 6.07D-16
 IDIUse=1 WtCom= 1.00D+00 WtEn= 0.00D+00
 Large coefficients: NSaved= 16 BigCof=    0.00 CofMax=   10.00 Det=-1.33D-16
 Inversion failed.  Reducing to 15 matrices.
 Coeff-Com: -0.118D-04-0.352D-04-0.537D-04 0.953D-04 0.644D-03 0.967D-03
 Coeff-Com:  0.266D-02 0.300D-02-0.408D-01-0.731D-01-0.619D-01 0.124D+00
 Coeff-Com:  0.447D+00 0.692D+00-0.946D-01
 Coeff:     -0.118D-04-0.352D-04-0.537D-04 0.953D-04 0.644D-03 0.967D-03
 Coeff:      0.266D-02 0.300D-02-0.408D-01-0.731D-01-0.619D-01 0.124D+00
 Coeff:      0.447D+00 0.692D+00-0.946D-01
 Gap=     0.016 Goal=   None    Shift=    0.000
 Gap=     0.016 Goal=   None    Shift=    0.000
 RMSDP=6.92D-09 MaxDP=9.33D-07 DE=-1.36D-11 OVMax= 3.46D-08

 SCF Done:  E(UB3LYP) =  -918.003274362     A.U. after   31 cycles
            NFock= 31  Conv=0.69D-08     -V/T= 2.0040
 <Sx>= 0.0000 <Sy>= 0.0000 <Sz>= 0.0000 <S**2>=-0.0000 S=-0.0000
 <L.S>=  0.00000000000    
 KE= 9.143724492952D+02 PE=-5.139960250880D+03 EE= 1.827352223832D+03
 Annihilation of the first spin contaminant:
 S**2 before annihilation    -0.0000,   after     0.0000
 Leave Link  502 at Wed Dec 27 20:32:59 2023, MaxMem=  4026531840 cpu:            4668.2 elap:             589.8
 (Enter /sysapps/ubuntu-applications/gaussian/Gaussian/AVX2/g16/l601.exe)
 Copying SCF densities to generalized density rwf, IOpCl= 1 IROHF=0.

 **********************************************************************

            Population analysis using the SCF density.

 **********************************************************************

 Alpha  occ. eigenvalues --  -18.92186 -18.92185 -18.79875 -18.79875 -10.01664
 Alpha  occ. eigenvalues --  -10.01663  -9.99755  -9.99754  -9.96498  -9.96496
 Alpha  occ. eigenvalues --   -9.94825  -9.94779  -9.93760  -9.93758  -9.93544
 Alpha  occ. eigenvalues --   -9.93499  -9.93071  -9.93038  -9.92476  -9.92432
 Alpha  occ. eigenvalues --   -0.84033  -0.83969  -0.72409  -0.72070  -0.61758
 Alpha  occ. eigenvalues --   -0.60889  -0.54113  -0.53573  -0.51280  -0.51242
 Alpha  occ. eigenvalues --   -0.48847  -0.46058  -0.42343  -0.39575  -0.38302
 Alpha  occ. eigenvalues --   -0.35101  -0.32812  -0.31315  -0.29940  -0.28596
 Alpha  occ. eigenvalues --   -0.26848  -0.25620  -0.25434  -0.24298  -0.23255
 Alpha  occ. eigenvalues --   -0.22040  -0.21799  -0.19399  -0.18962  -0.18659
 Alpha  occ. eigenvalues --   -0.17300  -0.16668  -0.16403  -0.14256  -0.13606
 Alpha  occ. eigenvalues --   -0.13564  -0.12817  -0.11803  -0.11034  -0.10106
 Alpha  occ. eigenvalues --   -0.09707  -0.09564  -0.09082  -0.06447  -0.01687
 Alpha  occ. eigenvalues --   -0.00631  -0.00195   0.02171   0.02951   0.03496
 Alpha  occ. eigenvalues --    0.12278
 Alpha virt. eigenvalues --    0.13917   0.14172   0.15280   0.16430   0.17123
 Alpha virt. eigenvalues --    0.17521   0.17996   0.18576   0.19340   0.19747
 Alpha virt. eigenvalues --    0.20348   0.21096   0.21224   0.22264   0.22662
 Alpha virt. eigenvalues --    0.23429   0.24142   0.24273   0.25866   0.26249
 Alpha virt. eigenvalues --    0.26461   0.26589   0.26898   0.27110   0.27190
 Alpha virt. eigenvalues --    0.27351   0.28186   0.28271   0.28492   0.28940
 Alpha virt. eigenvalues --    0.29130   0.29832   0.30103   0.30493   0.30573
 Alpha virt. eigenvalues --    0.31090   0.31299   0.31783   0.32551   0.32990
 Alpha virt. eigenvalues --    0.33001   0.33246   0.33583   0.33863   0.34108
 Alpha virt. eigenvalues --    0.34229   0.34537   0.34899   0.35278   0.36067
 Alpha virt. eigenvalues --    0.36215   0.36522   0.37032   0.37217   0.38384
 Alpha virt. eigenvalues --    0.38413   0.39284   0.39909   0.40320   0.40406
 Alpha virt. eigenvalues --    0.40845   0.40926   0.41853   0.42060   0.42385
 Alpha virt. eigenvalues --    0.42890   0.43633   0.43984   0.44890   0.45123
 Alpha virt. eigenvalues --    0.45762   0.46295   0.46481   0.46785   0.46966
 Alpha virt. eigenvalues --    0.47893   0.47983   0.48337   0.48571   0.49288
 Alpha virt. eigenvalues --    0.49294   0.49698   0.49835   0.50079   0.51075
 Alpha virt. eigenvalues --    0.51230   0.51412   0.51575   0.52189   0.52352
 Alpha virt. eigenvalues --    0.53268   0.53339   0.54041   0.54347   0.54851
 Alpha virt. eigenvalues --    0.55084   0.55540   0.56033   0.56261   0.56739
 Alpha virt. eigenvalues --    0.57424   0.57666   0.57803   0.57982   0.58832
 Alpha virt. eigenvalues --    0.59566   0.59642   0.60388   0.60692   0.62498
 Alpha virt. eigenvalues --    0.62593   0.64047   0.64395   0.64885   0.66395
 Alpha virt. eigenvalues --    0.66527   0.67154   0.67737   0.69623   0.70996
 Alpha virt. eigenvalues --    0.71582   0.71850   0.73563   0.73943   0.75782
 Alpha virt. eigenvalues --    0.76863   0.77607   0.78361   0.78407   0.78468
 Alpha virt. eigenvalues --    0.79238   0.79325   0.79354   0.80703   0.81546
 Alpha virt. eigenvalues --    0.81690   0.82606   0.83156   0.83972   0.84471
 Alpha virt. eigenvalues --    0.84543   0.85881   0.86218   0.87579   0.87650
 Alpha virt. eigenvalues --    0.88744   0.88812   0.89754   0.90326   0.90718
 Alpha virt. eigenvalues --    0.91276   0.91913   0.92067   0.93094   0.93177
 Alpha virt. eigenvalues --    0.94513   0.94814   0.95364   0.95685   0.96539
 Alpha virt. eigenvalues --    0.96885   0.98278   0.99353   1.00020   1.00371
 Alpha virt. eigenvalues --    1.00561   1.03203   1.03873   1.04187   1.05833
 Alpha virt. eigenvalues --    1.06239   1.07116   1.07289   1.09444   1.10594
 Alpha virt. eigenvalues --    1.11736   1.13154   1.14546   1.14768   1.15376
 Alpha virt. eigenvalues --    1.16659   1.16824   1.18491   1.18778   1.19673
 Alpha virt. eigenvalues --    1.20748   1.21187   1.21542   1.23653   1.23883
 Alpha virt. eigenvalues --    1.24721   1.25530   1.26284   1.26536   1.26691
 Alpha virt. eigenvalues --    1.27263   1.27776   1.28841   1.29649   1.30004
 Alpha virt. eigenvalues --    1.32629   1.32945   1.33355   1.33459   1.36149
 Alpha virt. eigenvalues --    1.36929   1.37036   1.37994   1.39285   1.41343
 Alpha virt. eigenvalues --    1.42373   1.43644   1.45289   1.46323   1.47126
 Alpha virt. eigenvalues --    1.48909   1.50033   1.50554   1.51583   1.52859
 Alpha virt. eigenvalues --    1.54192   1.55034   1.56519   1.56820   1.59918
 Alpha virt. eigenvalues --    1.62105   1.63751   1.64205   1.64719   1.64878
 Alpha virt. eigenvalues --    1.67152   1.69239   1.70233   1.72609   1.74415
 Alpha virt. eigenvalues --    1.74586   1.74988   1.75179   1.76029   1.76279
 Alpha virt. eigenvalues --    1.77406   1.77789   1.78280   1.78649   1.79510
 Alpha virt. eigenvalues --    1.81237   1.81646   1.82216   1.82546   1.85820
 Alpha virt. eigenvalues --    1.86078   1.87864   1.88498   1.88696   1.90574
 Alpha virt. eigenvalues --    1.90854   1.90958   1.92882   1.95295   1.95632
 Alpha virt. eigenvalues --    1.96921   1.97234   1.97727   1.98339   2.01100
 Alpha virt. eigenvalues --    2.01595   2.01601   2.05006   2.05837   2.05946
 Alpha virt. eigenvalues --    2.08591   2.09571   2.10507   2.13109   2.14069
 Alpha virt. eigenvalues --    2.14120   2.14874   2.14969   2.15366   2.16605
 Alpha virt. eigenvalues --    2.18744   2.20530   2.21144   2.22212   2.22324
 Alpha virt. eigenvalues --    2.23172   2.23716   2.26064   2.26527   2.28825
 Alpha virt. eigenvalues --    2.29960   2.31217   2.32251   2.32656   2.33272
 Alpha virt. eigenvalues --    2.35951   2.36499   2.37769   2.39462   2.39659
 Alpha virt. eigenvalues --    2.41306   2.41738   2.43599   2.45055   2.50926
 Alpha virt. eigenvalues --    2.53259   2.54251   2.56789   2.58753   2.62079
 Alpha virt. eigenvalues --    2.62320   2.63611   2.65174   2.66245   2.66523
 Alpha virt. eigenvalues --    2.67298   2.68497   2.69040   2.69791   2.70700
 Alpha virt. eigenvalues --    2.74513   2.75562   2.76358   2.76704   2.80971
 Alpha virt. eigenvalues --    2.85849   2.86353   2.87502   2.89056   2.90587
 Alpha virt. eigenvalues --    2.92204   2.92599   2.94330   2.95150   2.95893
 Alpha virt. eigenvalues --    2.96628   2.96760   2.98528   2.99823   3.00273
 Alpha virt. eigenvalues --    3.01387   3.02872   3.03917   3.04899   3.06709
 Alpha virt. eigenvalues --    3.07946   3.08715   3.09440   3.12109   3.12583
 Alpha virt. eigenvalues --    3.13262   3.13784   3.14313   3.15656   3.20956
 Alpha virt. eigenvalues --    3.21413   3.22569   3.24775   3.26041   3.26539
 Alpha virt. eigenvalues --    3.29773   3.30886   3.32957   3.33916   3.35955
 Alpha virt. eigenvalues --    3.36974   3.38838   3.39489   3.43668   3.45335
 Alpha virt. eigenvalues --    3.45714   3.46475   3.48122   3.48329   3.51511
[...]
 35,-0.00023563,0.00076071,-0.00224796,0.00033314,-0.00020062,0.0025531
 4,-0.00019196,0.00058062,0.00069512,-0.00010712,-0.00020699,-0.0000622
 8,0.00000046,-0.00000161,0.00026322,-0.00002362,-0.00003516,-0.0002164
 0,0.00004152,-0.00000020,0.00010735,-0.00000809,0.00032940,-0.00037926
 ,0.00007613,0.00037651,0.00036175,0.00001893,-0.00019164,-0.00055178,0
 .00007816,-0.00073781,-0.00062448,0.00023930,0.00015714,-0.00002852,-0
 .00003581,0.00010403,-0.00007470,0.00008779,0.00008809,-0.00008118,-0.
 00003199,-0.00001805,-0.00003386,0.00000314,0.00140851,0.00095749,0.00
 006465,-0.00573505,0.01494615,-0.00078927,0.09876212,-0.00003875,-0.00
 002420,0.00002492,-0.00003952,-0.00009954,0.00009306,-0.00009671,-0.00
 006269,-0.00023619,0.00001911,0.00024117,-0.00013977,0.00013047,-0.000
 14890,0.00017072,-0.00337527,0.00299198,-0.00000976,-0.00343689,-0.032
 52375,-0.00117656,0.09684091,-0.25563633,-0.00949990,0.00052025,-0.001
 26863,0.00026696,0.00004878,-0.00060804,0.00037425,-0.00029523,0.00064
 739,-0.00010980,0.00007088,0.00027134,-0.00024992,-0.00001761,-0.00004
 991,0.00002558,-0.00003879,0.00009629,-0.00000727,-0.00004964,-0.00009
 033,0.00000881,0.00006010,0.00006872,0.00001749,0.00002412,-0.00022102
 ,0.00007860,-0.00006139,-0.00019446,-0.00021388,-0.00008153,0.00007161
 ,0.00011255,-0.00015335,0.00032175,-0.00031335,0.00007506,0.00000564,-
 0.00002852,0.00006437,-0.00002463,-0.00001948,0.00003429,-0.00002670,-
 0.00000125,-0.00009059,-0.00005172,0.00016403,-0.00005392,0.00002429,0
 .00016476,0.00270753,-0.00149874,-0.00062300,-0.09638630,0.29139784,0.
 00010420,-0.00005162,-0.00004543,-0.00014523,0.00020576,-0.00004926,0.
 00015823,-0.00011523,-0.00023748,0.00003066,-0.00012375,0.00052906,-0.
 00044686,0.00010290,0.00064366,0.00001743,-0.00032628,0.00109527,-0.00
 004911,-0.00151561,0.00053329,0.00412295,-0.00919577,-0.05084217,-0.00
 000723,-0.00005252,-0.00011738,0.00003852,-0.00013870,-0.00006858,-0.0
 0015121,0.00028739,-0.00013717,0.00002120,0.00013462,0.00013533,0.0000
 2241,-0.00001791,0.00003352,-0.00003127,0.00004763,-0.00005972,-0.0000
 0197,-0.00003817,0.00002386,-0.00000763,0.00001578,-0.00000193,0.00007
 050,-0.00011208,-0.00000416,0.00005891,0.00012450,-0.00002462,-0.00005
 019,-0.00008393,0.00003876,-0.00016479,-0.00002598,0.00022969,0.000051
 08,-0.00001898,0.00001911,0.00000811,0.00001268,0.00004109,0.00004018,
 -0.00002992,-0.00000785,-0.00002167,0.00000822,-0.00004703,0.00025345,
 0.00008310,-0.00082072,0.01118294,-0.02375643,0.00015023,-0.00447789,0
 .01092311,0.04668760,-0.00029264,-0.00001202,0.00004447,0.00009219,-0.
 00049370,0.00000399,0.00131596,0.00032128,-0.00020278,-0.00035603,-0.0
 0082230,0.00019823,0.00111056,-0.00018763,0.00058583,-0.00116264,0.006
 82811,0.00064112,-0.02837136,-0.01123672,-0.02277226,-0.11141167,0.023
 21495,-0.09863250,0.00140956,-0.00083893,0.00006988,-0.00030246,0.0019
 1816,-0.00035852,-0.00067039,-0.00153456,0.00012610,-0.00072955,-0.000
 24772,0.00009100,0.00035370,-0.00002271,0.00003279,-0.00019310,-0.0001
 2778,0.00002920,0.00008502,0.00011042,-0.00005801,-0.00010767,-0.00006
 035,0.00001631,-0.00000463,0.00020135,-0.00002309,0.00028325,0.0000368
 4,0.00003975,-0.00017938,0.00010875,0.00000003,-0.00070871,0.00054582,
 0.00022135,0.00008986,-0.00002826,-0.00000789,0.00009962,0.00002144,-0
 .00006492,0.00007011,0.00000855,0.00000550,-0.00001896,-0.00016394,-0.
 00002580,0.00056355,0.00066050,0.00009177,0.01063134,-0.00210837,0.013
 86621,-0.00554614,0.00366793,-0.01060342,0.13393554,0.00019750,-0.0000
 7802,-0.00006261,-0.00033025,0.00062010,-0.00015516,0.00064105,-0.0001
 6463,-0.00002309,0.00001350,-0.00107318,0.00064946,0.00154719,0.000782
 77,0.00019516,-0.00150614,0.00480084,-0.00124069,-0.01840109,-0.000399
 13,-0.01966200,0.02459554,-0.05929195,0.03891162,-0.00088138,-0.000252
 12,-0.00003579,0.00057446,-0.00006856,-0.00001486,-0.00074456,0.000435
 15,-0.00006937,0.00004943,-0.00000018,-0.00003036,0.00002548,-0.000032
 23,0.,-0.00003447,0.00000973,0.00003233,-0.00002088,-0.00001343,-0.000
 04179,-0.00000286,0.00001703,0.00002723,0.00003008,-0.00002584,0.00006
 572,0.00032737,0.00023537,-0.00006797,-0.00010397,-0.00027296,0.000058
 16,-0.00065028,-0.00013686,0.00047574,0.00010996,-0.00001187,0.0000161
 4,0.00001626,-0.00002515,0.00006110,0.00007209,-0.00006451,0.00000492,
 -0.00001080,-0.00001217,-0.00009837,0.00032031,-0.00209663,-0.00206504
 ,-0.00036482,0.00151141,-0.00423536,0.01431222,-0.00361172,0.02365108,
 -0.01975942,0.05921435,-0.00033004,0.00013792,0.00004056,0.00029889,-0
 .00083966,-0.00010877,0.00132505,0.00079866,0.00021966,-0.00023192,-0.
 00065408,0.00021955,-0.00100493,-0.00006740,-0.00003241,-0.00070069,0.
 00288348,0.00080133,-0.00769850,-0.00868245,0.00533336,-0.09811637,0.0
 3584748,-0.20632776,0.00174809,-0.00069238,0.00000767,-0.00054320,0.00
 171949,-0.00030545,-0.00012536,-0.00150676,0.00019921,-0.00077963,-0.0
 0024138,0.00015497,0.00035654,-0.00000929,0.00002183,-0.00018725,-0.00
 014234,-0.00000885,0.00010673,0.00013012,-0.00000241,-0.00013253,-0.00
 006396,-0.00001186,0.00003348,0.00023599,-0.00005800,0.00027465,0.0002
 0058,0.00000322,-0.00013666,0.00004009,0.00000836,-0.00073767,0.000465
 61,-0.00021241,-0.00007253,-0.00004551,0.00003552,0.00004868,0.0000788
 2,-0.00004546,-0.00001089,0.00003742,-0.00001411,0.00013262,-0.0000569
 4,-0.00013947,0.00107047,0.00018110,-0.00042598,-0.01326179,0.00635084
 ,-0.02250844,0.00196459,0.00021646,0.00232084,0.11668951,-0.03632219,0
 .22083398,0.00004642,-0.00003930,0.00001545,-0.00009726,0.00005066,0.0
 0002467,0.00026606,-0.00020281,-0.00001226,-0.00027086,0.00032567,0.00
 004444,0.00042510,-0.00036339,-0.00001218,-0.00078306,0.00001747,0.000
 02489,0.00015406,-0.00012898,-0.00000472,0.00004683,-0.00006219,0.0000
 3885,0.00199394,-0.00103897,0.00033921,-0.00233122,0.00466016,-0.00073
 670,0.00218852,-0.00382898,0.00066679,0.00125420,0.03022309,-0.0046710
 6,-0.05880732,0.03351482,-0.00621478,0.00581846,-0.02430366,0.00390197
 ,-0.00316742,-0.00236643,-0.00014413,-0.00102714,-0.00014354,0.0000371
 8,-0.00538240,0.00010245,-0.00051859,0.00084549,0.00148636,-0.00019671
 ,-0.00071866,0.00021364,-0.00005477,-0.00012527,0.00058893,-0.00011314
 ,0.00004099,0.00000754,-0.00000908,0.00001960,-0.00001478,-0.00001073,
 -0.00000167,-0.00001300,-0.00002076,-0.00001596,-0.00001230,0.00001052
 ,0.00001466,-0.00001722,-0.00000279,0.00001974,0.00001901,-0.00001807,
 -0.00002141,-0.00001134,-0.00001045,0.00000180,0.00001285,-0.00001236,
 0.05816320,0.00005906,-0.00002011,-0.00000032,-0.00007037,0.00009912,0
 .00001753,-0.00012283,-0.00013218,-0.00000160,0.00001144,0.00022432,-0
 .00000677,0.00011823,-0.00019620,0.00000213,-0.00013671,-0.00000011,0.
 00005721,-0.00004441,-0.00013301,-0.00001432,0.00004951,0.00004204,0.0
 0000532,0.00077567,-0.00024789,0.00008008,-0.00163548,-0.00256060,0.00
 002636,-0.00329491,-0.00006079,-0.00037282,0.00410906,-0.00979870,0.00
 241389,0.03534459,-0.31795645,0.04413208,0.00471531,-0.01215252,0.0025
 3911,-0.00359226,0.00058766,0.00104273,0.00038572,0.00081957,-0.000271
 15,0.00169234,0.00098099,0.00069542,-0.00066319,-0.00071293,-0.0000944
 3,0.00026103,0.00003481,0.00007159,0.00036044,0.00030414,-0.00001848,0
 .00002983,0.00000115,-0.00000766,0.00001049,-0.00001641,0.00000724,0.0
 0000358,-0.00001252,-0.00000806,0.00000225,0.00000370,0.00000518,0.000
 00897,-0.00000523,-0.00001610,0.00000434,0.00001927,0.00000865,0.00003
 984,0.00001293,0.00000794,0.00000422,0.00002166,-0.00000960,-0.0382761
 7,0.34076334,0.00000121,0.00000090,-0.00001804,-0.00000234,-0.00001571
 ,0.00002297,0.00002289,0.00000456,0.00003473,0.00000123,-0.00004476,0.
 00000020,-0.00003310,0.00004119,-0.00003030,0.00002876,0.00005496,0.00
 016321,0.00002155,0.00001444,0.00001160,-0.00002795,-0.00001094,0.0000
 2223,-0.00021416,0.00007475,-0.00015190,0.00048746,0.00013940,-0.00275
 691,0.00068078,-0.00018240,-0.00096771,-0.00105946,0.00348044,0.004154
 69,-0.00632718,0.04399505,-0.04477840,-0.00057351,0.00129494,0.0027818
 4,0.00006282,0.00101042,0.00795117,-0.00003454,-0.00025425,-0.00090047
 ,-0.00070127,0.00057328,0.00530845,0.00011573,0.00017996,-0.00059403,-
 0.00004903,-0.00002243,0.00008255,-0.00007322,-0.00006950,0.00016488,-
 0.00000448,0.00000640,-0.00001150,0.00002356,-0.00001302,-0.00000148,-
 0.00001220,0.00001138,0.00000464,0.00000089,0.00000171,-0.00000780,-0.
 00000350,0.00000113,-0.00002749,0.00000645,-0.00000802,-0.00000188,-0.
 00000630,-0.00000868,-0.00001958,-0.00000115,-0.00000856,-0.00000418,0
 .00733238,-0.04942152,0.03472090,-0.00009687,0.00003452,-0.00000819,0.
 00013408,-0.00014431,-0.00002054,0.00016262,0.00018199,0.00002172,0.00
 002499,-0.00038873,0.00000622,-0.00024151,0.00029491,-0.00001848,0.000
 23672,0.00003758,-0.00007344,0.00009842,0.00025582,0.00003719,-0.00010
 928,-0.00008253,-0.00000356,-0.00107303,-0.00028219,0.00004513,-0.0004
 6522,0.00116261,-0.00026943,-0.00010387,0.00033626,-0.00004440,-0.0009
 9176,-0.00451875,0.00034393,-0.02111368,0.01240712,-0.00276935,-0.2803
 3954,0.08697096,-0.02409046,-0.00277107,-0.00181245,0.00023084,0.00192
 726,0.00165078,-0.00033424,0.00070643,-0.00119458,0.00023928,0.0001692
 4,0.00061407,-0.00005763,-0.00015376,-0.00053814,0.00007929,-0.0003702
 7,-0.00049391,0.00004074,-0.00005462,0.00000017,0.00000891,-0.00001140
 ,0.00002493,-0.00000871,-0.00001056,0.00002334,0.00001691,-0.00000283,
 -0.00000138,-0.00001344,-0.00001585,0.00001268,0.00001888,-0.00000835,
 -0.00003909,-0.00001442,-0.00007552,-0.00002948,-0.00001554,0.00000117
 ,-0.00003567,0.00001746,0.00128258,-0.00040798,0.00033747,0.30266887,0
 .00004289,-0.00000911,0.00000262,-0.00006205,0.00008337,0.00000628,0.0
 0001201,-0.00006644,-0.00000553,-0.00000281,0.00001487,-0.00003077,-0.
 00003022,-0.00002747,0.00005185,-0.00005661,0.00015543,-0.00000134,-0.
 00005293,-0.00010916,-0.00002338,0.00005684,0.00004795,-0.00000001,-0.
 00028416,-0.00013330,-0.00017779,-0.00004831,0.00111161,-0.00011816,0.
 00008430,-0.00034646,0.00012749,-0.00310007,-0.00221274,0.00146894,-0.
 01881648,0.01033926,-0.00215148,0.08682493,-0.09074120,0.01338057,0.03
 008479,-0.00461580,0.00188303,-0.00082283,-0.00609564,0.00158750,-0.00
 097055,-0.00041575,-0.00004552,0.00039067,-0.00036987,-0.00000078,0.00
 018823,0.00052552,-0.00009645,0.00006838,-0.00008185,0.00002809,0.0000
 1572,0.00000007,-0.00000204,0.00000288,-0.00000599,0.00000498,0.000003
 55,-0.00000897,-0.00000501,0.00000484,0.00000035,-0.00000017,-0.000020
 77,0.00000112,-0.00000442,-0.00000212,0.00001132,0.00000804,0.00002444
 ,0.00000531,0.00000993,-0.00000126,0.00000931,-0.00000749,0.00073172,0
 .00079047,-0.00085005,-0.09472556,0.09149688,0.00000421,-0.00001441,0.
 00001414,-0.00002284,0.00001285,-0.00001783,0.00003141,0.00001186,0.00
 020746,0.00002862,-0.00004986,-0.00009376,-0.00001878,0.00004881,0.000
 18775,-0.00000189,-0.00002513,0.00000853,0.00001789,0.00007255,-0.0000
 4908,-0.00001404,-0.00001004,0.00000229,-0.00007376,-0.00000719,-0.001
 07446,0.00019716,-0.00001650,0.00064848,-0.00003709,0.00014366,0.00033
 969,0.00006947,0.00128201,0.00763179,0.00188568,-0.00077141,0.00151757
 ,-0.02393957,0.01328518,-0.02964991,-0.00472413,0.00058724,-0.00100349
 ,0.00005202,0.00175872,0.00483519,0.00007292,-0.00005554,-0.00034089,0
 .00004104,-0.00008756,-0.00092440,-0.00002993,-0.00009528,-0.00004186,
 -0.00004193,-0.00005373,0.00015188,0.00000763,0.00000320,0.00000217,-0
 .00000778,0.00000663,-0.00000425,0.00000836,-0.00000686,-0.00000483,-0
 .00000608,-0.00000673,-0.00001135,-0.00000680,-0.00000965,-0.00001716,
 -0.00000264,-0.00000978,-0.00001023,-0.00001293,-0.00001193,0.00001132
 ,0.00000963,-0.00000430,0.00001102,0.00013761,-0.00096035,-0.00480854,
 0.02633833,-0.01475390,0.02413603,-0.00010115,0.00003217,0.00000088,0.
 00013899,-0.00017560,-0.00002134,0.00021950,-0.00001675,0.00007770,-0.
 00014252,-0.00033463,-0.00001401,-0.00009107,0.00035593,0.00000604,0.0
 0020059,-0.00009746,-0.00002064,0.00006783,0.00014092,0.00002213,-0.00
 006667,-0.00005390,0.00000443,-0.00046757,0.00037180,-0.00007102,0.000
 40858,-0.00035911,0.00010902,-0.00019216,0.00031029,-0.00005029,-0.000
 02428,0.00132063,-0.00019151,0.00144590,0.00071116,-0.00030713,0.00518
 239,0.00495259,-0.00051036,-0.21266073,-0.12683827,0.01035487,-0.02004
 307,-0.02217373,0.00225676,-0.00327017,0.00410890,-0.00120310,0.000008
 03,-0.00151952,0.00025611,-0.00000294,-0.00022930,-0.00001301,-0.00115
 256,-0.00004573,0.00000754,-0.00006967,0.00000694,0.00000754,-0.000008
 12,0.00003007,-0.00001500,-0.00001919,0.00002968,0.00001095,-0.0000166
 6,-0.00001804,-0.00001658,-0.00000212,0.00000099,0.00001322,-0.0000018
 3,-0.00002090,-0.00001468,-0.00004476,-0.00001393,-0.00001048,-0.00000
 312,-0.00002431,0.00000662,0.00006530,0.00025567,-0.00005242,0.0008608
 3,-0.00083868,0.00028291,0.22846627,-0.00010436,0.00003912,-0.00000164
 ,0.00013316,-0.00014720,-0.00002869,0.00007740,0.00016751,0.00002503,-
 0.00000898,-0.00012625,0.00005291,-0.00003047,0.00013057,-0.00003101,0
 .00007472,-0.00010230,-0.00001158,0.00005711,0.00015026,0.00001581,-0.
 00006195,-0.00004131,0.00000298,-0.00019453,0.00001623,0.00000487,-0.0
 0013791,-0.00061378,0.00001430,-0.00041562,0.00056542,-0.00012991,0.00
 109809,0.00032501,-0.00006668,0.00318785,-0.00559865,0.00167909,-0.026
 93857,-0.01274315,0.00052484,-0.12669716,-0.15985468,0.01404320,0.0090
 4752,0.00925345,-0.00076862,0.00268469,0.00011838,0.00135494,-0.000304
 78,0.00063423,-0.00004183,0.00002102,-0.00044723,0.00013039,-0.0000370
 6,-0.00005376,-0.00017819,-0.00004871,0.00000014,0.00001143,-0.0000042
 4,0.00001943,-0.00001276,-0.00000791,0.00002144,0.00001182,0.00001512,
 0.00000197,-0.00000928,-0.00000552,-0.00000091,0.00000388,-0.00000108,
 -0.00001692,-0.00001021,-0.00003050,-0.00000917,-0.00000648,-0.0000020
 7,-0.00001482,0.00000725,-0.00120764,-0.00057461,0.00013889,0.00085147
 ,0.00088398,-0.00040090,0.13951177,0.16726340,0.00001106,-0.00000318,0
 .00000275,-0.00003043,0.00005533,-0.00005138,0.00001905,-0.00002256,0.
 00001302,-0.00001048,0.00003591,0.00018725,-0.00001262,-0.00003956,-0.
 00009406,-0.00003275,-0.00000396,0.00020445,0.00002175,0.00002620,-0.0
 0001602,-0.00000327,-0.00001796,0.00001442,0.00002871,-0.00002378,0.00
 015135,0.00004314,-0.00010956,-0.00092040,0.00004862,-0.00006436,-0.00
 004303,-0.00003195,-0.00001702,-0.00035092,-0.00071047,0.00161989,0.00
 481957,0.00439352,0.00214224,-0.00083347,0.01024279,0.01389762,-0.0282
 1125,-0.00239187,-0.00218415,0.00153172,-0.00089704,0.00132128,0.00757
 811,-0.00021055,-0.00013984,0.00065032,-0.00002293,0.00013317,0.000340
 81,0.00006942,0.00002033,-0.00107224,0.00001223,-0.00000744,0.00001240
 ,-0.00000845,-0.00000582,0.00000997,0.00000510,-0.00000710,-0.00000952
 ,0.00000956,-0.00000761,-0.00001746,0.00000828,-0.00000451,-0.00001041
 ,-0.00000577,-0.00000997,-0.00000587,-0.00001050,0.00000013,0.00000131
 ,0.00000543,0.00000770,-0.00000361,0.00016359,0.00021067,0.00052144,-0
 .00001386,-0.00048247,-0.00216676,-0.01110424,-0.01542534,0.02257220,0
 .00004284,0.00006298,-0.00003735,0.00007697,0.00019474,0.00001335,-0.0
 0073861,-0.00025900,-0.00008031,0.00029216,0.00051989,0.00002807,-0.00
 012319,-0.00043623,-0.00004878,0.00013257,0.00028889,0.00001878,-0.000
 08379,-0.00011038,-0.00003397,0.00004657,0.00006216,-0.00001264,0.0001
 8577,-0.00062456,0.00011008,0.00093412,-0.00095595,0.00027225,-0.00051
 040,-0.00039003,0.00000347,-0.00426849,-0.00182618,-0.00013096,-0.0007
 8773,-0.00036505,0.00005018,-0.00451273,0.00066492,-0.00069655,-0.0014
 3837,0.02765813,-0.00448504,-0.06256010,0.04716453,-0.00810990,0.01010
 867,-0.02388598,0.00378590,-0.00148342,-0.00431322,0.00070326,-0.00006
 112,0.00384160,-0.00045573,0.00170775,0.00166663,-0.00025705,-0.000010
 73,0.00000422,0.00000783,0.00000777,-0.00001677,0.00001496,0.00002608,
 -0.00001617,0.00001568,0.00000999,0.00002205,0.00000898,-0.00001674,0.
 00000556,-0.00001174,-0.00000656,0.00001450,0.00002197,0.00004816,0.00
 000644,0.00001416,0.00001523,0.00002561,0.00000894,0.00010269,0.000002
 70,0.00005260,-0.00026418,0.00129920,-0.00024469,0.00131614,-0.0005208
 3,0.00041495,0.06181269,-0.00004850,0.00004500,-0.00000753,0.00011166,
 -0.00005378,-0.00000816,-0.00010585,-0.00004122,0.00004064,0.00004042,
 -0.00006605,0.00000721,-0.00012399,0.00007867,-0.00002472,0.00020881,0
 .00000024,0.00001042,0.00001082,0.00008752,0.00000998,-0.00003791,-0.0
 0002012,-0.00000622,-0.00039796,-0.00001428,-0.00000063,0.00119939,-0.
 00080788,0.00001972,-0.00044031,-0.00017582,0.00006500,-0.00341820,-0.
 00015853,0.00064298,-0.00089324,0.00057724,-0.00029703,0.00188722,0.00
 196491,0.00107520,-0.00135462,-0.00473019,0.00110846,0.04533295,-0.314
 14318,0.04404183,0.00222817,-0.01885408,0.00367504,0.00198292,-0.00343
 364,0.00032640,0.00330223,0.00225019,-0.00040210,-0.00014465,0.0000417
 1,-0.00003315,-0.00004730,0.00000223,0.00000829,-0.00000831,0.00001478
 ,-0.00000564,-0.00000247,0.00001254,0.00001369,-0.00000358,-0.00000091
 ,-0.00001441,-0.00000896,0.00000485,0.00000147,-0.00000132,-0.00000891
 ,-0.00000147,-0.00001469,-0.00000580,-0.00000526,-0.00000058,-0.000011
 76,0.00001012,0.00007636,-0.00012491,-0.00011399,-0.00016446,-0.000237
 10,0.00013831,0.00062034,0.00075420,-0.00089426,-0.04978440,0.33705406
 ,0.00003070,0.00000163,0.00002171,-0.00002094,0.00001431,0.00001091,-0
 .00008252,0.00003092,0.00015897,0.00003233,0.00007101,-0.00002853,0.00
 000675,-0.00006032,-0.00000169,-0.00001749,0.00000903,0.00003532,0.000
 00249,-0.00001886,0.00002195,0.00000091,0.00000340,-0.00001874,0.00008
 845,-0.00007030,0.00017233,-0.00009316,0.00009467,-0.00058889,0.000025
 82,-0.00002446,0.00008542,0.00007008,0.00064955,0.00533186,0.00011026,
 -0.00023564,-0.00089689,-0.00087598,0.00093102,0.00791958,-0.00003722,
 0.00250772,0.00261544,-0.00797067,0.04402053,-0.04484023,0.00018956,0.
 00250343,0.00436061,-0.00043276,-0.00019859,-0.00273918,-0.00054848,-0
 .00021976,-0.00101574,0.00025728,0.00020785,-0.00015427,0.00000821,-0.
 00000643,-0.00001890,0.00000433,-0.00000860,-0.00000337,-0.00000278,-0
 .00001001,-0.00000127,0.00000444,0.00000314,-0.00002712,-0.00000194,0.
 00000179,-0.00000829,0.00000773,0.00001519,0.00000602,0.00000484,0.000
 00784,-0.00001086,-0.00001776,-0.00001885,-0.00000193,0.00002572,-0.00
 011996,-0.00086531,-0.00002664,0.00019743,0.00051350,0.00019914,-0.000
 89851,-0.00480465,0.00905932,-0.04938018,0.03477222\\0.00000008,0.0000
 0232,0.00000690,-0.00000307,0.00000997,-0.00001340,0.00001273,-0.00000
 961,0.00000123,-0.00000432,0.00000985,0.00000497,0.00001298,-0.0000174
 5,0.00001018,-0.00002139,0.00001155,0.00000021,0.00001274,-0.00001253,
 -0.00000966,-0.00001107,-0.00000944,-0.00001132,0.00001009,0.00001988,
 -0.00001214,-0.00001649,0.00002911,0.00002291,0.00001483,-0.00001672,-
 0.00000249,-0.00000477,0.00001655,-0.00001308,0.00000543,-0.00000438,0
 .00000154,-0.00000559,-0.00000916,0.00000198,-0.00000261,0.00000520,-0
 .00000029,-0.00000010,0.00000630,-0.00000019,0.00000424,-0.00002310,0.
 00000069,0.00000091,-0.00000415,0.00002059,0.00000194,0.00000212,-0.00
 000820,-0.00001216,-0.00001613,-0.00000522,-0.00000023,0.00000061,-0.0
 0000088,-0.00000013,0.00000050,-0.00000223,-0.00000035,0.00000225,-0.0
 0000142,0.00000303,-0.00000571,-0.00000167,-0.00000370,0.00000976,-0.0
 0000132,-0.00000035,-0.00000233,0.00000192,0.00000147,0.00000391,0.000
 00489,0.00000211,-0.00000140,0.00000410,-0.00000051,0.00000052,0.00000
 065,0.00000197,0.00000408,-0.00000012,0.00000192,-0.00000157,0.0000008
 3,0.00000038,-0.00000075,0.00000006\\\@


 THOSE WHO TRY TO PASS CHEMISTRY OFF AS A NEW SCIENCE
 SHOW HOW LITTLE KNOWLEDGE THEY HAVE OF THE CHARACTER
 AND LITERATURE OF THE ANCIENTS.
   -- NICOLAS LEFEVRE
 "COURS DE CHYMIE" J.-N.LELOUP, PARIS, 1751
 Job cpu time:       0 days  8 hours  1 minutes  4.1 seconds.
 Elapsed time:       0 days  1 hours  0 minutes 14.6 seconds.
 File lengths (MBytes):  RWF=   1657 Int=      0 D2E=      0 Chk=     29 Scr=      1
 Normal termination of Gaussian 16 at Wed Dec 27 21:34:14 2023.
