 Entering Gaussian System, Link 0=g16
 Input=045-an.com
 Output=045-an.log
 Initial command:
 /sysapps/ubuntu-applications/gaussian/Gaussian/AVX2/g16/l1.exe "/scratch/selhajj1/4256541/Gau-2865820.inp" -scrdir="/scratch/selhajj1/4256541/"
 Entering Link 1 = /sysapps/ubuntu-applications/gaussian/Gaussian/AVX2/g16/l1.exe PID=   2865822.
  
 Copyright (c) 1988,1990,1992,1993,1995,1998,2003,2009,2016,
            Gaussian, Inc.  All Rights Reserved.
  
 This is part of the Gaussian(R) 16 program.  It is based on
 the Gaussian(R) 09 system (copyright 2009, Gaussian, Inc.),
 the Gaussian(R) 03 system (copyright 2003, Gaussian, Inc.),
 the Gaussian(R) 98 system (copyright 1998, Gaussian, Inc.),
 the Gaussian(R) 94 system (copyright 1995, Gaussian, Inc.),
 the Gaussian 92(TM) system (copyright 1992, Gaussian, Inc.),
 the Gaussian 90(TM) system (copyright 1990, Gaussian, Inc.),
 the Gaussian 88(TM) system (copyright 1988, Gaussian, Inc.),
 the Gaussian 86(TM) system (copyright 1986, Carnegie Mellon
 University), and the Gaussian 82(TM) system (copyright 1983,
 Carnegie Mellon University). Gaussian is a federally registered
 trademark of Gaussian, Inc.
  
 This software contains proprietary and confidential information,
 including trade secrets, belonging to Gaussian, Inc.
  
 This software is provided under written license and may be
 used, copied, transmitted, or stored only in accord with that
 written license.
  
 The following legend is applicable only to US Government
 contracts under FAR:
  
                    RESTRICTED RIGHTS LEGEND
  
 Use, reproduction and disclosure by the US Government is
 subject to restrictions as set forth in subparagraphs (a)
 and (c) of the Commercial Computer Software - Restricted
 Rights clause in FAR 52.227-19.
  
 Gaussian, Inc.
 340 Quinnipiac St., Bldg. 40, Wallingford CT 06492
  
  
 ---------------------------------------------------------------
 Warning -- This program may not be used in any manner that
 competes with the business of Gaussian, Inc. or will provide
 assistance to any competitor of Gaussian, Inc.  The licensee
 of this program is prohibited from giving any competitor of
 Gaussian, Inc. access to this program.  By using this program,
 the user acknowledges that Gaussian, Inc. is engaged in the
 business of creating and licensing software in the field of
 computational chemistry and represents and warrants to the
 licensee that it is not a competitor of Gaussian, Inc. and that
 it will not use this program in any manner prohibited above.
 ---------------------------------------------------------------
  

 Cite this work as:
 Gaussian 16, Revision A.03,
 M. J. Frisch, G. W. Trucks, H. B. Schlegel, G. E. Scuseria, 
 M. A. Robb, J. R. Cheeseman, G. Scalmani, V. Barone, 
 G. A. Petersson, H. Nakatsuji, X. Li, M. Caricato, A. V. Marenich, 
 J. Bloino, B. G. Janesko, R. Gomperts, B. Mennucci, H. P. Hratchian, 
 J. V. Ortiz, A. F. Izmaylov, J. L. Sonnenberg, D. Williams-Young, 
 F. Ding, F. Lipparini, F. Egidi, J. Goings, B. Peng, A. Petrone, 
 T. Henderson, D. Ranasinghe, V. G. Zakrzewski, J. Gao, N. Rega, 
 G. Zheng, W. Liang, M. Hada, M. Ehara, K. Toyota, R. Fukuda, 
 J. Hasegawa, M. Ishida, T. Nakajima, Y. Honda, O. Kitao, H. Nakai, 
 T. Vreven, K. Throssell, J. A. Montgomery, Jr., J. E. Peralta, 
 F. Ogliaro, M. J. Bearpark, J. J. Heyd, E. N. Brothers, K. N. Kudin, 
 V. N. Staroverov, T. A. Keith, R. Kobayashi, J. Normand, 
 K. Raghavachari, A. P. Rendell, J. C. Burant, S. S. Iyengar, 
 J. Tomasi, M. Cossi, J. M. Millam, M. Klene, C. Adamo, R. Cammi, 
 J. W. Ochterski, R. L. Martin, K. Morokuma, O. Farkas, 
 J. B. Foresman, and D. J. Fox, Gaussian, Inc., Wallingford CT, 2016.
 
 ******************************************
 Gaussian 16:  ES64L-G16RevA.03 25-Dec-2016
                 6-Jan-2024 
 ******************************************
 %chk=045-an.chk
 %nproc=8
 Will use up to    8 processors via shared memory.
 %mem=30GB
 --------------------------------------
 #P UB3LYP/6-311++G(d,p) nosym opt freq
 --------------------------------------
 1/18=20,19=15,26=3,38=1/1,3;
 2/9=110,12=2,15=1,17=6,18=5,40=1/2;
 3/5=4,6=6,7=1111,11=2,25=1,30=1,71=1,74=-5,116=2/1,2,3;
 4//1;
 5/5=2,38=5/2;
 6/7=2,8=2,9=2,10=2,28=1/1;
 7/30=1/1,2,3,16;
 1/18=20,19=15,26=3/3(2);
 2/9=110,15=1/2;
 99//99;
 2/9=110,15=1/2;
 3/5=4,6=6,7=1111,11=2,25=1,30=1,71=1,74=-5,116=2/1,2,3;
 4/5=5,16=3,69=1/1;
 5/5=2,38=5/2;
 7/30=1/1,2,3,16;
 1/18=20,19=15,26=3/3(-5);
 2/9=110,15=1/2;
 6/7=2,8=2,9=2,10=2,19=2,28=1/1;
 99/9=1/99;
 Leave Link    1 at Sat Jan  6 05:50:48 2024, MaxMem=  4026531840 cpu:               0.7 elap:               0.1
 (Enter /sysapps/ubuntu-applications/gaussian/Gaussian/AVX2/g16/l101.exe)
 -------
 Reduced
 -------
 Symbolic Z-matrix:
 Charge = -2 Multiplicity = 1
 C                    -1.27076   1.85046  -0.85739 
 C                    -2.53843   1.18929  -0.79231 
 C                    -2.86538   0.1243    0.0507 
 C                    -1.86347  -0.39285   0.95789 
 C                    -0.59211   0.26045   0.88419 
 C                    -0.26536   1.32576   0.04163 
 O                    -1.06516   2.83947  -1.67855 
 O                    -2.07002  -1.37945   1.78162 
 C                     1.14432   1.95226   0.03487 
 C                     1.04305   3.45335   0.40708 
 C                     2.11046   1.28778   1.03438 
 C                     1.76093   1.82668  -1.38006 
 C                    -4.26473  -0.52473   0.03284 
 C                    -5.22247   0.1216   -0.98647 
 C                    -4.91228  -0.3925    1.43473 
 C                    -4.1354   -2.02693  -0.32037 
 H                    -3.2766    1.59507  -1.47822 
 H                     0.14636  -0.14614   1.56931 
 H                     0.35925   3.94794  -0.28546 
 H                     2.03279   3.93705   0.36592 
 H                     0.65549   3.56154   1.42655 
 H                     1.74451   1.36826   2.06333 
 H                     3.09193   1.77845   0.98551 
 H                     2.25261   0.22497   0.81447 
 H                     2.73932   2.32705  -1.43052 
 H                     1.90369   0.76986  -1.63585 
 H                     1.07858   2.27758  -2.10449 
 H                    -4.83993   0.04077  -2.00884 
 H                    -5.3809    1.18407  -0.77386 
 H                    -6.19907  -0.37969  -0.94916 
 H                    -5.05847   0.66519   1.68208 
 H                    -4.25029  -0.84107   2.17791 
 H                    -5.8967   -0.88788   1.4622 
 H                    -3.74162  -2.14175  -1.33745 
 H                    -5.11266  -2.52969  -0.27211 
 H                    -3.44391  -2.49735   0.38266 
 
 ITRead=  0  0  0  0  0  0  0  0  0  0  0  0  0  0  0  0  0  0  0  0
 ITRead=  0  0  0  0  0  0  0  0  0  0  0  0  0  0  0  0
 MicOpt= -1 -1 -1 -1 -1 -1 -1 -1 -1 -1 -1 -1 -1 -1 -1 -1 -1 -1 -1 -1
 MicOpt= -1 -1 -1 -1 -1 -1 -1 -1 -1 -1 -1 -1 -1 -1 -1 -1
 NAtoms=     36 NQM=       36 NQMF=       0 NMMI=      0 NMMIF=      0
                NMic=       0 NMicF=      0.
                    Isotopes and Nuclear Properties:
 (Nuclear quadrupole moments (NQMom) in fm**2, nuclear magnetic moments (NMagM)
  in nuclear magnetons)

  Atom         1           2           3           4           5           6           7           8           9          10
 IAtWgt=          12          12          12          12          12          12          16          16          12          12
 AtmWgt=  12.0000000  12.0000000  12.0000000  12.0000000  12.0000000  12.0000000  15.9949146  15.9949146  12.0000000  12.0000000
 NucSpn=           0           0           0           0           0           0           0           0           0           0
 AtZEff=  -0.0000000  -0.0000000  -0.0000000  -0.0000000  -0.0000000  -0.0000000  -0.0000000  -0.0000000  -0.0000000  -0.0000000
 NQMom=    0.0000000   0.0000000   0.0000000   0.0000000   0.0000000   0.0000000   0.0000000   0.0000000   0.0000000   0.0000000
 NMagM=    0.0000000   0.0000000   0.0000000   0.0000000   0.0000000   0.0000000   0.0000000   0.0000000   0.0000000   0.0000000
 AtZNuc=   6.0000000   6.0000000   6.0000000   6.0000000   6.0000000   6.0000000   8.0000000   8.0000000   6.0000000   6.0000000

  Atom        11          12          13          14          15          16          17          18          19          20
 IAtWgt=          12          12          12          12          12          12           1           1           1           1
 AtmWgt=  12.0000000  12.0000000  12.0000000  12.0000000  12.0000000  12.0000000   1.0078250   1.0078250   1.0078250   1.0078250
 NucSpn=           0           0           0           0           0           0           1           1           1           1
 AtZEff=  -0.0000000  -0.0000000  -0.0000000  -0.0000000  -0.0000000  -0.0000000  -0.0000000  -0.0000000  -0.0000000  -0.0000000
 NQMom=    0.0000000   0.0000000   0.0000000   0.0000000   0.0000000   0.0000000   0.0000000   0.0000000   0.0000000   0.0000000
 NMagM=    0.0000000   0.0000000   0.0000000   0.0000000   0.0000000   0.0000000   2.7928460   2.7928460   2.7928460   2.7928460
 AtZNuc=   6.0000000   6.0000000   6.0000000   6.0000000   6.0000000   6.0000000   1.0000000   1.0000000   1.0000000   1.0000000

  Atom        21          22          23          24          25          26          27          28          29          30
 IAtWgt=           1           1           1           1           1           1           1           1           1           1
 AtmWgt=   1.0078250   1.0078250   1.0078250   1.0078250   1.0078250   1.0078250   1.0078250   1.0078250   1.0078250   1.0078250
 NucSpn=           1           1           1           1           1           1           1           1           1           1
 AtZEff=  -0.0000000  -0.0000000  -0.0000000  -0.0000000  -0.0000000  -0.0000000  -0.0000000  -0.0000000  -0.0000000  -0.0000000
 NQMom=    0.0000000   0.0000000   0.0000000   0.0000000   0.0000000   0.0000000   0.0000000   0.0000000   0.0000000   0.0000000
 NMagM=    2.7928460   2.7928460   2.7928460   2.7928460   2.7928460   2.7928460   2.7928460   2.7928460   2.7928460   2.7928460
 AtZNuc=   1.0000000   1.0000000   1.0000000   1.0000000   1.0000000   1.0000000   1.0000000   1.0000000   1.0000000   1.0000000

  Atom        31          32          33          34          35          36
 IAtWgt=           1           1           1           1           1           1
 AtmWgt=   1.0078250   1.0078250   1.0078250   1.0078250   1.0078250   1.0078250
 NucSpn=           1           1           1           1           1           1
 AtZEff=  -0.0000000  -0.0000000  -0.0000000  -0.0000000  -0.0000000  -0.0000000
 NQMom=    0.0000000   0.0000000   0.0000000   0.0000000   0.0000000   0.0000000
 NMagM=    2.7928460   2.7928460   2.7928460   2.7928460   2.7928460   2.7928460
 AtZNuc=   1.0000000   1.0000000   1.0000000   1.0000000   1.0000000   1.0000000
 Leave Link  101 at Sat Jan  6 05:50:49 2024, MaxMem=  4026531840 cpu:               6.5 elap:               0.8
 (Enter /sysapps/ubuntu-applications/gaussian/Gaussian/AVX2/g16/l103.exe)

 GradGradGradGradGradGradGradGradGradGradGradGradGradGradGradGradGradGrad
 Berny optimization.
 Initialization pass.
                           ----------------------------
                           !    Initial Parameters    !
                           ! (Angstroms and Degrees)  !
 --------------------------                            --------------------------
 ! Name  Definition              Value          Derivative Info.                !
 --------------------------------------------------------------------------------
 ! R1    R(1,2)                  1.4312         estimate D2E/DX2                !
 ! R2    R(1,6)                  1.4472         estimate D2E/DX2                !
 ! R3    R(1,7)                  1.3018         estimate D2E/DX2                !
 ! R4    R(2,3)                  1.3971         estimate D2E/DX2                !
 ! R5    R(2,17)                 1.0863         estimate D2E/DX2                !
 ! R6    R(3,4)                  1.4472         estimate D2E/DX2                !
 ! R7    R(3,13)                 1.5426         estimate D2E/DX2                !
 ! R8    R(4,5)                  1.4313         estimate D2E/DX2                !
 ! R9    R(4,8)                  1.3018         estimate D2E/DX2                !
 ! R10   R(5,6)                  1.397          estimate D2E/DX2                !
 ! R11   R(5,18)                 1.0863         estimate D2E/DX2                !
 ! R12   R(6,9)                  1.5426         estimate D2E/DX2                !
 ! R13   R(9,10)                 1.5499         estimate D2E/DX2                !
 ! R14   R(9,11)                 1.5408         estimate D2E/DX2                !
 ! R15   R(9,12)                 1.5485         estimate D2E/DX2                !
 ! R16   R(10,19)                1.0917         estimate D2E/DX2                !
 ! R17   R(10,20)                1.1024         estimate D2E/DX2                !
 ! R18   R(10,21)                1.096          estimate D2E/DX2                !
 ! R19   R(11,22)                1.095          estimate D2E/DX2                !
 ! R20   R(11,23)                1.0984         estimate D2E/DX2                !
 ! R21   R(11,24)                1.0946         estimate D2E/DX2                !
 ! R22   R(12,25)                1.1001         estimate D2E/DX2                !
 ! R23   R(12,26)                1.0967         estimate D2E/DX2                !
 ! R24   R(12,27)                1.0926         estimate D2E/DX2                !
 ! R25   R(13,14)                1.5408         estimate D2E/DX2                !
 ! R26   R(13,15)                1.5499         estimate D2E/DX2                !
 ! R27   R(13,16)                1.5486         estimate D2E/DX2                !
 ! R28   R(14,28)                1.0946         estimate D2E/DX2                !
 ! R29   R(14,29)                1.0951         estimate D2E/DX2                !
 ! R30   R(14,30)                1.0984         estimate D2E/DX2                !
 ! R31   R(15,31)                1.096          estimate D2E/DX2                !
 ! R32   R(15,32)                1.0917         estimate D2E/DX2                !
 ! R33   R(15,33)                1.1024         estimate D2E/DX2                !
 ! R34   R(16,34)                1.0967         estimate D2E/DX2                !
 ! R35   R(16,35)                1.1001         estimate D2E/DX2                !
 ! R36   R(16,36)                1.0926         estimate D2E/DX2                !
 ! A1    A(2,1,6)              114.8093         estimate D2E/DX2                !
 ! A2    A(2,1,7)              121.3004         estimate D2E/DX2                !
 ! A3    A(6,1,7)              123.8888         estimate D2E/DX2                !
 ! A4    A(1,2,3)              125.9363         estimate D2E/DX2                !
 ! A5    A(1,2,17)             113.6162         estimate D2E/DX2                !
 ! A6    A(3,2,17)             120.447          estimate D2E/DX2                !
 ! A7    A(2,3,4)              119.2527         estimate D2E/DX2                !
 ! A8    A(2,3,13)             121.7374         estimate D2E/DX2                !
 ! A9    A(4,3,13)             119.0079         estimate D2E/DX2                !
 ! A10   A(3,4,5)              114.8077         estimate D2E/DX2                !
 ! A11   A(3,4,8)              123.8949         estimate D2E/DX2                !
 ! A12   A(5,4,8)              121.296          estimate D2E/DX2                !
 ! A13   A(4,5,6)              125.937          estimate D2E/DX2                !
 ! A14   A(4,5,18)             113.6111         estimate D2E/DX2                !
 ! A15   A(6,5,18)             120.4514         estimate D2E/DX2                !
 ! A16   A(1,6,5)              119.2526         estimate D2E/DX2                !
 ! A17   A(1,6,9)              119.0045         estimate D2E/DX2                !
 ! A18   A(5,6,9)              121.741          estimate D2E/DX2                !
 ! A19   A(6,9,10)             109.425          estimate D2E/DX2                !
 ! A20   A(6,9,11)             113.2669         estimate D2E/DX2                !
 ! A21   A(6,9,12)             109.5688         estimate D2E/DX2                !
 ! A22   A(10,9,11)            107.6305         estimate D2E/DX2                !
 ! A23   A(10,9,12)            108.9043         estimate D2E/DX2                !
 ! A24   A(11,9,12)            107.9437         estimate D2E/DX2                !
 ! A25   A(9,10,19)            109.1095         estimate D2E/DX2                !
 ! A26   A(9,10,20)            110.9367         estimate D2E/DX2                !
 ! A27   A(9,10,21)            110.0043         estimate D2E/DX2                !
 ! A28   A(19,10,20)           109.8703         estimate D2E/DX2                !
 ! A29   A(19,10,21)           108.8969         estimate D2E/DX2                !
 ! A30   A(20,10,21)           107.9923         estimate D2E/DX2                !
 ! A31   A(9,11,22)            111.6111         estimate D2E/DX2                !
 ! A32   A(9,11,23)            109.803          estimate D2E/DX2                !
 ! A33   A(9,11,24)            111.7059         estimate D2E/DX2                !
 ! A34   A(22,11,23)           107.9141         estimate D2E/DX2                !
 ! A35   A(22,11,24)           107.6705         estimate D2E/DX2                !
 ! A36   A(23,11,24)           107.9853         estimate D2E/DX2                !
 ! A37   A(9,12,25)            111.0491         estimate D2E/DX2                !
 ! A38   A(9,12,26)            110.0654         estimate D2E/DX2                !
 ! A39   A(9,12,27)            108.8866         estimate D2E/DX2                !
 ! A40   A(25,12,26)           108.1703         estimate D2E/DX2                !
 ! A41   A(25,12,27)           109.7144         estimate D2E/DX2                !
 ! A42   A(26,12,27)           108.9261         estimate D2E/DX2                !
 ! A43   A(3,13,14)            113.268          estimate D2E/DX2                !
 ! A44   A(3,13,15)            109.4289         estimate D2E/DX2                !
 ! A45   A(3,13,16)            109.5725         estimate D2E/DX2                !
 ! A46   A(14,13,15)           107.6315         estimate D2E/DX2                !
 ! A47   A(14,13,16)           107.9354         estimate D2E/DX2                !
 ! A48   A(15,13,16)           108.9028         estimate D2E/DX2                !
 ! A49   A(13,14,28)           111.6969         estimate D2E/DX2                !
 ! A50   A(13,14,29)           111.6225         estimate D2E/DX2                !
 ! A51   A(13,14,30)           109.8013         estimate D2E/DX2                !
 ! A52   A(28,14,29)           107.6711         estimate D2E/DX2                !
 ! A53   A(28,14,30)           107.9842         estimate D2E/DX2                !
 ! A54   A(29,14,30)           107.9136         estimate D2E/DX2                !
 ! A55   A(13,15,31)           110.0108         estimate D2E/DX2                !
 ! A56   A(13,15,32)           109.1085         estimate D2E/DX2                !
 ! A57   A(13,15,33)           110.9347         estimate D2E/DX2                !
 ! A58   A(31,15,32)           108.891          estimate D2E/DX2                !
 ! A59   A(31,15,33)           107.9946         estimate D2E/DX2                !
 ! A60   A(32,15,33)           109.8703         estimate D2E/DX2                !
 ! A61   A(13,16,34)           110.0648         estimate D2E/DX2                !
 ! A62   A(13,16,35)           111.0473         estimate D2E/DX2                !
 ! A63   A(13,16,36)           108.8906         estimate D2E/DX2                !
 ! A64   A(34,16,35)           108.169          estimate D2E/DX2                !
 ! A65   A(34,16,36)           108.9315         estimate D2E/DX2                !
 ! A66   A(35,16,36)           109.7087         estimate D2E/DX2                !
 ! D1    D(6,1,2,3)              0.5611         estimate D2E/DX2                !
 ! D2    D(6,1,2,17)          -179.706          estimate D2E/DX2                !
 ! D3    D(7,1,2,3)           -179.8595         estimate D2E/DX2                !
 ! D4    D(7,1,2,17)            -0.1265         estimate D2E/DX2                !
 ! D5    D(2,1,6,5)             -0.4936         estimate D2E/DX2                !
 ! D6    D(2,1,6,9)            179.0109         estimate D2E/DX2                !
 ! D7    D(7,1,6,5)            179.9392         estimate D2E/DX2                !
 ! D8    D(7,1,6,9)             -0.5562         estimate D2E/DX2                !
 ! D9    D(1,2,3,4)             -0.0547         estimate D2E/DX2                !
 ! D10   D(1,2,3,13)          -179.5398         estimate D2E/DX2                !
 ! D11   D(17,2,3,4)          -179.7708         estimate D2E/DX2                !
 ! D12   D(17,2,3,13)            0.7441         estimate D2E/DX2                !
 ! D13   D(2,3,4,5)             -0.4908         estimate D2E/DX2                !
 ! D14   D(2,3,4,8)            179.9459         estimate D2E/DX2                !
 ! D15   D(13,3,4,5)           179.0085         estimate D2E/DX2                !
 ! D16   D(13,3,4,8)            -0.5548         estimate D2E/DX2                !
 ! D17   D(2,3,13,14)           -0.1248         estimate D2E/DX2                !
 ! D18   D(2,3,13,15)         -120.2103         estimate D2E/DX2                !
 ! D19   D(2,3,13,16)          120.4492         estimate D2E/DX2                !
 ! D20   D(4,3,13,14)         -179.6111         estimate D2E/DX2                !
 ! D21   D(4,3,13,15)           60.3034         estimate D2E/DX2                !
 ! D22   D(4,3,13,16)          -59.0372         estimate D2E/DX2                !
 ! D23   D(3,4,5,6)              0.5581         estimate D2E/DX2                !
 ! D24   D(3,4,5,18)          -179.7057         estimate D2E/DX2                !
 ! D25   D(8,4,5,6)           -179.8661         estimate D2E/DX2                !
 ! D26   D(8,4,5,18)            -0.13           estimate D2E/DX2                !
 ! D27   D(4,5,6,1)             -0.0515         estimate D2E/DX2                !
 ! D28   D(4,5,6,9)           -179.542          estimate D2E/DX2                !
 ! D29   D(18,5,6,1)          -179.7711         estimate D2E/DX2                !
 ! D30   D(18,5,6,9)             0.7384         estimate D2E/DX2                !
 ! D31   D(1,6,9,10)            60.303          estimate D2E/DX2                !
 ! D32   D(1,6,9,11)          -179.6161         estimate D2E/DX2                !
 ! D33   D(1,6,9,12)           -59.0348         estimate D2E/DX2                !
 ! D34   D(5,6,9,10)          -120.2053         estimate D2E/DX2                !
 ! D35   D(5,6,9,11)            -0.1244         estimate D2E/DX2                !
 ! D36   D(5,6,9,12)           120.4569         estimate D2E/DX2                !
 ! D37   D(6,9,10,19)          -56.2959         estimate D2E/DX2                !
 ! D38   D(6,9,10,20)         -177.474          estimate D2E/DX2                !
 ! D39   D(6,9,10,21)           63.1035         estimate D2E/DX2                !
 ! D40   D(11,9,10,19)        -179.771          estimate D2E/DX2                !
 ! D41   D(11,9,10,20)          59.0509         estimate D2E/DX2                !
 ! D42   D(11,9,10,21)         -60.3716         estimate D2E/DX2                !
 ! D43   D(12,9,10,19)          63.4511         estimate D2E/DX2                !
 ! D44   D(12,9,10,20)         -57.727          estimate D2E/DX2                !
 ! D45   D(12,9,10,21)        -177.1495         estimate D2E/DX2                !
 ! D46   D(6,9,11,22)          -60.1478         estimate D2E/DX2                !
 ! D47   D(6,9,11,23)         -179.7707         estimate D2E/DX2                !
 ! D48   D(6,9,11,24)           60.4565         estimate D2E/DX2                !
 ! D49   D(10,9,11,22)          60.9505         estimate D2E/DX2                !
 ! D50   D(10,9,11,23)         -58.6724         estimate D2E/DX2                !
 ! D51   D(10,9,11,24)        -178.4452         estimate D2E/DX2                !
 ! D52   D(12,9,11,22)         178.354          estimate D2E/DX2                !
 ! D53   D(12,9,11,23)          58.7311         estimate D2E/DX2                !
 ! D54   D(12,9,11,24)         -61.0418         estimate D2E/DX2                !
 ! D55   D(6,9,12,25)          176.1232         estimate D2E/DX2                !
 ! D56   D(6,9,12,26)          -64.1212         estimate D2E/DX2                !
 ! D57   D(6,9,12,27)           55.2139         estimate D2E/DX2                !
 ! D58   D(10,9,12,25)          56.4654         estimate D2E/DX2                !
 ! D59   D(10,9,12,26)         176.221          estimate D2E/DX2                !
 ! D60   D(10,9,12,27)         -64.4438         estimate D2E/DX2                !
 ! D61   D(11,9,12,25)         -60.1125         estimate D2E/DX2                !
 ! D62   D(11,9,12,26)          59.6431         estimate D2E/DX2                !
 ! D63   D(11,9,12,27)         178.9782         estimate D2E/DX2                !
 ! D64   D(3,13,14,28)          60.4338         estimate D2E/DX2                !
 ! D65   D(3,13,14,29)         -60.173          estimate D2E/DX2                !
 ! D66   D(3,13,14,30)        -179.8015         estimate D2E/DX2                !
 ! D67   D(15,13,14,28)       -178.4618         estimate D2E/DX2                !
 ! D68   D(15,13,14,29)         60.9314         estimate D2E/DX2                !
 ! D69   D(15,13,14,30)        -58.6971         estimate D2E/DX2                !
 ! D70   D(16,13,14,28)        -61.064          estimate D2E/DX2                !
 ! D71   D(16,13,14,29)        178.3293         estimate D2E/DX2                !
 ! D72   D(16,13,14,30)         58.7007         estimate D2E/DX2                !
 ! D73   D(3,13,15,31)          63.0608         estimate D2E/DX2                !
 ! D74   D(3,13,15,32)         -56.3348         estimate D2E/DX2                !
 ! D75   D(3,13,15,33)        -177.511          estimate D2E/DX2                !
 ! D76   D(14,13,15,31)        -60.4186         estimate D2E/DX2                !
 ! D77   D(14,13,15,32)       -179.8141         estimate D2E/DX2                !
 ! D78   D(14,13,15,33)         59.0097         estimate D2E/DX2                !
 ! D79   D(16,13,15,31)       -177.1864         estimate D2E/DX2                !
 ! D80   D(16,13,15,32)         63.4181         estimate D2E/DX2                !
 ! D81   D(16,13,15,33)        -57.7581         estimate D2E/DX2                !
 ! D82   D(3,13,16,34)         -64.152          estimate D2E/DX2                !
 ! D83   D(3,13,16,35)         176.0956         estimate D2E/DX2                !
 ! D84   D(3,13,16,36)          55.1919         estimate D2E/DX2                !
 ! D85   D(14,13,16,34)         59.6106         estimate D2E/DX2                !
 ! D86   D(14,13,16,35)        -60.1418         estimate D2E/DX2                !
 ! D87   D(14,13,16,36)        178.9545         estimate D2E/DX2                !
 ! D88   D(15,13,16,34)        176.1843         estimate D2E/DX2                !
 ! D89   D(15,13,16,35)         56.4319         estimate D2E/DX2                !
 ! D90   D(15,13,16,36)        -64.4718         estimate D2E/DX2                !
 --------------------------------------------------------------------------------
 Trust Radius=3.00D-01 FncErr=1.00D-07 GrdErr=1.00D-06 EigMax=2.50D+02 EigMin=1.00D-04
 Number of steps in this run=    202 maximum allowed number of steps=    216.
 GradGradGradGradGradGradGradGradGradGradGradGradGradGradGradGradGradGrad

 Leave Link  103 at Sat Jan  6 05:50:49 2024, MaxMem=  4026531840 cpu:               0.3 elap:               0.1
 (Enter /sysapps/ubuntu-applications/gaussian/Gaussian/AVX2/g16/l202.exe)
                          Input orientation:                          
 ---------------------------------------------------------------------
 Center     Atomic      Atomic             Coordinates (Angstroms)
 Number     Number       Type             X           Y           Z
 ---------------------------------------------------------------------
      1          6           0       -1.270755    1.850455   -0.857391
      2          6           0       -2.538425    1.189293   -0.792308
      3          6           0       -2.865375    0.124296    0.050695
      4          6           0       -1.863473   -0.392850    0.957893
      5          6           0       -0.592114    0.260451    0.884190
      6          6           0       -0.265362    1.325762    0.041634
      7          8           0       -1.065164    2.839474   -1.678553
      8          8           0       -2.070017   -1.379448    1.781618
      9          6           0        1.144322    1.952255    0.034871
     10          6           0        1.043049    3.453351    0.407075
     11          6           0        2.110460    1.287775    1.034383
     12          6           0        1.760928    1.826683   -1.380059
     13          6           0       -4.264735   -0.524726    0.032838
     14          6           0       -5.222469    0.121600   -0.986465
     15          6           0       -4.912282   -0.392498    1.434726
     16          6           0       -4.135399   -2.026928   -0.320369
     17          1           0       -3.276597    1.595074   -1.478221
     18          1           0        0.146360   -0.146141    1.569310
     19          1           0        0.359254    3.947941   -0.285460
     20          1           0        2.032787    3.937047    0.365921
     21          1           0        0.655494    3.561536    1.426553
     22          1           0        1.744514    1.368256    2.063327
     23          1           0        3.091931    1.778449    0.985512
     24          1           0        2.252609    0.224966    0.814470
     25          1           0        2.739320    2.327046   -1.430519
     26          1           0        1.903690    0.769858   -1.635845
     27          1           0        1.078577    2.277577   -2.104491
     28          1           0       -4.839932    0.040768   -2.008837
     29          1           0       -5.380897    1.184070   -0.773861
     30          1           0       -6.199069   -0.379692   -0.949159
     31          1           0       -5.058470    0.665187    1.682082
     32          1           0       -4.250290   -0.841071    2.177914
     33          1           0       -5.896702   -0.887882    1.462199
     34          1           0       -3.741622   -2.141748   -1.337451
     35          1           0       -5.112663   -2.529689   -0.272105
     36          1           0       -3.443914   -2.497346    0.382664
 ---------------------------------------------------------------------
                    Distance matrix (angstroms):
                    1          2          3          4          5
     1  C    0.000000
     2  C    1.431209   0.000000
     3  C    2.519337   1.397057   0.000000
     4  C    2.946012   2.453964   1.447154   0.000000
     5  C    2.453930   2.731578   2.425071   1.431289   0.000000
     6  C    1.447192   2.425056   2.864205   2.519348   1.396981
     7  O    1.301819   2.383071   3.688258   4.246889   3.666441
     8  O    4.246818   3.666460   2.426919   1.301752   2.383032
     9  C    2.576643   3.850839   4.406740   3.924069   2.568804
    10  C    3.085748   4.403571   5.146396   4.852271   3.618841
    11  C    3.915103   4.995861   5.203870   4.315379   2.895144
    12  C    3.076499   4.385904   5.133016   4.850632   3.621700
    13  C    3.924017   2.568827   1.542646   2.576660   3.850902
    14  C    4.315280   2.895127   2.575189   3.915104   4.995880
    15  C    4.852356   3.618970   2.524370   3.085872   4.403781
    16  C    4.850637   3.621758   2.525552   3.076656   4.386107
    17  H    2.115195   1.086293   2.160989   3.447233   3.816891
    18  H    3.447244   3.816896   3.383766   2.115213   1.086301
    19  H    2.717256   4.032813   5.013132   5.032783   3.983813
    20  H    4.094356   5.457804   6.215177   5.854851   4.547094
    21  H    3.443056   4.555436   5.109219   4.711900   3.570413
    22  H    4.225513   5.150752   5.181621   4.164259   2.842081
    23  H    4.736508   5.933688   6.252967   5.410299   3.985821
    24  H    4.225095   5.144479   5.175640   4.164661   2.845798
    25  H    4.078764   5.436579   6.201509   5.855600   4.552707
    26  H    3.442496   4.540910   5.099524   4.719204   3.583170
    27  H    2.693892   3.998611   4.983593   5.016476   3.973943
    28  H    4.164111   2.845345   2.854387   4.224786   5.144106
    29  H    4.164650   2.842537   2.851467   4.225863   5.151179
    30  H    5.410199   3.985804   3.516707   4.736498   5.933708
    31  H    4.711748   3.570423   2.786333   3.442659   4.555083
    32  H    5.033390   3.984354   2.715692   2.717765   4.033525
    33  H    5.854774   4.547030   3.493679   4.094669   5.458151
    34  H    4.719462   3.583392   2.798163   3.443064   4.541547
    35  H    5.855636   4.552817   3.492584   4.078751   5.436659
    36  H    5.016346   3.973887   2.705165   2.693991   3.998717
                    6          7          8          9         10
     6  C    0.000000
     7  O    2.426943   0.000000
     8  O    3.688155   5.548136   0.000000
     9  C    1.542643   2.933395   4.948065   0.000000
    10  C    2.524306   3.028407   5.910710   1.549865   0.000000
    11  C    2.575175   4.455601   5.014861   1.540773   2.494514
    12  C    2.525467   3.016892   5.911989   1.548547   2.520962
    13  C    4.406741   4.948126   2.933525   5.949230   6.643623
    14  C    5.203835   5.014879   4.455713   6.703018   7.231821
    15  C    5.146551   5.910877   3.028675   6.643788   7.163281
    16  C    5.133105   5.912096   3.017181   6.620842   7.574890
    17  H    3.383788   2.545408   4.574950   4.686315   5.066249
    18  H    2.160974   4.574965   2.545280   2.784546   3.887311
    19  H    2.715319   2.279994   6.209287   2.168342   1.091696
    20  H    3.493631   3.870638   6.863113   2.199628   1.102378
    21  H    2.786514   3.622668   5.654008   2.183006   1.096010
    22  H    2.851079   4.905144   4.709552   2.194520   2.753697
    23  H    3.516710   5.050194   6.103426   2.174191   2.708838
    24  H    2.854681   4.904940   4.711116   2.195359   3.471524
    25  H    3.492552   3.846843   6.869181   2.198148   2.742745
    26  H    2.797812   3.619286   5.664708   2.183116   3.480713
    27  H    2.705176   2.256718   6.195911   2.164954   2.773386
    28  H    5.175165   4.710702   4.904793   6.606196   7.217466
    29  H    5.182066   4.710030   4.905510   6.619867   6.914574
    30  H    6.252929   6.103444   5.050319   7.767347   8.305412
    31  H    5.108944   5.654015   3.622332   6.545569   6.828472
    32  H    5.013832   6.209974   2.280458   6.441828   7.042540
    33  H    6.215321   6.863036   3.871328   7.725261   8.253468
    34  H    5.099989   5.665011   3.619939   6.520474   7.565817
    35  H    6.201553   6.869371   3.846885   7.702721   8.611088
    36  H    4.983538   6.195863   2.257069   6.400923   7.452800
                   11         12         13         14         15
    11  C    0.000000
    12  C    2.498424   0.000000
    13  C    6.703086   6.620726   0.000000
    14  C    7.695170   7.199310   1.540769   0.000000
    15  C    7.232047   7.574926   1.549868   2.494530   0.000000
    16  C    7.199539   7.123197   1.548578   2.498315   2.520966
    17  H    5.952142   5.043802   2.784469   2.489853   3.887309
    18  H    2.489970   3.898415   4.686345   5.952142   5.066425
    19  H    3.447491   2.768135   6.441067   6.803523   7.041842
    20  H    2.733408   2.752452   7.725098   8.308148   8.253562
    21  H    2.727767   3.479766   6.545887   7.225390   6.828952
    22  H    1.095043   3.473807   6.619467   7.706766   6.914357
    23  H    1.098378   2.714742   7.767415   8.704200   8.305554
    24  H    1.094592   2.761015   6.606721   7.689658   7.218147
    25  H    2.747961   1.100073   7.702649   8.273528   8.611188
    26  H    2.727840   1.096671   6.519963   7.184990   7.565511
    27  H    3.449206   1.092570   6.400942   6.752881   7.452902
    28  H    7.689224   6.867038   2.195238   1.094583   3.471467
    29  H    7.707200   7.196255   2.194667   1.095054   2.753729
    30  H    8.704203   8.271355   2.174167   1.098377   2.709039
    31  H    7.225004   7.565049   2.183097   2.728283   1.096017
    32  H    6.804321   7.477354   2.168325   3.447486   1.091687
    33  H    8.308499   8.607357   2.199607   2.733057   1.102381
    34  H    7.185686   6.784417   2.183140   2.727424   3.480702
    35  H    8.273660   8.212904   2.198147   2.748036   2.742446
    36  H    6.752996   6.992482   2.165030   3.449152   2.773684
                   16         17         18         19         20
    16  C    0.000000
    17  H    3.898341   0.000000
    18  H    5.043977   4.902643   0.000000
    19  H    7.476776   4.492001   4.499667   0.000000
    20  H    8.607352   6.088945   4.656090   1.795864   0.000000
    21  H    7.565403   5.269348   3.745192   1.779903   1.778450
    22  H    7.196017   6.148623   2.256446   3.753734   3.092406
    23  H    8.271670   6.830941   3.566687   3.713434   2.482987
    24  H    6.867717   6.140501   2.267992   4.319165   3.745539
    25  H    8.212873   6.060472   4.673229   3.098899   2.513660
    26  H    6.784032   5.247971   3.768326   3.782728   3.748976
    27  H    6.992668   4.452591   4.498917   2.572239   3.125267
    28  H    2.760916   2.267474   6.140129   6.728117   8.249529
    29  H    3.473820   2.256795   6.149023   6.389589   7.990037
    30  H    2.714313   3.566574   6.830937   7.885462   9.387605
    31  H    3.479850   3.745301   5.268892   6.633207   7.919803
    32  H    2.767829   4.500023   4.492645   7.088776   8.098814
    33  H    2.752665   4.655759   6.089356   8.097931   9.346580
    34  H    1.096677   3.768276   5.248629   7.416750   8.555526
    35  H    1.100065   4.673278   6.060481   8.479490   9.658323
    36  H    1.092566   4.498754   4.452680   7.513468   8.449612
                   21         22         23         24         25
    21  H    0.000000
    22  H    2.530202   0.000000
    23  H    3.051252   1.773549   0.000000
    24  H    3.749416   1.767743   1.773986   0.000000
    25  H    3.745552   3.757110   2.502499   3.113776   0.000000
    26  H    4.327787   3.750639   3.049702   2.534304   1.779121
    27  H    3.780982   4.317527   3.721672   3.756580   1.792973
    28  H    7.375461   7.854914   8.654485   7.636041   7.937668
    29  H    6.850707   7.671704   8.673955   7.855768   8.226513
    30  H    8.256047   8.673575   9.732585   8.654875   9.351627
    31  H    6.411202   6.849835   8.255519   7.375529   8.558948
    32  H    6.634320   6.389987   7.886185   6.729273   8.480118
    33  H    7.920219   7.989975   9.387868   8.250409   9.658388
    34  H    7.713741   7.347320   8.213498   6.794329   7.872826
    35  H    8.559211   8.226123   9.351846   7.938262   9.305022
    36  H    7.389513   6.684855   7.833461   6.328334   8.049520
                   26         27         28         29         30
    26  H    0.000000
    27  H    1.781476   0.000000
    28  H    6.793168   6.327813   0.000000
    29  H    7.347094   6.685143   1.767752   0.000000
    30  H    8.212655   7.833263   1.773967   1.773552   0.000000
    31  H    7.713058   7.389268   3.749739   2.530781   3.052240
    32  H    7.416962   7.514105   4.319051   3.753990   3.713381
    33  H    8.555238   8.449611   3.745296   3.091764   2.482807
    34  H    6.358934   6.584307   2.533855   3.750456   3.048714
    35  H    7.872484   8.049776   3.114140   3.757089   2.502232
    36  H    6.583758   7.031270   3.756350   4.317670   3.721437
                   31         32         33         34         35
    31  H    0.000000
    32  H    1.779836   0.000000
    33  H    1.778484   1.795860   0.000000
    34  H    4.327881   3.782631   3.748945   0.000000
    35  H    3.745533   3.098017   2.513575   1.779105   0.000000
    36  H    3.781123   2.572239   3.126010   1.781537   1.792900
                   36
    36  H    0.000000
 Symmetry turned off by external request.
 Stoichiometry    C14H20O2(2-)
 Framework group  C1[X(C14H20O2)]
 Deg. of freedom   102
 Full point group                 C1      NOp   1
 Rotational constants (GHZ):           1.0498437           0.3136328           0.2702460
 Leave Link  202 at Sat Jan  6 05:50:49 2024, MaxMem=  4026531840 cpu:               0.5 elap:               0.1
 (Enter /sysapps/ubuntu-applications/gaussian/Gaussian/AVX2/g16/l301.exe)
 Standard basis: 6-311++G(d,p) (5D, 7F)
 Ernie: Thresh=  0.10000D-02 Tol=  0.10000D-05 Strict=F.
   492 basis functions,   756 primitive gaussians,   508 cartesian basis functions
    61 alpha electrons       61 beta electrons
       nuclear repulsion energy      1131.7599086319 Hartrees.
 IExCor=  402 DFT=T Ex+Corr=B3LYP ExCW=0 ScaHFX=  0.200000
 ScaDFX=  0.800000  0.720000  1.000000  0.810000 ScalE2=  1.000000  1.000000
 IRadAn=      5 IRanWt=     -1 IRanGd=            0 ICorTp=0 IEmpDi=  4
 NAtoms=   36 NActive=   36 NUniq=   36 SFac= 1.00D+00 NAtFMM=   60 NAOKFM=F Big=F
 Integral buffers will be    131072 words long.
 Raffenetti 2 integral format.
 Two-electron integral symmetry is turned off.
 Leave Link  301 at Sat Jan  6 05:50:50 2024, MaxMem=  4026531840 cpu:               0.5 elap:               0.1
 (Enter /sysapps/ubuntu-applications/gaussian/Gaussian/AVX2/g16/l302.exe)
 NPDir=0 NMtPBC=     1 NCelOv=     1 NCel=       1 NClECP=     1 NCelD=      1
         NCelK=      1 NCelE2=     1 NClLst=     1 CellRange=     0.0.
 One-electron integrals computed using PRISM.
 NBasis=   492 RedAO= T EigKep=  1.46D-06  NBF=   492
 NBsUse=   488 1.00D-06 EigRej=  9.98D-07 NBFU=   488
 Precomputing XC quadrature grid using
 IXCGrd= 4 IRadAn=           5 IRanWt=          -1 IRanGd=           0 AccXCQ= 0.00D+00.
 Generated NRdTot=       0 NPtTot=           0 NUsed=           0 NTot=          32
 NSgBfM=   507   507   507   507   507 MxSgAt=    36 MxSgA2=    36.
 Leave Link  302 at Sat Jan  6 05:50:50 2024, MaxMem=  4026531840 cpu:               5.0 elap:               0.7
 (Enter /sysapps/ubuntu-applications/gaussian/Gaussian/AVX2/g16/l303.exe)
 DipDrv:  MaxL=1.
 Leave Link  303 at Sat Jan  6 05:50:50 2024, MaxMem=  4026531840 cpu:               0.8 elap:               0.1
 (Enter /sysapps/ubuntu-applications/gaussian/Gaussian/AVX2/g16/l401.exe)
 ExpMin= 3.60D-02 ExpMax= 8.59D+03 ExpMxC= 1.30D+03 IAcc=3 IRadAn=         5 AccDes= 0.00D+00
 Harris functional with IExCor=  402 and IRadAn=       5 diagonalized for initial guess.
 HarFok:  IExCor=  402 AccDes= 0.00D+00 IRadAn=         5 IDoV= 1 UseB2=F ITyADJ=14
 ICtDFT=  3500011 ScaDFX=  1.000000  1.000000  1.000000  1.000000
 FoFCou: FMM=F IPFlag=           0 FMFlag=      100000 FMFlg1=           0
         NFxFlg=           0 DoJE=T BraDBF=F KetDBF=T FulRan=T
         wScrn=  0.000000 ICntrl=       500 IOpCl=  0 I1Cent=   200000004 NGrid=           0
         NMat0=    1 NMatS0=      1 NMatT0=    0 NMatD0=    1 NMtDS0=    0 NMtDT0=    0
 Symmetry not used in FoFCou.
 Harris En= -696.747060271446    
 JPrj=0 DoOrth=F DoCkMO=F.
 Initial guess <Sx>= 0.0000 <Sy>= 0.0000 <Sz>= 0.0000 <S**2>=-0.0000 S=-0.0000
 Leave Link  401 at Sat Jan  6 05:50:53 2024, MaxMem=  4026531840 cpu:              21.5 elap:               2.7
 (Enter /sysapps/ubuntu-applications/gaussian/Gaussian/AVX2/g16/l502.exe)
 Two-electron integral symmetry not used.
 UHF open shell SCF:
 Using DIIS extrapolation, IDIIS=  1040.
 NGot=  4026531840 LenX=  4026007820 LenY=  4025749248
 Requested convergence on RMS density matrix=1.00D-08 within 128 cycles.
 Requested convergence on MAX density matrix=1.00D-06.
 Requested convergence on             energy=1.00D-06.
 No special actions if energy rises.
 Fock matrices will be formed incrementally for  20 cycles.

 Cycle   1  Pass 1  IDiag  1:
 FoFJK:  IHMeth= 1 ICntrl=       0 DoSepK=F KAlg= 0 I1Cent=           0 FoldK=F
 IRaf= 870000000 NMat=       1 IRICut=       1 DoRegI=T DoRafI=F ISym2E= 0 IDoP0=0 IntGTp=1.
 FoFCou: FMM=F IPFlag=           0 FMFlag=      100000 FMFlg1=           0
         NFxFlg=           0 DoJE=F BraDBF=F KetDBF=F FulRan=T
         wScrn=  0.000000 ICntrl=         0 IOpCl=  1 I1Cent=           0 NGrid=           0
         NMat0=    1 NMatS0=      1 NMatT0=    0 NMatD0=    1 NMtDS0=    0 NMtDT0=    0
 Symmetry not used in FoFCou.
 E= -695.320860278412    
 DIIS: error= 5.15D-02 at cycle   1 NSaved=   1.
 NSaved= 1 IEnMin= 1 EnMin= -695.320860278412     IErMin= 1 ErrMin= 5.15D-02
 ErrMax= 5.15D-02  0.00D+00 EMaxC= 1.00D-01 BMatC= 3.31D+00 BMatP= 3.31D+00
 IDIUse=3 WtCom= 4.85D-01 WtEn= 5.15D-01
 Coeff-Com:  0.100D+01
 Coeff-En:   0.100D+01
 Coeff:      0.100D+01
 Gap=     0.108 Goal=   None    Shift=    0.000
 Gap=     0.108 Goal=   None    Shift=    0.000
 GapD=    0.108 DampG=1.000 DampE=0.500 DampFc=0.5000 IDamp=-1.
 Damping current iteration by 5.00D-01
 RMSDP=1.54D+01 MaxDP=1.17D+03              OVMax= 9.84D-01

 Cycle   2  Pass 1  IDiag  1:
 RMSU=  7.67D+00    CP:  3.00D+00
 E= -692.918964496520     Delta-E=        2.401895781892 Rises=F Damp=T
 DIIS: error= 4.21D-02 at cycle   2 NSaved=   2.
 NSaved= 2 IEnMin= 1 EnMin= -695.320860278412     IErMin= 2 ErrMin= 4.21D-02
 ErrMax= 4.21D-02  0.00D+00 EMaxC= 1.00D-01 BMatC= 3.19D+00 BMatP= 3.31D+00
 IDIUse=3 WtCom= 5.79D-01 WtEn= 4.21D-01
 Coeff-Com:  0.494D+00 0.506D+00
 Coeff-En:   0.798D+00 0.202D+00
 Coeff:      0.622D+00 0.378D+00
 Gap=     0.025 Goal=   None    Shift=    0.000
 Gap=     0.025 Goal=   None    Shift=    0.000
 RMSDP=7.71D+00 MaxDP=5.86D+02 DE= 2.40D+00 OVMax= 9.27D-01

 Cycle   3  Pass 1  IDiag  1:
 RMSU=  7.18D-03    CP:  1.07D+00 -3.04D-04
 E= -695.718887294949     Delta-E=       -2.799922798429 Rises=F Damp=F
 DIIS: error= 3.75D-02 at cycle   3 NSaved=   3.
 NSaved= 3 IEnMin= 3 EnMin= -695.718887294949     IErMin= 3 ErrMin= 3.75D-02
 ErrMax= 3.75D-02  0.00D+00 EMaxC= 1.00D-01 BMatC= 1.51D+00 BMatP= 3.19D+00
 IDIUse=3 WtCom= 6.25D-01 WtEn= 3.75D-01
 EnCoef did     3 forward-backward iterations
 Coeff-Com:  0.256D+00 0.339D+00 0.405D+00
 Coeff-En:   0.197D+00 0.951D-01 0.708D+00
 Coeff:      0.234D+00 0.247D+00 0.519D+00
 Gap=     0.100 Goal=   None    Shift=    0.000
 Gap=     0.100 Goal=   None    Shift=    0.000
 RMSDP=7.94D-03 MaxDP=5.69D-01 DE=-2.80D+00 OVMax= 1.28D-01

 Cycle   4  Pass 1  IDiag  1:
 RMSU=  6.79D-03    CP:  1.18D+00 -4.36D-04  9.00D-01
 E= -696.085773551126     Delta-E=       -0.366886256177 Rises=F Damp=F
 DIIS: error= 1.55D-02 at cycle   4 NSaved=   4.
 NSaved= 4 IEnMin= 4 EnMin= -696.085773551126     IErMin= 4 ErrMin= 1.55D-02
 ErrMax= 1.55D-02  0.00D+00 EMaxC= 1.00D-01 BMatC= 1.43D-01 BMatP= 1.51D+00
 IDIUse=3 WtCom= 8.45D-01 WtEn= 1.55D-01
 Coeff-Com: -0.361D-02 0.128D+00 0.200D+00 0.676D+00
 Coeff-En:   0.000D+00 0.000D+00 0.000D+00 0.100D+01
 Coeff:     -0.305D-02 0.108D+00 0.169D+00 0.726D+00
 Gap=     0.041 Goal=   None    Shift=    0.000
 Gap=     0.041 Goal=   None    Shift=    0.000
 RMSDP=8.12D-03 MaxDP=5.46D-01 DE=-3.67D-01 OVMax= 4.68D-02

 Cycle   5  Pass 1  IDiag  1:
 RMSU=  4.43D-03    CP:  1.34D+00 -4.09D-04  1.22D+00  1.42D+00
 E= -696.112964294664     Delta-E=       -0.027190743538 Rises=F Damp=F
 DIIS: error= 1.35D-02 at cycle   5 NSaved=   5.
 NSaved= 5 IEnMin= 5 EnMin= -696.112964294664     IErMin= 5 ErrMin= 1.35D-02
 ErrMax= 1.35D-02  0.00D+00 EMaxC= 1.00D-01 BMatC= 8.89D-02 BMatP= 1.43D-01
 IDIUse=3 WtCom= 8.65D-01 WtEn= 1.35D-01
 Coeff-Com: -0.514D-01 0.629D-01 0.101D-01 0.447D+00 0.531D+00
 Coeff-En:   0.000D+00 0.000D+00 0.000D+00 0.177D+00 0.823D+00
 Coeff:     -0.445D-01 0.544D-01 0.872D-02 0.411D+00 0.571D+00
 Gap=     0.023 Goal=   None    Shift=    0.000
 Gap=     0.023 Goal=   None    Shift=    0.000
 RMSDP=1.43D-02 MaxDP=1.04D+00 DE=-2.72D-02 OVMax= 4.70D-02

 Cycle   6  Pass 1  IDiag  1:
 RMSU=  3.58D-03    CP:  1.66D+00 -5.00D-04  1.79D+00  2.15D+00  1.67D+00
 E= -696.130751206711     Delta-E=       -0.017786912047 Rises=F Damp=F
 DIIS: error= 3.01D-03 at cycle   6 NSaved=   6.
 NSaved= 6 IEnMin= 6 EnMin= -696.130751206711     IErMin= 6 ErrMin= 3.01D-03
 ErrMax= 3.01D-03  0.00D+00 EMaxC= 1.00D-01 BMatC= 9.39D-03 BMatP= 8.89D-02
 IDIUse=3 WtCom= 9.70D-01 WtEn= 3.01D-02
 Coeff-Com: -0.243D-01 0.124D-01-0.715D-01 0.259D-01 0.365D+00 0.692D+00
 Coeff-En:   0.000D+00 0.000D+00 0.000D+00 0.000D+00 0.000D+00 0.100D+01
 Coeff:     -0.236D-01 0.120D-01-0.694D-01 0.252D-01 0.354D+00 0.701D+00
 Gap=     0.009 Goal=   None    Shift=    0.000
 Gap=     0.009 Goal=   None    Shift=    0.000
 RMSDP=8.68D-03 MaxDP=5.13D-01 DE=-1.78D-02 OVMax= 2.82D-02

 Cycle   7  Pass 1  IDiag  1:
 RMSU=  2.82D-03    CP:  1.83D+00 -3.20D-04  2.05D+00  2.46D+00  2.42D+00
                    CP:  1.63D+00
 E= -696.133512591690     Delta-E=       -0.002761384978 Rises=F Damp=F
 DIIS: error= 1.51D-03 at cycle   7 NSaved=   7.
 NSaved= 7 IEnMin= 7 EnMin= -696.133512591690     IErMin= 7 ErrMin= 1.51D-03
 ErrMax= 1.51D-03  0.00D+00 EMaxC= 1.00D-01 BMatC= 1.25D-03 BMatP= 9.39D-03
 IDIUse=3 WtCom= 9.85D-01 WtEn= 1.51D-02
 Coeff-Com: -0.779D-02 0.335D-02-0.371D-01-0.258D-01 0.111D+00 0.368D+00
 Coeff-Com:  0.589D+00
 Coeff-En:   0.000D+00 0.000D+00 0.000D+00 0.000D+00 0.000D+00 0.000D+00
 Coeff-En:   0.100D+01
 Coeff:     -0.767D-02 0.330D-02-0.365D-01-0.254D-01 0.109D+00 0.362D+00
 Coeff:      0.595D+00
 Gap=     0.008 Goal=   None    Shift=    0.000
 Gap=     0.008 Goal=   None    Shift=    0.000
 RMSDP=9.15D-03 MaxDP=5.96D-01 DE=-2.76D-03 OVMax= 1.67D-02

 Cycle   8  Pass 1  IDiag  1:
 RMSU=  3.06D-03    CP:  2.00D+00  1.79D-04  2.18D+00  2.50D+00  2.85D+00
                    CP:  2.03D+00  2.41D+00
 E= -696.133798140889     Delta-E=       -0.000285549200 Rises=F Damp=F
 DIIS: error= 3.17D-04 at cycle   8 NSaved=   8.
 NSaved= 8 IEnMin= 8 EnMin= -696.133798140889     IErMin= 8 ErrMin= 3.17D-04
 ErrMax= 3.17D-04  0.00D+00 EMaxC= 1.00D-01 BMatC= 1.04D-04 BMatP= 1.25D-03
 IDIUse=3 WtCom= 9.97D-01 WtEn= 3.17D-03
 Coeff-Com:  0.475D-03 0.206D-03-0.483D-02-0.117D-01-0.121D-01 0.587D-01
 Coeff-Com:  0.287D+00 0.682D+00
 Coeff-En:   0.000D+00 0.000D+00 0.000D+00 0.000D+00 0.000D+00 0.000D+00
 Coeff-En:   0.000D+00 0.100D+01
 Coeff:      0.474D-03 0.205D-03-0.482D-02-0.117D-01-0.120D-01 0.585D-01
 Coeff:      0.286D+00 0.683D+00
 Gap=     0.006 Goal=   None    Shift=    0.000
 Gap=     0.006 Goal=   None    Shift=    0.000
 RMSDP=3.99D-02 MaxDP=2.64D+00 DE=-2.86D-04 OVMax= 4.13D-02

 Cycle   9  Pass 1  IDiag  1:
 RMSU=  1.83D-02    CP:  2.55D+00  3.38D-03  2.04D+00  1.98D+00  3.00D+00
                    CP:  2.26D+00  3.00D+00  3.00D+00
 E= -696.133916105597     Delta-E=       -0.000117964708 Rises=F Damp=F
 DIIS: error= 1.24D-04 at cycle   9 NSaved=   9.
 NSaved= 9 IEnMin= 9 EnMin= -696.133916105597     IErMin= 9 ErrMin= 1.24D-04
 ErrMax= 1.24D-04  0.00D+00 EMaxC= 1.00D-01 BMatC= 2.63D-05 BMatP= 1.04D-04
 IDIUse=3 WtCom= 9.99D-01 WtEn= 1.24D-03
 Coeff-Com:  0.605D-03-0.169D-03-0.504D-03-0.262D-02-0.515D-02 0.239D-01
 Coeff-Com:  0.106D+00 0.335D+00 0.542D+00
 Coeff-En:   0.000D+00 0.000D+00 0.000D+00 0.000D+00 0.000D+00 0.000D+00
 Coeff-En:   0.000D+00 0.000D+00 0.100D+01
 Coeff:      0.604D-03-0.169D-03-0.504D-03-0.261D-02-0.514D-02 0.239D-01
 Coeff:      0.106D+00 0.335D+00 0.543D+00
 Gap=     0.006 Goal=   None    Shift=    0.000
 Gap=     0.006 Goal=   None    Shift=    0.000
 RMSDP=1.32D-01 MaxDP=9.12D+00 DE=-1.18D-04 OVMax= 6.56D-02

 Cycle  10  Pass 1  IDiag  1:
 RMSU=  2.83D-02    CP:  3.00D+00  1.82D-02  2.56D+00  7.19D-01  3.00D+00
                    CP:  7.21D-01  3.00D+00  3.00D+00  3.00D+00
 E= -696.134160431947     Delta-E=       -0.000244326350 Rises=F Damp=F
 DIIS: error= 3.09D-04 at cycle  10 NSaved=  10.
 NSaved=10 IEnMin=10 EnMin= -696.134160431947     IErMin= 9 ErrMin= 1.24D-04
 ErrMax= 3.09D-04  0.00D+00 EMaxC= 1.00D-01 BMatC= 1.57D-04 BMatP= 2.63D-05
 IDIUse=3 WtCom= 9.99D-01 WtEn= 1.24D-03
 Coeff-Com:  0.591D-03-0.151D-03-0.535D-03-0.294D-02-0.628D-02 0.221D-01
 Coeff-Com:  0.109D+00 0.342D+00 0.581D+00-0.449D-01
 Coeff-En:   0.000D+00 0.000D+00 0.000D+00 0.000D+00 0.000D+00 0.000D+00
 Coeff-En:   0.000D+00 0.000D+00 0.000D+00 0.100D+01
 Coeff:      0.591D-03-0.151D-03-0.534D-03-0.294D-02-0.627D-02 0.220D-01
 Coeff:      0.109D+00 0.342D+00 0.580D+00-0.436D-01
 Gap=     0.007 Goal=   None    Shift=    0.000
 Gap=     0.007 Goal=   None    Shift=    0.000
 RMSDP=1.98D-02 MaxDP=1.38D+00 DE=-2.44D-04 OVMax= 7.70D-03

 Cycle  11  Pass 1  IDiag  1:
 RMSU=  3.65D-03    CP:  3.00D+00  1.57D-02  2.43D+00  8.78D-01  3.00D+00
                    CP:  1.04D+00  3.00D+00  3.00D+00  3.00D+00  7.90D-01
 E= -696.134127254614     Delta-E=        0.000033177333 Rises=F Damp=F
 DIIS: error= 2.85D-04 at cycle  11 NSaved=  11.
 NSaved=11 IEnMin=10 EnMin= -696.134160431947     IErMin= 9 ErrMin= 1.24D-04
 ErrMax= 2.85D-04  0.00D+00 EMaxC= 1.00D-01 BMatC= 1.33D-04 BMatP= 2.63D-05
 IDIUse=3 WtCom= 9.99D-01 WtEn= 1.24D-03
 Rare condition: small coef for last iteration:  0.000D+00
 Coeff-Com:  0.302D-03-0.407D-04-0.150D-03-0.261D-02-0.902D-02 0.425D-02
 Coeff-Com:  0.692D-01 0.238D+00 0.616D+00-0.384D+01 0.393D+01
 Coeff-En:   0.000D+00 0.000D+00 0.000D+00 0.000D+00 0.000D+00 0.000D+00
 Coeff-En:   0.000D+00 0.000D+00 0.000D+00 0.000D+00 0.100D+01
 Coeff:      0.302D-03-0.407D-04-0.150D-03-0.261D-02-0.902D-02 0.425D-02
 Coeff:      0.692D-01 0.238D+00 0.616D+00-0.384D+01 0.393D+01
 Gap=     0.006 Goal=   None    Shift=    0.000
 Gap=     0.006 Goal=   None    Shift=    0.000
 RMSDP=6.61D-02 MaxDP=4.62D+00 DE= 3.32D-05 OVMax= 3.07D-02

 Cycle  12  Pass 1  IDiag  1:
 RMSU=  2.85D-03    CP:  3.00D+00  7.74D-03  2.01D+00  1.43D+00  3.00D+00
                    CP:  2.13D+00  3.00D+00  3.00D+00  2.16D+00  1.78D-01
                    CP:  3.82D-01
 E= -696.133992164366     Delta-E=        0.000135090248 Rises=F Damp=F
 DIIS: error= 2.56D-04 at cycle  12 NSaved=  12.
 NSaved=12 IEnMin=10 EnMin= -696.134160431947     IErMin= 9 ErrMin= 1.24D-04
 ErrMax= 2.56D-04  0.00D+00 EMaxC= 1.00D-01 BMatC= 1.06D-04 BMatP= 2.63D-05
 IDIUse=3 WtCom= 9.99D-01 WtEn= 1.24D-03
 Rare condition: small coef for last iteration:  0.000D+00
 Coeff-Com:  0.541D-04 0.659D-04-0.203D-03-0.165D-02-0.593D-02 0.449D-02
 Coeff-Com:  0.317D-01 0.126D+00 0.264D+00-0.624D+01 0.511D+01 0.171D+01
 Coeff-En:   0.000D+00 0.000D+00 0.000D+00 0.000D+00 0.000D+00 0.000D+00
 Coeff-En:   0.000D+00 0.000D+00 0.000D+00 0.000D+00 0.000D+00 0.100D+01
 Coeff:      0.541D-04 0.659D-04-0.203D-03-0.165D-02-0.593D-02 0.449D-02
 Coeff:      0.317D-01 0.126D+00 0.264D+00-0.624D+01 0.511D+01 0.171D+01
 Gap=     0.006 Goal=   None    Shift=    0.000
 Gap=     0.006 Goal=   None    Shift=    0.000
 RMSDP=9.12D-02 MaxDP=6.09D+00 DE= 1.35D-04 OVMax= 8.69D-02

 Cycle  13  Pass 1  IDiag  1:
 RMSU=  1.99D-03    CP:  1.99D+00 -2.95D-04  2.33D+00  2.73D+00  2.93D+00
                    CP:  2.27D+00  1.36D+00 -5.53D-01  1.73D-02 -8.59D-03
                    CP: -2.94D-03  2.71D-01
 E= -696.133783867305     Delta-E=        0.000208297061 Rises=F Damp=F
 DIIS: error= 2.71D-04 at cycle  13 NSaved=  13.
 NSaved=13 IEnMin=10 EnMin= -696.134160431947     IErMin= 9 ErrMin= 1.24D-04
 ErrMax= 2.71D-04  0.00D+00 EMaxC= 1.00D-01 BMatC= 1.11D-04 BMatP= 2.63D-05
 IDIUse=3 WtCom= 9.99D-01 WtEn= 1.24D-03
 Rare condition: small coef for last iteration:  0.000D+00
 Coeff-Com:  0.242D-03-0.101D-03 0.502D-04-0.474D-04-0.605D-03 0.152D-01
 Coeff-Com:  0.309D-01 0.133D+00 0.209D+00-0.475D+01 0.417D+01 0.601D+00
 Coeff-Com:  0.591D+00
 Coeff-En:   0.000D+00 0.000D+00 0.000D+00 0.000D+00 0.000D+00 0.000D+00
 Coeff-En:   0.000D+00 0.791D+00 0.000D+00 0.000D+00 0.000D+00 0.000D+00
 Coeff-En:   0.209D+00
 Coeff:      0.242D-03-0.101D-03 0.502D-04-0.474D-04-0.605D-03 0.152D-01
 Coeff:      0.309D-01 0.133D+00 0.209D+00-0.475D+01 0.417D+01 0.601D+00
 Coeff:      0.591D+00
 Gap=     0.006 Goal=   None    Shift=    0.000
 Gap=     0.006 Goal=   None    Shift=    0.000
 RMSDP=4.00D-02 MaxDP=2.46D+00 DE= 2.08D-04 OVMax= 6.77D-02

 Cycle  14  Pass 1  IDiag  1:
 RMSU=  2.17D-02    CP:  2.45D+00  2.58D-03  2.18D+00  2.22D+00  3.00D+00
                    CP:  1.52D+00 -3.00D+00  9.05D-01  5.27D-01 -1.37D-01
                    CP: -2.41D-01  1.11D+00  3.00D+00
 E= -696.133837397269     Delta-E=       -0.000053529964 Rises=F Damp=F
 DIIS: error= 3.07D-04 at cycle  14 NSaved=  14.
 NSaved=14 IEnMin=10 EnMin= -696.134160431947     IErMin= 9 ErrMin= 1.24D-04
 ErrMax= 3.07D-04  0.00D+00 EMaxC= 1.00D-01 BMatC= 1.54D-04 BMatP= 2.63D-05
 IDIUse=3 WtCom= 9.99D-01 WtEn= 1.24D-03
 Coeff-Com:  0.284D-03-0.131D-03 0.208D-03 0.309D-03-0.353D-04 0.145D-01
 Coeff-Com:  0.291D-01 0.130D+00 0.249D+00-0.498D+01 0.473D+01 0.301D+00
 Coeff-Com:  0.330D+00 0.204D+00
 Coeff-En:   0.000D+00 0.000D+00 0.000D+00 0.000D+00 0.000D+00 0.000D+00
 Coeff-En:   0.000D+00 0.000D+00 0.000D+00 0.000D+00 0.000D+00 0.000D+00
 Coeff-En:   0.000D+00 0.100D+01
 Coeff:      0.284D-03-0.131D-03 0.208D-03 0.308D-03-0.353D-04 0.145D-01
 Coeff:      0.290D-01 0.130D+00 0.249D+00-0.498D+01 0.472D+01 0.300D+00
 Coeff:      0.329D+00 0.205D+00
 Gap=     0.006 Goal=   None    Shift=    0.000
 Gap=     0.006 Goal=   None    Shift=    0.000
 RMSDP=9.33D-03 MaxDP=6.55D-01 DE=-5.35D-05 OVMax= 7.11D-03

 Cycle  15  Pass 1  IDiag  1:
 RMSU=  1.03D-03    CP:  2.57D+00  3.37D-03  2.11D+00  2.06D+00  3.00D+00
                    CP:  1.38D+00 -3.00D+00  1.77D+00  6.05D-01 -1.57D-01
                    CP: -2.64D-01  1.43D+00  3.00D+00  1.19D+00
 E= -696.133866583317     Delta-E=       -0.000029186048 Rises=F Damp=F
 DIIS: error= 2.72D-04 at cycle  15 NSaved=  15.
 NSaved=15 IEnMin=10 EnMin= -696.134160431947     IErMin= 9 ErrMin= 1.24D-04
 ErrMax= 2.72D-04  0.00D+00 EMaxC= 1.00D-01 BMatC= 1.23D-04 BMatP= 2.63D-05
 IDIUse=3 WtCom= 9.99D-01 WtEn= 1.24D-03
 Coeff-Com:  0.245D-03-0.119D-03 0.397D-03 0.673D-03 0.158D-03 0.940D-02
 Coeff-Com:  0.160D-01 0.894D-01 0.234D+00-0.526D+01 0.512D+01 0.416D+00
 Coeff-Com: -0.605D-01-0.485D+00 0.916D+00
 Coeff-En:   0.000D+00 0.000D+00 0.000D+00 0.000D+00 0.000D+00 0.000D+00
 Coeff-En:   0.000D+00 0.000D+00 0.000D+00 0.000D+00 0.000D+00 0.000D+00
 Coeff-En:   0.000D+00 0.000D+00 0.100D+01
 Coeff:      0.245D-03-0.119D-03 0.397D-03 0.672D-03 0.158D-03 0.939D-02
 Coeff:      0.160D-01 0.893D-01 0.234D+00-0.525D+01 0.511D+01 0.416D+00
 Coeff:     -0.604D-01-0.484D+00 0.916D+00
 Gap=     0.006 Goal=   None    Shift=    0.000
 Gap=     0.006 Goal=   None    Shift=    0.000
 RMSDP=9.08D-03 MaxDP=6.54D-01 DE=-2.92D-05 OVMax= 6.29D-03

 Cycle  16  Pass 1  IDiag  1:
 RMSU=  2.96D-04    CP:  2.69D+00  4.15D-03  2.03D+00  1.89D+00  3.00D+00
                    CP:  1.23D+00 -3.00D+00  2.69D+00  6.85D-01 -1.76D-01
                    CP: -2.95D-01  1.70D+00  3.00D+00  1.37D+00  2.12D+00
 E= -696.133899318047     Delta-E=       -0.000032734730 Rises=F Damp=F
 DIIS: error= 2.16D-04 at cycle  16 NSaved=  16.
 NSaved=16 IEnMin=10 EnMin= -696.134160431947     IErMin= 9 ErrMin= 1.24D-04
 ErrMax= 2.16D-04  0.00D+00 EMaxC= 1.00D-01 BMatC= 7.84D-05 BMatP= 2.63D-05
 IDIUse=3 WtCom= 9.99D-01 WtEn= 1.24D-03
 Coeff-Com:  0.433D-04-0.313D-04 0.283D-03 0.456D-03-0.469D-03 0.319D-02
 Coeff-Com: -0.767D-02 0.122D-01 0.127D-01-0.316D+01 0.234D+01 0.134D+01
 Coeff-Com:  0.347D+00-0.110D+01-0.572D+00 0.179D+01
 Coeff-En:   0.000D+00 0.000D+00 0.000D+00 0.000D+00 0.000D+00 0.000D+00
 Coeff-En:   0.000D+00 0.000D+00 0.000D+00 0.000D+00 0.000D+00 0.000D+00
 Coeff-En:   0.000D+00 0.000D+00 0.000D+00 0.100D+01
 Coeff:      0.433D-04-0.313D-04 0.283D-03 0.455D-03-0.468D-03 0.319D-02
 Coeff:     -0.766D-02 0.122D-01 0.127D-01-0.316D+01 0.234D+01 0.134D+01
 Coeff:      0.346D+00-0.110D+01-0.571D+00 0.179D+01
 Gap=     0.006 Goal=   None    Shift=    0.000
 Gap=     0.006 Goal=   None    Shift=    0.000
 RMSDP=3.25D-02 MaxDP=2.27D+00 DE=-3.27D-05 OVMax= 2.67D-02

 Cycle  17  Pass 1  IDiag  1:
 RMSU=  5.48D-04    CP:  2.25D+00  1.46D-03  2.18D+00  2.36D+00  3.00D+00
                    CP:  1.62D+00 -2.49D+00 -4.97D-02  3.67D-01 -9.66D-02
                    CP: -1.65D-01  8.47D-01  3.00D+00  6.86D-01 -1.05D+00
                    CP:  3.00D+00
 E= -696.133851832808     Delta-E=        0.000047485239 Rises=F Damp=F
 DIIS: error= 1.27D-04 at cycle  17 NSaved=  17.
 NSaved=17 IEnMin=10 EnMin= -696.134160431947     IErMin= 9 ErrMin= 1.24D-04
 ErrMax= 1.27D-04  0.00D+00 EMaxC= 1.00D-01 BMatC= 2.63D-05 BMatP= 2.63D-05
 IDIUse=3 WtCom= 9.99D-01 WtEn= 1.24D-03
 Rare condition: small coef for last iteration:  0.000D+00
 Coeff-Com: -0.636D-05 0.184D-04 0.898D-04 0.616D-04-0.790D-03 0.304D-02
 Coeff-Com: -0.463D-02 0.131D-01-0.192D-01-0.170D+01 0.101D+01 0.101D+01
 Coeff-Com:  0.439D+00-0.317D+00-0.140D+01 0.116D+01 0.801D+00
 Coeff-En:   0.000D+00 0.000D+00 0.000D+00 0.000D+00 0.000D+00 0.000D+00
 Coeff-En:   0.000D+00 0.000D+00 0.000D+00 0.000D+00 0.000D+00 0.000D+00
 Coeff-En:   0.000D+00 0.000D+00 0.000D+00 0.000D+00 0.100D+01
 Coeff:     -0.636D-05 0.184D-04 0.898D-04 0.616D-04-0.790D-03 0.304D-02
 Coeff:     -0.463D-02 0.131D-01-0.192D-01-0.170D+01 0.101D+01 0.101D+01
 Coeff:      0.439D+00-0.317D+00-0.140D+01 0.116D+01 0.801D+00
 Gap=     0.007 Goal=   None    Shift=    0.000
 Gap=     0.007 Goal=   None    Shift=    0.000
 RMSDP=2.19D-02 MaxDP=1.42D+00 DE= 4.75D-05 OVMax= 3.30D-02

 Cycle  18  Pass 1  IDiag  1:
 RMSU=  7.48D-04    CP:  1.98D+00 -2.02D-04  2.29D+00  2.66D+00  2.83D+00
                    CP:  2.01D+00 -4.78D-01 -1.21D+00  9.83D-02 -3.08D-02
                    CP: -3.97D-02  3.98D-01  1.73D+00  1.77D-01 -9.48D-01
                    CP:  1.98D+00  7.62D-01
 E= -696.133817984582     Delta-E=        0.000033848226 Rises=F Damp=F
 DIIS: error= 9.68D-05 at cycle  18 NSaved=  18.
 NSaved=18 IEnMin=10 EnMin= -696.134160431947     IErMin=18 ErrMin= 9.68D-05
 ErrMax= 9.68D-05  0.00D+00 EMaxC= 1.00D-01 BMatC= 1.48D-05 BMatP= 2.63D-05
 IDIUse=1 WtCom= 1.00D+00 WtEn= 0.00D+00
 Coeff-Com: -0.937D-05 0.147D-04 0.491D-04 0.345D-04-0.398D-03 0.167D-02
 Coeff-Com: -0.290D-02 0.734D-02-0.349D-02-0.107D+01 0.846D+00 0.363D+00
 Coeff-Com:  0.747D-01-0.463D-01-0.798D+00 0.345D+00 0.514D+00 0.765D+00
 Coeff:     -0.937D-05 0.147D-04 0.491D-04 0.345D-04-0.398D-03 0.167D-02
 Coeff:     -0.290D-02 0.734D-02-0.349D-02-0.107D+01 0.846D+00 0.363D+00
 Coeff:      0.747D-01-0.463D-01-0.798D+00 0.345D+00 0.514D+00 0.765D+00
 Gap=     0.007 Goal=   None    Shift=    0.000
 Gap=     0.007 Goal=   None    Shift=    0.000
 RMSDP=4.01D-03 MaxDP=1.74D-01 DE= 3.38D-05 OVMax= 1.33D-02

 Cycle  19  Pass 1  IDiag  1:
 RMSU=  6.84D-04    CP:  1.95D+00 -3.46D-04  2.28D+00  2.67D+00  2.79D+00
                    CP:  2.12D+00  3.49D-01 -1.08D+00  5.03D-02 -2.16D-02
                    CP: -2.09D-02  3.25D-01  1.32D+00  7.51D-02 -4.72D-01
                    CP:  1.42D+00  1.32D+00  2.26D+00
 E= -696.133821853615     Delta-E=       -0.000003869033 Rises=F Damp=F
 DIIS: error= 6.33D-05 at cycle  19 NSaved=  19.
 NSaved=19 IEnMin=10 EnMin= -696.134160431947     IErMin=19 ErrMin= 6.33D-05
 ErrMax= 6.33D-05  0.00D+00 EMaxC= 1.00D-01 BMatC= 6.22D-06 BMatP= 1.48D-05
 IDIUse=1 WtCom= 1.00D+00 WtEn= 0.00D+00
 Coeff-Com: -0.860D-05 0.135D-04 0.473D-04 0.378D-04-0.366D-03 0.162D-02
 Coeff-Com: -0.282D-02 0.690D-02-0.366D-02-0.104D+01 0.826D+00 0.344D+00
 Coeff-Com:  0.661D-01-0.582D-01-0.747D+00 0.340D+00 0.477D+00 0.692D+00
 Coeff-Com:  0.935D-01
 Coeff:     -0.860D-05 0.135D-04 0.473D-04 0.378D-04-0.366D-03 0.162D-02
 Coeff:     -0.282D-02 0.690D-02-0.366D-02-0.104D+01 0.826D+00 0.344D+00
 Coeff:      0.661D-01-0.582D-01-0.747D+00 0.340D+00 0.477D+00 0.692D+00
 Coeff:      0.935D-01
 Gap=     0.007 Goal=   None    Shift=    0.000
 Gap=     0.007 Goal=   None    Shift=    0.000
 RMSDP=3.76D-04 MaxDP=2.29D-02 DE=-3.87D-06 OVMax= 1.94D-03

 Cycle  20  Pass 1  IDiag  1:
 RMSU=  8.09D-05    CP:  1.95D+00 -3.41D-04  2.27D+00  2.67D+00  2.79D+00
                    CP:  2.12D+00  3.01D-01 -1.11D+00  5.24D-02 -2.32D-02
                    CP: -2.26D-02  3.31D-01  1.33D+00  7.96D-02 -4.93D-01
                    CP:  1.70D+00  1.52D+00  2.58D+00  1.15D+00
 E= -696.133823058932     Delta-E=       -0.000001205317 Rises=F Damp=F
 DIIS: error= 6.16D-05 at cycle  20 NSaved=  20.
 NSaved=20 IEnMin=10 EnMin= -696.134160431947     IErMin=20 ErrMin= 6.16D-05
 ErrMax= 6.16D-05  0.00D+00 EMaxC= 1.00D-01 BMatC= 5.91D-06 BMatP= 6.22D-06
 IDIUse=1 WtCom= 1.00D+00 WtEn= 0.00D+00
 Coeff-Com: -0.115D-04 0.106D-04 0.306D-04 0.519D-04-0.906D-04 0.998D-03
 Coeff-Com: -0.258D-02 0.253D-02 0.149D-03-0.755D+00 0.777D+00 0.225D-01
 Coeff-Com: -0.130D+00 0.273D-01-0.419D+00-0.309D-01 0.337D+00 0.107D+01
 Coeff-Com:  0.296D+01-0.286D+01
 Coeff:     -0.115D-04 0.106D-04 0.306D-04 0.519D-04-0.906D-04 0.998D-03
 Coeff:     -0.258D-02 0.253D-02 0.149D-03-0.755D+00 0.777D+00 0.225D-01
 Coeff:     -0.130D+00 0.273D-01-0.419D+00-0.309D-01 0.337D+00 0.107D+01
 Coeff:      0.296D+01-0.286D+01
 Gap=     0.007 Goal=   None    Shift=    0.000
 Gap=     0.007 Goal=   None    Shift=    0.000
 RMSDP=2.04D-03 MaxDP=1.09D-01 DE=-1.21D-06 OVMax= 1.02D-02

 Cycle  21  Pass 1  IDiag  1:
 Restarting incremental Fock formation.
 E= -696.133820603084     Delta-E=        0.000002455848 Rises=F Damp=F
 DIIS: error= 4.37D-05 at cycle  21 NSaved=  20.
 NSaved=20 IEnMin= 9 EnMin= -696.134160431947     IErMin=20 ErrMin= 4.37D-05
 ErrMax= 4.37D-05  0.00D+00 EMaxC= 1.00D-01 BMatC= 2.85D-06 BMatP= 5.91D-06
 IDIUse=1 WtCom= 1.00D+00 WtEn= 0.00D+00
 Coeff-Com: -0.743D-05-0.237D-04 0.617D-05 0.171D-03 0.581D-03-0.116D-02
 Coeff-Com: -0.146D-02-0.102D-01-0.160D+00 0.239D+00-0.137D+00-0.139D+00
 Coeff-Com: -0.579D-01-0.542D-02-0.537D-03 0.312D-01 0.269D+00 0.318D+01
 Coeff-Com: -0.327D+01 0.107D+01
 Coeff:     -0.743D-05-0.237D-04 0.617D-05 0.171D-03 0.581D-03-0.116D-02
 Coeff:     -0.146D-02-0.102D-01-0.160D+00 0.239D+00-0.137D+00-0.139D+00
 Coeff:     -0.579D-01-0.542D-02-0.537D-03 0.312D-01 0.269D+00 0.318D+01
 Coeff:     -0.327D+01 0.107D+01
 Gap=     0.007 Goal=   None    Shift=    0.000
 Gap=     0.007 Goal=   None    Shift=    0.000
 RMSDP=2.04D-03 MaxDP=9.67D-02 DE= 2.46D-06 OVMax= 7.56D-03

 Cycle  22  Pass 1  IDiag  1:
 RMSU=  2.04D-03    CP:  9.99D-01
 E= -696.133820451179     Delta-E=        0.000000151905 Rises=F Damp=F
 DIIS: error= 1.35D-05 at cycle  22 NSaved=  20.
 NSaved=20 IEnMin= 8 EnMin= -696.134160431947     IErMin=20 ErrMin= 1.35D-05
 ErrMax= 1.35D-05  0.00D+00 EMaxC= 1.00D-01 BMatC= 2.85D-07 BMatP= 2.85D-06
 IDIUse=1 WtCom= 1.00D+00 WtEn= 0.00D+00
 Coeff-Com: -0.657D-05-0.261D-04-0.538D-04 0.724D-04-0.543D-03-0.635D-03
 Coeff-Com: -0.543D-02-0.288D-01 0.321D-01-0.208D-01-0.393D-01-0.337D-01
 Coeff-Com: -0.164D-01 0.547D-01-0.718D-02-0.827D-01 0.951D+00-0.101D+01
 Coeff-Com:  0.460D+00 0.745D+00
 Coeff:     -0.657D-05-0.261D-04-0.538D-04 0.724D-04-0.543D-03-0.635D-03
 Coeff:     -0.543D-02-0.288D-01 0.321D-01-0.208D-01-0.393D-01-0.337D-01
 Coeff:     -0.164D-01 0.547D-01-0.718D-02-0.827D-01 0.951D+00-0.101D+01
 Coeff:      0.460D+00 0.745D+00
 Gap=     0.007 Goal=   None    Shift=    0.000
 Gap=     0.007 Goal=   None    Shift=    0.000
 RMSDP=1.37D-04 MaxDP=5.84D-03 DE= 1.52D-07 OVMax= 7.53D-04

 Cycle  23  Pass 1  IDiag  1:
 RMSU=  8.88D-05    CP:  9.98D-01  1.04D+00
 E= -696.133820555209     Delta-E=       -0.000000104030 Rises=F Damp=F
 DIIS: error= 4.43D-06 at cycle  23 NSaved=  20.
 NSaved=20 IEnMin= 7 EnMin= -696.134160431947     IErMin=20 ErrMin= 4.43D-06
 ErrMax= 4.43D-06  0.00D+00 EMaxC= 1.00D-01 BMatC= 3.03D-08 BMatP= 2.85D-07
 IDIUse=1 WtCom= 1.00D+00 WtEn= 0.00D+00
 Coeff-Com: -0.812D-05-0.508D-04 0.664D-04-0.116D-03 0.439D-03 0.637D-04
 Coeff-Com: -0.420D-01 0.232D-01 0.328D-01 0.817D-02-0.785D-02-0.168D-01
 Coeff-Com:  0.229D-01-0.147D-02-0.801D-01-0.215D+00 0.222D+00-0.195D-01
 Coeff-Com:  0.209D+00 0.864D+00
 Coeff:     -0.812D-05-0.508D-04 0.664D-04-0.116D-03 0.439D-03 0.637D-04
 Coeff:     -0.420D-01 0.232D-01 0.328D-01 0.817D-02-0.785D-02-0.168D-01
 Coeff:      0.229D-01-0.147D-02-0.801D-01-0.215D+00 0.222D+00-0.195D-01
 Coeff:      0.209D+00 0.864D+00
 Gap=     0.007 Goal=   None    Shift=    0.000
 Gap=     0.007 Goal=   None    Shift=    0.000
 RMSDP=3.98D-04 MaxDP=1.44D-02 DE=-1.04D-07 OVMax= 1.25D-03

 Cycle  24  Pass 1  IDiag  1:
 RMSU=  8.60D-05    CP:  9.97D-01  8.66D-01  2.45D+00
 E= -696.133820541940     Delta-E=        0.000000013268 Rises=F Damp=F
 DIIS: error= 1.23D-06 at cycle  24 NSaved=  20.
 NSaved=20 IEnMin= 6 EnMin= -696.134160431947     IErMin=20 ErrMin= 1.23D-06
 ErrMax= 1.23D-06  0.00D+00 EMaxC= 1.00D-01 BMatC= 2.52D-09 BMatP= 3.03D-08
 IDIUse=1 WtCom= 1.00D+00 WtEn= 0.00D+00
 Coeff-Com: -0.935D-05 0.163D-04-0.159D-05 0.912D-04-0.399D-03-0.616D-02
 Coeff-Com: -0.102D-01 0.250D-01 0.161D-01-0.131D-01 0.227D-02 0.152D-01
 Coeff-Com: -0.364D-02-0.400D-01-0.281D+00 0.294D+00-0.647D-01-0.939D-01
 Coeff-Com:  0.296D+00 0.864D+00
 Coeff:     -0.935D-05 0.163D-04-0.159D-05 0.912D-04-0.399D-03-0.616D-02
 Coeff:     -0.102D-01 0.250D-01 0.161D-01-0.131D-01 0.227D-02 0.152D-01
 Coeff:     -0.364D-02-0.400D-01-0.281D+00 0.294D+00-0.647D-01-0.939D-01
 Coeff:      0.296D+00 0.864D+00
 Gap=     0.007 Goal=   None    Shift=    0.000
 Gap=     0.007 Goal=   None    Shift=    0.000
 RMSDP=6.95D-05 MaxDP=2.75D-03 DE= 1.33D-08 OVMax= 2.34D-04

 Cycle  25  Pass 1  IDiag  1:
 RMSU=  2.77D-05    CP:  9.97D-01  8.94D-01  2.24D+00  7.56D-01
 E= -696.133820544997     Delta-E=       -0.000000003056 Rises=F Damp=F
 DIIS: error= 3.36D-07 at cycle  25 NSaved=  20.
 NSaved=20 IEnMin= 5 EnMin= -696.134160431947     IErMin=20 ErrMin= 3.36D-07
 ErrMax= 3.36D-07  0.00D+00 EMaxC= 1.00D-01 BMatC= 6.12D-11 BMatP= 2.52D-09
 IDIUse=1 WtCom= 1.00D+00 WtEn= 0.00D+00
 Coeff-Com: -0.187D-04 0.156D-05-0.108D-03-0.312D-03 0.461D-02-0.111D-01
 Coeff-Com:  0.993D-02 0.680D-02-0.641D-02 0.376D-02 0.699D-02-0.359D-02
 Coeff-Com: -0.152D-01-0.104D+00 0.108D+00-0.236D-01-0.475D-01-0.425D-02
 Coeff-Com:  0.283D+00 0.793D+00
 Coeff:     -0.187D-04 0.156D-05-0.108D-03-0.312D-03 0.461D-02-0.111D-01
 Coeff:      0.993D-02 0.680D-02-0.641D-02 0.376D-02 0.699D-02-0.359D-02
 Coeff:     -0.152D-01-0.104D+00 0.108D+00-0.236D-01-0.475D-01-0.425D-02
 Coeff:      0.283D+00 0.793D+00
 Gap=     0.007 Goal=   None    Shift=    0.000
 Gap=     0.007 Goal=   None    Shift=    0.000
 RMSDP=3.57D-05 MaxDP=1.35D-03 DE=-3.06D-09 OVMax= 1.55D-04

 Cycle  26  Pass 1  IDiag  1:
 RMSU=  3.26D-06    CP:  9.97D-01  8.80D-01  2.41D+00  8.31D-01  1.20D+00
 E= -696.133820545281     Delta-E=       -0.000000000284 Rises=F Damp=F
 DIIS: error= 4.41D-07 at cycle  26 NSaved=  20.
 NSaved=20 IEnMin= 4 EnMin= -696.134160431947     IErMin=19 ErrMin= 3.36D-07
 ErrMax= 4.41D-07  0.00D+00 EMaxC= 1.00D-01 BMatC= 3.29D-10 BMatP= 6.12D-11
 IDIUse=1 WtCom= 1.00D+00 WtEn= 0.00D+00
 Coeff-Com:  0.249D-04-0.990D-05-0.335D-03 0.560D-02-0.904D-02 0.443D-02
 Coeff-Com:  0.311D-02-0.157D-02-0.184D-02 0.594D-02-0.163D-02-0.528D-02
 Coeff-Com: -0.885D-02 0.791D-02 0.754D-03 0.417D-02-0.704D-01-0.635D-01
 Coeff-Com:  0.465D+00 0.666D+00
 Coeff:      0.249D-04-0.990D-05-0.335D-03 0.560D-02-0.904D-02 0.443D-02
 Coeff:      0.311D-02-0.157D-02-0.184D-02 0.594D-02-0.163D-02-0.528D-02
 Coeff:     -0.885D-02 0.791D-02 0.754D-03 0.417D-02-0.704D-01-0.635D-01
 Coeff:      0.465D+00 0.666D+00
 Gap=     0.007 Goal=   None    Shift=    0.000
 Gap=     0.007 Goal=   None    Shift=    0.000
 RMSDP=5.68D-06 MaxDP=2.53D-04 DE=-2.84D-10 OVMax= 4.78D-05

 Cycle  27  Pass 1  IDiag  1:
 RMSU=  7.29D-07    CP:  9.97D-01  8.80D-01  2.44D+00  8.29D-01  1.34D+00
                    CP:  1.82D+00
 E= -696.133820545573     Delta-E=       -0.000000000292 Rises=F Damp=F
 DIIS: error= 1.73D-07 at cycle  27 NSaved=  20.
 NSaved=20 IEnMin= 3 EnMin= -696.134160431947     IErMin=20 ErrMin= 1.73D-07
 ErrMax= 1.73D-07  0.00D+00 EMaxC= 1.00D-01 BMatC= 5.86D-11 BMatP= 6.12D-11
 IDIUse=1 WtCom= 1.00D+00 WtEn= 0.00D+00
 Coeff-Com: -0.466D-04-0.297D-03 0.597D-02-0.635D-02-0.466D-03-0.280D-03
 Coeff-Com: -0.591D-03-0.105D-02 0.340D-02-0.101D-02-0.108D-02 0.365D-01
 Coeff-Com: -0.382D-01 0.128D-01 0.260D-01-0.435D-01-0.161D+00-0.116D+00
 Coeff-Com:  0.387D+00 0.898D+00
 Coeff:     -0.466D-04-0.297D-03 0.597D-02-0.635D-02-0.466D-03-0.280D-03
 Coeff:     -0.591D-03-0.105D-02 0.340D-02-0.101D-02-0.108D-02 0.365D-01
 Coeff:     -0.382D-01 0.128D-01 0.260D-01-0.435D-01-0.161D+00-0.116D+00
 Coeff:      0.387D+00 0.898D+00
 Gap=     0.007 Goal=   None    Shift=    0.000
 Gap=     0.007 Goal=   None    Shift=    0.000
 RMSDP=2.16D-05 MaxDP=7.78D-04 DE=-2.92D-10 OVMax= 6.32D-05

 Cycle  28  Pass 1  IDiag  1:
 RMSU=  8.12D-07    CP:  9.97D-01  8.89D-01  2.39D+00  7.68D-01  1.55D+00
                    CP:  2.49D+00  1.53D+00
 E= -696.133820545626     Delta-E=       -0.000000000053 Rises=F Damp=F
 DIIS: error= 1.27D-07 at cycle  28 NSaved=  20.
 NSaved=20 IEnMin= 3 EnMin= -696.134160431947     IErMin=20 ErrMin= 1.27D-07
 ErrMax= 1.27D-07  0.00D+00 EMaxC= 1.00D-01 BMatC= 2.56D-11 BMatP= 5.86D-11
 IDIUse=1 WtCom= 1.00D+00 WtEn= 0.00D+00
 Coeff-Com: -0.180D-04-0.122D-03 0.321D-02-0.331D-02-0.323D-03-0.529D-03
 Coeff-Com:  0.164D-03 0.898D-03-0.373D-03-0.244D-03 0.129D-01-0.132D-01
 Coeff-Com:  0.472D-02 0.834D-02-0.940D-02-0.488D-01-0.123D+00 0.610D-01
 Coeff-Com:  0.410D+00 0.698D+00
 Coeff:     -0.180D-04-0.122D-03 0.321D-02-0.331D-02-0.323D-03-0.529D-03
 Coeff:      0.164D-03 0.898D-03-0.373D-03-0.244D-03 0.129D-01-0.132D-01
 Coeff:      0.472D-02 0.834D-02-0.940D-02-0.488D-01-0.123D+00 0.610D-01
 Coeff:      0.410D+00 0.698D+00
 Gap=     0.007 Goal=   None    Shift=    0.000
 Gap=     0.007 Goal=   None    Shift=    0.000
 RMSDP=3.45D-06 MaxDP=1.76D-04 DE=-5.25D-11 OVMax= 2.03D-05

 Cycle  29  Pass 1  IDiag  1:
 RMSU=  7.69D-07    CP:  9.97D-01  8.88D-01  2.40D+00  7.73D-01  1.58D+00
                    CP:  2.68D+00  1.86D+00  2.08D+00
 E= -696.133820545627     Delta-E=       -0.000000000001 Rises=F Damp=F
 DIIS: error= 6.60D-08 at cycle  29 NSaved=  20.
 NSaved=20 IEnMin= 2 EnMin= -696.134160431947     IErMin=20 ErrMin= 6.60D-08
 ErrMax= 6.60D-08  0.00D+00 EMaxC= 1.00D-01 BMatC= 6.79D-12 BMatP= 2.56D-11
 IDIUse=1 WtCom= 1.00D+00 WtEn= 0.00D+00
 Coeff-Com: -0.323D-04 0.819D-03-0.802D-03-0.173D-03-0.383D-03 0.390D-03
 Coeff-Com:  0.795D-06-0.588D-05 0.169D-03 0.369D-02-0.368D-02 0.147D-02
 Coeff-Com:  0.801D-03 0.148D-02 0.340D-02-0.450D-01-0.438D-01 0.394D-01
 Coeff-Com:  0.333D+00 0.709D+00
 Coeff:     -0.323D-04 0.819D-03-0.802D-03-0.173D-03-0.383D-03 0.390D-03
 Coeff:      0.795D-06-0.588D-05 0.169D-03 0.369D-02-0.368D-02 0.147D-02
 Coeff:      0.801D-03 0.148D-02 0.340D-02-0.450D-01-0.438D-01 0.394D-01
 Coeff:      0.333D+00 0.709D+00
 Gap=     0.007 Goal=   None    Shift=    0.000
 Gap=     0.007 Goal=   None    Shift=    0.000
 RMSDP=3.52D-06 MaxDP=1.73D-04 DE=-1.36D-12 OVMax= 1.33D-05

 Cycle  30  Pass 1  IDiag  1:
 RMSU=  9.95D-07    CP:  9.97D-01  8.89D-01  2.39D+00  7.67D-01  1.60D+00
                    CP:  2.78D+00  2.54D+00  3.00D+00  3.00D+00
 E= -696.133820545621     Delta-E=        0.000000000006 Rises=F Damp=F
 DIIS: error= 3.74D-08 at cycle  30 NSaved=  20.
 NSaved=20 IEnMin= 2 EnMin= -696.134160431947     IErMin=20 ErrMin= 3.74D-08
 ErrMax= 3.74D-08  0.00D+00 EMaxC= 1.00D-01 BMatC= 1.67D-13 BMatP= 6.79D-12
 IDIUse=1 WtCom= 1.00D+00 WtEn= 0.00D+00
 Coeff-Com: -0.230D-04 0.595D-03-0.590D-03-0.109D-03-0.228D-03 0.243D-03
 Coeff-Com:  0.226D-04-0.165D-04 0.204D-02-0.203D-02 0.913D-03 0.287D-03
 Coeff-Com:  0.103D-02 0.370D-02-0.231D-01-0.284D-01 0.105D-01 0.180D+00
 Coeff-Com:  0.437D+00 0.418D+00
 Coeff:     -0.230D-04 0.595D-03-0.590D-03-0.109D-03-0.228D-03 0.243D-03
 Coeff:      0.226D-04-0.165D-04 0.204D-02-0.203D-02 0.913D-03 0.287D-03
 Coeff:      0.103D-02 0.370D-02-0.231D-01-0.284D-01 0.105D-01 0.180D+00
 Coeff:      0.437D+00 0.418D+00
 Gap=     0.007 Goal=   None    Shift=    0.000
 Gap=     0.007 Goal=   None    Shift=    0.000
 RMSDP=2.80D-06 MaxDP=1.27D-04 DE= 6.14D-12 OVMax= 1.01D-05

 Cycle  31  Pass 1  IDiag  1:
 RMSU=  1.71D-06    CP:  9.97D-01  8.89D-01  2.38D+00  7.65D-01  1.60D+00
                    CP:  2.81D+00  3.00D+00  3.00D+00  3.00D+00  3.00D+00
 E= -696.133820545641     Delta-E=       -0.000000000020 Rises=F Damp=F
 DIIS: error= 4.72D-08 at cycle  31 NSaved=  20.
 NSaved=20 IEnMin= 2 EnMin= -696.134160431947     IErMin=19 ErrMin= 3.74D-08
 ErrMax= 4.72D-08  0.00D+00 EMaxC= 1.00D-01 BMatC= 2.85D-13 BMatP= 1.67D-13
 IDIUse=1 WtCom= 1.00D+00 WtEn= 0.00D+00
 Coeff-Com: -0.217D-04 0.518D-03-0.506D-03-0.108D-03-0.741D-04 0.329D-04
 Coeff-Com:  0.460D-04 0.978D-05 0.104D-02-0.107D-02 0.526D-03 0.305D-03
 Coeff-Com:  0.514D-02-0.834D-03-0.217D-01-0.380D-01 0.424D-01 0.344D+00
 Coeff-Com:  0.191D+01-0.125D+01
 Coeff:     -0.217D-04 0.518D-03-0.506D-03-0.108D-03-0.741D-04 0.329D-04
 Coeff:      0.460D-04 0.978D-05 0.104D-02-0.107D-02 0.526D-03 0.305D-03
 Coeff:      0.514D-02-0.834D-03-0.217D-01-0.380D-01 0.424D-01 0.344D+00
 Coeff:      0.191D+01-0.125D+01
 Gap=     0.007 Goal=   None    Shift=    0.000
 Gap=     0.007 Goal=   None    Shift=    0.000
 RMSDP=5.95D-06 MaxDP=2.28D-04 DE=-2.00D-11 OVMax= 1.80D-05

 Cycle  32  Pass 1  IDiag  1:
 RMSU=  3.03D-07    CP:  9.97D-01  8.89D-01  2.38D+00  7.65D-01  1.60D+00
                    CP:  2.75D+00  1.67D+00  1.57D+00  1.46D-01 -1.11D-01
                    CP:  2.43D-02
 E= -696.133820545612     Delta-E=        0.000000000029 Rises=F Damp=F
 DIIS: error= 1.47D-08 at cycle  32 NSaved=  20.
 NSaved=20 IEnMin= 2 EnMin= -696.134160431947     IErMin=20 ErrMin= 1.47D-08
 ErrMax= 1.47D-08  0.00D+00 EMaxC= 1.00D-01 BMatC= 3.91D-14 BMatP= 1.67D-13
 IDIUse=1 WtCom= 1.00D+00 WtEn= 0.00D+00
 Large coefficients: NSaved= 20 BigCof=    0.00 CofMax=   10.00 Det=-9.52D-15
 Inversion failed.  Reducing to 19 matrices.
 Coeff-Com: -0.892D-05 0.305D-03-0.290D-03-0.636D-04 0.485D-04-0.602D-04
 Coeff-Com:  0.239D-04 0.972D-05-0.134D-04 0.455D-06 0.240D-04-0.212D-03
 Coeff-Com: -0.106D-02-0.787D-02-0.262D-01 0.188D-01 0.934D+00-0.764D+00
 Coeff-Com:  0.846D+00
 Coeff:     -0.892D-05 0.305D-03-0.290D-03-0.636D-04 0.485D-04-0.602D-04
 Coeff:      0.239D-04 0.972D-05-0.134D-04 0.455D-06 0.240D-04-0.212D-03
 Coeff:     -0.106D-02-0.787D-02-0.262D-01 0.188D-01 0.934D+00-0.764D+00
 Coeff:      0.846D+00
 Gap=     0.007 Goal=   None    Shift=    0.000
 Gap=     0.007 Goal=   None    Shift=    0.000
 RMSDP=1.44D-06 MaxDP=6.39D-05 DE= 2.91D-11 OVMax= 5.04D-06

 Cycle  33  Pass 1  IDiag  1:
 RMSU=  3.97D-08    CP:  9.97D-01  8.89D-01  2.38D+00  7.63D-01  1.61D+00
                    CP:  2.74D+00  1.29D+00  4.83D-01 -1.13D+00 -2.16D-01
                    CP:  4.73D-02  1.95D+00
 E= -696.133820545624     Delta-E=       -0.000000000012 Rises=F Damp=F
 DIIS: error= 4.61D-09 at cycle  33 NSaved=  20.
 NSaved=20 IEnMin= 2 EnMin= -696.134160431947     IErMin=20 ErrMin= 4.61D-09
 ErrMax= 4.61D-09  0.00D+00 EMaxC= 1.00D-01 BMatC= 3.75D-14 BMatP= 3.91D-14
 IDIUse=1 WtCom= 1.00D+00 WtEn= 0.00D+00
 Large coefficients: NSaved= 20 BigCof=    0.00 CofMax=   10.00 Det=-3.81D-15
 Inversion failed.  Reducing to 19 matrices.
 Large coefficients: NSaved= 19 BigCof=    0.00 CofMax=   10.00 Det=-4.03D-15
 Inversion failed.  Reducing to 18 matrices.
 Large coefficients: NSaved= 18 BigCof=    0.00 CofMax=   10.00 Det=-4.55D-15
 Inversion failed.  Reducing to 17 matrices.
 Coeff-Com: -0.250D-05 0.849D-04-0.729D-04-0.258D-04 0.322D-04-0.132D-04
 Coeff-Com: -0.263D-04 0.138D-04-0.229D-03 0.222D-03-0.680D-04 0.285D-03
 Coeff-Com: -0.175D-01-0.520D-01-0.843D-01 0.412D+00 0.742D+00
 Coeff:     -0.250D-05 0.849D-04-0.729D-04-0.258D-04 0.322D-04-0.132D-04
 Coeff:     -0.263D-04 0.138D-04-0.229D-03 0.222D-03-0.680D-04 0.285D-03
 Coeff:     -0.175D-01-0.520D-01-0.843D-01 0.412D+00 0.742D+00
[...]
 00616,-0.00000118,0.00000308,0.00000628,-0.00000015,-0.00002394,-0.000
 00729,0.00001016,-0.00000313,0.00000591,-0.00000661,0.00001368,-0.0000
 0436,-0.00000406,0.00007824,0.00028385,0.00052920,-0.00028682,0.000858
 16,-0.00035771,-0.00002310,0.00004168,-0.00006411,-0.01027359,0.057358
 41,0.06062823,-0.00023173,-0.00058845,0.00023093,0.00010795,0.00016633
 ,-0.00032617,0.00019738,0.00054522,-0.00041876,-0.00307517,-0.00593119
 ,0.00546491,0.00130030,0.00104582,-0.00051918,-0.00021424,0.00002157,0
 .00017167,0.00015290,0.00088346,-0.00063369,0.00110689,0.00244376,-0.0
 0391856,-0.00006220,0.00001733,0.00001245,-0.00001113,-0.00000653,-0.0
 0000618,0.00002445,-0.00000714,0.00000785,-0.00003887,-0.00001194,-0.0
 0000546,0.00864112,-0.00531550,0.00820607,-0.00080936,0.00008296,0.002
 84235,-0.14732462,0.06445023,-0.11416355,0.00030037,-0.00043749,-0.000
 25146,-0.00003638,0.00020373,-0.00014801,-0.00006465,-0.00009788,-0.00
 007848,-0.00004002,-0.00001612,-0.00004354,0.00005368,0.00003998,0.000
 01430,0.00000078,-0.00001268,0.00002247,-0.00001770,-0.00001719,-0.000
 01545,0.00004341,0.00003241,-0.00001119,-0.00002643,0.00000663,0.00000
 874,0.00006359,0.00001516,-0.00000363,-0.00000336,-0.00000646,0.000013
 67,-0.00003889,0.00000810,-0.00000251,0.00065473,-0.00014051,0.0013391
 9,-0.00018073,0.00019515,-0.00013221,0.00013804,0.00015332,0.00001288,
 -0.00071875,0.00003860,0.00002614,0.15577815,0.00007673,0.00018418,0.0
 0004629,-0.00012423,-0.00002922,0.00012537,0.00025518,-0.00057225,0.00
 089775,-0.00060283,0.00159103,-0.00075135,-0.00039094,-0.00043454,0.00
 039770,0.00000016,-0.00007120,-0.00011534,-0.00004584,-0.00021889,0.00
 010544,0.00028910,-0.00265498,0.00036338,0.00001973,-0.00003309,-0.000
 01315,-0.00001753,-0.00000147,0.00001514,-0.00000854,0.00000640,0.0000
 1176,0.00002151,0.00000836,0.00000219,-0.00213969,0.00008769,-0.001560
 77,-0.00027079,0.00006559,-0.00067223,0.06330209,-0.09131831,0.0712043
 3,-0.00070142,0.00050440,-0.00043333,0.00003123,-0.00003838,0.00000568
 ,0.00001336,0.00006796,0.00004406,0.00001673,0.00000665,0.00001253,-0.
 00000342,-0.00000945,-0.00000479,-0.00000276,-0.00000089,-0.00001602,0
 .00000236,0.00000245,-0.00000446,-0.00000759,-0.00000702,-0.00000014,0
 .00000810,-0.00000533,-0.00000530,-0.00001725,-0.00000100,-0.00000172,
 0.00000068,-0.00000247,-0.00000436,0.00000810,-0.00000095,-0.00000151,
 0.00016461,0.00061542,-0.00019194,-0.00013398,0.00041451,-0.00017372,0
 .00053691,0.00005421,0.00015222,0.01884054,-0.01202003,0.02040352,-0.0
 6800019,0.09687067,-0.00001416,-0.00009882,-0.00012136,0.00000035,0.00
 015067,-0.00004056,-0.00085781,-0.00005432,0.00073795,0.00118277,0.001
 27298,-0.00116393,0.00010273,-0.00023074,0.00009279,-0.00004898,0.0000
 2352,0.00003160,0.00001565,-0.00003275,0.00012007,-0.00260989,-0.00001
 322,-0.00019810,0.00002628,0.00000224,0.00002379,-0.00001404,0.0000048
 0,0.00000716,0.00000019,-0.00000223,0.00001119,-0.00001064,0.00000263,
 0.00000273,-0.01772997,0.01239904,-0.02177056,0.00341053,-0.00105882,-
 0.00539771,-0.10881443,0.06936551,-0.16083612,-0.00074863,0.00064405,0
 .00108801,-0.00000004,-0.00012834,0.00010684,0.00005704,-0.00002221,-0
 .00002307,-0.00000022,-0.00000408,-0.00000198,-0.00000131,-0.00000971,
 0.00000015,0.00000116,0.00000465,-0.00000025,0.00000163,0.00000396,0.0
 0000160,-0.00000798,-0.00000561,0.00000150,0.00000715,0.00000198,-0.00
 000283,-0.00002679,-0.00000912,0.00000812,0.00000062,-0.00000225,-0.00
 000406,-0.00000251,-0.00000150,-0.00000360,-0.00115908,0.00086191,-0.0
 0171811,0.00013869,0.00013597,0.00022024,0.00005725,-0.00029516,0.0002
 0940,0.00635584,-0.00337270,0.00603645,0.11786780,-0.07659482,0.180698
 10,-0.00064900,0.00008856,-0.00089458,-0.00064741,0.00150452,-0.000387
 72,0.00032862,0.00027272,0.00434173,-0.00052081,-0.00078747,0.00022723
 ,0.00081407,0.00055934,-0.00036008,0.00008001,-0.00080950,0.00069405,-
 0.00013123,-0.00070476,0.00066992,-0.00073687,0.00166161,0.00017978,0.
 00028277,0.00013381,0.00008627,-0.00003302,0.00002919,-0.00001262,-0.0
 0003384,-0.00004682,0.00003302,-0.00009434,-0.00002067,-0.00001658,-0.
 01450996,-0.00659618,-0.00081108,-0.00008089,0.00015297,-0.00111120,-0
 .22467250,-0.09505808,0.00350064,0.00037130,-0.00143633,-0.00086280,0.
 00019175,-0.00014683,0.00017512,-0.00007529,0.00005191,-0.00010518,0.0
 0004884,0.00002813,0.00003491,-0.00013938,-0.00013695,-0.00001595,-0.0
 0000502,0.00003721,-0.00001528,0.00003164,0.00001320,-0.00000015,-0.00
 008859,-0.00004445,0.00000390,0.00002698,0.00001973,0.00000192,-0.0001
 5700,-0.00006315,0.00006397,0.00000730,0.00001628,-0.00002394,0.000063
 62,-0.00001725,-0.00002679,0.00038100,0.00017862,0.00004815,0.00001928
 ,-0.00008457,-0.00003469,0.00120432,0.00013206,0.00032360,0.00403010,0
 .00158744,-0.00069456,-0.01551074,-0.01148997,0.00254393,0.24973429,-0
 .00029918,0.00004450,-0.00031912,0.00023883,0.00096222,-0.00029250,-0.
 00027652,0.00099692,0.00112471,-0.00043276,-0.00079291,0.00085736,0.00
 030732,0.00030470,-0.00006823,-0.00000691,-0.00031903,0.00020961,-0.00
 000390,-0.00015001,0.00018476,0.00077426,0.00025944,-0.00054935,0.0001
 1839,0.00003532,0.00001850,-0.00001659,0.00000117,-0.00001163,-0.00000
 890,-0.00001476,0.00001057,-0.00002152,-0.00000032,-0.00000408,0.00114
 985,-0.00098162,-0.00059484,-0.00044563,-0.00031120,-0.00018533,-0.094
 94984,-0.09844224,0.00258942,0.00101591,0.00034725,-0.00046752,0.00006
 719,-0.00008453,0.00004691,-0.00003183,0.00000356,-0.00004322,0.000011
 33,0.00000769,0.00000449,-0.00005011,-0.00004869,-0.00000306,0.0000020
 3,0.00001371,0.00000461,0.00001166,0.00000342,0.00000210,-0.00003150,-
 0.00001594,0.00000219,0.00000902,0.00000928,0.00000126,-0.00006313,-0.
 00002281,0.00002289,0.00000235,0.00000376,-0.00000728,0.00001516,-0.00
 000100,-0.00000911,0.00034100,0.00002369,0.00001306,-0.00014860,-0.000
 08223,-0.00003844,0.00041437,0.00027263,0.00044442,-0.02758111,-0.0134
 9664,0.00108030,0.00994953,0.00693479,-0.00222406,0.10976284,0.1041404
 7,0.00061660,0.00030071,0.00046678,0.00067709,-0.00075999,0.00044266,0
 .00217448,0.00008637,-0.00516188,0.00092516,0.00220516,-0.00142297,-0.
 00079732,-0.00057045,0.00030121,0.00006816,0.00064055,-0.00048959,-0.0
 0005290,0.00015401,-0.00008040,-0.00172338,-0.00083691,0.00147367,-0.0
 0015865,-0.00008876,-0.00004890,0.00003615,0.00000524,0.00000314,0.000
 01415,0.00002308,-0.00002992,0.00004678,0.00002214,0.00002317,0.024440
 37,0.01347606,-0.00155014,0.00151258,0.00032056,0.00141307,0.00279978,
 0.00164862,-0.04496188,0.00040308,0.00141064,0.00117890,-0.00001189,-0
 .00007843,-0.00022921,0.00006845,-0.00004548,0.00001179,-0.00000520,-0
 .00001167,-0.00001209,0.00004760,0.00006374,0.00000588,0.00000728,-0.0
 0001301,0.00000670,-0.00000934,-0.00000039,0.00001272,0.00002664,0.000
 00878,0.00000423,-0.00000603,-0.00000447,-0.00000086,0.00006397,0.0000
 2290,-0.00003814,-0.00000466,-0.00000639,0.00001016,-0.00000363,-0.000
 00172,0.00000812,-0.00019261,-0.00028171,0.00041587,-0.00006993,0.0000
 1470,-0.00011059,-0.00071079,-0.00016266,-0.00029274,-0.00610030,-0.00
 225543,-0.00114514,-0.01575110,-0.01301770,0.00192956,-0.00749153,-0.0
 0183758,0.04753729,-0.00027609,-0.00000491,0.00001418,0.00031785,0.000
 10700,0.00003679,-0.00024511,-0.00053470,-0.00098825,0.00009890,-0.000
 14695,0.00002008,0.00012280,-0.00011287,-0.00009136,-0.00000311,-0.000
 08217,0.00011233,0.00004635,-0.00000310,-0.00004197,-0.00082356,-0.000
 04597,-0.00032015,0.00000491,0.00002311,0.00002220,0.00000486,-0.00000
 437,-0.00000079,0.00000044,-0.00000672,0.00000280,-0.00000232,-0.00000
 751,-0.00000110,-0.00226451,0.00036301,0.00267702,-0.00012185,-0.00039
 811,0.00077724,0.00001994,0.00131549,0.00011332,-0.07519384,0.00721819
 ,0.07996555,-0.00001178,0.00002658,-0.00002978,0.00001520,-0.00000924,
 -0.00001337,-0.00000127,0.00000178,0.00000219,0.00000106,0.00000279,0.
 00000060,-0.00000271,0.00000216,-0.00000022,0.00000081,0.00000127,-0.0
 0000379,0.00000097,0.00000130,0.00000072,-0.00000142,0.00000136,-0.000
 00097,-0.00000502,0.00000203,0.00000728,-0.00000469,0.00000115,-0.0000
 0311,0.00000078,-0.00000277,0.00000116,0.00012705,0.00042017,-0.000419
 98,0.00007761,-0.00017140,-0.00026828,-0.00002733,0.00001553,0.0001730
 0,0.00039485,0.00026221,0.00046935,-0.00012252,0.00005722,0.00012309,0
 .00038230,0.00003549,-0.00037632,0.07797874,0.00016637,-0.00013522,0.0
 0014772,-0.00031793,-0.00017252,0.00051025,0.00161215,0.00205229,0.000
 08067,0.00010236,0.00058429,-0.00017622,-0.00022507,-0.00002951,0.0000
 6718,0.00006860,0.00013840,-0.00018732,-0.00000527,0.00009072,-0.00006
 277,0.00010728,-0.00015346,0.00025832,-0.00006593,-0.00003771,-0.00001
 404,0.00001377,-0.00000122,0.00000041,0.00000558,0.00001431,-0.0000068
 5,0.00001474,0.00000519,-0.00000071,0.01071520,-0.00422953,-0.02925172
 ,-0.00021893,0.00140911,-0.00150650,0.00015178,-0.00639369,-0.00069923
 ,0.00565050,-0.04522441,-0.01763729,0.00001835,-0.00008636,-0.00000404
 ,-0.00001368,-0.00001248,0.00001916,-0.00000920,-0.00000820,-0.0000095
 6,0.00002050,0.00002277,0.00000381,0.00000216,-0.00000523,0.00000748,-
 0.00000499,-0.00000190,0.00000336,0.00001577,0.00000619,0.00000046,-0.
 00000399,-0.00000492,-0.00000220,0.00003720,0.00001371,-0.00001301,-0.
 00000262,-0.00000078,0.00000764,-0.00001268,-0.00000089,0.00000465,0.0
 0013412,-0.00022112,0.00080909,-0.00039954,0.00036558,0.00012228,0.000
 02093,-0.00005501,0.00012946,0.00099942,-0.00046142,-0.00210830,0.0000
 0189,-0.00006642,0.00018306,0.00031915,0.00015932,0.00025489,-0.008110
 78,0.05123916,0.00024445,0.00002547,-0.00013414,-0.00062613,-0.0002917
 9,0.00024773,0.00106876,0.00073481,0.00104876,-0.00004537,0.00161277,-
 0.00141541,-0.00051663,-0.00016565,0.00030774,-0.00001907,0.00003035,-
 0.00001250,-0.00013462,-0.00015449,0.00027081,-0.00161979,-0.00165745,
 0.00020526,0.00001349,-0.00001981,-0.00002527,-0.00000189,0.00000603,0
 .00000505,-0.00000345,-0.00001163,-0.00001017,0.00001073,-0.00002283,-
 0.00000371,0.00266971,0.00040053,-0.00916155,-0.00041994,0.00109612,0.
 00039223,-0.00067682,-0.00286535,0.00092586,0.08015737,-0.02029684,-0.
 26443387,0.00005933,-0.00005340,-0.00000897,0.00003067,-0.00003407,-0.
 00004159,0.00000573,0.00000015,-0.00000026,-0.00000921,-0.00000870,-0.
 00000267,-0.00000022,0.00000748,0.00000993,0.00000010,0.00000729,0.000
 01778,-0.00001154,-0.00000618,0.00000336,0.00000288,0.00000767,-0.0000
 0444,-0.00001529,0.00000461,0.00000670,-0.00001690,0.00003001,-0.00000
 117,0.00002248,-0.00001602,-0.00000025,0.00017669,-0.00023769,0.000880
 98,-0.00012341,-0.00015729,0.00033022,-0.00001239,-0.00006725,-0.00005
 788,0.00045944,-0.00034020,-0.00075770,0.00004476,0.00017530,0.0003197
 9,0.00010738,0.00022120,0.00027054,-0.09052721,0.02365599,0.28882997,-
 0.00051621,0.00048857,-0.00036696,0.00026069,0.00037404,-0.00124410,0.
 00190573,-0.00117406,-0.00011505,-0.00021729,-0.00001433,-0.00005908,0
 .00042387,0.00040939,-0.00012170,0.00006130,-0.00045626,0.00051833,-0.
 00008339,-0.00067924,0.00047393,-0.00018830,-0.00071349,-0.00143785,0.
 00023227,0.00004286,0.00001017,-0.00006026,-0.00002169,-0.00002063,-0.
 00002640,-0.00003250,0.00002107,-0.00001058,0.00000965,-0.00003215,-0.
 00183712,0.00084505,-0.00040028,0.00021352,0.00052768,0.00003009,0.000
 37079,0.00060986,0.00076120,-0.23212914,-0.08991506,0.01297988,0.00010
 390,-0.00002236,0.00024457,-0.00006894,0.00007598,-0.00004319,0.000031
 60,0.00003942,0.00003727,-0.00010513,-0.00009847,-0.00000573,0.0000010
 6,0.00002051,-0.00000920,0.00002675,0.00001031,-0.00000652,-0.00007348
 ,-0.00004004,0.00000474,0.00002898,0.00000677,0.00000026,-0.00013934,-
 0.00005012,0.00004760,0.00000796,0.00001203,-0.00002787,0.00005367,-0.
 00000341,-0.00000131,-0.00013113,0.00004117,0.00005530,0.00040570,-0.0
 0005230,0.00011930,0.00088368,0.00007133,0.00022485,0.00042566,-0.0001
 2268,-0.00031528,-0.00044602,0.00010682,-0.00002988,0.00049850,0.00013
 514,-0.00045841,-0.01016086,-0.00396373,0.00028610,0.25690462,-0.00113
 781,0.00037792,-0.00015721,-0.00038195,0.00046052,-0.00164646,0.001235
 40,-0.00664070,-0.00087889,-0.00121680,-0.00220572,0.00177100,0.001020
 13,0.00092853,-0.00026453,-0.00007876,-0.00084361,0.00085535,-0.000019
 03,-0.00039939,0.00039862,0.00114761,0.00201181,-0.00074034,0.00031059
 ,0.00005346,-0.00001095,-0.00009033,-0.00001057,-0.00000907,-0.0000210
 2,-0.00005507,0.00002671,-0.00004117,-0.00000867,-0.00002623,-0.028051
 68,-0.01391981,0.00210432,-0.00206030,0.00097312,-0.00038228,-0.001330
 24,0.00103594,0.00155830,-0.08893146,-0.08763433,0.00630712,0.00019706
 ,-0.00022029,0.00004230,-0.00007983,0.00002601,-0.00009705,0.00001490,
 0.00002815,0.00001708,-0.00009847,-0.00011459,-0.00000849,0.00000278,0
 .00002277,-0.00000869,0.00002006,0.00000725,-0.00000465,-0.00006363,-0
 .00002701,-0.00000132,0.00001609,0.00001993,0.00000383,-0.00013692,-0.
 00004870,0.00006374,-0.00000060,0.00001162,-0.00002928,0.00003999,-0.0
 0000945,-0.00000971,0.00004727,-0.00006680,0.00007442,0.00028813,0.000
 52235,-0.00014600,0.00125553,0.00006387,0.00027566,0.00030481,0.000329
 97,0.00028005,-0.00020778,0.00018994,-0.00012763,0.00094922,0.00032773
 ,-0.00057166,0.00270111,0.00020335,0.00067457,0.10335787,0.09834494,-0
 .00002385,0.00007318,0.00000274,-0.00044729,-0.00032614,0.00003651,0.0
 0033921,-0.00062652,0.00090180,0.00002310,0.00077928,-0.00031286,-0.00
 001340,0.00008780,0.00006567,0.00005686,-0.00007508,0.00005351,-0.0000
 5644,-0.00014491,0.00012095,-0.00043136,-0.00086087,-0.00082586,0.0000
 2304,-0.00001002,-0.00001674,-0.00002007,-0.00000600,-0.00000072,-0.00
 000545,-0.00000658,0.00000289,0.00000792,-0.00000237,-0.00000939,-0.00
 613809,-0.00303297,-0.00128919,0.00034320,0.00045499,-0.00016111,-0.00
 092144,-0.00049763,0.00049827,0.01259553,0.00672644,-0.04839680,0.0000
 3242,-0.00001552,-0.00000526,0.00000374,0.00000624,-0.00001690,0.00000
 686,0.00000634,0.00001096,-0.00000571,-0.00000847,0.00000188,0.0000006
 0,0.00000381,-0.00000266,0.00000219,0.00000141,0.00000149,-0.00000814,
 -0.00000338,0.00000024,0.00000217,0.00000296,-0.00000117,-0.00001592,-
 0.00000306,0.00000587,-0.00000640,0.00000851,-0.00000432,0.00001429,-0
 .00000479,0.00000015,0.00014197,0.00004345,0.00002307,-0.00010242,-0.0
 0006303,-0.00010872,-0.00009783,0.00026221,0.00022532,0.00003326,0.000
 18493,0.00005691,-0.00017383,0.00004571,-0.00012644,0.00021373,-0.0001
 3701,-0.00005632,0.02639398,0.01351610,-0.00064643,-0.01580773,-0.0056
 9919,0.04623605,-0.00024530,-0.00028206,0.00034658,0.00000759,0.000260
 85,-0.00015690,0.00012758,-0.00026923,-0.00023341,-0.00176849,-0.00488
 466,0.00249182,0.00092462,0.00068223,-0.00014429,-0.00011653,-0.000174
 65,-0.00008241,0.00015647,0.00053930,-0.00053065,-0.00104749,0.0030339
 7,-0.00099833,-0.00001970,-0.00002585,-0.00001571,-0.00002654,-0.00000
 941,-0.00000676,0.00001881,-0.00000851,0.00001123,-0.00001784,-0.00001
 227,-0.00000549,-0.00182981,0.00236711,-0.00126012,0.00033352,0.000341
 80,0.00058478,-0.00020295,-0.00018160,-0.00023097,-0.15529393,0.074663
 22,-0.10379375,-0.00000806,0.00007781,-0.00009902,-0.00006852,0.000032
 63,0.00004756,-0.00002423,-0.00000679,-0.00001769,0.00003162,0.0000149
 1,0.00000686,-0.00000127,-0.00000920,0.00000573,-0.00000965,-0.0000089
 4,-0.00001034,0.00002906,0.00002276,-0.00000748,-0.00002087,0.00000571
 ,0.00000492,0.00004883,0.00001133,-0.00000520,0.00000158,-0.00001266,0
 .00000837,-0.00004003,0.00001674,-0.00000022,-0.00000815,0.00008304,-0
 .00040300,0.00041341,-0.00016179,-0.00038187,0.00035707,-0.00000630,0.
 00012326,0.00009615,-0.00021774,-0.00005565,0.00040975,0.00020579,0.00
 018365,-0.00041083,0.00000638,-0.00000437,0.00967257,-0.00682347,0.009
 41981,-0.01664665,0.01103923,-0.01595869,0.16517818,-0.00000667,-0.000
 22994,0.00007245,-0.00004109,0.00005675,0.00007925,0.00051565,0.001007
 77,0.00021056,-0.00189354,-0.00417360,0.00193301,0.00039767,0.00041731
 ,-0.00035103,-0.00003300,-0.00003518,0.00000636,0.00001853,0.00037317,
 -0.00029159,0.00204858,0.00233993,0.00071697,-0.00004495,-0.00000002,-
 0.00001809,-0.00000535,0.00000224,0.00000434,0.00000438,0.00000782,0.0
 0000289,-0.00000077,0.00000676,0.00000869,0.02005976,-0.01551797,0.020
 29319,-0.00000714,-0.00651241,-0.00227775,-0.00017933,0.00120212,0.000
 88119,0.07057924,-0.09208085,0.07174841,0.00000138,0.00016688,-0.00017
 712,-0.00006447,-0.00002809,-0.00002566,-0.00000679,-0.00000554,-0.000
 00866,0.00003943,0.00002816,0.00000635,0.00000178,-0.00000820,0.000000
 15,-0.00001058,-0.00001053,-0.00000623,0.00002262,0.00001655,-0.000005
 53,-0.00001363,0.00000276,0.00000549,0.00002812,0.00000769,-0.00001167
 ,-0.00000212,-0.00000771,0.00000805,-0.00001612,0.00000665,-0.00000408
 ,-0.00028862,0.00017347,-0.00011184,0.00166670,-0.00146745,0.00125114,
 0.00013480,0.00023469,-0.00027051,-0.00029305,0.00013643,0.00009453,0.
 00049587,-0.00011836,-0.00076886,-0.00005552,-0.00008765,-0.00011377,-
 0.00291738,0.00099761,-0.00228372,-0.00982473,0.00626551,-0.01067986,-
 0.08030965,0.10683325,-0.00027376,-0.00017884,0.00030782,0.00006382,0.
 00030350,-0.00002717,-0.00025750,0.00095447,-0.00076418,-0.00088407,-0
 .00359407,0.00327762,0.00081857,0.00100406,-0.00038607,0.00002779,-0.0
 0018322,-0.00010199,0.00015509,0.00045874,-0.00047585,0.00061041,0.002
 42123,-0.00309050,-0.00001436,-0.00002674,-0.00005206,-0.00003625,-0.0
 0001203,-0.00000364,0.00000826,0.00001202,0.00001540,0.00000204,0.0000
 1886,0.00000564,0.00546406,-0.00246153,0.00420602,0.00066452,-0.001592
 76,0.00003621,0.00050473,-0.00008369,0.00089208,-0.10432653,0.07579068
 ,-0.15209521,-0.00001793,0.00006180,-0.00012626,-0.00010179,0.00003481
 ,0.00007649,-0.00001769,-0.00000866,-0.00001366,0.00003728,0.00001708,
 0.00001096,0.00000219,-0.00000957,-0.00000026,-0.00000866,-0.00001347,
 -0.00001449,0.00002622,0.00001687,-0.00000769,-0.00001236,-0.00000307,
 0.00000446,0.00003490,0.00000449,-0.00001209,0.00001052,-0.00002140,0.
 00000544,-0.00004355,0.00001253,-0.00000199,-0.00002900,-0.00012543,0.
 00028902,0.00015218,-0.00070305,0.00060635,-0.00040413,-0.00004481,-0.
 00019108,-0.00011698,0.00009565,-0.00010170,0.00031676,-0.00044573,-0.
 00023835,-0.00038453,-0.00004601,0.00011531,-0.01782626,0.01189778,-0.
 01735476,0.00468825,-0.00363342,0.00373662,0.11116776,-0.07991706,0.16
 147354\\-0.00000083,-0.00000152,0.00000564,0.00000465,0.00001151,-0.00
 000850,0.00000546,-0.00000600,0.00000172,-0.00000207,0.00000523,-0.000
 00169,-0.00000385,-0.00000987,0.00000872,-0.00000261,-0.00000022,-0.00
 000699,0.00000405,-0.00000227,-0.00000064,-0.00000285,0.00000029,-0.00
 000156,-0.00000010,0.00000158,0.00000209,0.00000200,-0.00000303,0.0000
 0571,0.00000461,0.00000125,-0.00000290,0.00000175,-0.00000341,0.000004
 15,-0.00000120,0.00000121,0.00000108,-0.00000324,-0.00000485,-0.000001
 03,-0.00000234,0.00000627,-0.00000341,-0.00000301,0.00000349,-0.000002
 87,0.00000011,-0.00000636,0.00000731,-0.00000100,0.00000825,-0.0000051
 1,0.00000391,-0.00000176,-0.00000335,-0.00000087,0.00000199,0.00000015
 ,-0.00000004,0.00000063,0.,-0.00000328,0.00000127,-0.00000183,-0.00000
 634,0.00000089,-0.00000302,0.00000016,0.00000243,-0.00000142,-0.000001
 38,-0.00000113,-0.00000210,0.00000028,-0.00000256,-0.00000074,0.000002
 13,0.00000052,0.00000377,-0.00000016,-0.00000278,0.00000214,0.00000314
 ,-0.00000076,0.00000158,0.00000614,-0.00000063,0.00000328,-0.00000040,
 0.00000090,-0.00000018,-0.00000197,-0.00000323,-0.00000276,-0.00000047
 ,0.00000107,0.00000271,0.00000106,-0.00000077,-0.00000129,0.00000201,-
 0.00000087,0.00000057,-0.00000343,0.00000322,0.00000077\\\@


 There ain't no surer way to find out whether you
 like people or hate them than to travel with them.
                                     -- Mark Twain
 Job cpu time:       0 days  6 hours  0 minutes  8.4 seconds.
 Elapsed time:       0 days  0 hours 45 minutes  3.4 seconds.
 File lengths (MBytes):  RWF=   1552 Int=      0 D2E=      0 Chk=     34 Scr=      1
 Normal termination of Gaussian 16 at Sat Jan  6 08:39:35 2024.
