 Entering Gaussian System, Link 0=g16
 Input=263-an.com
 Output=263-an.log
 Initial command:
 /sysapps/ubuntu-applications/gaussian/Gaussian/AVX2/g16/l1.exe "/scratch/selhajj1/4234840/Gau-3194871.inp" -scrdir="/scratch/selhajj1/4234840/"
 Entering Link 1 = /sysapps/ubuntu-applications/gaussian/Gaussian/AVX2/g16/l1.exe PID=   3194873.
  
 Copyright (c) 1988,1990,1992,1993,1995,1998,2003,2009,2016,
            Gaussian, Inc.  All Rights Reserved.
  
 This is part of the Gaussian(R) 16 program.  It is based on
 the Gaussian(R) 09 system (copyright 2009, Gaussian, Inc.),
 the Gaussian(R) 03 system (copyright 2003, Gaussian, Inc.),
 the Gaussian(R) 98 system (copyright 1998, Gaussian, Inc.),
 the Gaussian(R) 94 system (copyright 1995, Gaussian, Inc.),
 the Gaussian 92(TM) system (copyright 1992, Gaussian, Inc.),
 the Gaussian 90(TM) system (copyright 1990, Gaussian, Inc.),
 the Gaussian 88(TM) system (copyright 1988, Gaussian, Inc.),
 the Gaussian 86(TM) system (copyright 1986, Carnegie Mellon
 University), and the Gaussian 82(TM) system (copyright 1983,
 Carnegie Mellon University). Gaussian is a federally registered
 trademark of Gaussian, Inc.
  
 This software contains proprietary and confidential information,
 including trade secrets, belonging to Gaussian, Inc.
  
 This software is provided under written license and may be
 used, copied, transmitted, or stored only in accord with that
 written license.
  
 The following legend is applicable only to US Government
 contracts under FAR:
  
                    RESTRICTED RIGHTS LEGEND
  
 Use, reproduction and disclosure by the US Government is
 subject to restrictions as set forth in subparagraphs (a)
 and (c) of the Commercial Computer Software - Restricted
 Rights clause in FAR 52.227-19.
  
 Gaussian, Inc.
 340 Quinnipiac St., Bldg. 40, Wallingford CT 06492
  
  
 ---------------------------------------------------------------
 Warning -- This program may not be used in any manner that
 competes with the business of Gaussian, Inc. or will provide
 assistance to any competitor of Gaussian, Inc.  The licensee
 of this program is prohibited from giving any competitor of
 Gaussian, Inc. access to this program.  By using this program,
 the user acknowledges that Gaussian, Inc. is engaged in the
 business of creating and licensing software in the field of
 computational chemistry and represents and warrants to the
 licensee that it is not a competitor of Gaussian, Inc. and that
 it will not use this program in any manner prohibited above.
 ---------------------------------------------------------------
  

 Cite this work as:
 Gaussian 16, Revision A.03,
 M. J. Frisch, G. W. Trucks, H. B. Schlegel, G. E. Scuseria, 
 M. A. Robb, J. R. Cheeseman, G. Scalmani, V. Barone, 
 G. A. Petersson, H. Nakatsuji, X. Li, M. Caricato, A. V. Marenich, 
 J. Bloino, B. G. Janesko, R. Gomperts, B. Mennucci, H. P. Hratchian, 
 J. V. Ortiz, A. F. Izmaylov, J. L. Sonnenberg, D. Williams-Young, 
 F. Ding, F. Lipparini, F. Egidi, J. Goings, B. Peng, A. Petrone, 
 T. Henderson, D. Ranasinghe, V. G. Zakrzewski, J. Gao, N. Rega, 
 G. Zheng, W. Liang, M. Hada, M. Ehara, K. Toyota, R. Fukuda, 
 J. Hasegawa, M. Ishida, T. Nakajima, Y. Honda, O. Kitao, H. Nakai, 
 T. Vreven, K. Throssell, J. A. Montgomery, Jr., J. E. Peralta, 
 F. Ogliaro, M. J. Bearpark, J. J. Heyd, E. N. Brothers, K. N. Kudin, 
 V. N. Staroverov, T. A. Keith, R. Kobayashi, J. Normand, 
 K. Raghavachari, A. P. Rendell, J. C. Burant, S. S. Iyengar, 
 J. Tomasi, M. Cossi, J. M. Millam, M. Klene, C. Adamo, R. Cammi, 
 J. W. Ochterski, R. L. Martin, K. Morokuma, O. Farkas, 
 J. B. Foresman, and D. J. Fox, Gaussian, Inc., Wallingford CT, 2016.
 
 ******************************************
 Gaussian 16:  ES64L-G16RevA.03 25-Dec-2016
                27-Dec-2023 
 ******************************************
 %chk=263-an.chk
 %nproc=8
 Will use up to    8 processors via shared memory.
 %mem=30GB
 ----------------------------------------------
 #P UB3LYP/6-311++G(d,p) nosym opt freq SCF=YQC
 ----------------------------------------------
 1/18=20,19=15,26=3,38=1/1,3;
 2/9=110,12=2,15=1,17=6,18=5,40=1/2;
 3/5=4,6=6,7=1111,11=2,25=1,30=1,71=1,74=-5,116=2/1,2,3;
 4//1;
 5/5=2,8=4,13=1,38=1/8,2,8;
 6/7=2,8=2,9=2,10=2,28=1/1;
 7/30=1/1,2,3,16;
 1/18=20,19=15,26=3/3(2);
 2/9=110,15=1/2;
 99//99;
 2/9=110,15=1/2;
 3/5=4,6=6,7=1111,11=2,25=1,30=1,71=1,74=-5,116=2/1,2,3;
 4/5=5,16=3,69=1/1;
 5/5=2,8=4,13=1,38=1/8,2,8;
 7/30=1/1,2,3,16;
 1/18=20,19=15,26=3/3(-5);
 2/9=110,15=1/2;
 6/7=2,8=2,9=2,10=2,19=2,28=1/1;
 99/9=1/99;
 Leave Link    1 at Wed Dec 27 21:08:12 2023, MaxMem=  4026531840 cpu:               0.5 elap:               0.1
 (Enter /sysapps/ubuntu-applications/gaussian/Gaussian/AVX2/g16/l101.exe)
 -------
 Reduced
 -------
 Symbolic Z-matrix:
 Charge = -2 Multiplicity = 1
 C                    -1.28515   2.80934   0.21903 
 C                    -2.62469   2.4228    0.15307 
 C                    -2.94601   1.09054  -0.08226 
 C                    -0.24949   1.87536   0.02358 
 C                    -0.57654   0.5345   -0.24453 
 C                    -1.92737   0.14513  -0.26051 
 C                     1.18144   2.28386   0.10716 
 C                     2.20658   1.23271  -0.03415 
 C                     1.89303  -0.02368  -0.34291 
 C                     0.49808  -0.43423  -0.56462 
 O                     1.56356   3.43021   0.29757 
 O                     0.27834  -1.53948  -1.03979 
 O                    -1.00748   4.12031   0.47882 
 H                    -3.99055   0.78265  -0.11483 
 H                     2.6511   -0.78652  -0.47949 
 C                    -2.37064  -1.25116  -0.41644 
 O                    -3.16403  -1.61667  -1.26612 
 O                    -1.8969   -1.9607    0.63645 
 C                    -2.26724  -3.33886   0.60447 
 H                    -3.42729   3.14187   0.29658 
 H                     3.23541   1.54746   0.10201 
 H                    -1.82165   4.64291   0.55585 
 H                    -1.76436  -3.84405   1.4337 
 H                    -1.94423  -3.80614  -0.33142 
 H                    -3.34837  -3.4443    0.73737 
 
 ITRead=  0  0  0  0  0  0  0  0  0  0  0  0  0  0  0  0  0  0  0  0
 ITRead=  0  0  0  0  0
 MicOpt= -1 -1 -1 -1 -1 -1 -1 -1 -1 -1 -1 -1 -1 -1 -1 -1 -1 -1 -1 -1
 MicOpt= -1 -1 -1 -1 -1
 NAtoms=     25 NQM=       25 NQMF=       0 NMMI=      0 NMMIF=      0
                NMic=       0 NMicF=      0.
                    Isotopes and Nuclear Properties:
 (Nuclear quadrupole moments (NQMom) in fm**2, nuclear magnetic moments (NMagM)
  in nuclear magnetons)

  Atom         1           2           3           4           5           6           7           8           9          10
 IAtWgt=          12          12          12          12          12          12          12          12          12          12
 AtmWgt=  12.0000000  12.0000000  12.0000000  12.0000000  12.0000000  12.0000000  12.0000000  12.0000000  12.0000000  12.0000000
 NucSpn=           0           0           0           0           0           0           0           0           0           0
 AtZEff=  -0.0000000  -0.0000000  -0.0000000  -0.0000000  -0.0000000  -0.0000000  -0.0000000  -0.0000000  -0.0000000  -0.0000000
 NQMom=    0.0000000   0.0000000   0.0000000   0.0000000   0.0000000   0.0000000   0.0000000   0.0000000   0.0000000   0.0000000
 NMagM=    0.0000000   0.0000000   0.0000000   0.0000000   0.0000000   0.0000000   0.0000000   0.0000000   0.0000000   0.0000000
 AtZNuc=   6.0000000   6.0000000   6.0000000   6.0000000   6.0000000   6.0000000   6.0000000   6.0000000   6.0000000   6.0000000

  Atom        11          12          13          14          15          16          17          18          19          20
 IAtWgt=          16          16          16           1           1          12          16          16          12           1
 AtmWgt=  15.9949146  15.9949146  15.9949146   1.0078250   1.0078250  12.0000000  15.9949146  15.9949146  12.0000000   1.0078250
 NucSpn=           0           0           0           1           1           0           0           0           0           1
 AtZEff=  -0.0000000  -0.0000000  -0.0000000  -0.0000000  -0.0000000  -0.0000000  -0.0000000  -0.0000000  -0.0000000  -0.0000000
 NQMom=    0.0000000   0.0000000   0.0000000   0.0000000   0.0000000   0.0000000   0.0000000   0.0000000   0.0000000   0.0000000
 NMagM=    0.0000000   0.0000000   0.0000000   2.7928460   2.7928460   0.0000000   0.0000000   0.0000000   0.0000000   2.7928460
 AtZNuc=   8.0000000   8.0000000   8.0000000   1.0000000   1.0000000   6.0000000   8.0000000   8.0000000   6.0000000   1.0000000

  Atom        21          22          23          24          25
 IAtWgt=           1           1           1           1           1
 AtmWgt=   1.0078250   1.0078250   1.0078250   1.0078250   1.0078250
 NucSpn=           1           1           1           1           1
 AtZEff=  -0.0000000  -0.0000000  -0.0000000  -0.0000000  -0.0000000
 NQMom=    0.0000000   0.0000000   0.0000000   0.0000000   0.0000000
 NMagM=    2.7928460   2.7928460   2.7928460   2.7928460   2.7928460
 AtZNuc=   1.0000000   1.0000000   1.0000000   1.0000000   1.0000000
 Leave Link  101 at Wed Dec 27 21:08:13 2023, MaxMem=  4026531840 cpu:               3.6 elap:               0.5
 (Enter /sysapps/ubuntu-applications/gaussian/Gaussian/AVX2/g16/l103.exe)

 GradGradGradGradGradGradGradGradGradGradGradGradGradGradGradGradGradGrad
 Berny optimization.
 Initialization pass.
                           ----------------------------
                           !    Initial Parameters    !
                           ! (Angstroms and Degrees)  !
 --------------------------                            --------------------------
 ! Name  Definition              Value          Derivative Info.                !
 --------------------------------------------------------------------------------
 ! R1    R(1,2)                  1.3958         estimate D2E/DX2                !
 ! R2    R(1,4)                  1.4082         estimate D2E/DX2                !
 ! R3    R(1,13)                 1.365          estimate D2E/DX2                !
 ! R4    R(2,3)                  1.3905         estimate D2E/DX2                !
 ! R5    R(2,20)                 1.0871         estimate D2E/DX2                !
 ! R6    R(3,6)                  1.4011         estimate D2E/DX2                !
 ! R7    R(3,14)                 1.0895         estimate D2E/DX2                !
 ! R8    R(4,5)                  1.406          estimate D2E/DX2                !
 ! R9    R(4,7)                  1.4904         estimate D2E/DX2                !
 ! R10   R(5,6)                  1.4059         estimate D2E/DX2                !
 ! R11   R(5,10)                 1.4818         estimate D2E/DX2                !
 ! R12   R(6,16)                 1.4732         estimate D2E/DX2                !
 ! R13   R(7,8)                  1.4751         estimate D2E/DX2                !
 ! R14   R(7,11)                 1.2233         estimate D2E/DX2                !
 ! R15   R(8,9)                  1.3312         estimate D2E/DX2                !
 ! R16   R(8,21)                 1.0845         estimate D2E/DX2                !
 ! R17   R(9,10)                 1.4709         estimate D2E/DX2                !
 ! R18   R(9,15)                 1.0841         estimate D2E/DX2                !
 ! R19   R(10,12)                1.223          estimate D2E/DX2                !
 ! R20   R(13,22)                0.9705         estimate D2E/DX2                !
 ! R21   R(16,17)                1.2186         estimate D2E/DX2                !
 ! R22   R(16,18)                1.3552         estimate D2E/DX2                !
 ! R23   R(18,19)                1.4274         estimate D2E/DX2                !
 ! R24   R(19,23)                1.0935         estimate D2E/DX2                !
 ! R25   R(19,24)                1.0948         estimate D2E/DX2                !
 ! R26   R(19,25)                1.0944         estimate D2E/DX2                !
 ! A1    A(2,1,4)              121.0363         estimate D2E/DX2                !
 ! A2    A(2,1,13)             118.0472         estimate D2E/DX2                !
 ! A3    A(4,1,13)             120.9165         estimate D2E/DX2                !
 ! A4    A(1,2,3)              119.6768         estimate D2E/DX2                !
 ! A5    A(1,2,20)             121.2738         estimate D2E/DX2                !
 ! A6    A(3,2,20)             119.0435         estimate D2E/DX2                !
 ! A7    A(2,3,6)              120.0004         estimate D2E/DX2                !
 ! A8    A(2,3,14)             119.8267         estimate D2E/DX2                !
 ! A9    A(6,3,14)             120.1682         estimate D2E/DX2                !
 ! A10   A(1,4,5)              119.2033         estimate D2E/DX2                !
 ! A11   A(1,4,7)              121.0983         estimate D2E/DX2                !
 ! A12   A(5,4,7)              119.6967         estimate D2E/DX2                !
 ! A13   A(4,5,6)              119.327          estimate D2E/DX2                !
 ! A14   A(4,5,10)             119.7342         estimate D2E/DX2                !
 ! A15   A(6,5,10)             120.883          estimate D2E/DX2                !
 ! A16   A(3,6,5)              120.6774         estimate D2E/DX2                !
 ! A17   A(3,6,16)             115.7358         estimate D2E/DX2                !
 ! A18   A(5,6,16)             123.558          estimate D2E/DX2                !
 ! A19   A(4,7,8)              117.8104         estimate D2E/DX2                !
 ! A20   A(4,7,11)             124.4354         estimate D2E/DX2                !
 ! A21   A(8,7,11)             117.7505         estimate D2E/DX2                !
 ! A22   A(7,8,9)              122.0786         estimate D2E/DX2                !
 ! A23   A(7,8,21)             116.1338         estimate D2E/DX2                !
 ! A24   A(9,8,21)             121.7682         estimate D2E/DX2                !
 ! A25   A(8,9,10)             121.4498         estimate D2E/DX2                !
 ! A26   A(8,9,15)             121.913          estimate D2E/DX2                !
 ! A27   A(10,9,15)            116.6003         estimate D2E/DX2                !
 ! A28   A(5,10,9)             118.2118         estimate D2E/DX2                !
 ! A29   A(5,10,12)            122.9873         estimate D2E/DX2                !
 ! A30   A(9,10,12)            118.7643         estimate D2E/DX2                !
 ! A31   A(1,13,22)            111.1993         estimate D2E/DX2                !
 ! A32   A(6,16,17)            123.6393         estimate D2E/DX2                !
 ! A33   A(6,16,18)            107.9882         estimate D2E/DX2                !
 ! A34   A(17,16,18)           127.7549         estimate D2E/DX2                !
 ! A35   A(16,18,19)           113.4166         estimate D2E/DX2                !
 ! A36   A(18,19,23)           108.0442         estimate D2E/DX2                !
 ! A37   A(18,19,24)           110.7749         estimate D2E/DX2                !
 ! A38   A(18,19,25)           110.2805         estimate D2E/DX2                !
 ! A39   A(23,19,24)           108.3843         estimate D2E/DX2                !
 ! A40   A(23,19,25)           108.5251         estimate D2E/DX2                !
 ! A41   A(24,19,25)           110.7423         estimate D2E/DX2                !
 ! D1    D(4,1,2,3)              1.3152         estimate D2E/DX2                !
 ! D2    D(4,1,2,20)          -179.5761         estimate D2E/DX2                !
 ! D3    D(13,1,2,3)          -178.6816         estimate D2E/DX2                !
 ! D4    D(13,1,2,20)            0.4271         estimate D2E/DX2                !
 ! D5    D(2,1,4,5)              0.1295         estimate D2E/DX2                !
 ! D6    D(2,1,4,7)           -179.3836         estimate D2E/DX2                !
 ! D7    D(13,1,4,5)          -179.8737         estimate D2E/DX2                !
 ! D8    D(13,1,4,7)             0.6131         estimate D2E/DX2                !
 ! D9    D(2,1,13,22)           -2.1336         estimate D2E/DX2                !
 ! D10   D(4,1,13,22)          177.8695         estimate D2E/DX2                !
 ! D11   D(1,2,3,6)             -0.4154         estimate D2E/DX2                !
 ! D12   D(1,2,3,14)           178.8054         estimate D2E/DX2                !
 ! D13   D(20,2,3,6)          -179.544          estimate D2E/DX2                !
 ! D14   D(20,2,3,14)           -0.3232         estimate D2E/DX2                !
 ! D15   D(2,3,6,5)             -1.9338         estimate D2E/DX2                !
 ! D16   D(2,3,6,16)           176.183          estimate D2E/DX2                !
 ! D17   D(14,3,6,5)           178.848          estimate D2E/DX2                !
 ! D18   D(14,3,6,16)           -3.0351         estimate D2E/DX2                !
 ! D19   D(1,4,5,6)             -2.4398         estimate D2E/DX2                !
 ! D20   D(1,4,5,10)           174.8702         estimate D2E/DX2                !
 ! D21   D(7,4,5,6)            177.0802         estimate D2E/DX2                !
 ! D22   D(7,4,5,10)            -5.6098         estimate D2E/DX2                !
 ! D23   D(1,4,7,8)            176.6223         estimate D2E/DX2                !
 ! D24   D(1,4,7,11)            -2.6591         estimate D2E/DX2                !
 ! D25   D(5,4,7,8)             -2.8885         estimate D2E/DX2                !
 ! D26   D(5,4,7,11)           177.8301         estimate D2E/DX2                !
 ! D27   D(4,5,6,3)              3.3627         estimate D2E/DX2                !
 ! D28   D(4,5,6,16)          -174.6017         estimate D2E/DX2                !
 ! D29   D(10,5,6,3)          -173.9156         estimate D2E/DX2                !
 ! D30   D(10,5,6,16)            8.1201         estimate D2E/DX2                !
 ! D31   D(4,5,10,9)            11.4341         estimate D2E/DX2                !
 ! D32   D(4,5,10,12)         -166.3379         estimate D2E/DX2                !
 ! D33   D(6,5,10,9)          -171.2986         estimate D2E/DX2                !
 ! D34   D(6,5,10,12)           10.9294         estimate D2E/DX2                !
 ! D35   D(3,6,16,17)           55.685          estimate D2E/DX2                !
 ! D36   D(3,6,16,18)         -115.9189         estimate D2E/DX2                !
 ! D37   D(5,6,16,17)         -126.2586         estimate D2E/DX2                !
 ! D38   D(5,6,16,18)           62.1375         estimate D2E/DX2                !
 ! D39   D(4,7,8,9)              5.8239         estimate D2E/DX2                !
 ! D40   D(4,7,8,21)          -175.7529         estimate D2E/DX2                !
 ! D41   D(11,7,8,9)          -174.8458         estimate D2E/DX2                !
 ! D42   D(11,7,8,21)            3.5774         estimate D2E/DX2                !
 ! D43   D(7,8,9,10)             0.1486         estimate D2E/DX2                !
 ! D44   D(7,8,9,15)           177.8621         estimate D2E/DX2                !
 ! D45   D(21,8,9,10)         -178.1863         estimate D2E/DX2                !
 ! D46   D(21,8,9,15)           -0.4728         estimate D2E/DX2                !
 ! D47   D(8,9,10,5)            -8.7818         estimate D2E/DX2                !
 ! D48   D(8,9,10,12)          169.0864         estimate D2E/DX2                !
 ! D49   D(15,9,10,5)          173.3889         estimate D2E/DX2                !
 ! D50   D(15,9,10,12)          -8.743          estimate D2E/DX2                !
 ! D51   D(6,16,18,19)         179.7049         estimate D2E/DX2                !
 ! D52   D(17,16,18,19)          8.5495         estimate D2E/DX2                !
 ! D53   D(16,18,19,23)        174.6787         estimate D2E/DX2                !
 ! D54   D(16,18,19,24)         56.1007         estimate D2E/DX2                !
 ! D55   D(16,18,19,25)        -66.8565         estimate D2E/DX2                !
 --------------------------------------------------------------------------------
 Trust Radius=3.00D-01 FncErr=1.00D-07 GrdErr=1.00D-06 EigMax=2.50D+02 EigMin=1.00D-04
 Number of steps in this run=    132 maximum allowed number of steps=    150.
 GradGradGradGradGradGradGradGradGradGradGradGradGradGradGradGradGradGrad

 Leave Link  103 at Wed Dec 27 21:08:13 2023, MaxMem=  4026531840 cpu:               0.2 elap:               0.1
 (Enter /sysapps/ubuntu-applications/gaussian/Gaussian/AVX2/g16/l202.exe)
                          Input orientation:                          
 ---------------------------------------------------------------------
 Center     Atomic      Atomic             Coordinates (Angstroms)
 Number     Number       Type             X           Y           Z
 ---------------------------------------------------------------------
      1          6           0       -1.285150    2.809340    0.219030
      2          6           0       -2.624690    2.422800    0.153070
      3          6           0       -2.946010    1.090540   -0.082260
      4          6           0       -0.249490    1.875360    0.023580
      5          6           0       -0.576540    0.534500   -0.244530
      6          6           0       -1.927370    0.145130   -0.260510
      7          6           0        1.181440    2.283860    0.107160
      8          6           0        2.206580    1.232710   -0.034150
      9          6           0        1.893030   -0.023680   -0.342910
     10          6           0        0.498080   -0.434230   -0.564620
     11          8           0        1.563560    3.430210    0.297570
     12          8           0        0.278340   -1.539480   -1.039790
     13          8           0       -1.007480    4.120310    0.478820
     14          1           0       -3.990550    0.782650   -0.114830
     15          1           0        2.651100   -0.786520   -0.479490
     16          6           0       -2.370640   -1.251160   -0.416440
     17          8           0       -3.164030   -1.616670   -1.266120
     18          8           0       -1.896900   -1.960700    0.636450
     19          6           0       -2.267240   -3.338860    0.604470
     20          1           0       -3.427290    3.141870    0.296580
     21          1           0        3.235410    1.547460    0.102010
     22          1           0       -1.821650    4.642910    0.555850
     23          1           0       -1.764360   -3.844050    1.433700
     24          1           0       -1.944230   -3.806140   -0.331420
     25          1           0       -3.348370   -3.444300    0.737370
 ---------------------------------------------------------------------
                    Distance matrix (angstroms):
                    1          2          3          4          5
     1  C    0.000000
     2  C    1.395755   0.000000
     3  C    2.409047   1.390519   0.000000
     4  C    1.408230   2.440908   2.810403   0.000000
     5  C    2.427326   2.814015   2.439242   1.405969   0.000000
     6  C    2.782161   2.417661   1.401143   2.426867   1.405918
     7  C    2.524423   3.808942   4.300667   1.490442   2.504883
     8  C    3.839537   4.979210   5.154776   2.539412   2.877067
     9  C    4.294486   5.161497   4.972498   2.886358   2.533776
    10  C    3.783486   4.292947   3.797282   2.497808   1.481791
    11  O    2.916641   4.310127   5.094561   2.404117   3.641296
    12  O    4.789714   5.054717   4.269696   3.615314   2.380053
    13  O    1.365003   2.367070   3.640359   2.412798   3.683338
    14  H    3.396781   2.151148   1.089459   3.899834   3.425473
    15  H    5.377007   6.207562   5.916822   3.968892   3.495420
    16  C    4.250855   3.726508   2.434396   3.803685   2.537110
    17  O    5.032437   4.315357   2.962776   4.727805   3.516573
    18  O    4.827190   4.469721   3.305638   4.219588   2.957279
    19  C    6.238063   5.790359   4.533422   5.621107   4.310706
    20  H    2.169183   1.087117   2.140819   3.431762   3.901020
    21  H    4.694837   5.925335   6.201023   3.501171   3.959437
    22  H    1.939912   2.394993   3.780305   3.227124   4.366914
    23  H    6.780314   6.453959   5.295716   6.082345   4.837259
    24  H    6.670979   6.284700   5.004310   5.939496   4.551844
    25  H    6.605571   5.940369   4.625847   6.197688   4.947527
                    6          7          8          9         10
     6  C    0.000000
     7  C    3.791312   0.000000
     8  C    4.280609   1.475058   0.000000
     9  C    3.825015   2.456352   1.331226   0.000000
    10  C    2.512160   2.882062   2.445212   1.470915   0.000000
    11  O    4.825950   1.223270   2.313551   3.528190   4.100307
    12  O    2.882767   4.092556   3.523416   2.321748   1.222968
    13  O    4.146669   2.881328   4.351041   5.124534   4.909105
    14  H    2.164340   5.390027   6.213975   5.942954   4.672356
    15  H    4.677426   3.454170   2.114998   1.084089   2.183312
    16  C    1.473237   5.038630   5.221752   4.437454   2.986450
    17  O    2.375820   5.998595   6.203239   5.381802   3.911690
    18  O    2.289101   5.269973   5.242721   4.367466   3.083603
    19  C    3.605813   6.614808   6.428231   5.403313   4.177397
    20  H    3.397140   4.691743   5.957748   6.223782   5.379469
    21  H    5.362112   2.181995   1.084481   2.113863   3.444483
    22  H    4.572488   3.845125   5.310763   6.031889   5.693325
    23  H    4.337105   6.927390   6.610328   5.579254   4.553986
    24  H    3.951942   6.859320   6.535105   5.388107   4.170016
    25  H    3.987357   7.329950   7.302543   6.351372   5.054788
                   11         12         13         14         15
    11  O    0.000000
    12  O    5.304540   0.000000
    13  O    2.668208   5.999394   0.000000
    14  H    6.166667   4.946843   4.515651   0.000000
    15  H    4.423503   2.551642   6.195203   6.834236   0.000000
    16  C    6.156538   2.736565   5.613589   2.617529   5.043584
    17  O    7.089868   3.450666   6.372477   2.786636   5.926523
    18  O    6.414946   2.778287   6.147731   3.531821   4.827870
    19  C    7.783927   3.524392   7.565844   4.524824   5.646191
    20  H    4.999172   6.118220   2.616493   2.460171   7.278829
    21  H    2.525485   4.424609   4.976310   7.269557   2.475282
    22  H    3.605135   6.721456   0.970524   4.478342   7.110284
    23  H    8.079647   3.949914   8.057028   5.362856   5.701322
    24  H    8.066287   3.252592   8.022630   5.029049   5.500644
    25  H    8.460459   4.465385   7.922748   4.359558   6.673693
                   16         17         18         19         20
    16  C    0.000000
    17  O    1.218615   0.000000
    18  O    1.355158   2.311655   0.000000
    19  C    2.326250   2.696160   1.427410   0.000000
    20  H    4.574234   5.015480   5.337961   6.590931   0.000000
    21  H    6.287198   7.268860   6.239665   7.376161   6.853581
    22  H    5.998900   6.656118   6.604531   7.994346   2.213238
    23  H    3.242479   3.769526   2.049434   1.093493   7.270588
    24  H    2.591713   2.674950   2.084385   1.094795   7.132229
    25  H    2.664038   2.718122   2.077984   1.094359   6.601376
                   21         22         23         24         25
    21  H    0.000000
    22  H    5.946565   0.000000
    23  H    7.472582   8.532432   0.000000
    24  H    7.461740   8.496395   1.774666   0.000000
    25  H    8.286586   8.232059   1.775884   1.801347   0.000000
 Symmetry turned off by external request.
 Stoichiometry    C12H8O5(2-)
 Framework group  C1[X(C12H8O5)]
 Deg. of freedom    69
 Full point group                 C1      NOp   1
 Rotational constants (GHZ):           0.8088913           0.3931036           0.2825419
 Leave Link  202 at Wed Dec 27 21:08:13 2023, MaxMem=  4026531840 cpu:               0.3 elap:               0.1
 (Enter /sysapps/ubuntu-applications/gaussian/Gaussian/AVX2/g16/l301.exe)
 Standard basis: 6-311++G(d,p) (5D, 7F)
 Ernie: Thresh=  0.10000D-02 Tol=  0.10000D-05 Strict=F.
   430 basis functions,   684 primitive gaussians,   447 cartesian basis functions
    61 alpha electrons       61 beta electrons
       nuclear repulsion energy      1171.3595844988 Hartrees.
 IExCor=  402 DFT=T Ex+Corr=B3LYP ExCW=0 ScaHFX=  0.200000
 ScaDFX=  0.800000  0.720000  1.000000  0.810000 ScalE2=  1.000000  1.000000
 IRadAn=      5 IRanWt=     -1 IRanGd=            0 ICorTp=0 IEmpDi=  4
 NAtoms=   25 NActive=   25 NUniq=   25 SFac= 1.00D+00 NAtFMM=   60 NAOKFM=F Big=F
 Integral buffers will be    131072 words long.
 Raffenetti 2 integral format.
 Two-electron integral symmetry is turned off.
 Leave Link  301 at Wed Dec 27 21:08:13 2023, MaxMem=  4026531840 cpu:               0.4 elap:               0.1
 (Enter /sysapps/ubuntu-applications/gaussian/Gaussian/AVX2/g16/l302.exe)
 NPDir=0 NMtPBC=     1 NCelOv=     1 NCel=       1 NClECP=     1 NCelD=      1
         NCelK=      1 NCelE2=     1 NClLst=     1 CellRange=     0.0.
 One-electron integrals computed using PRISM.
 NBasis=   430 RedAO= T EigKep=  1.85D-06  NBF=   430
 NBsUse=   426 1.00D-06 EigRej=  8.64D-07 NBFU=   426
 Precomputing XC quadrature grid using
 IXCGrd= 4 IRadAn=           5 IRanWt=          -1 IRanGd=           0 AccXCQ= 0.00D+00.
 Generated NRdTot=       0 NPtTot=           0 NUsed=           0 NTot=          32
 NSgBfM=   447   447   447   447   447 MxSgAt=    25 MxSgA2=    25.
 Leave Link  302 at Wed Dec 27 21:08:14 2023, MaxMem=  4026531840 cpu:               3.9 elap:               0.6
 (Enter /sysapps/ubuntu-applications/gaussian/Gaussian/AVX2/g16/l303.exe)
 DipDrv:  MaxL=1.
 Leave Link  303 at Wed Dec 27 21:08:14 2023, MaxMem=  4026531840 cpu:               0.8 elap:               0.2
 (Enter /sysapps/ubuntu-applications/gaussian/Gaussian/AVX2/g16/l401.exe)
 ExpMin= 3.60D-02 ExpMax= 8.59D+03 ExpMxC= 1.30D+03 IAcc=3 IRadAn=         5 AccDes= 0.00D+00
 Harris functional with IExCor=  402 and IRadAn=       5 diagonalized for initial guess.
 HarFok:  IExCor=  402 AccDes= 0.00D+00 IRadAn=         5 IDoV= 1 UseB2=F ITyADJ=14
 ICtDFT=  3500011 ScaDFX=  1.000000  1.000000  1.000000  1.000000
 FoFCou: FMM=F IPFlag=           0 FMFlag=      100000 FMFlg1=           0
         NFxFlg=           0 DoJE=T BraDBF=F KetDBF=T FulRan=T
         wScrn=  0.000000 ICntrl=       500 IOpCl=  0 I1Cent=   200000004 NGrid=           0
         NMat0=    1 NMatS0=      1 NMatT0=    0 NMatD0=    1 NMtDS0=    0 NMtDT0=    0
 Symmetry not used in FoFCou.
 Harris En= -838.915591073892    
 JPrj=0 DoOrth=F DoCkMO=F.
 Initial guess <Sx>= 0.0000 <Sy>= 0.0000 <Sz>= 0.0000 <S**2>=-0.0000 S=-0.0000
 Leave Link  401 at Wed Dec 27 21:08:16 2023, MaxMem=  4026531840 cpu:              12.5 elap:               1.6
 (Enter /sysapps/ubuntu-applications/gaussian/Gaussian/AVX2/g16/l508.exe)
 Two-electron integral symmetry not used.
 Tight linear equation convergence will be used.
 UB3LYP wavefunction.
 Linear searches until partial convergence.
 Full line searches.
 Fock matrices will be formed incrementally for  20 cycles.
 FoFJK:  IHMeth= 1 ICntrl=       0 DoSepK=F KAlg= 0 I1Cent=           0 FoldK=F
 IRaf= 860000000 NMat=       1 IRICut=       1 DoRegI=T DoRafI=F ISym2E= 0 IDoP0=0 IntGTp=1.
 FoFCou: FMM=F IPFlag=           0 FMFlag=      100000 FMFlg1=           0
         NFxFlg=           0 DoJE=F BraDBF=F KetDBF=F FulRan=T
         wScrn=  0.000000 ICntrl=         0 IOpCl=  1 I1Cent=           0 NGrid=           0
         NMat0=    1 NMatS0=      1 NMatT0=    0 NMatD0=    1 NMtDS0=    0 NMtDT0=    0
 Symmetry not used in FoFCou.
 Iteration   1 EE= -837.723175196445                                    Grad=1.230D+00 Max rot=    3.1004 deg.
 Gradient too large for Newton-Raphson -- use scaled steepest descent instead.
 Alpha Gap=    -0.018 HL deriv= 1.79D-03
  Beta Gap=    -0.018 HL deriv= 1.79D-03
     ILin= 1 X=0.000D+00 Y=-8.377231751964D+02 DE= 0.00D+00 F= -3.78D+00
 RMSU=  1.58D-01    CP:  3.00D+00
     ILin= 2 X=3.000D-01 Y=-8.383179736134D+02 DE=-5.95D-01 F= -6.39D-02
 RMSU=  6.91D-02    CP:  3.00D+00  1.66D+00
     ILin= 3 X=4.000D-01 Y=-8.382562993893D+02 DE=-5.33D-01 F=  1.30D+00
     An  expanding polynomial of degree  3 produced  0.3025
     Minimum is close to point  2 DX=  2.55D-03 DF= -4.22D-05 DXR=  8.42D-03 DFR=  7.09D-05 which will be used.
 Iteration   2 EE= -838.317973613391     Delta-E=       -0.594798416946 Grad=3.413D-01 Max rot=    1.0584 deg.
 Gradient too large for Newton-Raphson -- use scaled steepest descent instead.
 Alpha Gap=     0.091 HL deriv= 1.75D-02
  Beta Gap=     0.091 HL deriv= 1.75D-02
     ILin= 1 X=0.000D+00 Y=-8.383179736134D+02 DE= 0.00D+00 F= -2.16D-01
 RMSU=  1.07D-02    CP:  2.63D+00  7.68D-01 -3.11D-02
     ILin= 2 X=3.000D-01 Y=-8.383579005735D+02 DE=-3.99D-02 F= -5.13D-02
 RMSU=  1.10D-03    CP:  2.40D+00  6.30D-01 -3.66D-02  1.52D+00
     ILin= 3 X=5.000D-01 Y=-8.383574236222D+02 DE=-3.95D-02 F=  5.57D-02
     An  expanding polynomial of degree  3 produced  0.3956
 RMSU=  1.75D-05    CP:  2.52D+00  7.00D-01 -3.40D-02  1.27D+00  3.77D-01
 Iteration   3 EE= -838.360341834489     Delta-E=       -0.042368221098 Grad=1.727D-01 Max rot=    0.9927 deg.
 Gradient too large for Newton-Raphson -- use scaled steepest descent instead.
 Alpha Gap=     0.065 HL deriv= 1.79D-02
  Beta Gap=     0.065 HL deriv= 1.79D-02
     ILin= 1 X=0.000D+00 Y=-8.383603418345D+02 DE= 0.00D+00 F= -6.11D-02
 RMSU=  5.35D-03    CP:  2.28D+00  5.86D-01 -4.21D-02  1.45D+00  8.46D-01
                    CP:  3.00D+00
     ILin= 2 X=3.000D-01 Y=-8.383709160360D+02 DE=-1.06D-02 F= -9.02D-03
 RMSU=  4.93D-04    CP:  2.15D+00  5.16D-01 -4.62D-02  1.53D+00  1.35D+00
                    CP:  3.00D+00  1.59D+00
     ILin= 3 X=5.000D-01 Y=-8.383691405509D+02 DE=-8.80D-03 F=  2.69D-02
     An  expanding polynomial of degree  3 produced  0.3497
 RMSU=  1.85D-06    CP:  2.25D+00  5.68D-01 -4.32D-02  1.47D+00  9.56D-01
                    CP:  3.00D+00  1.15D+00  1.73D-01
 Iteration   4 EE= -838.371144489434     Delta-E=       -0.010802654945 Grad=1.008D-01 Max rot=    0.3034 deg.
 Gradient too large for Newton-Raphson -- use scaled steepest descent instead.
 Alpha Gap=     0.083 HL deriv= 1.04D-02
  Beta Gap=     0.083 HL deriv= 1.04D-02
     ILin= 1 X=0.000D+00 Y=-8.383711444894D+02 DE= 0.00D+00 F= -1.79D-02
 RMSU=  2.16D-03    CP:  2.00D+00  4.27D-01 -4.29D-02  1.60D+00  2.66D+00
                    CP:  3.00D+00  1.35D+00  6.78D-01 -3.00D+00
     ILin= 2 X=4.000D-01 Y=-8.383749239720D+02 DE=-3.78D-03 F= -1.07D-03
 RMSU=  1.39D-03    CP:  1.85D+00  3.34D-01 -4.13D-02  1.63D+00  3.00D+00
                    CP:  3.00D+00  1.44D+00  1.53D+00 -3.00D+00  1.58D+00
     ILin= 3 X=7.000D-01 Y=-8.383733799175D+02 DE=-2.24D-03 F=  1.13D-02
     An  expanding polynomial of degree  3 produced  0.4266
     Minimum is close to point  2 DX=  2.66D-02 DF= -1.47D-05 DXR=  6.23D-02 DFR=  3.90D-03 which will be used.
 Iteration   5 EE= -838.374923971968     Delta-E=       -0.003779482533 Grad=5.799D-02 Max rot=    0.4053 deg.
 Gradient too large for Newton-Raphson -- use scaled steepest descent instead.
 Alpha Gap=     0.075 HL deriv= 1.51D-02
  Beta Gap=     0.075 HL deriv= 1.51D-02
     ILin= 1 X=0.000D+00 Y=-8.383749239720D+02 DE= 0.00D+00 F= -7.46D-03
 RMSU=  8.14D-04    CP:  1.85D+00  3.43D-01 -4.27D-02  1.59D+00  3.00D+00
                    CP:  3.00D+00  1.72D+00  1.77D+00 -3.00D+00  1.66D+00
                    CP:  5.21D-01
     ILin= 2 X=4.000D-01 Y=-8.383764593371D+02 DE=-1.54D-03 F= -1.91D-04
 RMSU=  1.33D-04    CP:  1.76D+00  2.86D-01 -4.18D-02  1.55D+00  3.00D+00
                    CP:  3.00D+00  1.94D+00  3.00D+00 -3.00D+00  2.07D+00
                    CP:  1.19D+00  1.65D+00
     ILin= 3 X=7.000D-01 Y=-8.383756856279D+02 DE=-7.62D-04 F=  5.36D-03
     An  expanding polynomial of degree  3 produced  0.4093
     Minimum is close to point  2 DX=  9.34D-03 DF= -8.00D-07 DXR=  2.28D-02 DFR=  5.21D-04 which will be used.
 Iteration   6 EE= -838.376459337083     Delta-E=       -0.001535365115 Grad=3.739D-02 Max rot=    0.1567 deg.
 Gradient too large for Newton-Raphson -- use scaled steepest descent instead.
 Alpha Gap=     0.082 HL deriv= 7.14D-03
  Beta Gap=     0.082 HL deriv= 7.14D-03
     ILin= 1 X=0.000D+00 Y=-8.383764593371D+02 DE= 0.00D+00 F= -3.48D-03
 RMSU=  3.11D-04    CP:  1.75D+00  2.77D-01 -3.95D-02  1.55D+00  3.00D+00
                    CP:  3.00D+00  1.74D+00  2.16D+00 -3.00D+00  2.43D+00
                    CP:  1.38D+00  1.81D+00  7.67D-01
     ILin= 2 X=4.000D-01 Y=-8.383771861561D+02 DE=-7.27D-04 F= -1.59D-04
 RMSU=  1.91D-04    CP:  1.65D+00  2.17D-01 -3.58D-02  1.49D+00  3.00D+00
                    CP:  3.00D+00  1.73D+00  2.80D+00 -3.00D+00  3.00D+00
                    CP:  2.34D+00  2.44D+00  2.72D+00  1.95D+00
     ILin= 3 X=8.000D-01 Y=-8.383765906064D+02 DE=-1.31D-04 F=  3.13D-03
     An  expanding polynomial of degree  3 produced  0.4199
     Minimum is close to point  2 DX=  1.99D-02 DF= -1.63D-06 DXR=  4.73D-02 DFR=  2.24D-03 which will be used.
 Iteration   7 EE= -838.377186156117     Delta-E=       -0.000726819034 Grad=2.272D-02 Max rot=    0.2095 deg.
 Gradient too large for Newton-Raphson -- use scaled steepest descent instead.
 Alpha Gap=     0.078 HL deriv= 1.10D-02
  Beta Gap=     0.078 HL deriv= 1.10D-02
     ILin= 1 X=0.000D+00 Y=-8.383771861561D+02 DE= 0.00D+00 F= -1.77D-03
 RMSU=  1.42D-04    CP:  1.67D+00  2.34D-01 -3.75D-02  1.50D+00  3.00D+00
                    CP:  3.00D+00  1.84D+00  2.83D+00 -3.00D+00  2.93D+00
                    CP:  1.84D+00  2.88D+00  2.25D+00  1.81D+00  2.93D-01
     ILin= 2 X=4.000D-01 Y=-8.383775783059D+02 DE=-3.92D-04 F= -1.89D-04
 RMSU=  1.00D-03    CP:  1.61D+00  1.95D-01 -3.52D-02  1.44D+00  3.00D+00
                    CP:  3.00D+00  1.93D+00  3.00D+00 -3.00D+00  3.00D+00
                    CP:  2.34D+00  3.00D+00  3.00D+00  2.40D+00  2.56D+00
                    CP:  1.87D-01
     ILin= 3 X=8.000D-01 Y=-8.383773344035D+02 DE=-1.48D-04 F=  1.41D-03
     An  expanding polynomial of degree  3 produced  0.4466
 RMSU=  4.04D-06    CP:  1.66D+00  2.29D-01 -3.73D-02  1.49D+00  3.00D+00
                    CP:  3.00D+00  1.85D+00  2.93D+00 -3.00D+00  2.98D+00
                    CP:  1.90D+00  2.99D+00  2.48D+00  1.91D+00  3.47D-01
                    CP:  1.12D+00 -2.17D-03
 Iteration   8 EE= -838.377582786535     Delta-E=       -0.000396630418 Grad=1.735D-02 Max rot=    0.1041 deg.
 Gradient too large for Newton-Raphson -- use scaled steepest descent instead.
 Alpha Gap=     0.081 HL deriv= 4.56D-03
  Beta Gap=     0.081 HL deriv= 4.56D-03
     ILin= 1 X=0.000D+00 Y=-8.383775827865D+02 DE= 0.00D+00 F= -1.18D-03
 RMSU=  3.59D-04    CP:  1.61D+00  1.97D-01 -3.45D-02  1.44D+00  3.00D+00
                    CP:  3.00D+00  1.82D+00  3.00D+00 -3.00D+00  3.00D+00
                    CP:  2.36D+00  3.00D+00  3.00D+00  3.00D+00  3.00D+00
                    CP:  6.31D-01  9.21D-01 -3.00D+00
     ILin= 2 X=4.000D-01 Y=-8.383778207432D+02 DE=-2.38D-04 F= -8.01D-06
 RMSU=  7.57D-04    CP:  1.55D+00  1.60D-01 -3.08D-02  1.37D+00  3.00D+00
                    CP:  3.00D+00  1.75D+00  3.00D+00 -3.00D+00  3.00D+00
                    CP:  2.98D+00  3.00D+00  3.00D+00  3.00D+00  3.00D+00
                    CP:  1.24D-01  2.03D+00  1.79D+00  2.34D+00
     ILin= 3 X=9.000D-01 Y=-8.383774598186D+02 DE= 1.23D-04 F=  1.45D-03
     An  expanding polynomial of degree  3 produced  0.4033
     Minimum is close to point  2 DX=  3.31D-03 DF= -1.60D-08 DXR=  8.20D-03 DFR=  6.72D-05 which will be used.
 Iteration   9 EE= -838.377820743183     Delta-E=       -0.000237956649 Grad=1.110D-02 Max rot=    0.1293 deg.
 Gradient too large for Newton-Raphson -- use scaled steepest descent instead.
 Alpha Gap=     0.079 HL deriv= 7.97D-03
  Beta Gap=     0.079 HL deriv= 7.97D-03
     ILin= 1 X=0.000D+00 Y=-8.383778207432D+02 DE= 0.00D+00 F= -6.80D-04
 Restarting incremental Fock formation.
     ILin= 2 X=4.000D-01 Y=-8.383779776647D+02 DE=-1.57D-04 F= -1.04D-04
 RMSU=  2.78D-03    CP:  9.69D-01
     ILin= 3 X=8.000D-01 Y=-8.383779031033D+02 DE=-8.24D-05 F=  4.77D-04
     An  expanding polynomial of degree  3 produced  0.4712
 RMSU=  1.06D-05    CP:  9.94D-01  1.83D-01
 Iteration  10 EE= -838.377981385041     Delta-E=       -0.000160641858 Grad=1.046D-02 Max rot=    0.0793 deg.
 Gradient too large for Newton-Raphson -- use scaled steepest descent instead.
 Alpha Gap=     0.081 HL deriv= 2.62D-03
  Beta Gap=     0.081 HL deriv= 2.62D-03
     ILin= 1 X=0.000D+00 Y=-8.383779813850D+02 DE= 0.00D+00 F= -5.70D-04
 RMSU=  4.95D-04    CP:  9.70D-01  9.89D-01  1.13D+00
     ILin= 2 X=4.000D-01 Y=-8.383781002081D+02 DE=-1.19D-04 F= -2.49D-05
 RMSU=  9.68D-05    CP:  9.42D-01  1.93D+00 -3.00D+00  2.24D+00
     ILin= 3 X=9.000D-01 Y=-8.383779432474D+02 DE= 3.81D-05 F=  6.52D-04
     An  expanding polynomial of degree  3 produced  0.4188
     Minimum is close to point  2 DX=  1.88D-02 DF= -2.40D-07 DXR=  4.49D-02 DFR=  2.02D-03 which will be used.
 Iteration  11 EE= -838.378100208119     Delta-E=       -0.000118823078 Grad=7.091D-03 Max rot=    0.0869 deg.
 SCF Done:  E(UB3LYP) =  -838.378100208     a.u. after   11 cycles
            Convg  =    0.7091D-02                    25 Fock formations.
              S**2 = -0.0000                  -V/T =  2.0029
 <Sx>= 0.0000 <Sy>= 0.0000 <Sz>= 0.0000 <S**2>=-0.0000 S=-0.0000
 <L.S>=  0.00000000000    
 Annihilation of the first spin contaminant:
 S**2 before annihilation    -0.0000,   after     0.0000
 Leave Link  508 at Wed Dec 27 21:11:31 2023, MaxMem=  4026531840 cpu:            1562.3 elap:             195.5
 (Enter /sysapps/ubuntu-applications/gaussian/Gaussian/AVX2/g16/l502.exe)
 Two-electron integral symmetry not used.
 UHF open shell SCF:
 Using DIIS extrapolation, IDIIS=  1040.
 NGot=  4026531840 LenX=  4026125464 LenY=  4025925208
 Requested convergence on RMS density matrix=1.00D-08 within  32 cycles.
 Requested convergence on MAX density matrix=1.00D-06.
 Requested convergence on             energy=1.00D-06.
 No special actions if energy rises.
 Fock matrices will be formed incrementally for  20 cycles.

 Cycle   1  Pass 1  IDiag  1:
 FoFJK:  IHMeth= 1 ICntrl=       0 DoSepK=F KAlg= 0 I1Cent=           0 FoldK=F
 IRaf= 860000000 NMat=       1 IRICut=       1 DoRegI=T DoRafI=F ISym2E= 0 IDoP0=0 IntGTp=1.
 FoFCou: FMM=F IPFlag=           0 FMFlag=      100000 FMFlg1=           0
         NFxFlg=           0 DoJE=F BraDBF=F KetDBF=F FulRan=T
         wScrn=  0.000000 ICntrl=         0 IOpCl=  1 I1Cent=           0 NGrid=           0
         NMat0=    1 NMatS0=      1 NMatT0=    0 NMatD0=    1 NMtDS0=    0 NMtDT0=    0
 Symmetry not used in FoFCou.
 E= -838.378100208118    
 DIIS: error= 3.10D-04 at cycle   1 NSaved=   1.
 NSaved= 1 IEnMin= 1 EnMin= -838.378100208118     IErMin= 1 ErrMin= 3.10D-04
 ErrMax= 3.10D-04  0.00D+00 EMaxC= 1.00D-01 BMatC= 1.01D-04 BMatP= 1.01D-04
 IDIUse=3 WtCom= 9.97D-01 WtEn= 3.10D-03
 Coeff-Com:  0.100D+01
 Coeff-En:   0.100D+01
 Coeff:      0.100D+01
 Gap=     0.080 Goal=   None    Shift=    0.000
 Gap=     0.080 Goal=   None    Shift=    0.000
 RMSDP=4.82D-01 MaxDP=5.53D+01              OVMax= 9.96D-01

 Cycle   2  Pass 1  IDiag  1:
 RMSU=  4.65D-01    CP:  2.60D+00
 E= -838.089103321080     Delta-E=        0.288996887038 Rises=F Damp=F
 DIIS: error= 1.03D-02 at cycle   2 NSaved=   2.
 NSaved= 2 IEnMin= 1 EnMin= -838.378100208118     IErMin= 1 ErrMin= 3.10D-04
 ErrMax= 1.03D-02  0.00D+00 EMaxC= 1.00D-01 BMatC= 3.79D-01 BMatP= 1.01D-04
 IDIUse=2 WtCom= 0.00D+00 WtEn= 1.00D+00
 Coeff-En:   0.920D+00 0.798D-01
 Coeff:      0.920D+00 0.798D-01
 Gap=    -0.003 Goal=   None    Shift=    0.000
 Gap=    -0.003 Goal=   None    Shift=    0.000
 RMSDP=4.81D-01 MaxDP=5.51D+01 DE= 2.89D-01 OVMax= 9.93D-01

 Cycle   3  Pass 1  IDiag  1:
 RMSU=  1.09D-02    CP:  8.59D-01  1.02D-02
 E= -838.373701743185     Delta-E=       -0.284598422105 Rises=F Damp=F
 DIIS: error= 2.42D-03 at cycle   3 NSaved=   3.
 NSaved= 3 IEnMin= 1 EnMin= -838.378100208118     IErMin= 1 ErrMin= 3.10D-04
 ErrMax= 2.42D-03  0.00D+00 EMaxC= 1.00D-01 BMatC= 1.55D-02 BMatP= 1.01D-04
 IDIUse=3 WtCom= 1.69D-01 WtEn= 8.31D-01
 Coeff-Com:  0.971D+00 0.471D-02 0.240D-01
 Coeff-En:   0.000D+00 0.143D+00 0.857D+00
 Coeff:      0.164D+00 0.119D+00 0.717D+00
 Gap=    -0.001 Goal=   None    Shift=    0.000
 Gap=    -0.001 Goal=   None    Shift=    0.000
 RMSDP=6.24D-01 MaxDP=3.92D+01 DE=-2.85D-01 OVMax= 9.85D-01

 Cycle   4  Pass 1  IDiag  1:
 RMSU=  6.01D-01    CP:  2.32D+00  2.08D-01  3.00D+00
 E= -838.138110905414     Delta-E=        0.235590837771 Rises=F Damp=F
 DIIS: error= 1.32D-02 at cycle   4 NSaved=   4.
 NSaved= 4 IEnMin= 1 EnMin= -838.378100208118     IErMin= 1 ErrMin= 3.10D-04
 ErrMax= 1.32D-02  0.00D+00 EMaxC= 1.00D-01 BMatC= 3.54D-01 BMatP= 1.01D-04
 IDIUse=2 WtCom= 0.00D+00 WtEn= 1.00D+00
 EnCoef did    10 forward-backward iterations
 Coeff-En:   0.000D+00 0.109D+00 0.832D+00 0.583D-01
 Coeff:      0.000D+00 0.109D+00 0.832D+00 0.583D-01
 Gap=    -0.010 Goal=   None    Shift=    0.000
 Gap=    -0.010 Goal=   None    Shift=    0.000
 RMSDP=6.18D-01 MaxDP=3.86D+01 DE= 2.36D-01 OVMax= 9.84D-01

 Cycle   5  Pass 1  IDiag  1:
 RMSU=  6.03D-03    CP:  9.00D-01  3.26D-02  1.61D+00  3.27D-03
 E= -838.374956013113     Delta-E=       -0.236845107700 Rises=F Damp=F
 DIIS: error= 2.04D-03 at cycle   5 NSaved=   5.
 NSaved= 5 IEnMin= 1 EnMin= -838.378100208118     IErMin= 1 ErrMin= 3.10D-04
 ErrMax= 2.04D-03  0.00D+00 EMaxC= 1.00D-01 BMatC= 1.06D-02 BMatP= 1.01D-04
 IDIUse=3 WtCom= 1.81D-01 WtEn= 8.19D-01
 EnCoef did    80 forward-backward iterations
 Coeff-Com:  0.104D+01-0.187D-02 0.355D-01-0.230D-02-0.757D-01
 Coeff-En:   0.000D+00 0.998D-01 0.192D+00 0.627D-01 0.645D+00
 Coeff:      0.189D+00 0.814D-01 0.164D+00 0.510D-01 0.515D+00
 Gap=     0.004 Goal=   None    Shift=    0.000
 Gap=     0.004 Goal=   None    Shift=    0.000
 RMSDP=9.23D-02 MaxDP=6.24D+00 DE=-2.37D-01 OVMax= 2.50D-01

 Cycle   6  Pass 1  IDiag  1:
 RMSU=  1.53D-02    CP:  1.32D+00  2.07D-01  3.00D+00  1.61D-02  3.00D+00
 E= -838.384975056390     Delta-E=       -0.010019043277 Rises=F Damp=F
 DIIS: error= 1.13D-03 at cycle   6 NSaved=   6.
 NSaved= 6 IEnMin= 6 EnMin= -838.384975056390     IErMin= 1 ErrMin= 3.10D-04
 ErrMax= 1.13D-03  0.00D+00 EMaxC= 1.00D-01 BMatC= 2.67D-03 BMatP= 1.01D-04
 IDIUse=3 WtCom= 2.29D-01 WtEn= 7.71D-01
 EnCoef did     4 forward-backward iterations
 Coeff-Com:  0.910D+00-0.489D-02-0.339D-01 0.284D-02 0.234D-02 0.124D+00
 Coeff-En:   0.000D+00 0.872D-02 0.000D+00 0.268D-01 0.000D+00 0.965D+00
 Coeff:      0.209D+00 0.560D-02-0.778D-02 0.213D-01 0.536D-03 0.772D+00
 Gap=     0.003 Goal=   None    Shift=    0.000
 Gap=     0.003 Goal=   None    Shift=    0.000
 RMSDP=3.91D-01 MaxDP=3.90D+01 DE=-1.00D-02 OVMax= 6.07D-01

 Cycle   7  Pass 1  IDiag  1:
 RMSU=  7.63D-02    CP:  2.74D+00  9.89D-01  9.03D-01  4.67D-02  3.00D+00
                    CP:  2.91D+00
 E= -838.269446877391     Delta-E=        0.115528178999 Rises=F Damp=F
 DIIS: error= 1.16D-02 at cycle   7 NSaved=   7.
 NSaved= 7 IEnMin= 6 EnMin= -838.384975056390     IErMin= 1 ErrMin= 3.10D-04
 ErrMax= 1.16D-02  0.00D+00 EMaxC= 1.00D-01 BMatC= 1.78D-01 BMatP= 1.01D-04
 IDIUse=2 WtCom= 0.00D+00 WtEn= 1.00D+00
 EnCoef did     6 forward-backward iterations
 Coeff-En:   0.000D+00 0.000D+00 0.000D+00 0.983D-02 0.000D+00 0.933D+00
 Coeff-En:   0.567D-01
 Coeff:      0.000D+00 0.000D+00 0.000D+00 0.983D-02 0.000D+00 0.933D+00
 Coeff:      0.567D-01
 Gap=     0.006 Goal=   None    Shift=    0.000
 Gap=     0.006 Goal=   None    Shift=    0.000
 RMSDP=2.83D-01 MaxDP=3.02D+01 DE= 1.16D-01 OVMax= 4.74D-01

 Cycle   8  Pass 1  IDiag  1:
 RMSU=  1.23D-02    CP:  1.73D+00  4.24D-01  3.00D+00  3.69D-02  3.00D+00
                    CP:  2.22D+00  2.21D-01
 E= -838.384542446841     Delta-E=       -0.115095569450 Rises=F Damp=F
 DIIS: error= 2.52D-03 at cycle   8 NSaved=   8.
 NSaved= 8 IEnMin= 6 EnMin= -838.384975056390     IErMin= 1 ErrMin= 3.10D-04
 ErrMax= 2.52D-03  0.00D+00 EMaxC= 1.00D-01 BMatC= 8.92D-03 BMatP= 1.01D-04
 IDIUse=3 WtCom= 2.29D-01 WtEn= 7.71D-01
 EnCoef did     2 forward-backward iterations
 Coeff-Com:  0.633D+00-0.254D-01-0.541D-01 0.123D-01 0.657D-01 0.290D+00
 Coeff-Com:  0.315D-01 0.468D-01
 Coeff-En:   0.000D+00 0.000D+00 0.000D+00 0.420D-03 0.000D+00 0.537D+00
 Coeff-En:   0.000D+00 0.463D+00
 Coeff:      0.145D+00-0.583D-02-0.124D-01 0.315D-02 0.151D-01 0.480D+00
 Coeff:      0.724D-02 0.367D+00
 Gap=     0.008 Goal=   None    Shift=    0.000
 Gap=     0.008 Goal=   None    Shift=    0.000
 RMSDP=8.26D-02 MaxDP=7.55D+00 DE=-1.15D-01 OVMax= 1.36D-01

 Cycle   9  Pass 1  IDiag  1:
 RMSU=  5.82D-03    CP:  2.07D+00  5.89D-01  3.00D+00  4.23D-02  3.00D+00
                    CP:  3.00D+00  3.04D-01  1.05D+00
 E= -838.375206862026     Delta-E=        0.009335584815 Rises=F Damp=F
 DIIS: error= 3.61D-03 at cycle   9 NSaved=   9.
 NSaved= 9 IEnMin= 6 EnMin= -838.384975056390     IErMin= 1 ErrMin= 3.10D-04
 ErrMax= 3.61D-03  0.00D+00 EMaxC= 1.00D-01 BMatC= 2.10D-02 BMatP= 1.01D-04
 IDIUse=3 WtCom= 2.29D-01 WtEn= 7.71D-01
 EnCoef did   100 forward-backward iterations
 Coeff-Com:  0.527D+00-0.582D-02 0.377D-02 0.777D-02 0.878D-01 0.143D+00
 Coeff-Com: -0.443D-01 0.991D-01 0.182D+00
 Coeff-En:   0.000D+00 0.000D+00 0.000D+00 0.393D-03 0.000D+00 0.551D+00
 Coeff-En:   0.000D+00 0.396D+00 0.526D-01
 Coeff:      0.121D+00-0.133D-02 0.864D-03 0.209D-02 0.201D-01 0.457D+00
 Coeff:     -0.102D-01 0.328D+00 0.824D-01
 Gap=     0.009 Goal=   None    Shift=    0.000
 Gap=     0.009 Goal=   None    Shift=    0.000
 RMSDP=6.34D-02 MaxDP=5.84D+00 DE= 9.34D-03 OVMax= 9.69D-02

 Cycle  10  Pass 1  IDiag  1:
 RMSU=  1.92D-03    CP:  1.82D+00  4.63D-01  3.00D+00  3.66D-02  3.00D+00
                    CP:  2.49D+00  1.91D-01  1.04D+00  7.82D-01
 E= -838.384843215028     Delta-E=       -0.009636353002 Rises=F Damp=F
 DIIS: error= 1.51D-03 at cycle  10 NSaved=  10.
 NSaved=10 IEnMin= 6 EnMin= -838.384975056390     IErMin= 1 ErrMin= 3.10D-04
 ErrMax= 1.51D-03  0.00D+00 EMaxC= 1.00D-01 BMatC= 4.56D-03 BMatP= 1.01D-04
 IDIUse=3 WtCom= 2.29D-01 WtEn= 7.71D-01
 EnCoef did     2 forward-backward iterations
 Coeff-Com:  0.390D+00-0.106D-01-0.165D-01 0.389D-02 0.992D-01-0.138D-01
 Coeff-Com:  0.273D-01-0.628D-01-0.464D+00 0.105D+01
 Coeff-En:   0.000D+00 0.000D+00 0.000D+00 0.000D+00 0.000D+00 0.469D+00
 Coeff-En:   0.000D+00 0.239D+00 0.000D+00 0.291D+00
 Coeff:      0.895D-01-0.244D-02-0.380D-02 0.893D-03 0.228D-01 0.358D+00
 Coeff:      0.626D-02 0.170D+00-0.106D+00 0.465D+00
 Gap=     0.011 Goal=   None    Shift=    0.000
 Gap=     0.011 Goal=   None    Shift=    0.000
 RMSDP=7.32D-02 MaxDP=6.09D+00 DE=-9.64D-03 OVMax= 1.15D-01

 Cycle  11  Pass 1  IDiag  1:
 RMSU=  3.25D-03    CP:  1.51D+00  3.18D-01  3.00D+00  2.55D-02  3.00D+00
                    CP:  1.69D+00  1.11D-01  8.39D-01  4.54D-01  1.51D+00
 E= -838.386971823691     Delta-E=       -0.002128608663 Rises=F Damp=F
 DIIS: error= 4.76D-04 at cycle  11 NSaved=  11.
 NSaved=11 IEnMin=11 EnMin= -838.386971823691     IErMin= 1 ErrMin= 3.10D-04
 ErrMax= 4.76D-04  0.00D+00 EMaxC= 1.00D-01 BMatC= 6.34D-04 BMatP= 1.01D-04
 IDIUse=3 WtCom= 3.14D-01 WtEn= 6.86D-01
 Coeff-Com:  0.232D+00-0.198D-01-0.146D+00 0.296D-02 0.927D-01-0.335D-01
 Coeff-Com:  0.591D-01-0.200D+00-0.231D+00 0.519D+00 0.725D+00
 Coeff-En:   0.000D+00 0.000D+00 0.000D+00 0.000D+00 0.000D+00 0.000D+00
 Coeff-En:   0.000D+00 0.000D+00 0.000D+00 0.250D+00 0.750D+00
 Coeff:      0.729D-01-0.623D-02-0.458D-01 0.930D-03 0.292D-01-0.105D-01
 Coeff:      0.186D-01-0.630D-01-0.727D-01 0.335D+00 0.742D+00
 Gap=     0.011 Goal=   None    Shift=    0.000
 Gap=     0.011 Goal=   None    Shift=    0.000
 RMSDP=7.34D-02 MaxDP=6.74D+00 DE=-2.13D-03 OVMax= 1.20D-01

 Cycle  12  Pass 1  IDiag  1:
 RMSU=  3.80D-03    CP:  1.79D+00  4.64D-01  3.00D+00  2.77D-02  3.00D+00
                    CP:  2.41D+00  2.52D-01  1.13D+00  1.33D+00  1.85D+00
                    CP:  2.23D+00
 E= -838.385248048015     Delta-E=        0.001723775676 Rises=F Damp=F
 DIIS: error= 1.42D-03 at cycle  12 NSaved=  12.
 NSaved=12 IEnMin=11 EnMin= -838.386971823691     IErMin= 1 ErrMin= 3.10D-04
 ErrMax= 1.42D-03  0.00D+00 EMaxC= 1.00D-01 BMatC= 3.84D-03 BMatP= 1.01D-04
 IDIUse=3 WtCom= 3.14D-01 WtEn= 6.86D-01
 Coeff-Com:  0.965D-01-0.595D-02-0.670D-01 0.192D-02 0.265D-01-0.379D-01
 Coeff-Com: -0.230D-02-0.161D+00 0.697D-01-0.421D+00 0.844D+00 0.658D+00
 Coeff-En:   0.000D+00 0.000D+00 0.000D+00 0.000D+00 0.000D+00 0.000D+00
 Coeff-En:   0.000D+00 0.000D+00 0.000D+00 0.000D+00 0.723D+00 0.277D+00
 Coeff:      0.303D-01-0.187D-02-0.211D-01 0.605D-03 0.833D-02-0.119D-01
 Coeff:     -0.723D-03-0.507D-01 0.219D-01-0.132D+00 0.761D+00 0.396D+00
 Gap=     0.012 Goal=   None    Shift=    0.000
 Gap=     0.012 Goal=   None    Shift=    0.000
 RMSDP=3.55D-02 MaxDP=2.68D+00 DE= 1.72D-03 OVMax= 4.95D-02

 Cycle  13  Pass 1  IDiag  1:
 RMSU=  1.21D-03    CP:  1.64D+00  3.95D-01  3.00D+00  1.80D-02  3.00D+00
                    CP:  2.00D+00  1.97D-01  9.32D-01  1.41D+00  2.46D+00
                    CP:  3.00D+00  1.28D+00
 E= -838.387140143054     Delta-E=       -0.001892095039 Rises=F Damp=F
 DIIS: error= 4.94D-04 at cycle  13 NSaved=  13.
 NSaved=13 IEnMin=13 EnMin= -838.387140143054     IErMin= 1 ErrMin= 3.10D-04
 ErrMax= 4.94D-04  0.00D+00 EMaxC= 1.00D-01 BMatC= 6.11D-04 BMatP= 1.01D-04
 IDIUse=3 WtCom= 3.14D-01 WtEn= 6.86D-01
 Coeff-Com:  0.532D-01-0.395D-02-0.215D-01 0.472D-04-0.251D-01-0.607D-02
 Coeff-Com:  0.458D-02-0.545D-01 0.113D+00-0.613D+00 0.559D+00 0.298D+00
 Coeff-Com:  0.697D+00
 Coeff-En:   0.000D+00 0.000D+00 0.000D+00 0.000D+00 0.000D+00 0.000D+00
 Coeff-En:   0.000D+00 0.000D+00 0.000D+00 0.000D+00 0.426D+00 0.000D+00
 Coeff-En:   0.574D+00
 Coeff:      0.167D-01-0.124D-02-0.675D-02 0.149D-04-0.790D-02-0.191D-02
 Coeff:      0.144D-02-0.171D-01 0.355D-01-0.193D+00 0.468D+00 0.936D-01
 Coeff:      0.612D+00
 Gap=     0.013 Goal=   None    Shift=    0.000
 Gap=     0.013 Goal=   None    Shift=    0.000
 RMSDP=2.87D-02 MaxDP=1.81D+00 DE=-1.89D-03 OVMax= 3.87D-02

 Cycle  14  Pass 1  IDiag  1:
 RMSU=  2.18D-03    CP:  1.52D+00  3.42D-01  2.72D+00  8.39D-03  3.00D+00
                    CP:  1.59D+00  1.56D-01  7.21D-01  1.62D+00  3.00D+00
                    CP:  3.00D+00  1.72D+00  2.71D+00
 E= -838.387466832258     Delta-E=       -0.000326689204 Rises=F Damp=F
 DIIS: error= 1.16D-04 at cycle  14 NSaved=  14.
 NSaved=14 IEnMin=14 EnMin= -838.387466832258     IErMin=14 ErrMin= 1.16D-04
 ErrMax= 1.16D-04  0.00D+00 EMaxC= 1.00D-01 BMatC= 3.61D-05 BMatP= 1.01D-04
 IDIUse=3 WtCom= 9.99D-01 WtEn= 1.16D-03
 Coeff-Com:  0.525D-01-0.200D-02-0.668D-02-0.333D-03-0.209D-01-0.490D-02
 Coeff-Com:  0.274D-03-0.155D-01 0.972D-01-0.431D+00 0.291D+00 0.110D+00
 Coeff-Com:  0.638D+00 0.292D+00
 Coeff-En:   0.000D+00 0.000D+00 0.000D+00 0.000D+00 0.000D+00 0.000D+00
 Coeff-En:   0.000D+00 0.000D+00 0.000D+00 0.000D+00 0.000D+00 0.000D+00
 Coeff-En:   0.926D-01 0.907D+00
 Coeff:      0.524D-01-0.200D-02-0.668D-02-0.333D-03-0.209D-01-0.489D-02
 Coeff:      0.274D-03-0.155D-01 0.971D-01-0.430D+00 0.290D+00 0.110D+00
 Coeff:      0.638D+00 0.292D+00
 Gap=     0.012 Goal=   None    Shift=    0.000
 Gap=     0.012 Goal=   None    Shift=    0.000
 RMSDP=1.89D-02 MaxDP=2.23D+00 DE=-3.27D-04 OVMax= 5.05D-02

 Cycle  15  Pass 1  IDiag  1:
 RMSU=  3.67D-03    CP:  1.58D+00  3.73D-01  2.44D+00 -9.09D-04  3.00D+00
                    CP:  1.57D+00  1.55D-01  5.26D-01  2.53D+00  3.00D+00
                    CP:  3.00D+00  2.72D+00  3.00D+00  2.96D+00
 E= -838.387133580239     Delta-E=        0.000333252020 Rises=F Damp=F
 DIIS: error= 5.99D-04 at cycle  15 NSaved=  15.
 NSaved=15 IEnMin=14 EnMin= -838.387466832258     IErMin=14 ErrMin= 1.16D-04
 ErrMax= 5.99D-04  0.00D+00 EMaxC= 1.00D-01 BMatC= 7.69D-04 BMatP= 3.61D-05
 IDIUse=3 WtCom= 9.99D-01 WtEn= 1.16D-03
 Coeff-Com:  0.474D-01-0.209D-02-0.706D-02-0.225D-03-0.163D-01-0.386D-02
 Coeff-Com:  0.961D-03-0.187D-01 0.834D-01-0.399D+00 0.283D+00 0.953D-01
 Coeff-Com:  0.604D+00 0.276D+00 0.580D-01
 Coeff-En:   0.000D+00 0.000D+00 0.000D+00 0.000D+00 0.000D+00 0.000D+00
 Coeff-En:   0.000D+00 0.000D+00 0.000D+00 0.000D+00 0.000D+00 0.000D+00
 Coeff-En:   0.000D+00 0.821D+00 0.179D+00
 Coeff:      0.473D-01-0.209D-02-0.705D-02-0.224D-03-0.163D-01-0.385D-02
 Coeff:      0.960D-03-0.187D-01 0.833D-01-0.399D+00 0.283D+00 0.952D-01
 Coeff:      0.603D+00 0.277D+00 0.582D-01
 Gap=     0.012 Goal=   None    Shift=    0.000
 Gap=     0.012 Goal=   None    Shift=    0.000
 RMSDP=2.05D-03 MaxDP=1.32D-01 DE= 3.33D-04 OVMax= 3.16D-03

 Cycle  16  Pass 1  IDiag  1:
 RMSU=  3.55D-04    CP:  1.57D+00  3.70D-01  2.40D+00 -2.07D-03  3.00D+00
                    CP:  1.54D+00  1.50D-01  4.93D-01  2.58D+00  3.00D+00
                    CP:  3.00D+00  2.79D+00  3.00D+00  3.00D+00  1.12D+00
 E= -838.387164829235     Delta-E=       -0.000031248996 Rises=F Damp=F
 DIIS: error= 5.82D-04 at cycle  16 NSaved=  16.
 NSaved=16 IEnMin=14 EnMin= -838.387466832258     IErMin=14 ErrMin= 1.16D-04
 ErrMax= 5.82D-04  0.00D+00 EMaxC= 1.00D-01 BMatC= 7.27D-04 BMatP= 3.61D-05
 IDIUse=3 WtCom= 9.99D-01 WtEn= 1.16D-03
 Coeff-Com:  0.383D-01-0.158D-02 0.414D-02-0.143D-03-0.265D-01-0.960D-02
 Coeff-Com: -0.893D-03-0.138D-01 0.898D-01-0.478D+00 0.289D+00 0.103D+00
 Coeff-Com:  0.738D+00 0.298D+00 0.497D+01-0.500D+01
 Coeff-En:   0.000D+00 0.000D+00 0.000D+00 0.000D+00 0.000D+00 0.000D+00
 Coeff-En:   0.000D+00 0.000D+00 0.000D+00 0.000D+00 0.000D+00 0.000D+00
 Coeff-En:   0.000D+00 0.809D+00 0.000D+00 0.191D+00
 Coeff:      0.383D-01-0.158D-02 0.414D-02-0.143D-03-0.264D-01-0.959D-02
 Coeff:     -0.892D-03-0.138D-01 0.897D-01-0.478D+00 0.288D+00 0.102D+00
 Coeff:      0.738D+00 0.299D+00 0.497D+01-0.500D+01
 Gap=     0.013 Goal=   None    Shift=    0.000
 Gap=     0.013 Goal=   None    Shift=    0.000
 RMSDP=1.19D-02 MaxDP=7.81D-01 DE=-3.12D-05 OVMax= 2.45D-02

 Cycle  17  Pass 1  IDiag  1:
 RMSU=  8.56D-04    CP:  1.60D+00  3.81D-01  2.72D+00  7.29D-03  3.00D+00
                    CP:  1.79D+00  1.77D-01  7.63D-01  2.11D+00  3.00D+00
                    CP:  3.00D+00  2.10D+00  3.00D+00  1.71D+00  1.80D-01
                    CP: -8.16D-01
 E= -838.387235343588     Delta-E=       -0.000070514353 Rises=F Damp=F
 DIIS: error= 4.73D-04 at cycle  17 NSaved=  17.
 NSaved=17 IEnMin=14 EnMin= -838.387466832258     IErMin=14 ErrMin= 1.16D-04
 ErrMax= 4.73D-04  0.00D+00 EMaxC= 1.00D-01 BMatC= 4.91D-04 BMatP= 3.61D-05
 IDIUse=3 WtCom= 9.99D-01 WtEn= 1.16D-03
 Large coefficients: NSaved= 17 BigCof=   10.79 CofMax=   10.00 Det=-3.17D-09
 Inversion failed.  Reducing to 16 matrices.
 Large coefficients: NSaved= 16 BigCof=   11.01 CofMax=   10.00 Det=-3.24D-09
 Inversion failed.  Reducing to 15 matrices.
 Large coefficients: NSaved= 15 BigCof=   11.19 CofMax=   10.00 Det=-3.27D-09
 Inversion failed.  Reducing to 14 matrices.
 Large coefficients: NSaved= 14 BigCof=   11.12 CofMax=   10.00 Det=-3.36D-09
 Inversion failed.  Reducing to 13 matrices.
 Rare condition: small coef for last iteration:  0.000D+00
 Coeff-Com:  0.447D-02 0.111D-01-0.219D-01-0.587D-01 0.376D-02-0.279D+00
 Coeff-Com:  0.304D+00 0.943D-01 0.363D+00 0.182D-01 0.852D+01-0.970D+01
 Coeff-Com:  0.173D+01
 Coeff-En:   0.000D+00 0.000D+00 0.000D+00 0.000D+00 0.000D+00 0.000D+00
 Coeff-En:   0.000D+00 0.000D+00 0.000D+00 0.809D+00 0.000D+00 0.000D+00
 Coeff-En:   0.191D+00
 Coeff:      0.447D-02 0.111D-01-0.219D-01-0.587D-01 0.376D-02-0.279D+00
 Coeff:      0.304D+00 0.943D-01 0.363D+00 0.182D-01 0.852D+01-0.970D+01
 Coeff:      0.173D+01
 Gap=     0.014 Goal=   None    Shift=    0.000
 Gap=     0.014 Goal=   None    Shift=    0.000
 RMSDP=1.89D-02 MaxDP=1.23D+00 DE=-7.05D-05 OVMax= 4.00D-02

 Cycle  18  Pass 1  IDiag  1:
 RMSU=  9.83D-04    CP:  1.65D+00  3.97D-01  3.00D+00  2.48D-02  3.00D+00
                    CP:  2.16D+00  2.25D-01  1.22D+00  1.43D+00  2.56D+00
                    CP:  2.89D+00  1.13D+00 -8.95D-01  5.66D-02 -4.18D-02
                    CP: -9.67D-02  1.87D-01
 E= -838.387320257699     Delta-E=       -0.000084914111 Rises=F Damp=F
 DIIS: error= 2.98D-04 at cycle  18 NSaved=  14.
 NSaved=14 IEnMin=10 EnMin= -838.387466832258     IErMin=10 ErrMin= 1.16D-04
 ErrMax= 2.98D-04  0.00D+00 EMaxC= 1.00D-01 BMatC= 2.08D-04 BMatP= 3.61D-05
 IDIUse=3 WtCom= 9.99D-01 WtEn= 1.16D-03
 EnCoef did   100 forward-backward iterations
 Rare condition: small coef for last iteration:  0.000D+00
 Coeff-Com: -0.565D-02 0.229D-01-0.603D-03-0.552D-01-0.811D-02-0.231D+00
 Coeff-Com:  0.281D+00 0.113D+00 0.194D+00-0.134D+00 0.814D+01-0.945D+01
 Coeff-Com:  0.167D+01 0.459D+00
 Coeff-En:   0.000D+00 0.000D+00 0.000D+00 0.000D+00 0.000D+00 0.000D+00
 Coeff-En:   0.000D+00 0.000D+00 0.804D-01 0.899D+00 0.000D+00 0.000D+00
 Coeff-En:   0.000D+00 0.209D-01
 Coeff:     -0.565D-02 0.229D-01-0.603D-03-0.552D-01-0.811D-02-0.231D+00
 Coeff:      0.281D+00 0.113D+00 0.194D+00-0.134D+00 0.814D+01-0.945D+01
 Coeff:      0.167D+01 0.459D+00
 Gap=     0.014 Goal=   None    Shift=    0.000
 Gap=     0.014 Goal=   None    Shift=    0.000
 RMSDP=1.47D-02 MaxDP=1.03D+00 DE=-8.49D-05 OVMax= 2.28D-02

 Cycle  19  Pass 1  IDiag  1:
 RMSU=  7.40D-04    CP:  1.70D+00  4.16D-01  3.00D+00  3.75D-02  3.00D+00
                    CP:  2.42D+00  2.59D-01  1.55D+00  1.09D+00  2.15D+00
                    CP:  1.89D+00  5.39D-01 -2.91D+00  1.46D-01 -8.58D-02
                    CP:  1.47D-02  2.15D-01  1.51D+00
 E= -838.387258880755     Delta-E=        0.000061376944 Rises=F Damp=F
 DIIS: error= 3.39D-04 at cycle  19 NSaved=  15.
 NSaved=15 IEnMin=10 EnMin= -838.387466832258     IErMin=10 ErrMin= 1.16D-04
 ErrMax= 3.39D-04  0.00D+00 EMaxC= 1.00D-01 BMatC= 2.69D-04 BMatP= 3.61D-05
 IDIUse=3 WtCom= 9.99D-01 WtEn= 1.16D-03
 EnCoef did   100 forward-backward iterations
 Rare condition: small coef for last iteration:  0.000D+00
 Coeff-Com: -0.953D-02 0.217D-01 0.158D-01-0.412D-01 0.385D-02-0.253D+00
 Coeff-Com:  0.267D+00 0.120D+00 0.221D+00-0.116D+00 0.585D+01-0.679D+01
 Coeff-Com:  0.105D+01 0.206D+00 0.454D+00
 Coeff-En:   0.000D+00 0.000D+00 0.000D+00 0.000D+00 0.000D+00 0.000D+00
 Coeff-En:   0.328D+00 0.000D+00 0.000D+00 0.000D+00 0.000D+00 0.000D+00
 Coeff-En:   0.000D+00 0.000D+00 0.672D+00
 Coeff:     -0.953D-02 0.217D-01 0.158D-01-0.412D-01 0.385D-02-0.253D+00
 Coeff:      0.267D+00 0.120D+00 0.221D+00-0.116D+00 0.585D+01-0.679D+01
 Coeff:      0.105D+01 0.206D+00 0.454D+00
 Gap=     0.013 Goal=   None    Shift=    0.000
 Gap=     0.013 Goal=   None    Shift=    0.000
 RMSDP=6.11D-03 MaxDP=4.84D-01 DE= 6.14D-05 OVMax= 9.04D-03

 Cycle  20  Pass 1  IDiag  1:
 RMSU=  4.43D-04    CP:  1.72D+00  4.22D-01  3.00D+00  4.34D-02  3.00D+00
                    CP:  2.52D+00  2.58D-01  1.73D+00  9.78D-01  2.19D+00
                    CP:  1.40D+00  1.32D-01 -3.00D+00  2.05D-01 -2.84D-01
                    CP: -1.15D-01  4.75D-01  1.24D+00  1.18D+00
 E= -838.387264279272     Delta-E=       -0.000005398517 Rises=F Damp=F
 DIIS: error= 3.24D-04 at cycle  20 NSaved=  16.
 NSaved=16 IEnMin=10 EnMin= -838.387466832258     IErMin=10 ErrMin= 1.16D-04
 ErrMax= 3.24D-04  0.00D+00 EMaxC= 1.00D-01 BMatC= 2.40D-04 BMatP= 3.61D-05
 IDIUse=3 WtCom= 9.99D-01 WtEn= 1.16D-03
 EnCoef did   100 forward-backward iterations
 Rare condition: small coef for last iteration:  0.000D+00
 Coeff-Com: -0.746D-02 0.176D-01 0.144D-01-0.228D-01-0.152D-01-0.153D+00
 Coeff-Com:  0.161D+00 0.562D-01 0.224D+00-0.324D-01-0.231D+00 0.127D+00
 Coeff-Com:  0.123D-01-0.248D+00-0.107D+01 0.217D+01
 Coeff-En:   0.000D+00 0.000D+00 0.000D+00 0.000D+00 0.000D+00 0.000D+00
 Coeff-En:   0.319D+00 0.000D+00 0.000D+00 0.000D+00 0.000D+00 0.000D+00
 Coeff-En:   0.000D+00 0.000D+00 0.000D+00 0.681D+00
 Coeff:     -0.746D-02 0.176D-01 0.144D-01-0.228D-01-0.152D-01-0.153D+00
 Coeff:      0.161D+00 0.562D-01 0.224D+00-0.324D-01-0.231D+00 0.127D+00
 Coeff:      0.123D-01-0.248D+00-0.107D+01 0.217D+01
 Gap=     0.012 Goal=   None    Shift=    0.000
 Gap=     0.012 Goal=   None    Shift=    0.000
 RMSDP=1.08D-02 MaxDP=7.58D-01 DE=-5.40D-06 OVMax= 1.76D-02

 Cycle  21  Pass 1  IDiag  1:
 Restarting incremental Fock formation.
 E= -838.387366039006     Delta-E=       -0.000101759734 Rises=F Damp=F
 DIIS: error= 1.41D-04 at cycle  21 NSaved=  17.
 NSaved=17 IEnMin=10 EnMin= -838.387466832258     IErMin=10 ErrMin= 1.16D-04
 ErrMax= 1.41D-04  0.00D+00 EMaxC= 1.00D-01 BMatC= 4.57D-05 BMatP= 3.61D-05
 IDIUse=3 WtCom= 9.99D-01 WtEn= 1.16D-03
 Coeff-Com:  0.601D-02 0.709D-02-0.405D-02-0.185D-01-0.165D-01-0.497D-01
 Coeff-Com:  0.766D-01 0.168D-01 0.667D-01-0.752D-01-0.215D+01 0.224D+01
 Coeff-Com: -0.117D+00-0.194D-01-0.113D+01 0.133D+01 0.838D+00
 Coeff-En:   0.000D+00 0.000D+00 0.000D+00 0.000D+00 0.000D+00 0.000D+00
 Coeff-En:   0.876D-01 0.000D+00 0.000D+00 0.000D+00 0.000D+00 0.000D+00
 Coeff-En:   0.000D+00 0.000D+00 0.000D+00 0.000D+00 0.912D+00
 Coeff:      0.601D-02 0.708D-02-0.404D-02-0.185D-01-0.165D-01-0.497D-01
 Coeff:      0.767D-01 0.168D-01 0.666D-01-0.752D-01-0.215D+01 0.224D+01
 Coeff:     -0.117D+00-0.194D-01-0.113D+01 0.133D+01 0.838D+00
 Gap=     0.011 Goal=   None    Shift=    0.000
 Gap=     0.011 Goal=   None    Shift=    0.000
 RMSDP=5.82D-03 MaxDP=3.61D-01 DE=-1.02D-04 OVMax= 8.54D-03

 Cycle  22  Pass 1  IDiag  1:
 RMSU=  5.76D-03    CP:  1.00D+00
 E= -838.387389557367     Delta-E=       -0.000023518362 Rises=F Damp=F
 DIIS: error= 4.53D-05 at cycle  22 NSaved=  18.
 NSaved=18 IEnMin=10 EnMin= -838.387466832258     IErMin=18 ErrMin= 4.53D-05
 ErrMax= 4.53D-05  0.00D+00 EMaxC= 1.00D-01 BMatC= 5.03D-06 BMatP= 3.61D-05
 IDIUse=1 WtCom= 1.00D+00 WtEn= 0.00D+00
 Coeff-Com:  0.415D-03 0.190D-02-0.192D-02-0.849D-02 0.178D-02-0.277D-01
 Coeff-Com:  0.346D-01 0.109D-01-0.812D-02-0.472D-01-0.208D+01 0.217D+01
 Coeff-Com: -0.174D+00 0.576D-01 0.377D-01-0.387D-01 0.410D+00 0.659D+00
 Coeff:      0.415D-03 0.190D-02-0.192D-02-0.849D-02 0.178D-02-0.277D-01
 Coeff:      0.346D-01 0.109D-01-0.812D-02-0.472D-01-0.208D+01 0.217D+01
 Coeff:     -0.174D+00 0.576D-01 0.377D-01-0.387D-01 0.410D+00 0.659D+00
 Gap=     0.011 Goal=   None    Shift=    0.000
 Gap=     0.011 Goal=   None    Shift=    0.000
 RMSDP=1.52D-03 MaxDP=1.16D-01 DE=-2.35D-05 OVMax= 2.62D-03

 Cycle  23  Pass 1  IDiag  1:
 RMSU=  7.16D-04    CP:  9.98D-01  1.10D+00
 E= -838.387392244549     Delta-E=       -0.000002687181 Rises=F Damp=F
 DIIS: error= 8.14D-06 at cycle  23 NSaved=  19.
 NSaved=19 IEnMin=10 EnMin= -838.387466832258     IErMin=19 ErrMin= 8.14D-06
 ErrMax= 8.14D-06  0.00D+00 EMaxC= 1.00D-01 BMatC= 1.15D-07 BMatP= 5.03D-06
 IDIUse=1 WtCom= 1.00D+00 WtEn= 0.00D+00
 Coeff-Com: -0.101D-02 0.974D-03 0.280D-03-0.458D-02 0.238D-02-0.187D-01
 Coeff-Com:  0.232D-01 0.184D-01-0.144D-01-0.356D-01-0.108D+01 0.109D+01
 Coeff-Com: -0.954D-01 0.481D-01 0.413D+00-0.355D+00 0.577D-01 0.399D+00
 Coeff-Com:  0.543D+00
 Coeff:     -0.101D-02 0.974D-03 0.280D-03-0.458D-02 0.238D-02-0.187D-01
 Coeff:      0.232D-01 0.184D-01-0.144D-01-0.356D-01-0.108D+01 0.109D+01
 Coeff:     -0.954D-01 0.481D-01 0.413D+00-0.355D+00 0.577D-01 0.399D+00
 Coeff:      0.543D+00
 Gap=     0.011 Goal=   None    Shift=    0.000
 Gap=     0.011 Goal=   None    Shift=    0.000
 RMSDP=6.96D-04 MaxDP=4.74D-02 DE=-2.69D-06 OVMax= 8.75D-04

 Cycle  24  Pass 1  IDiag  1:
 RMSU=  2.60D-04    CP:  9.98D-01  9.92D-01  1.26D+00
 E= -838.387392238784     Delta-E=        0.000000005765 Rises=F Damp=F
 DIIS: error= 7.15D-06 at cycle  24 NSaved=  20.
 NSaved=20 IEnMin=10 EnMin= -838.387466832258     IErMin=20 ErrMin= 7.15D-06
 ErrMax= 7.15D-06  0.00D+00 EMaxC= 1.00D-01 BMatC= 1.04D-07 BMatP= 1.15D-07
 IDIUse=1 WtCom= 1.00D+00 WtEn= 0.00D+00
 Coeff-Com: -0.542D-03 0.107D-02 0.117D-02-0.210D-04-0.231D-02 0.531D-02
 Coeff-Com: -0.199D-02 0.417D-02-0.811D-02 0.101D-03-0.140D+00 0.135D+00
 Coeff-Com: -0.247D-01 0.134D-01 0.270D+00-0.219D+00-0.101D+00-0.332D-02
 Coeff-Com:  0.224D+00 0.846D+00
 Coeff:     -0.542D-03 0.107D-02 0.117D-02-0.210D-04-0.231D-02 0.531D-02
 Coeff:     -0.199D-02 0.417D-02-0.811D-02 0.101D-03-0.140D+00 0.135D+00
 Coeff:     -0.247D-01 0.134D-01 0.270D+00-0.219D+00-0.101D+00-0.332D-02
 Coeff:      0.224D+00 0.846D+00
 Gap=     0.011 Goal=   None    Shift=    0.000
 Gap=     0.011 Goal=   None    Shift=    0.000
 RMSDP=1.17D-03 MaxDP=1.03D-01 DE= 5.76D-09 OVMax= 1.40D-03

 Cycle  25  Pass 1  IDiag  1:
 RMSU=  2.14D-04    CP:  9.95D-01  8.68D-01  1.83D+00  1.05D+00
 E= -838.387392253383     Delta-E=       -0.000000014598 Rises=F Damp=F
 DIIS: error= 8.74D-06 at cycle  25 NSaved=  20.
 NSaved=20 IEnMin= 9 EnMin= -838.387466832258     IErMin=19 ErrMin= 7.15D-06
 ErrMax= 8.74D-06  0.00D+00 EMaxC= 1.00D-01 BMatC= 1.39D-07 BMatP= 1.04D-07
 IDIUse=1 WtCom= 1.00D+00 WtEn= 0.00D+00
 Coeff-Com:  0.935D-04 0.804D-03 0.437D-03-0.245D-03-0.255D-03-0.221D-03
 Coeff-Com:  0.231D-02 0.147D-03 0.400D-04 0.120D-01-0.331D-02-0.283D-01
 Coeff-Com: -0.589D-02 0.121D+00-0.915D-01-0.648D-01-0.543D-01 0.459D-01
 Coeff-Com:  0.461D+00 0.605D+00
 Coeff:      0.935D-04 0.804D-03 0.437D-03-0.245D-03-0.255D-03-0.221D-03
 Coeff:      0.231D-02 0.147D-03 0.400D-04 0.120D-01-0.331D-02-0.283D-01
 Coeff:     -0.589D-02 0.121D+00-0.915D-01-0.648D-01-0.543D-01 0.459D-01
 Coeff:      0.461D+00 0.605D+00
 Gap=     0.011 Goal=   None    Shift=    0.000
 Gap=     0.011 Goal=   None    Shift=    0.000
 RMSDP=5.90D-04 MaxDP=5.40D-02 DE=-1.46D-08 OVMax= 1.17D-03

 Cycle  26  Pass 1  IDiag  1:
 RMSU=  2.33D-04    CP:  9.96D-01  9.39D-01  1.72D+00  1.76D+00  1.76D+00
 E= -838.387392341875     Delta-E=       -0.000000088493 Rises=F Damp=F
 DIIS: error= 4.48D-06 at cycle  26 NSaved=  20.
 NSaved=20 IEnMin= 8 EnMin= -838.387466832258     IErMin=20 ErrMin= 4.48D-06
 ErrMax= 4.48D-06  0.00D+00 EMaxC= 1.00D-01 BMatC= 2.22D-08 BMatP= 1.04D-07
 IDIUse=1 WtCom= 1.00D+00 WtEn= 0.00D+00
 Coeff-Com:  0.108D-03 0.109D-02 0.568D-03-0.102D-02-0.593D-05 0.274D-02
 Coeff-Com:  0.322D-03-0.594D-03 0.483D-01-0.419D-01-0.295D-01-0.591D-02
 Coeff-Com:  0.148D+00-0.112D+00-0.793D-01-0.677D-01 0.456D-01 0.531D+00
 Coeff-Com:  0.776D+00-0.215D+00
 Coeff:      0.108D-03 0.109D-02 0.568D-03-0.102D-02-0.593D-05 0.274D-02
 Coeff:      0.322D-03-0.594D-03 0.483D-01-0.419D-01-0.295D-01-0.591D-02
 Coeff:      0.148D+00-0.112D+00-0.793D-01-0.677D-01 0.456D-01 0.531D+00
 Coeff:      0.776D+00-0.215D+00
 Gap=     0.011 Goal=   None    Shift=    0.000
 Gap=     0.011 Goal=   None    Shift=    0.000
 RMSDP=1.88D-04 MaxDP=1.75D-02 DE=-8.85D-08 OVMax= 3.18D-04

 Cycle  27  Pass 1  IDiag  1:
 RMSU=  3.29D-05    CP:  9.96D-01  9.36D-01  1.69D+00  1.69D+00  1.14D+00
                    CP:  4.97D-01
 E= -838.387392313603     Delta-E=        0.000000028272 Rises=F Damp=F
 DIIS: error= 5.12D-06 at cycle  27 NSaved=  20.
 NSaved=20 IEnMin= 7 EnMin= -838.387466832258     IErMin=19 ErrMin= 4.48D-06
 ErrMax= 5.12D-06  0.00D+00 EMaxC= 1.00D-01 BMatC= 4.25D-08 BMatP= 2.22D-08
 IDIUse=1 WtCom= 1.00D+00 WtEn= 0.00D+00
 Coeff-Com:  0.785D-03 0.801D-03 0.314D-03-0.163D-02-0.151D-02 0.255D-02
 Coeff-Com:  0.223D-02 0.468D-01-0.242D-01-0.328D-01-0.173D-01 0.329D-01
 Coeff-Com: -0.193D-01-0.408D-01-0.741D-01-0.352D-01 0.307D+00 0.832D+00
 Coeff-Com: -0.143D+01 0.145D+01
 Coeff:      0.785D-03 0.801D-03 0.314D-03-0.163D-02-0.151D-02 0.255D-02
 Coeff:      0.223D-02 0.468D-01-0.242D-01-0.328D-01-0.173D-01 0.329D-01
 Coeff:     -0.193D-01-0.408D-01-0.741D-01-0.352D-01 0.307D+00 0.832D+00
 Coeff:     -0.143D+01 0.145D+01
 Gap=     0.011 Goal=   None    Shift=    0.000
 Gap=     0.011 Goal=   None    Shift=    0.000
 RMSDP=3.99D-04 MaxDP=4.14D-02 DE= 2.83D-08 OVMax= 7.68D-04

 Cycle  28  Pass 1  IDiag  1:
 RMSU=  2.07D-05    CP:  9.96D-01  9.66D-01  1.67D+00  1.44D+00 -4.51D-02
                    CP: -4.79D-01  3.00D+00
 E= -838.387392318750     Delta-E=       -0.000000005146 Rises=F Damp=F
 DIIS: error= 3.62D-07 at cycle  28 NSaved=  20.
 NSaved=20 IEnMin= 6 EnMin= -838.387466832258     IErMin=20 ErrMin= 3.62D-07
 ErrMax= 3.62D-07  0.00D+00 EMaxC= 1.00D-01 BMatC= 2.44D-10 BMatP= 2.22D-08
 IDIUse=1 WtCom= 1.00D+00 WtEn= 0.00D+00
 Coeff-Com:  0.656D-04-0.107D-02 0.663D-03-0.555D-03 0.281D-02 0.836D-03
 Coeff-Com:  0.469D-01-0.422D-01-0.162D-02-0.508D-02-0.255D-01 0.199D-01
 Coeff-Com:  0.973D-03-0.260D-01-0.318D-01 0.371D-01 0.299D+00-0.681D+00
 Coeff-Com:  0.693D+00 0.714D+00
 Coeff:      0.656D-04-0.107D-02 0.663D-03-0.555D-03 0.281D-02 0.836D-03
 Coeff:      0.469D-01-0.422D-01-0.162D-02-0.508D-02-0.255D-01 0.199D-01
 Coeff:      0.973D-03-0.260D-01-0.318D-01 0.371D-01 0.299D+00-0.681D+00
 Coeff:      0.693D+00 0.714D+00
 Gap=     0.011 Goal=   None    Shift=    0.000
 Gap=     0.011 Goal=   None    Shift=    0.000
 RMSDP=2.51D-04 MaxDP=2.25D-02 DE=-5.15D-09 OVMax= 2.52D-04

 Cycle  29  Pass 1  IDiag  1:
 RMSU=  1.75D-05    CP:  9.96D-01  9.38D-01  1.71D+00  1.35D+00 -1.44D-01
                    CP: -5.97D-01  3.00D+00  2.01D+00
 E= -838.387392318040     Delta-E=        0.000000000710 Rises=F Damp=F
 DIIS: error= 2.72D-07 at cycle  29 NSaved=  20.
 NSaved=20 IEnMin= 5 EnMin= -838.387466832258     IErMin=20 ErrMin= 2.72D-07
 ErrMax= 2.72D-07  0.00D+00 EMaxC= 1.00D-01 BMatC= 2.10D-10 BMatP= 2.44D-10
 IDIUse=1 WtCom= 1.00D+00 WtEn= 0.00D+00
 Coeff-Com:  0.126D-04-0.841D-04 0.646D-04-0.849D-04 0.304D-03-0.371D-02
 Coeff-Com:  0.389D-02 0.951D-03-0.810D-04-0.101D-01 0.790D-02 0.417D-02
 Coeff-Com:  0.272D-03-0.769D-02-0.391D-01 0.198D-01-0.106D+00 0.102D+00
 Coeff-Com:  0.339D+00 0.689D+00
 Coeff:      0.126D-04-0.841D-04 0.646D-04-0.849D-04 0.304D-03-0.371D-02
 Coeff:      0.389D-02 0.951D-03-0.810D-04-0.101D-01 0.790D-02 0.417D-02
 Coeff:      0.272D-03-0.769D-02-0.391D-01 0.198D-01-0.106D+00 0.102D+00
 Coeff:      0.339D+00 0.689D+00
 Gap=     0.011 Goal=   None    Shift=    0.000
 Gap=     0.011 Goal=   None    Shift=    0.000
 RMSDP=2.16D-05 MaxDP=2.42D-03 DE= 7.10D-10 OVMax= 3.11D-05

 Cycle  30  Pass 1  IDiag  1:
 RMSU=  4.16D-06    CP:  9.96D-01  9.37D-01  1.70D+00  1.37D+00 -1.99D-01
                    CP: -5.83D-01  3.00D+00  2.38D+00  1.06D+00
 E= -838.387392318145     Delta-E=       -0.000000000106 Rises=F Damp=F
 DIIS: error= 1.08D-07 at cycle  30 NSaved=  20.
 NSaved=20 IEnMin= 4 EnMin= -838.387466832258     IErMin=20 ErrMin= 1.08D-07
 ErrMax= 1.08D-07  0.00D+00 EMaxC= 1.00D-01 BMatC= 2.57D-11 BMatP= 2.10D-10
 IDIUse=1 WtCom= 1.00D+00 WtEn= 0.00D+00
 Coeff-Com: -0.592D-05 0.206D-04-0.786D-04-0.109D-03-0.539D-02 0.556D-02
 Coeff-Com: -0.324D-04 0.330D-05-0.331D-02 0.322D-02 0.183D-02 0.160D-02
 Coeff-Com: -0.381D-02-0.240D-01-0.369D-02-0.406D-01 0.462D-01 0.134D+00
 Coeff-Com:  0.360D+00 0.529D+00
 Coeff:     -0.592D-05 0.206D-04-0.786D-04-0.109D-03-0.539D-02 0.556D-02
 Coeff:     -0.324D-04 0.330D-05-0.331D-02 0.322D-02 0.183D-02 0.160D-02
 Coeff:     -0.381D-02-0.240D-01-0.369D-02-0.406D-01 0.462D-01 0.134D+00
 Coeff:      0.360D+00 0.529D+00
 Gap=     0.011 Goal=   None    Shift=    0.000
 Gap=     0.011 Goal=   None    Shift=    0.000
 RMSDP=1.07D-05 MaxDP=1.04D-03 DE=-1.06D-10 OVMax= 1.83D-05

 Cycle  31  Pass 1  IDiag  1:
 RMSU=  8.83D-07    CP:  9.96D-01  9.36D-01  1.69D+00  1.39D+00 -2.20D-01
                    CP: -5.66D-01  3.00D+00  2.54D+00  1.21D+00  1.33D+00
 E= -838.387392318171     Delta-E=       -0.000000000026 Rises=F Damp=F
 DIIS: error= 8.48D-08 at cycle  31 NSaved=  20.
 NSaved=20 IEnMin= 3 EnMin= -838.387466832258     IErMin=20 ErrMin= 8.48D-08
 ErrMax= 8.48D-08  0.00D+00 EMaxC= 1.00D-01 BMatC= 1.24D-11 BMatP= 2.57D-11
 IDIUse=1 WtCom= 1.00D+00 WtEn= 0.00D+00
 Coeff-Com:  0.431D-04-0.112D-03-0.372D-03-0.573D-02 0.609D-02-0.101D-02
 Coeff-Com:  0.266D-03 0.270D-02-0.170D-02 0.310D-03 0.294D-02 0.118D-02
 Coeff-Com: -0.626D-02-0.199D-01 0.253D-01-0.169D-01-0.304D-01-0.351D-01
 Coeff-Com:  0.193D+00 0.886D+00
 Coeff:      0.431D-04-0.112D-03-0.372D-03-0.573D-02 0.609D-02-0.101D-02
 Coeff:      0.266D-03 0.270D-02-0.170D-02 0.310D-03 0.294D-02 0.118D-02
 Coeff:     -0.626D-02-0.199D-01 0.253D-01-0.169D-01-0.304D-01-0.351D-01
 Coeff:      0.193D+00 0.886D+00
 Gap=     0.011 Goal=   None    Shift=    0.000
 Gap=     0.011 Goal=   None    Shift=    0.000
 RMSDP=1.91D-05 MaxDP=1.65D-03 DE=-2.59D-11 OVMax= 3.01D-05

 Cycle  32  Pass 1  IDiag  1:
 RMSU=  5.14D-07    CP:  9.96D-01  9.36D-01  1.68D+00  1.42D+00 -2.48D-01
                    CP: -5.39D-01  3.00D+00  2.75D+00  1.37D+00  1.77D+00
                    CP:  1.73D+00
 E= -838.387392318173     Delta-E=       -0.000000000002 Rises=F Damp=F
 DIIS: error= 2.57D-08 at cycle  32 NSaved=  20.
 NSaved=20 IEnMin= 2 EnMin= -838.387466832258     IErMin=20 ErrMin= 2.57D-08
 ErrMax= 2.57D-08  0.00D+00 EMaxC= 1.00D-01 BMatC= 1.77D-12 BMatP= 1.24D-11
 IDIUse=1 WtCom= 1.00D+00 WtEn= 0.00D+00
 Coeff-Com: -0.761D-05-0.448D-04-0.550D-03 0.338D-03-0.181D-04 0.418D-03
 Coeff-Com:  0.214D-02-0.183D-02-0.355D-03 0.973D-03 0.177D-02 0.363D-02
 Coeff-Com: -0.156D-01 0.416D-01-0.421D-01-0.613D-01-0.994D-01-0.104D+00
 Coeff-Com:  0.395D+00 0.880D+00
 Coeff:     -0.761D-05-0.448D-04-0.550D-03 0.338D-03-0.181D-04 0.418D-03
 Coeff:      0.214D-02-0.183D-02-0.355D-03 0.973D-03 0.177D-02 0.363D-02
 Coeff:     -0.156D-01 0.416D-01-0.421D-01-0.613D-01-0.994D-01-0.104D+00
 Coeff:      0.395D+00 0.880D+00
 Gap=     0.011 Goal=   None    Shift=    0.000
 Gap=     0.011 Goal=   None    Shift=    0.000
 RMSDP=2.27D-05 MaxDP=1.72D-03 DE=-2.05D-12 OVMax= 1.73D-05

 >>>>>>>>>> Convergence criterion not met.
 SCF Done:  E(UB3LYP) =  -838.387392318     A.U. after   33 cycles
            NFock= 32  Conv=0.23D-04     -V/T= 2.0031
 <Sx>= 0.0000 <Sy>= 0.0000 <Sz>= 0.0000 <S**2>=-0.0000 S=-0.0000
 <L.S>=  0.00000000000    
 KE= 8.358369129570D+02 PE=-4.338090580760D+03 EE= 1.492506690987D+03
 Annihilation of the first spin contaminant:
 S**2 before annihilation    -0.0000,   after     0.0000
 Leave Link  502 at Wed Dec 27 21:15:51 2023, MaxMem=  4026531840 cpu:            2071.3 elap:             259.2
 (Enter /sysapps/ubuntu-applications/gaussian/Gaussian/AVX2/g16/l508.exe)
 Two-electron integral symmetry not used.
 Tight linear equation convergence will be used.
 UB3LYP wavefunction.
 Quadratic Convergence SCF Method.
 Line search only if initial step raises energy.
 Fock matrices will be formed incrementally for  20 cycles.
 FoFJK:  IHMeth= 1 ICntrl=       0 DoSepK=F KAlg= 0 I1Cent=           0 FoldK=F
 IRaf= 860000000 NMat=       1 IRICut=       1 DoRegI=T DoRafI=F ISym2E= 0 IDoP0=0 IntGTp=1.
 FoFCou: FMM=F IPFlag=           0 FMFlag=      100000 FMFlg1=           0
         NFxFlg=           0 DoJE=F BraDBF=F KetDBF=F FulRan=T
         wScrn=  0.000000 ICntrl=         0 IOpCl=  1 I1Cent=           0 NGrid=           0
         NMat0=    1 NMatS0=      1 NMatT0=    0 NMatD0=    1 NMtDS0=    0 NMtDT0=    0
 Symmetry not used in FoFCou.
 Iteration   1 EE= -838.387392318171                                    Grad=8.882D-07 Max rot=    0.0000 deg.
 Rotation gradient small -- convergence achieved.
 SCF Done:  E(UB3LYP) =  -838.387392318     a.u. after    1 cycles
            Convg  =    0.8882D-06                     1 Fock formations.
              S**2 = -0.0000                  -V/T =  2.0031
 <Sx>= 0.0000 <Sy>= 0.0000 <Sz>= 0.0000 <S**2>=-0.0000 S=-0.0000
 <L.S>=  0.00000000000    
 Annihilation of the first spin contaminant:
 S**2 before annihilation    -0.0000,   after     0.0000
 Leave Link  508 at Wed Dec 27 21:15:59 2023, MaxMem=  4026531840 cpu:              66.4 elap:               8.5
 (Enter /sysapps/ubuntu-applications/gaussian/Gaussian/AVX2/g16/l601.exe)
 Copying SCF densities to generalized density rwf, IOpCl= 1 IROHF=0.

 **********************************************************************

            Population analysis using the SCF density.

 **********************************************************************

 Alpha  occ. eigenvalues --  -18.93472 -18.93078 -18.87880 -18.79981 -18.79849
 Alpha  occ. eigenvalues --  -10.06673 -10.00737  -9.99901  -9.96200  -9.95580
 Alpha  occ. eigenvalues --   -9.94258  -9.93885  -9.93633  -9.92216  -9.92147
[...]
 .00000636,-0.00194881,0.00243381,0.00051389,-0.00035275,0.00218469,0.0
 0080314,0.00696601,-0.00542721,-0.00034992,-0.02231262,-0.01591846,-0.
 00208005,0.00079505,-0.00192894,-0.00022952,-0.00061264,0.00165983,0.0
 0086164,-0.00218696,-0.00102495,-0.00130723,-0.00042956,0.00715950,0.0
 0126770,0.00003976,0.00203382,0.00031947,-0.00558890,-0.00396939,0.005
 51057,-0.00016371,0.00173622,0.00006120,0.00132321,-0.00020217,-0.0007
 0284,0.00003000,0.00002924,-0.00005865,-0.21364745,-0.16835696,-0.3940
 1690,0.27981904,0.17344554,0.48103592,-0.00072274,-0.00153992,0.000280
 75,0.00139026,0.00069332,-0.00026289,-0.00046961,-0.00254187,0.0004269
 7,0.00101404,0.00036128,-0.00048005,0.00128136,-0.00048287,-0.00050843
 ,0.00811154,-0.00257885,0.00252879,0.00098364,-0.00153474,-0.00059880,
 -0.00055222,0.00262451,0.00075848,-0.00358628,-0.00295987,-0.00139567,
 0.00305746,0.01102110,0.00352473,0.00018716,0.00166738,0.00046095,-0.0
 1603907,-0.00915573,0.01007011,0.00006324,0.00180511,0.00017233,0.0002
 0927,-0.00019955,0.00006898,0.00021557,-0.00006791,-0.00004431,-0.0550
 7009,-0.00415796,-0.02277824,0.00658179,0.01077987,-0.04370906,0.10355
 560,0.00331545,-0.00053399,0.00066826,-0.00156790,-0.00000135,-0.00222
 322,-0.00415093,-0.00152242,0.00024998,0.00056105,0.00346247,-0.000234
 10,0.00580421,-0.00568666,0.00079987,-0.00286761,-0.03110881,0.0328309
 8,-0.00014513,-0.00037212,0.00021459,-0.00068352,-0.00017778,0.0000884
 9,-0.00032385,0.00082017,-0.00071248,-0.00326395,0.00198962,0.00079507
 ,-0.00024830,0.00102580,-0.00004404,-0.00417038,0.00186061,0.00130908,
 -0.00070522,-0.00131625,-0.00033210,0.00052229,-0.00007243,0.00106134,
 -0.00021796,0.00015822,0.00014586,0.00450854,-0.12896676,0.03731265,0.
 00600388,0.02721059,0.01730417,-0.01254042,0.42611508,-0.00070559,0.00
 165595,-0.00042585,-0.00032281,-0.00090113,0.00028209,0.00158165,0.001
 63487,0.00106915,-0.00066235,-0.00124696,-0.00004901,-0.00372095,0.002
 60192,0.00001283,-0.00088266,0.00979703,-0.00015338,-0.00077901,0.0013
 0171,0.00024694,0.00074145,-0.00191316,-0.00059883,0.00328832,0.002455
 63,0.00155814,0.00010481,-0.01031500,-0.00241338,-0.00000400,-0.001606
 63,-0.00014937,0.01705754,0.00475026,-0.00280287,0.00022075,-0.0011786
 4,0.00014919,-0.00005160,-0.00004443,-0.00057310,-0.00010999,-0.000070
 14,-0.00012701,-0.02756499,0.02285147,-0.13491659,-0.03542217,0.012882
 38,-0.08954052,0.05412763,-0.03476244,0.31241015,0.00005518,0.00057565
 ,-0.00009011,-0.00000922,-0.00040109,-0.00016672,-0.00006366,-0.000234
 92,0.00051803,-0.00027056,-0.00025816,-0.00012064,-0.00135199,0.001326
 67,0.00007630,0.00451708,-0.00008702,0.00004297,-0.00005538,0.00047553
 ,-0.00001583,0.00002695,-0.00042297,-0.00025215,0.00073777,0.00018977,
 0.00015417,-0.00097320,-0.00268887,0.00029915,-0.00010335,-0.00058470,
 -0.00003468,0.00083178,0.00117317,-0.00039429,0.00000028,-0.00057610,0
 .00000590,-0.00005642,0.00006982,0.00008211,-0.00008250,0.00004234,0.0
 0007235,0.00094920,0.00224105,0.00834826,-0.00258302,-0.00247801,-0.00
 064916,-0.06086500,0.01165876,-0.00917614,0.55827591,0.00077207,0.0007
 8376,-0.00016074,-0.00073089,-0.00180900,-0.00033841,0.00018737,0.0018
 4425,0.00086801,-0.00132352,-0.00122954,-0.00014853,-0.00163199,0.0018
 3432,-0.00002154,0.00284127,-0.00015853,0.00101007,0.00023904,0.000726
 58,0.00022472,0.00061203,-0.00072480,-0.00031686,0.00120253,0.00097981
 ,0.00063171,-0.00055838,-0.00493656,-0.00068827,-0.00014771,-0.0010723
 8,-0.00024320,0.00525701,0.00029636,-0.00206673,0.00007309,-0.00068322
 ,0.00007806,0.00020262,-0.00007092,0.00017114,0.00004581,-0.00004429,-
 0.00000982,-0.00005651,-0.04819743,0.03672073,-0.00652874,-0.00238809,
 -0.01585715,0.00393579,-0.19383057,-0.01471549,0.00413903,0.43930882,-
 0.00011161,-0.00045806,-0.00008662,0.00005061,0.00043331,0.00039071,0.
 00028994,0.00010600,-0.00007787,0.00030725,0.00023633,0.00022013,0.000
 23207,-0.00038149,0.00004084,-0.00108272,0.00186961,-0.00399405,-0.000
 03163,-0.00017125,-0.00000822,-0.00000565,0.00021535,0.00011082,-0.000
 59677,-0.00010964,-0.00015354,0.00128061,0.00165741,-0.00002686,0.0000
 7539,0.00028225,0.00001021,-0.00110991,-0.00119586,0.00033889,0.000017
 34,0.00052670,0.00001464,-0.00011833,0.00002724,-0.00021753,0.00004852
 ,-0.00002437,-0.00000616,0.00252813,0.03832680,0.00759385,-0.00033332,
 0.00070523,-0.00300449,-0.00565532,-0.03870033,-0.09047153,-0.00118701
 ,-0.02828066,0.58753969,-0.01803150,0.02383743,0.00449924,-0.18711132,
 0.12426416,0.02934002,0.00743672,-0.00714304,-0.00216991,-0.00393905,-
 0.00337396,-0.00073357,0.00025773,-0.00178609,-0.00060677,0.00046518,-
 0.00125599,-0.00066090,0.00060028,0.00135759,0.00042664,-0.00102548,0.
 00052772,0.00018165,-0.00088533,-0.00062549,-0.00014398,0.00066966,0.0
 0091070,0.00006712,0.00029092,0.00061293,0.00001499,-0.00060467,-0.000
 84742,-0.00015571,0.00122420,0.00288592,-0.00046698,0.00076410,0.00066
 046,0.00031433,0.00001081,-0.00002813,-0.00000937,0.00059423,-0.000499
 10,0.00009355,-0.00017407,0.00008984,-0.00007792,-0.00015984,-0.000016
 46,0.00010483,0.00000797,0.00001205,-0.00000109,0.19990763,-0.00614242
 ,0.00110283,0.00051330,0.12494678,-0.17294034,-0.03506271,0.02447381,-
 0.01443498,-0.00214678,-0.00297154,0.00026365,-0.00091085,-0.00173235,
 0.00155860,0.00060458,-0.00289628,-0.00545291,-0.00115148,0.00030420,0
 .00065035,-0.00047844,0.00056757,-0.00072294,0.00014215,0.00103247,0.0
 0049876,0.00009141,-0.00030566,-0.00203908,-0.00037673,-0.00047028,-0.
 00123634,-0.00012160,0.00144113,0.00177980,0.00036834,-0.00216924,0.00
 277964,0.00191260,-0.00046706,0.00108017,0.00022410,-0.00003452,0.0000
 8507,-0.00002857,0.00058001,0.00098979,-0.00018801,-0.00007805,-0.0003
 5717,0.00000862,0.00014953,-0.00048052,0.00007368,-0.00008868,0.000006
 73,0.00008597,-0.13668410,0.18603871,-0.00321033,-0.00072584,0.0010897
 4,0.02876210,-0.03466979,-0.02596766,0.00551574,-0.00173714,-0.0014015
 0,-0.00000583,-0.00166293,0.00404111,-0.00050365,0.00105635,-0.0006056
 0,-0.00064084,-0.00124754,0.00366311,0.00025140,-0.00117247,0.00107872
 ,-0.00024697,0.00083436,-0.00082199,-0.00030651,-0.00061886,0.00019676
 ,0.00099597,-0.00014498,-0.00045308,0.00003783,0.00071719,-0.00004665,
 -0.00023621,0.00021102,-0.00017652,-0.00045512,0.00229930,-0.00420012,
 -0.00028680,0.00058265,-0.00225659,-0.00000949,-0.00003386,0.00008817,
 0.00007091,-0.00037367,0.00096714,0.00038334,0.00010521,0.00000629,-0.
 00013069,-0.00035120,0.00000183,-0.00008775,-0.00006127,0.00011806,-0.
 03077488,0.03701858,0.02320836,-0.00072325,-0.00084309,-0.00029970,-0.
 00068834,-0.00020134,-0.00001658,0.00009699,0.00089277,0.00012389,-0.0
 0305902,0.00469100,0.00149197,0.00022591,0.00160968,0.00036246,0.00037
 820,-0.00033280,-0.00008898,-0.02116489,-0.01182821,-0.00223976,-0.301
 73552,-0.05482755,-0.00358550,-0.00645391,0.00156113,0.00060088,0.0033
 1988,-0.00223449,-0.00050581,0.00447693,-0.00035287,-0.00038029,-0.000
 77844,0.00031237,0.00008157,0.00011641,-0.00034958,0.00004478,-0.00000
 242,0.00003609,0.00000441,0.00133772,-0.00100897,-0.00042671,0.0000204
 4,0.00016407,-0.00002876,0.00001237,-0.00006879,-0.00000701,0.00000510
 ,-0.00014179,0.00008046,-0.00002693,0.00005105,0.00001271,-0.00015309,
 -0.00005787,0.00002162,0.32496909,0.00075697,0.00107753,0.00019689,0.0
 0013830,-0.00029057,0.00023450,0.00008703,0.00000207,-0.00011284,0.002
 22690,-0.00293022,-0.00173939,-0.00007893,-0.00017915,-0.00002446,-0.0
 0007998,0.00006302,0.00014093,0.02120471,0.00704131,-0.00042971,-0.056
 91235,-0.06479677,-0.00784938,-0.02916104,-0.00288362,0.00029072,0.001
 00821,-0.00420765,-0.00281439,-0.00115934,0.00128453,0.00153552,-0.001
 49694,-0.00019117,-0.00001433,-0.00001061,-0.00041547,-0.00003401,0.00
 002212,0.00003774,-0.00001692,0.00072049,0.00057648,0.00115801,0.00024
 052,-0.00016872,-0.00006601,-0.00007891,0.00005249,-0.00003292,-0.0000
 4860,-0.00004428,0.00013034,-0.00001703,0.00004534,0.00000469,0.000152
 46,-0.00000553,-0.00004055,0.06264241,0.06573721,0.00013469,0.00018786
 ,-0.00054194,0.00014949,0.00033754,-0.00068270,-0.00013371,-0.00034193
 ,0.00017037,0.00123650,-0.00164035,0.00401818,-0.00003286,-0.00051211,
 -0.00031956,-0.00004252,0.00026759,-0.00029419,0.00558031,0.00121073,0
 .00555664,-0.00449969,-0.00824425,-0.02865725,-0.00695276,-0.00074251,
 0.00052873,0.00011954,-0.00237345,0.00535249,-0.00031268,0.00141868,-0
 .00392245,-0.00029005,-0.00024297,0.00009019,0.00010626,0.00018407,0.0
 0009907,-0.00003511,-0.00002928,0.00008614,-0.00004427,0.00119565,-0.0
 0344310,0.00000678,-0.00006732,-0.00006119,0.00004530,-0.00001378,0.00
 004566,0.00005509,0.00005705,-0.00008308,-0.00001337,-0.00003029,0.000
 01786,0.00012744,-0.00015304,0.00021780,0.00479495,0.00951932,0.021874
 98,0.00335198,0.00128992,0.00062627,0.00130803,-0.01042207,-0.00163961
 ,-0.00018749,0.00173026,0.00000620,0.00094134,-0.00548735,-0.00049812,
 -0.00166728,0.00261441,0.00127093,0.00039148,-0.00059061,-0.00062954,-
 0.00133537,0.00014791,-0.00054818,0.00096224,-0.00116176,-0.00118202,0
 .00191468,0.00117221,0.00036327,-0.00071401,-0.00326504,-0.00003898,-0
 .00347969,-0.00143006,0.00029046,0.00184081,0.00346095,0.00022616,-0.3
 9414712,0.20530889,-0.04492897,0.00007867,-0.00007039,0.00015685,-0.00
 011794,0.00021128,0.00019519,-0.00181220,-0.00010211,0.00025115,0.0009
 6414,0.00028772,0.00056100,0.00039889,0.00025069,-0.00047100,-0.000144
 48,-0.00028708,0.00011066,-0.00015514,0.00062149,0.00084474,-0.0001782
 0,-0.00016092,0.00000848,0.39177141,0.04424343,-0.03917695,0.00253026,
 0.00372056,0.00679431,0.00132266,-0.00115530,-0.00487031,-0.00065995,-
 0.00239131,-0.00034353,-0.00087989,0.00545141,-0.00553597,-0.00257107,
 -0.00197878,0.00174286,0.00081791,-0.00088285,-0.00356097,0.00007681,-
 0.00136597,0.00227463,0.00146332,-0.00280719,-0.00121607,-0.00027297,-
 0.00059553,0.00543191,0.00052045,0.00110729,0.00562612,0.00061129,-0.0
 0265266,-0.00582577,-0.00075816,0.15531076,-0.12865091,0.01225457,-0.0
 0008191,0.00011638,-0.00010321,0.00020140,-0.00027122,-0.00022110,0.00
 267390,0.00025970,-0.00026290,-0.00153974,-0.00049123,-0.00086770,-0.0
 0064534,-0.00041561,0.00072561,0.00024770,0.00044879,-0.00016518,-0.00
 308416,0.00099984,0.00006880,0.00031455,0.00019156,-0.00000572,-0.1940
 7053,0.16637441,0.00742925,-0.00742850,-0.00076010,-0.00078658,0.00033
 070,-0.00167360,0.00028711,-0.00003849,-0.00134520,-0.00184856,-0.0017
 9780,0.00225528,0.00067241,-0.00060214,0.00112989,-0.00029225,0.000079
 51,0.00028823,0.00023038,0.00072059,-0.00036967,0.00029571,-0.00031858
 ,-0.00064408,0.00061851,0.00056557,0.00014967,-0.00107342,-0.00036401,
 -0.00021012,-0.00053971,-0.00086429,0.00052798,0.00048219,0.00058607,0
 .00000769,-0.05113795,0.02329842,-0.01181157,0.00003438,-0.00003335,-0
 .00002240,-0.00000154,0.00002411,0.00012196,-0.00018187,-0.00013662,0.
 00016909,0.00013938,0.00007559,0.00003855,0.00003356,0.00007885,-0.000
 11849,-0.00001737,-0.00004918,0.00000857,0.00062916,-0.00041680,0.0012
 5700,-0.00003210,-0.00002258,-0.00004526,0.04506301,-0.01368140,0.0110
 4981,-0.00007829,0.00001964,-0.00002854,0.00005747,0.00000409,0.000009
 96,-0.00000091,-0.00002391,0.00002253,-0.00000515,-0.00007134,0.000013
 96,-0.00010741,0.00006939,-0.00003463,0.00026568,-0.00000547,0.0000675
 7,0.00001458,0.00002348,-0.00000613,-0.00001453,-0.00001717,-0.0000144
 3,-0.00001925,-0.00008410,-0.00004494,-0.00001824,0.00004587,0.0000687
 0,-0.00001150,-0.00004562,-0.00000887,-0.00011607,-0.00044480,-0.00021
 749,0.00001158,0.00001297,0.00001008,0.00000136,-0.00000419,-0.0000186
 0,-0.00000875,0.00000780,0.00001340,-0.00083591,-0.00010592,-0.0010916
 8,0.00084283,0.00123728,0.00021888,0.00044950,0.00047310,-0.00073286,-
 0.05522339,0.01204314,-0.02927391,0.00000056,-0.00000200,0.00000869,-0
 .00000512,-0.00000726,0.00000279,-0.00000559,0.00000831,-0.00000221,0.
 05023841,0.00055317,-0.00011619,0.00005317,-0.00028108,-0.00011614,-0.
 00021703,-0.00029096,-0.00015767,-0.00001150,-0.00006258,0.00038752,0.
 00003425,0.00064236,-0.00059792,-0.00009996,0.00025083,-0.00092377,0.0
 0136546,0.00001656,0.00000138,0.00004323,-0.00002863,-0.00005365,-0.00
 000698,-0.00003367,0.00016450,-0.00002999,-0.00026314,0.00037254,0.000
 02362,-0.00004288,0.00007115,-0.00003043,-0.00040685,0.00006233,0.0001
 6193,-0.00008573,-0.00010613,-0.00002698,0.00001990,-0.00001367,0.0001
 1098,-0.00001725,0.00001586,0.00000587,-0.00093524,-0.00355410,-0.0077
 0579,0.00024905,0.00206858,0.00133992,0.00553659,-0.03184958,0.0374088
 8,0.01078831,-0.07260410,0.07637207,-0.00000627,-0.00004333,-0.0000382
 5,-0.00001401,-0.00000372,0.00000504,0.00003314,-0.00004755,0.00000824
 ,-0.01368196,0.09783940,-0.00035193,0.00030774,-0.00002678,0.00016074,
 -0.00015627,0.00004783,0.00012970,0.00025175,0.00007346,-0.00013478,-0
 .00046803,-0.00009249,-0.00070433,0.00078898,0.00014689,0.00035057,0.0
 0021313,0.00017449,-0.00005023,0.00015794,0.00001394,0.00011281,-0.000
 17908,-0.00006087,0.00034099,0.00015855,0.00012104,0.00002749,-0.00135
 583,-0.00035715,0.00000667,-0.00026185,-0.00002015,0.00107415,0.001455
 83,0.00020297,0.00006731,-0.00015329,0.00001499,0.00002706,0.00000442,
 -0.00003359,0.00000910,-0.00001111,0.00000077,-0.00175135,-0.00312978,
 0.00056845,0.00087197,0.00206210,0.00071532,0.00108281,-0.00001262,0.0
 0629798,-0.03007286,0.08641504,-0.26845660,0.00000763,-0.00000286,-0.0
 0000513,0.00001475,0.00001180,-0.00001142,-0.00008424,0.00012832,-0.00
 001690,0.03427672,-0.09517219,0.28665390,0.00009007,0.00032905,-0.0000
 3611,-0.00015362,-0.00021929,0.00007210,-0.00001329,0.00027576,-0.0000
 2934,-0.00016196,-0.00016659,0.00005727,-0.00066268,0.00056475,0.00015
 460,0.00015879,0.00010646,-0.00017885,-0.00016631,0.00025488,0.0000869
 0,0.00009635,-0.00042245,-0.00009835,0.00072410,0.00051872,0.00011665,
 -0.00042876,-0.00237884,-0.00107131,0.00000225,-0.00028490,-0.00007102
 ,-0.00029679,0.00176198,0.00061915,0.00001117,-0.00035086,-0.00001541,
 0.00001373,0.00002973,0.00000698,-0.00003375,0.00001643,0.00000716,0.0
 0111892,-0.00023170,0.00337940,0.00003625,-0.00134192,-0.00121015,0.00
 222051,0.00685105,-0.00005101,-0.20977003,0.04362245,0.11738858,0.0000
 3045,-0.00004677,0.00001127,0.00000383,0.00000161,0.00000834,-0.000093
 03,0.00016084,-0.00002100,0.00667511,-0.00257507,-0.00481166,0.2202401
 7,0.00037013,0.00052584,-0.00002549,-0.00039616,-0.00028045,0.00008044
 ,-0.00023719,0.00054161,-0.00004160,-0.00025975,-0.00004611,0.00015606
 ,-0.00028681,0.00060251,0.00040804,-0.00033799,-0.00041553,0.00005071,
 -0.00028763,0.00047610,0.00014727,0.00014541,-0.00078956,-0.00019168,0
 .00127045,0.00110884,0.00021262,-0.00088911,-0.00351808,-0.00153043,-0
 .00004528,-0.00045671,-0.00011942,0.00061601,0.00488743,0.00090329,-0.
 00003893,-0.00068530,-0.00007032,-0.00000767,0.00007141,-0.00002246,-0
 .00005275,0.00004580,-0.00000321,0.00178578,0.00261027,-0.00974471,0.0
 0066135,0.00091384,0.00235449,0.02912709,-0.03360524,-0.01873078,0.035
 05232,-0.05114586,-0.02363133,0.00004341,-0.00009499,0.00000980,-0.000
 00794,0.00000749,0.00001360,-0.00012763,0.00022305,-0.00002365,-0.0096
 3083,0.00374787,0.00563686,-0.05007898,0.07111384,0.00014527,-0.000123
 16,0.00001908,-0.00006678,0.00004942,-0.00002057,-0.00003968,-0.000022
 02,-0.00003607,0.00003764,0.00016933,0.00002793,0.00033976,-0.00029729
 ,-0.00008325,-0.00014559,-0.00020721,0.00010998,0.00004788,-0.00004108
 ,-0.00000123,-0.00010419,0.00007904,0.00002365,-0.00012084,-0.00029126
 ,-0.00012157,-0.00063746,0.00088839,0.00023940,-0.00001741,0.00007352,
 0.00000319,0.00011652,-0.00011942,-0.00118500,-0.00002527,0.00005401,-
 0.00000526,-0.00000474,-0.00000532,0.00001196,-0.00001852,0.00002533,0
 .00000015,-0.00116393,0.00272482,-0.00008315,0.00077584,-0.00070339,0.
 00037093,0.00352104,-0.00755465,0.00033324,0.11755274,-0.03097415,-0.1
 4073520,-0.00000667,0.00000676,-0.00000392,-0.00001802,-0.00002626,0.0
 0000553,0.00003332,-0.00004789,0.00000711,0.02180789,-0.00500822,-0.01
 525825,-0.12973033,0.03792540,0.14675209,-0.00012960,-0.00038068,0.000
 05706,0.00019076,0.00034866,-0.00003967,-0.00008644,-0.00042640,-0.000
 02670,0.00036579,0.00036304,0.00000049,0.00049427,-0.00077483,-0.00016
 548,-0.00042667,0.00014759,0.00044016,-0.00002481,-0.00029570,-0.00002
 063,-0.00009212,0.00032819,0.00012038,-0.00062371,-0.00031285,-0.00004
 276,0.00064583,0.00159432,0.00058825,0.00006229,0.00038724,0.00006120,
 -0.00081341,-0.00223099,0.00002935,-0.00002422,0.00037586,0.00000925,-
 0.00001863,-0.00003028,-0.00002746,0.00003015,-0.00002959,0.00000463,-
 0.00111003,0.00143435,-0.00586037,0.00107334,0.00283314,0.00176653,0.0
 0773991,-0.00890560,0.00334967,-0.23382297,-0.06397152,-0.08283452,-0.
 00002094,0.00002984,-0.00000855,0.00000624,0.00001018,-0.00001893,0.00
 011387,-0.00018888,0.00001953,-0.00210697,0.00063544,-0.00059910,-0.01
 964147,-0.00638732,-0.01227842,0.24821957,0.00004519,-0.00012482,0.000
 02646,0.00009172,0.00014809,-0.00009016,-0.00030552,-0.00029383,0.0000
 8207,0.00025372,0.00033484,0.00002880,0.00028566,-0.00031878,-0.000039
 61,0.00060388,-0.00008365,0.00063403,-0.00005958,-0.00011896,-0.000026
 46,-0.00010402,0.00009346,0.00004705,-0.00013934,-0.00005338,-0.000050
 40,0.00018930,0.00040740,0.00010606,0.00002878,0.00020510,0.00004089,-
 0.00057583,-0.00002946,0.00017311,-0.00003033,0.00006954,-0.00000681,0
 .00002689,-0.00002147,0.00001745,-0.00001438,0.00000608,-0.00000136,-0
 .00278320,0.00241099,-0.00963862,0.00261123,0.00169768,0.00365690,-0.0
 2924796,-0.03265817,-0.01278493,-0.06014256,-0.06737948,-0.02773080,-0
 .00000445,-0.00002581,-0.00002492,-0.00000583,0.00000008,-0.00000014,0
 .00004670,-0.00007749,0.00000975,0.01017950,0.00545639,0.00331047,0.00
 360363,0.00416194,0.00342528,0.07544680,0.08619373,0.00001957,-0.00000
 711,0.00001092,-0.00000859,0.00005835,-0.00005901,-0.00008693,-0.00001
 197,0.00001720,0.00005989,0.00012582,0.00004960,0.00019395,-0.00022178
 ,-0.00002492,-0.00053073,0.00006976,0.00015959,0.00000992,-0.00005951,
 -0.00002727,-0.00004820,0.00005011,0.00004855,-0.00004260,-0.00004481,
 -0.00002442,-0.00004260,0.00014255,-0.00009707,-0.00000009,0.00008181,
 0.00001978,-0.00024925,0.00046840,-0.00004110,-0.00001458,-0.00003128,
 -0.00001116,0.00001055,0.00000829,0.00001842,-0.00000672,0.00000421,-0
 .00000841,0.00103794,0.00228398,-0.00113442,0.00026690,0.00077646,-0.0
 0039714,-0.00154874,-0.00798906,0.00006148,-0.08487390,-0.03215719,-0.
 08916561,0.00000115,-0.00001224,0.00000468,-0.00000522,0.00000103,-0.0
 0000152,0.00001298,-0.00002285,0.00000659,-0.02504688,-0.00858534,-0.0
 1069270,0.01541613,0.00623650,0.00962920,0.09547607,0.03883589,0.09165
 875\\0.00001995,-0.00004247,-0.00001050,-0.00001379,0.00001772,0.00000
 355,0.00000393,0.00000578,0.00000117,-0.00001025,0.00002257,-0.0000023
 3,-0.00000217,-0.00001619,0.00000046,0.00001320,0.00000862,0.00000326,
 -0.00002440,-0.00003794,0.00000016,0.00000732,0.00001422,-0.00000923,-
 0.00000124,-0.00000550,0.00000384,-0.00001696,-0.00002011,-0.00000869,
 0.00001777,0.00002166,0.00000502,0.00001465,0.00003013,0.00000534,0.00
 000191,0.00001989,0.00001209,0.00000112,-0.00000077,-0.00000433,0.0000
 0008,0.00000328,0.00000301,-0.00000346,-0.00001087,0.00003991,-0.00000
 193,-0.00000444,-0.00000700,0.00000407,-0.00001985,-0.00004113,-0.0000
 1536,0.00003176,0.00001104,0.00000121,-0.00000972,0.00000184,-0.000003
 44,-0.00000602,0.00000014,-0.00000603,0.00000185,-0.00000994,0.0000038
 2,-0.00000207,0.00000245,0.00000741,-0.00000239,0.00000182,0.00000260,
 0.00000086,-0.00000197\\\@


 I WANT TO KNOW HOW GOD CREATED THE WORLD.  I AM NOT INTERESTED IN
 THIS OR THAT PHENOMENON, IN THE SPECTRUM OF THIS OR THAT ELEMENT.
 I WANT TO KNOW HIS THOUGHTS, THE REST ARE DETAILS.
     -- ALBERT EINSTEIN
 Job cpu time:       0 days  2 hours 50 minutes 54.7 seconds.
 Elapsed time:       0 days  0 hours 21 minutes 33.6 seconds.
 File lengths (MBytes):  RWF=    885 Int=      0 D2E=      0 Chk=     22 Scr=      1
 Normal termination of Gaussian 16 at Thu Dec 28 00:38:11 2023.
