
Running Job 1 of 1 280-SM12.in
qchem 280-SM12.in_142550.0 /expanse/lustre/scratch/selhajj/temp_project/qcscratch/28446783/qchem142550/ 0
/cm/shared/apps/spack/cpu/opt/spack/linux-centos8-zen2/gcc-10.2.0/qchem-5.4-akfmr7b3t57bfs6qan3padb2wnb2i7cl/exe/qcprog.exe_s 280-SM12.in_142550.0 /expanse/lustre/scratch/selhajj/temp_project/qcscratch/28446783/qchem142550/
                  Welcome to Q-Chem
     A Quantum Leap Into The Future Of Chemistry


 Q-Chem 5.4, Q-Chem, Inc., Pleasanton, CA (2021)

 License issued to: University of California, San Diego (site)

 E. Epifanovsky,  A. T. B. Gilbert,  Xintian Feng,  Joonho Lee,  Yuezhi Mao,  
 N. Mardirossian,  P. Pokhilko,  A. White,  M. Wormit,  M. P. Coons,  
 A. L. Dempwolff,  Zhengting Gan,  D. Hait,  P. R. Horn,  L. D. Jacobson,  
 I. Kaliman,  J. Kussmann,  A. W. Lange,  Ka Un Lao,  D. S. Levine,  Jie Liu,  
 S. C. McKenzie,  A. F. Morrison,  K. Nanda,  F. Plasser,  D. R. Rehn,  
 M. L. Vidal,  Zhi-Qiang You,  Ying Zhu,  B. Alam,  B. Albrecht,  
 A. Aldossary,  E. Alguire,  J. H. Andersen,  D. Barton,  K. Begam,  A. Behn,  
 Y. A. Bernard,  E. J. Berquist,  H. Burton,  A. Carreras,  K. Carter-Fenk,  
 R. Chakraborty,  A. D. Chien,  K. D. Closser,  V. Cofer-Shabica,  
 S. Dasgupta,  Jia Deng,  M. de Wergifosse,  M. Diedenhofen,  Hainam Do,  
 S. Ehlert,  Po-Tung Fang,  S. Fatehi,  Qingguo Feng,  J. Gayvert,  
 Qinghui Ge,  G. Gidofalvi,  M. Goldey,  J. Gomes,  C. Gonzalez-Espinoza,  
 S. Gulania,  A. Gunina,  M. W. D. Hanson-Heine,  P. H. P. Harbach,  
 A. W. Hauser,  M. F. Herbst,  M. Hernandez Vera,  M. Hodecker,  
 Z. C. Holden,  S. Houck,  Xunkun Huang,  Kerwin Hui,  B. C. Huynh,  
 M. Ivanov,  Hyunjun Ji,  Hanjie Jiang,  B. Kaduk,  S. Kaehler,  
 K. Khistyaev,  Jaehoon Kim,  P. Klunzinger,  Z. Koczor-Benda,  
 Joong Hoon Koh,  D. Kosenkov,  L. Koulias,  T. Kowalczyk,  C. M. Krauter,  
 K. Kue,  A. Kunitsa,  T. Kus,  A. Landau,  K. V. Lawler,  D. Lefrancois,  
 S. Lehtola,  Rain Li,  Yi-Pei Li,  Jiashu Liang,  M. Liebenthal,  
 Hung-Hsuan Lin,  You-Sheng Lin,  Fenglai Liu,  Kuan-Yu Liu,  
 M. Loipersberger,  A. Luenser,  A. Manjanath,  P. Manohar,  E. Mansoor,  
 S. F. Manzer,  Shan-Ping Mao,  A. V. Marenich,  T. Markovich,  S. Mason,  
 S. A. Maurer,  P. F. McLaughlin,  M. F. S. J. Menger,  J.-M. Mewes,  
 S. A. Mewes,  P. Morgante,  J. W. Mullinax,  T. S. Nguyen-Beck,  
 K. J. Oosterbaan,  G. Paran,  Alexander C. Paul,  Suranjan K. Paul,  
 F. Pavosevic,  Zheng Pei,  S. Prager,  E. I. Proynov,  E. Ramos,  B. Rana,  
 A. E. Rask,  A. Rettig,  R. M. Richard,  F. Rob,  E. Rossomme,  T. Scheele,  
 M. Scheurer,  M. Schneider,  N. Sergueev,  S. M. Sharada,  W. Skomorowski,  
 D. W. Small,  C. J. Stein,  Yu-Chuan Su,  E. J. Sundstrom,  Zhen Tao,  
 J. Thirman,  T. Tsuchimochi,  N. M. Tubman,  S. P. Veccham,  O. Vydrov,  
 J. Wenzel,  J. Witte,  A. Yamada,  Kun Yao,  S. Yeganeh,  S. R. Yost,  
 A. Zech,  Igor Ying Zhang,  Xing Zhang,  Yu Zhang,  D. Zuev,  
 A. Aspuru-Guzik,  A. T. Bell,  N. A. Besley,  K. B. Bravaya,  B. R. Brooks,  
 D. Casanova,  Jeng-Da Chai,  S. Coriani,  C. J. Cramer,  
 A. E. DePrince, III,  R. A. DiStasio Jr.,  A. Dreuw,  B. D. Dunietz,  
 T. R. Furlani,  W. A. Goddard III,  S. Grimme,  S. Hammes-Schiffer,  
 T. Head-Gordon,  W. J. Hehre,  Chao-Ping Hsu,  T.-C. Jagau,  Yousung Jung,  
 A. Klamt,  Jing Kong,  D. S. Lambrecht,  WanZhen Liang,  N. J. Mayhall,  
 C. W. McCurdy,  J. B. Neaton,  C. Ochsenfeld,  J. A. Parkhill,  R. Peverati,  
 V. A. Rassolov,  Yihan Shao,  L. V. Slipchenko,  T. Stauch,  R. P. Steele,  
 J. E. Subotnik,  A. J. W. Thom,  A. Tkatchenko,  D. G. Truhlar,  
 T. Van Voorhis,  T. A. Wesolowski,  K. B. Whaley,  H. L. Woodcock III,  
 P. M. Zimmerman,  S. Faraji,  P. M. W. Gill,  M. Head-Gordon,  
 J. M. Herbert,  A. I. Krylov

 Contributors to earlier versions of Q-Chem not listed above: 
 R. D. Adamson,  B. Austin,  R. Baer,  J. Baker,  G. J. O. Beran,  
 K. Brandhorst,  S. T. Brown,  E. F. C. Byrd,  A. K. Chakraborty,  
 G. K. L. Chan,  Chun-Min Chang,  Yunqing Chen,  C.-L. Cheng,  
 Siu Hung Chien,  D. M. Chipman,  D. L. Crittenden,  H. Dachsel,  
 R. J. Doerksen,  A. D. Dutoi,  R. G. Edgar,  J. Fosso-Tande,  
 L. Fusti-Molnar,  D. Ghosh,  A. Ghysels,  A. Golubeva-Zadorozhnaya,  
 J. Gonthier,  M. S. Gordon,  S. R. Gwaltney,  G. Hawkins,  J. E. Herr,  
 A. Heyden,  S. Hirata,  E. G. Hohenstein,  G. Kedziora,  F. J. Keil,  
 C. Kelley,  Jihan Kim,  R. A. King,  R. Z. Khaliullin,  P. P. Korambath,  
 W. Kurlancheek,  A. Laurent,  A. M. Lee,  M. S. Lee,  S. V. Levchenko,  
 Ching Yeh Lin,  D. Liotard,  E. Livshits,  R. C. Lochan,  I. Lotan,  
 L. A. Martinez-Martinez,  P. E. Maslen,  N. Nair,  D. P. O'Neill,  
 D. Neuhauser,  E. Neuscamman,  C. M. Oana,  R. Olivares-Amaya,  R. Olson,  
 T. M. Perrine,  B. Peters,  P. A. Pieniazek,  A. Prociuk,  Y. M. Rhee,  
 J. Ritchie,  M. A. Rohrdanz,  E. Rosta,  N. J. Russ,  H. F. Schaefer III,  
 M. W. Schmidt,  N. E. Schultz,  S. Sharma,  N. Shenvi,  C. D. Sherrill,  
 A. C. Simmonett,  A. Sodt,  T. Stein,  D. Stuck,  K. S. Thanthiriwatte,  
 V. Vanovschi,  L. Vogt,  Tao Wang,  A. Warshel,  M. A. Watson,  
 C. F. Williams,  Q. Wu,  X. Xu,  Jun Yang,  W. Zhang,  Yan Zhao

 Please cite Q-Chem as follows:
 Y. Shao et al., Mol. Phys. 113, 184-215 (2015)
 DOI: 10.1080/00268976.2014.952696

 Q-Chem 5.4.0 for Intel X86 EM64T Linux

 Parts of Q-Chem use Armadillo 9.800.1 (Horizon Scraper).
 http://arma.sourceforge.net/

 Q-Chem begins on Sat Feb  3 13:15:19 2024  

 Host: 
0

     Scratch files written to /expanse/lustre/scratch/selhajj/temp_project/qcscratch/28446783/qchem142550//
 May1621 |scratch|qcdevops|jenkins|workspace|build_RNUM    
 Processing $rem in /cm/shared/apps/spack/cpu/opt/spack/linux-centos8-zen2/gcc-10.2.0/qchem-5.4-akfmr7b3t57bfs6qan3padb2wnb2i7cl/config/preferences:
 Processing $rem in /home/selhajj/.qchemrc:
 Symmetry turned off for PCM/SM12/SMD calculation
 Method-specific promolecule density matrix will be built for SM12 calculation

 Checking the input file for inconsistencies... 	...done.

--------------------------------------------------------------
User input:
--------------------------------------------------------------
$molecule
0 1
O                  2.3501490000      1.6295460000      0.3519760000
C                  1.6647440000      0.4877570000      0.2210540000
C                  2.3807230000     -0.7210530000      0.2558930000
C                  1.7156400000     -1.9273720000      0.1245650000
C                  0.3255770000     -1.9707790000     -0.0446310000
C                 -0.3960100000     -0.7871000000     -0.0811790000
C                 -1.8778450000     -0.8338030000     -0.2615200000
O                 -2.4901770000     -1.8823960000     -0.3799240000
C                 -2.5997120000      0.4626270000     -0.2931480000
C                 -1.9633330000      1.6349060000     -0.1666090000
C                 -0.4984600000      1.7118930000      0.0128610000
O                  0.0472220000      2.8180770000      0.1255000000
C                  0.2612610000      0.4602430000      0.0510120000
H                  1.7029570000      2.3722870000      0.3055450000
H                  3.4549650000     -0.6760270000      0.3870880000
H                  2.2807180000     -2.8521200000      0.1532900000
H                 -0.2007780000     -2.9108550000     -0.1479540000
H                 -3.6741690000      0.3978960000     -0.4251730000
H                 -2.4834730000      2.5862740000     -0.1886440000
$end

$rem
BASIS  =  6-311++G(d,p)
GUI  =  2
JOB_TYPE  =  SP
METHOD  =  B3LYP
SCF_CONVERGENCE  = 8
SOLVENT_METHOD = sm12
$end

$smx
solvent dimethylformamide
charges CM5
$end





--------------------------------------------------------------
 ----------------------------------------------------------------
             Standard Nuclear Orientation (Angstroms)
    I     Atom           X                Y                Z
 ----------------------------------------------------------------
    1      O       2.3501490000     1.6295460000     0.3519760000
    2      C       1.6647440000     0.4877570000     0.2210540000
    3      C       2.3807230000    -0.7210530000     0.2558930000
    4      C       1.7156400000    -1.9273720000     0.1245650000
    5      C       0.3255770000    -1.9707790000    -0.0446310000
    6      C      -0.3960100000    -0.7871000000    -0.0811790000
    7      C      -1.8778450000    -0.8338030000    -0.2615200000
    8      O      -2.4901770000    -1.8823960000    -0.3799240000
    9      C      -2.5997120000     0.4626270000    -0.2931480000
   10      C      -1.9633330000     1.6349060000    -0.1666090000
   11      C      -0.4984600000     1.7118930000     0.0128610000
   12      O       0.0472220000     2.8180770000     0.1255000000
   13      C       0.2612610000     0.4602430000     0.0510120000
   14      H       1.7029570000     2.3722870000     0.3055450000
   15      H       3.4549650000    -0.6760270000     0.3870880000
   16      H       2.2807180000    -2.8521200000     0.1532900000
   17      H      -0.2007780000    -2.9108550000    -0.1479540000
   18      H      -3.6741690000     0.3978960000    -0.4251730000
   19      H      -2.4834730000     2.5862740000    -0.1886440000
 ----------------------------------------------------------------
 Nuclear Repulsion Energy =         733.99949006 hartrees
 There are       45 alpha and       45 beta electrons
 Requested basis set is 6-311++G(d,p)
 There are 108 shells and 328 basis functions

 Total QAlloc Memory Limit   8000 MB
 Mega-Array Size       188 MB
 MEM_STATIC part       192 MB
 A cutoff of  1.0D-11 yielded   4999 shell pairs
 There are     47846 function pairs (     51599 Cartesian)
 Smallest overlap matrix eigenvalue = 3.61E-07

 Q-Chem warning in module stvman/mkSTV.C, line 323:

 Overlap eigenvalue is smaller than square root of threshold
 Use THRESH >= 12 to get rid of this warning

 Linear dependence detected in AO basis
 Tighter screening thresholds may be required for diffuse basis sets
 Use S2THRESH > 14 and THRESH = 14 in case of SCF convergence issues
 Number of orthogonalized atomic orbitals = 325
 Maximum deviation from orthogonality = 7.770E-11

 Scale SEOQF with 1.000000e-01/1.000000e-01/1.000000e-01

 Standard Electronic Orientation quadrupole field applied
 Nucleus-field energy     =     0.0000000268 hartrees
 ================ Generating on-the-fly Promolecule Density  ================
Attempting to make child job directory: /expanse/lustre/scratch/selhajj/temp_project/qcscratch/28446783/qchem142550//Frg1/
Attempting to make child job directory: /expanse/lustre/scratch/selhajj/temp_project/qcscratch/28446783/qchem142550//Frg2/
Attempting to make child job directory: /expanse/lustre/scratch/selhajj/temp_project/qcscratch/28446783/qchem142550//Frg3/
Creating input file /expanse/lustre/scratch/selhajj/temp_project/qcscratch/28446783/qchem142550/Frg1.input
using default PutDataFrgm: nothing
calling putenv with: QCSCRATCH=/expanse/lustre/scratch/selhajj/temp_project/qcscratch/28446783/qchem142550/ 
Spawning Job For Fragment 0
Done Job For Fragment 0
calling putenv with: QCSCRATCH=/expanse/lustre/scratch/selhajj/temp_project/qcscratch/28446783 
calling putenv with: QCTHREADS=8 
Creating input file /expanse/lustre/scratch/selhajj/temp_project/qcscratch/28446783/qchem142550/Frg2.input
using default PutDataFrgm: nothing
calling putenv with: QCSCRATCH=/expanse/lustre/scratch/selhajj/temp_project/qcscratch/28446783/qchem142550/ 
Spawning Job For Fragment 1
Done Job For Fragment 1
calling putenv with: QCSCRATCH=/expanse/lustre/scratch/selhajj/temp_project/qcscratch/28446783 
calling putenv with: QCTHREADS=8 
Creating input file /expanse/lustre/scratch/selhajj/temp_project/qcscratch/28446783/qchem142550/Frg3.input
using default PutDataFrgm: nothing
calling putenv with: QCSCRATCH=/expanse/lustre/scratch/selhajj/temp_project/qcscratch/28446783/qchem142550/ 
Spawning Job For Fragment 2
Done Job For Fragment 2
calling putenv with: QCSCRATCH=/expanse/lustre/scratch/selhajj/temp_project/qcscratch/28446783 
calling putenv with: QCTHREADS=8 
 Time for running child jobs:  CPU 0.01 s  wall 3.30 s
 ============= Method Specific Promolecule Density Constructed =============
 Guess from superposition of atomic densities
 Warning:  Energy on first SCF cycle will be non-variational
 SAD guess density has 90.000000 electrons

 -----------------------------------------------------------------------
  General SCF calculation program by
  Eric Jon Sundstrom, Paul Horn, Yuezhi Mao, Dmitri Zuev, Alec White,
  David Stuck, Shaama M.S., Shane Yost, Joonho Lee, David Small,
  Daniel Levine, Susi Lehtola, Hugh Burton, Evgeny Epifanovsky,
  Bang C. Huynh
 -----------------------------------------------------------------------
 Exchange:     0.2000 Hartree-Fock + 0.0800 Slater + 0.7200 B88
 Correlation:  0.1900 VWN1RPA + 0.8100 LYP
 Using SG-1 standard quadrature grid
 using 8 threads for integral computing
 -------------------------------------------------------
 OpenMP Integral computing Module                
 Release: version 1.0, May 2013, Q-Chem Inc. Pittsburgh 
 -------------------------------------------------------
 
 SM12 calculation using CM5 charges
 Citation of the SM12 model:
 Marenich, A.V.; Cramer, C.J.; Truhlar, D.G.
 J. Chem. Theory Comput. 2013, 9, 609-612.
 iSolventCode=          91
 Solvent: dimethylformamide                                               
 
Hirshfeld: reading atomic densities from disk.
warning:  vdwdata pointer should have been initialzed before dftman

 Charges (in A.U.) from CM5PAC (Nov. 11, 2011)
 -----------------------------------------------
 Center     Atomic      CM5         Hirshfeld
 Number     Number      Charge      Charge
 -----------------------------------------------
    1          8       -0.213832   -0.022530
    2          6        0.023929    0.007079
    3          6       -0.050284    0.000151
    4          6       -0.058206   -0.003140
    5          6       -0.052466   -0.000851
    6          6       -0.002444   -0.000585
    7          6        0.038074    0.006701
    8          8       -0.063726   -0.016328
    9          6       -0.049696    0.000131
   10          6       -0.049761    0.000117
   11          6        0.036246    0.007266
   12          8       -0.086359   -0.018718
   13          6        0.003482    0.001808
   14          1        0.207276    0.014229
   15          1        0.063720    0.004600
   16          1        0.058968    0.003044
   17          1        0.065737    0.005274
   18          1        0.063203    0.004460
   19          1        0.063339    0.004492
 -----------------------------------------------

 Dipole moment (in Debye)
 -----------------------------------------------
                 X        Y        Z     Total
 -----------------------------------------------
 CM5         -0.4834  -0.0038  -0.0583   0.4869
 Hirshfeld   -0.0206  -0.0925  -0.0064   0.0950
 -----------------------------------------------

 A restricted SCF calculation will be
 performed using DIIS
 SCF converges when DIIS error is below 1.0e-08
 ---------------------------------------
  Cycle       Energy         DIIS error
 ---------------------------------------
Hirshfeld: reading atomic densities from disk.

 Charges (in A.U.) from CM5PAC (Nov. 11, 2011)
 -----------------------------------------------
 Center     Atomic      CM5         Hirshfeld
 Number     Number      Charge      Charge
 -----------------------------------------------
    1          8       -0.476896   -0.285593
    2          6        0.243875    0.227025
    3          6       -0.195039   -0.144604
    4          6       -0.146469   -0.091403
    5          6       -0.187787   -0.136172
    6          6       -0.027213   -0.025354
    7          6        0.395327    0.363954
    8          8       -0.509134   -0.461736
    9          6       -0.114342   -0.064515
   10          6       -0.108855   -0.058977
   11          6        0.378643    0.349663
   12          8       -0.470172   -0.402531
   13          6       -0.066018   -0.067692
   14          1        0.393106    0.200059
   15          1        0.178215    0.119096
   16          1        0.180992    0.125068
   17          1        0.170846    0.110383
   18          1        0.179109    0.120366
   19          1        0.180684    0.121837
 -----------------------------------------------

 Dipole moment (in Debye)
 -----------------------------------------------
                 X        Y        Z     Total
 -----------------------------------------------
 CM5         -0.5555   0.8844  -0.0288   1.0448
 Hirshfeld   -0.0928   0.7958   0.0232   0.8015
 -----------------------------------------------

    1    -613.6162602530      3.74e-02  
Hirshfeld: reading atomic densities from disk.

 Charges (in A.U.) from CM5PAC (Nov. 11, 2011)
 -----------------------------------------------
 Center     Atomic      CM5         Hirshfeld
 Number     Number      Charge      Charge
 -----------------------------------------------
    1          8       -0.222890   -0.031587
    2          6       -0.107152   -0.124002
    3          6        0.049637    0.100072
    4          6        0.067236    0.122302
    5          6        0.068313    0.119927
    6          6       -0.063203   -0.061344
    7          6       -0.253530   -0.284903
    8          8        0.195449    0.242847
    9          6       -0.032128    0.017699
   10          6       -0.053776   -0.003898
   11          6       -0.221813   -0.250794
   12          8        0.089775    0.157416
   13          6       -0.099023   -0.100697
   14          1        0.237739    0.044692
   15          1        0.059328    0.000208
   16          1        0.052755   -0.003169
   17          1        0.043853   -0.016610
   18          1        0.092640    0.033897
   19          1        0.094905    0.036058
 -----------------------------------------------

 Dipole moment (in Debye)
 -----------------------------------------------
                 X        Y        Z     Total
 -----------------------------------------------
 CM5         -0.0418  -2.7343  -0.1214   2.7373
 Hirshfeld    0.4209  -2.8230  -0.0695   2.8550
 -----------------------------------------------

    2    -610.3055782499      4.35e-03  
Hirshfeld: reading atomic densities from disk.

 Charges (in A.U.) from CM5PAC (Nov. 11, 2011)
 -----------------------------------------------
 Center     Atomic      CM5         Hirshfeld
 Number     Number      Charge      Charge
 -----------------------------------------------
    1          8       -0.379727   -0.188424
    2          6        0.109088    0.092238
    3          6       -0.065741   -0.015305
    4          6       -0.068422   -0.013356
    5          6       -0.068833   -0.017219
    6          6        0.032466    0.034325
    7          6        0.236162    0.204789
    8          8       -0.432970   -0.385571
    9          6       -0.014243    0.035584
   10          6       -0.008389    0.041489
   11          6        0.212572    0.183592
   12          8       -0.396925   -0.329285
   13          6        0.023263    0.021589
   14          1        0.306604    0.113558
   15          1        0.102177    0.043058
   16          1        0.103384    0.047460
   17          1        0.094869    0.034406
   18          1        0.105950    0.047207
   19          1        0.107041    0.048194
 -----------------------------------------------

 Dipole moment (in Debye)
 -----------------------------------------------
                 X        Y        Z     Total
 -----------------------------------------------
 CM5         -0.0654  -0.0773  -0.0107   0.1018
 Hirshfeld    0.3973  -0.1660   0.0412   0.4325
 -----------------------------------------------

    3    -610.0334831108      6.95e-03  
Hirshfeld: reading atomic densities from disk.

 Charges (in A.U.) from CM5PAC (Nov. 11, 2011)
 -----------------------------------------------
 Center     Atomic      CM5         Hirshfeld
 Number     Number      Charge      Charge
 -----------------------------------------------
    1          8       -0.388668   -0.197365
    2          6        0.128280    0.111430
    3          6       -0.092493   -0.042057
    4          6       -0.066908   -0.011842
    5          6       -0.091568   -0.039954
    6          6       -0.032386   -0.030527
    7          6        0.172387    0.141014
    8          8       -0.275577   -0.228178
    9          6       -0.066571   -0.016744
   10          6       -0.070294   -0.020416
   11          6        0.174181    0.145201
   12          8       -0.283604   -0.215963
   13          6       -0.054153   -0.055827
   14          1        0.321791    0.128744
   15          1        0.122428    0.063308
   16          1        0.123244    0.067320
   17          1        0.115806    0.055343
   18          1        0.130830    0.072087
   19          1        0.131745    0.072898
 -----------------------------------------------

 Dipole moment (in Debye)
 -----------------------------------------------
                 X        Y        Z     Total
 -----------------------------------------------
 CM5         -0.3443  -0.3893  -0.0577   0.5229
 Hirshfeld    0.1184  -0.4780  -0.0058   0.4925
 -----------------------------------------------

    4    -610.4846153976      1.58e-03  
Hirshfeld: reading atomic densities from disk.

 Charges (in A.U.) from CM5PAC (Nov. 11, 2011)
 -----------------------------------------------
 Center     Atomic      CM5         Hirshfeld
 Number     Number      Charge      Charge
 -----------------------------------------------
    1          8       -0.370075   -0.178772
    2          6        0.103140    0.086290
    3          6       -0.085375   -0.034940
    4          6       -0.058354   -0.003288
    5          6       -0.072858   -0.021244
    6          6       -0.015626   -0.013767
    7          6        0.170190    0.138817
    8          8       -0.303087   -0.255689
    9          6       -0.057461   -0.007634
   10          6       -0.059331   -0.009453
   11          6        0.160703    0.131722
   12          8       -0.300952   -0.233311
   13          6       -0.048547   -0.050221
   14          1        0.320226    0.127179
   15          1        0.120560    0.061441
   16          1        0.120368    0.064444
   17          1        0.112844    0.052381
   18          1        0.130464    0.071721
   19          1        0.131638    0.072791
 -----------------------------------------------

 Dipole moment (in Debye)
 -----------------------------------------------
                 X        Y        Z     Total
 -----------------------------------------------
 CM5         -0.0838  -0.5494  -0.0331   0.5567
 Hirshfeld    0.3789  -0.6381   0.0188   0.7423
 -----------------------------------------------

    5    -610.5153225626      3.69e-04  
Hirshfeld: reading atomic densities from disk.

 Charges (in A.U.) from CM5PAC (Nov. 11, 2011)
 -----------------------------------------------
 Center     Atomic      CM5         Hirshfeld
 Number     Number      Charge      Charge
 -----------------------------------------------
    1          8       -0.380693   -0.189390
    2          6        0.112165    0.095315
    3          6       -0.084563   -0.034128
    4          6       -0.064865   -0.009799
    5          6       -0.082766   -0.031152
    6          6       -0.016422   -0.014563
    7          6        0.171902    0.140529
    8          8       -0.299212   -0.251813
    9          6       -0.057186   -0.007359
   10          6       -0.058501   -0.008623
   11          6        0.168245    0.139265
   12          8       -0.300053   -0.232412
   13          6       -0.038895   -0.040569
   14          1        0.320097    0.127050
   15          1        0.119515    0.060395
   16          1        0.120050    0.064126
   17          1        0.112271    0.051808
   18          1        0.128196    0.069453
   19          1        0.129175    0.070328
 -----------------------------------------------

 Dipole moment (in Debye)
 -----------------------------------------------
                 X        Y        Z     Total
 -----------------------------------------------
 CM5         -0.2206  -0.4170  -0.0440   0.4738
 Hirshfeld    0.2422  -0.5056   0.0080   0.5607
 -----------------------------------------------

    6    -610.5160768021      1.43e-04  
Hirshfeld: reading atomic densities from disk.

 Charges (in A.U.) from CM5PAC (Nov. 11, 2011)
 -----------------------------------------------
 Center     Atomic      CM5         Hirshfeld
 Number     Number      Charge      Charge
 -----------------------------------------------
    1          8       -0.378027   -0.186724
    2          6        0.112434    0.095584
    3          6       -0.085530   -0.035095
    4          6       -0.062430   -0.007364
    5          6       -0.079806   -0.028192
    6          6       -0.018211   -0.016352
    7          6        0.174311    0.142938
    8          8       -0.300977   -0.253579
    9          6       -0.056868   -0.007041
   10          6       -0.059181   -0.009303
   11          6        0.168337    0.139357
   12          8       -0.300465   -0.232824
   13          6       -0.044134   -0.045808
   14          1        0.319641    0.126594
   15          1        0.119569    0.060449
   16          1        0.119916    0.063992
   17          1        0.112240    0.051777
   18          1        0.128294    0.069551
   19          1        0.129346    0.070499
 -----------------------------------------------

 Dipole moment (in Debye)
 -----------------------------------------------
                 X        Y        Z     Total
 -----------------------------------------------
 CM5         -0.1844  -0.4514  -0.0411   0.4894
 Hirshfeld    0.2783  -0.5401   0.0109   0.6077
 -----------------------------------------------

    7    -610.5164952896      4.31e-05  
Hirshfeld: reading atomic densities from disk.

 Charges (in A.U.) from CM5PAC (Nov. 11, 2011)
 -----------------------------------------------
 Center     Atomic      CM5         Hirshfeld
 Number     Number      Charge      Charge
 -----------------------------------------------
    1          8       -0.378506   -0.187204
    2          6        0.111802    0.094952
    3          6       -0.085540   -0.035105
    4          6       -0.062936   -0.007870
    5          6       -0.080201   -0.028587
    6          6       -0.017340   -0.015481
    7          6        0.173563    0.142190
    8          8       -0.300517   -0.253119
    9          6       -0.057320   -0.007493
   10          6       -0.059008   -0.009130
   11          6        0.168222    0.139241
   12          8       -0.300599   -0.232958
   13          6       -0.042857   -0.044531
   14          1        0.319823    0.126776
   15          1        0.119660    0.060540
   16          1        0.120030    0.064106
   17          1        0.112309    0.051846
   18          1        0.128421    0.069678
   19          1        0.129455    0.070608
 -----------------------------------------------

 Dipole moment (in Debye)
 -----------------------------------------------
                 X        Y        Z     Total
 -----------------------------------------------
 CM5         -0.1937  -0.4514  -0.0422   0.4930
 Hirshfeld    0.2691  -0.5401   0.0097   0.6035
 -----------------------------------------------

    8    -610.5164775806      1.35e-05  
Hirshfeld: reading atomic densities from disk.

 Charges (in A.U.) from CM5PAC (Nov. 11, 2011)
 -----------------------------------------------
 Center     Atomic      CM5         Hirshfeld
 Number     Number      Charge      Charge
 -----------------------------------------------
    1          8       -0.378462   -0.187159
    2          6        0.111994    0.095144
    3          6       -0.085328   -0.034893
    4          6       -0.062958   -0.007892
    5          6       -0.080345   -0.028731
    6          6       -0.017553   -0.015694
    7          6        0.173600    0.142227
    8          8       -0.300703   -0.253305
    9          6       -0.057130   -0.007303
   10          6       -0.059085   -0.009208
   11          6        0.168071    0.139091
   12          8       -0.300456   -0.232815
   13          6       -0.042895   -0.044569
   14          1        0.319815    0.126769
   15          1        0.119648    0.060528
   16          1        0.120033    0.064109
   17          1        0.112336    0.051872
   18          1        0.128421    0.069678
   19          1        0.129456    0.070609
 -----------------------------------------------

 Dipole moment (in Debye)
 -----------------------------------------------
                 X        Y        Z     Total
 -----------------------------------------------
 CM5         -0.1889  -0.4475  -0.0414   0.4875
 Hirshfeld    0.2739  -0.5361   0.0105   0.6021
 -----------------------------------------------

    9    -610.5164825824      2.31e-06  
Hirshfeld: reading atomic densities from disk.

 Charges (in A.U.) from CM5PAC (Nov. 11, 2011)
 -----------------------------------------------
 Center     Atomic      CM5         Hirshfeld
 Number     Number      Charge      Charge
 -----------------------------------------------
    1          8       -0.378463   -0.187160
    2          6        0.111931    0.095081
    3          6       -0.085431   -0.034996
    4          6       -0.062929   -0.007863
    5          6       -0.080283   -0.028669
    6          6       -0.017489   -0.015630
    7          6        0.173600    0.142227
    8          8       -0.300638   -0.253240
    9          6       -0.057165   -0.007338
   10          6       -0.059052   -0.009175
   11          6        0.168163    0.139183
   12          8       -0.300570   -0.232929
   13          6       -0.042913   -0.044587
   14          1        0.319824    0.126777
   15          1        0.119655    0.060535
   16          1        0.120032    0.064108
   17          1        0.112326    0.051863
   18          1        0.128413    0.069670
   19          1        0.129448    0.070601
 -----------------------------------------------

 Dipole moment (in Debye)
 -----------------------------------------------
                 X        Y        Z     Total
 -----------------------------------------------
 CM5         -0.1909  -0.4495  -0.0418   0.4901
 Hirshfeld    0.2719  -0.5381   0.0102   0.6030
 -----------------------------------------------

   10    -610.5164812952      1.44e-06  
Hirshfeld: reading atomic densities from disk.

 Charges (in A.U.) from CM5PAC (Nov. 11, 2011)
 -----------------------------------------------
 Center     Atomic      CM5         Hirshfeld
 Number     Number      Charge      Charge
 -----------------------------------------------
    1          8       -0.378471   -0.187168
    2          6        0.111923    0.095073
    3          6       -0.085428   -0.034993
    4          6       -0.062940   -0.007874
    5          6       -0.080275   -0.028661
    6          6       -0.017473   -0.015614
    7          6        0.173620    0.142246
    8          8       -0.300669   -0.253271
    9          6       -0.057193   -0.007366
   10          6       -0.059046   -0.009168
   11          6        0.168154    0.139173
   12          8       -0.300534   -0.232893
   13          6       -0.042907   -0.044581
   14          1        0.319822    0.126775
   15          1        0.119655    0.060535
   16          1        0.120032    0.064108
   17          1        0.112325    0.051862
   18          1        0.128416    0.069673
   19          1        0.129450    0.070603
 -----------------------------------------------

 Dipole moment (in Debye)
 -----------------------------------------------
                 X        Y        Z     Total
 -----------------------------------------------
 CM5         -0.1906  -0.4490  -0.0417   0.4895
 Hirshfeld    0.2721  -0.5376   0.0102   0.6026
 -----------------------------------------------

   11    -610.5164813486      3.30e-07  
Hirshfeld: reading atomic densities from disk.

 Charges (in A.U.) from CM5PAC (Nov. 11, 2011)
 -----------------------------------------------
 Center     Atomic      CM5         Hirshfeld
 Number     Number      Charge      Charge
 -----------------------------------------------
    1          8       -0.378467   -0.187164
    2          6        0.111929    0.095079
    3          6       -0.085421   -0.034986
    4          6       -0.062939   -0.007873
    5          6       -0.080280   -0.028666
    6          6       -0.017479   -0.015621
    7          6        0.173615    0.142241
    8          8       -0.300660   -0.253262
    9          6       -0.057184   -0.007357
   10          6       -0.059052   -0.009175
   11          6        0.168155    0.139175
   12          8       -0.300551   -0.232910
   13          6       -0.042904   -0.044578
   14          1        0.319821    0.126775
   15          1        0.119654    0.060534
   16          1        0.120032    0.064108
   17          1        0.112326    0.051863
   18          1        0.128416    0.069673
   19          1        0.129450    0.070604
 -----------------------------------------------

 Dipole moment (in Debye)
 -----------------------------------------------
                 X        Y        Z     Total
 -----------------------------------------------
 CM5         -0.1906  -0.4492  -0.0417   0.4897
 Hirshfeld    0.2721  -0.5378   0.0102   0.6029
 -----------------------------------------------

   12    -610.5164814602      1.69e-07  
Hirshfeld: reading atomic densities from disk.

 Charges (in A.U.) from CM5PAC (Nov. 11, 2011)
 -----------------------------------------------
 Center     Atomic      CM5         Hirshfeld
 Number     Number      Charge      Charge
 -----------------------------------------------
    1          8       -0.378468   -0.187166
    2          6        0.111928    0.095078
    3          6       -0.085424   -0.034989
    4          6       -0.062937   -0.007871
    5          6       -0.080280   -0.028666
    6          6       -0.017479   -0.015620
    7          6        0.173614    0.142241
    8          8       -0.300662   -0.253264
    9          6       -0.057182   -0.007355
   10          6       -0.059050   -0.009172
   11          6        0.168156    0.139175
   12          8       -0.300549   -0.232908
   13          6       -0.042905   -0.044578
   14          1        0.319822    0.126775
   15          1        0.119654    0.060535
   16          1        0.120032    0.064108
   17          1        0.112326    0.051863
   18          1        0.128415    0.069672
   19          1        0.129450    0.070603
 -----------------------------------------------

 Dipole moment (in Debye)
 -----------------------------------------------
                 X        Y        Z     Total
 -----------------------------------------------
 CM5         -0.1907  -0.4492  -0.0417   0.4897
 Hirshfeld    0.2721  -0.5378   0.0102   0.6028
 -----------------------------------------------

   13    -610.5164814286      3.51e-08  
Hirshfeld: reading atomic densities from disk.

 Charges (in A.U.) from CM5PAC (Nov. 11, 2011)
 -----------------------------------------------
 Center     Atomic      CM5         Hirshfeld
 Number     Number      Charge      Charge
 -----------------------------------------------
    1          8       -0.378468   -0.187165
    2          6        0.111928    0.095078
    3          6       -0.085423   -0.034988
    4          6       -0.062938   -0.007873
    5          6       -0.080280   -0.028666
    6          6       -0.017479   -0.015620
    7          6        0.173615    0.142241
    8          8       -0.300662   -0.253264
    9          6       -0.057183   -0.007356
   10          6       -0.059050   -0.009172
   11          6        0.168156    0.139176
   12          8       -0.300549   -0.232908
   13          6       -0.042905   -0.044578
   14          1        0.319821    0.126775
   15          1        0.119654    0.060534
   16          1        0.120032    0.064108
   17          1        0.112326    0.051863
   18          1        0.128415    0.069672
   19          1        0.129450    0.070603
 -----------------------------------------------

 Dipole moment (in Debye)
 -----------------------------------------------
                 X        Y        Z     Total
 -----------------------------------------------
 CM5         -0.1906  -0.4492  -0.0417   0.4897
 Hirshfeld    0.2721  -0.5378   0.0102   0.6028
 -----------------------------------------------

   14    -610.5164813753      1.21e-08  
   15    -610.5164813993      3.06e-09  Convergence criterion met
 ---------------------------------------
 SCF time:   CPU 1669.78s  wall 210.00s 
(1)  E-EN(liq) elect-nuc energy of solute               -610.516481399 a.u.
(2)  G-P(liq) polarization free energy of solvation            -4.0838 kcal/mol
(3)  G-ENP(liq) elect-nuc-pol free energy of system     -610.522989374 a.u.
(4)  G-CDS(liq) cavity-dispersion-solvent structure 
     free energy                                               -8.3513 kcal/mol
(5)  G-P-CDS(liq) = G-P(liq) + G-CDS(liq) = (2) + (4)         -12.4352 kcal/mol
(6)  G-S(liq) free energy of system = (1) + (5)         -610.536298076 a.u.
 SCF   energy in the final basis set =     -610.5362980763
 Total energy in the final basis set =     -610.5362980763
 
 --------------------------------------------------------------
 
                    Orbital Energies (a.u.)
 --------------------------------------------------------------
 
 Alpha MOs
 -- Occupied --
-19.1672 -19.1457 -19.1352 -10.2918 -10.2845 -10.2712 -10.2139 -10.2135
-10.2129 -10.2105 -10.2045 -10.1980 -10.1970  -1.0957  -1.0676  -1.0661
 -0.8919  -0.8441  -0.7840  -0.7750  -0.7061  -0.6627  -0.6527  -0.6090
 -0.5480  -0.5435  -0.5382  -0.5099  -0.4838  -0.4687  -0.4659  -0.4643
 -0.4370  -0.4314  -0.4292  -0.4171  -0.4081  -0.3946  -0.3805  -0.3607
 -0.3123  -0.2963  -0.2871  -0.2799  -0.2545
 -- Virtual --
 -0.1319  -0.0521  -0.0386   0.0034   0.0137   0.0179   0.0237   0.0268
  0.0418   0.0451   0.0479   0.0560   0.0628   0.0681   0.0752   0.0764
  0.0848   0.0934   0.1022   0.1083   0.1086   0.1160   0.1214   0.1270
  0.1300   0.1376   0.1378   0.1451   0.1466   0.1473   0.1496   0.1509
  0.1562   0.1628   0.1651   0.1836   0.1843   0.1928   0.1986   0.2028
  0.2060   0.2074   0.2133   0.2188   0.2265   0.2343   0.2412   0.2443
  0.2569   0.2581   0.2690   0.2706   0.2730   0.2743   0.2775   0.2807
  0.2942   0.2976   0.3043   0.3082   0.3143   0.3150   0.3207   0.3283
  0.3327   0.3350   0.3492   0.3543   0.3670   0.3763   0.3807   0.3913
  0.4060   0.4100   0.4233   0.4591   0.4671   0.4922   0.5081   0.5136
  0.5214   0.5296   0.5304   0.5476   0.5691   0.5813   0.5837   0.5902
  0.6001   0.6070   0.6116   0.6143   0.6278   0.6284   0.6357   0.6462
  0.6584   0.6737   0.6760   0.7131   0.7244   0.7291   0.7561   0.7654
  0.7782   0.7853   0.8065   0.8242   0.8419   0.8499   0.8559   0.8617
  0.8798   0.8845   0.8939   0.9070   0.9158   0.9258   0.9419   0.9690
  0.9706   0.9928   1.0131   1.0173   1.0269   1.0333   1.0579   1.0646
  1.0754   1.0925   1.1035   1.1123   1.1170   1.1306   1.1747   1.1900
  1.2117   1.2139   1.2205   1.2273   1.2538   1.2809   1.2998   1.3042
  1.3476   1.4113   1.4185   1.4441   1.4697   1.4768   1.4916   1.5050
  1.5303   1.5308   1.5555   1.5643   1.5648   1.6241   1.6306   1.6476
  1.6481   1.6758   1.7075   1.7169   1.7300   1.7442   1.7472   1.7821
  1.7853   1.7939   1.8506   1.8745   1.8869   1.8972   1.9043   1.9159
  1.9224   1.9346   1.9473   1.9766   1.9882   1.9981   2.0221   2.0363
  2.0542   2.0746   2.0838   2.1459   2.1683   2.1986   2.2457   2.2731
  2.2937   2.3249   2.3717   2.4230   2.4360   2.4833   2.5382   2.5668
  2.5853   2.5903   2.6235   2.6814   2.6928   2.6949   2.7078   2.7209
  2.7310   2.7317   2.7366   2.7522   2.7590   2.7785   2.8024   2.8179
  2.8202   2.8252   2.8413   2.9063   2.9240   2.9289   2.9934   3.0423
  3.0586   3.0702   3.0871   3.1121   3.1684   3.1771   3.1859   3.2004
  3.2161   3.2822   3.3026   3.3405   3.3520   3.3887   3.4463   3.4994
  3.5081   3.5204   3.5752   3.6109   3.6471   3.6610   3.7363   3.8265
  3.9121   4.0215   4.0367   4.0798   4.1231   4.1833   4.2232   4.3264
  4.7009   4.8246   4.9918   5.0192   5.0437   5.2138   5.2601   5.4589
  5.7100   5.7799   5.7956  23.5457  23.7372  23.8471  23.8855  23.8940
 23.9227  23.9961  24.0679  24.1602  24.2199  49.9627  49.9973  50.0415
 --------------------------------------------------------------
 
          Ground-State Mulliken Net Atomic Charges

     Atom                 Charge (a.u.)
  ----------------------------------------
      1 O                    -0.323716
      2 C                    -0.788431
      3 C                     0.217145
      4 C                     0.387896
      5 C                    -0.130758
      6 C                     0.111143
      7 C                    -1.062597
      8 O                    -0.327221
      9 C                     0.628302
     10 C                     0.723381
     11 C                    -0.842965
     12 O                    -0.377452
     13 C                     0.016131
     14 H                     0.298868
     15 H                     0.256844
     16 H                     0.353276
     17 H                     0.183683
     18 H                     0.329768
     19 H                     0.346704
  ----------------------------------------
  Sum of atomic charges =     0.000000

 -----------------------------------------------------------------
                    Cartesian Multipole Moments
 -----------------------------------------------------------------
    Charge (ESU x 10^10)
                 0.0000
    Dipole Moment (Debye)
         X       0.0882      Y      -0.6406      Z      -0.0163
       Tot       0.6469
    Quadrupole Moments (Debye-Ang)
        XX     -71.2896     XY     -15.6600     YY     -79.0965
        XZ      -0.1462     YZ      -2.0379     ZZ     -75.6711
    Octopole Moments (Debye-Ang^2)
       XXX      11.1489    XXY       8.5605    XYY      20.7348
       YYY     -42.3451    XXZ       1.0109    XYZ       2.2163
       YYZ       1.0030    XZZ       3.1025    YZZ      -3.2590
       ZZZ       0.6343
    Hexadecapole Moments (Debye-Ang^3)
      XXXX   -1382.0909   XXXY    -138.3061   XXYY    -443.3726
      XYYY     -62.4265   YYYY   -1198.0126   XXXZ     -75.7262
      XXYZ     -26.3607   XYYZ     -31.0653   YYYZ     -31.2086
      XXZZ    -270.5458   XYZZ       6.6989   YYZZ    -218.2098
      XZZZ     -85.5489   YZZZ     -20.8497   ZZZZ    -103.5548
 -----------------------------------------------------------------
 Total job time:  216.13s(wall), 1674.91s(cpu) 
 Sat Feb  3 13:18:55 2024

        *************************************************************
        *                                                           *
        *  Thank you very much for using Q-Chem.  Have a nice day.  *
        *                                                           *
        *************************************************************


