 Entering Gaussian System, Link 0=g16
 Input=211-rad.com
 Output=211-rad.log
 Initial command:
 /sysapps/ubuntu-applications/gaussian/Gaussian/AVX2/g16/l1.exe "/scratch/selhajj1/4261104/Gau-3830594.inp" -scrdir="/scratch/selhajj1/4261104/"
 Entering Link 1 = /sysapps/ubuntu-applications/gaussian/Gaussian/AVX2/g16/l1.exe PID=   3830599.
  
 Copyright (c) 1988,1990,1992,1993,1995,1998,2003,2009,2016,
            Gaussian, Inc.  All Rights Reserved.
  
 This is part of the Gaussian(R) 16 program.  It is based on
 the Gaussian(R) 09 system (copyright 2009, Gaussian, Inc.),
 the Gaussian(R) 03 system (copyright 2003, Gaussian, Inc.),
 the Gaussian(R) 98 system (copyright 1998, Gaussian, Inc.),
 the Gaussian(R) 94 system (copyright 1995, Gaussian, Inc.),
 the Gaussian 92(TM) system (copyright 1992, Gaussian, Inc.),
 the Gaussian 90(TM) system (copyright 1990, Gaussian, Inc.),
 the Gaussian 88(TM) system (copyright 1988, Gaussian, Inc.),
 the Gaussian 86(TM) system (copyright 1986, Carnegie Mellon
 University), and the Gaussian 82(TM) system (copyright 1983,
 Carnegie Mellon University). Gaussian is a federally registered
 trademark of Gaussian, Inc.
  
 This software contains proprietary and confidential information,
 including trade secrets, belonging to Gaussian, Inc.
  
 This software is provided under written license and may be
 used, copied, transmitted, or stored only in accord with that
 written license.
  
 The following legend is applicable only to US Government
 contracts under FAR:
  
                    RESTRICTED RIGHTS LEGEND
  
 Use, reproduction and disclosure by the US Government is
 subject to restrictions as set forth in subparagraphs (a)
 and (c) of the Commercial Computer Software - Restricted
 Rights clause in FAR 52.227-19.
  
 Gaussian, Inc.
 340 Quinnipiac St., Bldg. 40, Wallingford CT 06492
  
  
 ---------------------------------------------------------------
 Warning -- This program may not be used in any manner that
 competes with the business of Gaussian, Inc. or will provide
 assistance to any competitor of Gaussian, Inc.  The licensee
 of this program is prohibited from giving any competitor of
 Gaussian, Inc. access to this program.  By using this program,
 the user acknowledges that Gaussian, Inc. is engaged in the
 business of creating and licensing software in the field of
 computational chemistry and represents and warrants to the
 licensee that it is not a competitor of Gaussian, Inc. and that
 it will not use this program in any manner prohibited above.
 ---------------------------------------------------------------
  

 Cite this work as:
 Gaussian 16, Revision A.03,
 M. J. Frisch, G. W. Trucks, H. B. Schlegel, G. E. Scuseria, 
 M. A. Robb, J. R. Cheeseman, G. Scalmani, V. Barone, 
 G. A. Petersson, H. Nakatsuji, X. Li, M. Caricato, A. V. Marenich, 
 J. Bloino, B. G. Janesko, R. Gomperts, B. Mennucci, H. P. Hratchian, 
 J. V. Ortiz, A. F. Izmaylov, J. L. Sonnenberg, D. Williams-Young, 
 F. Ding, F. Lipparini, F. Egidi, J. Goings, B. Peng, A. Petrone, 
 T. Henderson, D. Ranasinghe, V. G. Zakrzewski, J. Gao, N. Rega, 
 G. Zheng, W. Liang, M. Hada, M. Ehara, K. Toyota, R. Fukuda, 
 J. Hasegawa, M. Ishida, T. Nakajima, Y. Honda, O. Kitao, H. Nakai, 
 T. Vreven, K. Throssell, J. A. Montgomery, Jr., J. E. Peralta, 
 F. Ogliaro, M. J. Bearpark, J. J. Heyd, E. N. Brothers, K. N. Kudin, 
 V. N. Staroverov, T. A. Keith, R. Kobayashi, J. Normand, 
 K. Raghavachari, A. P. Rendell, J. C. Burant, S. S. Iyengar, 
 J. Tomasi, M. Cossi, J. M. Millam, M. Klene, C. Adamo, R. Cammi, 
 J. W. Ochterski, R. L. Martin, K. Morokuma, O. Farkas, 
 J. B. Foresman, and D. J. Fox, Gaussian, Inc., Wallingford CT, 2016.
 
 ******************************************
 Gaussian 16:  ES64L-G16RevA.03 25-Dec-2016
                 7-Jan-2024 
 ******************************************
 %chk=211-rad.chk
 %nproc=8
 Will use up to    8 processors via shared memory.
 %mem=30GB
 --------------------------------------
 #P UB3LYP/6-311++G(d,p) nosym opt freq
 --------------------------------------
 1/18=20,19=15,26=3,38=1/1,3;
 2/9=110,12=2,15=1,17=6,18=5,40=1/2;
 3/5=4,6=6,7=1111,11=2,25=1,30=1,71=1,74=-5,116=2/1,2,3;
 4//1;
 5/5=2,38=5/2;
 6/7=2,8=2,9=2,10=2,28=1/1;
 7/30=1/1,2,3,16;
 1/18=20,19=15,26=3/3(2);
 2/9=110,15=1/2;
 99//99;
 2/9=110,15=1/2;
 3/5=4,6=6,7=1111,11=2,25=1,30=1,71=1,74=-5,116=2/1,2,3;
 4/5=5,16=3,69=1/1;
 5/5=2,38=5/2;
 7/30=1/1,2,3,16;
 1/18=20,19=15,26=3/3(-5);
 2/9=110,15=1/2;
 6/7=2,8=2,9=2,10=2,19=2,28=1/1;
 99/9=1/99;
 Leave Link    1 at Sun Jan  7 06:38:00 2024, MaxMem=  4026531840 cpu:               1.3 elap:               0.3
 (Enter /sysapps/ubuntu-applications/gaussian/Gaussian/AVX2/g16/l101.exe)
 -------
 Radical
 -------
 Symbolic Z-matrix:
 Charge = -1 Multiplicity = 2
 C                     5.26278  -2.32701   0.37234 
 C                     6.01944  -1.50127  -0.43789 
 C                     5.38508  -0.60527  -1.3219 
 C                     3.85274  -2.29273   0.3339 
 C                     3.21941  -1.39181  -0.55488 
 C                     4.00503  -0.55635  -1.37461 
 C                     3.09664  -3.19715   1.22142 
 C                     1.63759  -3.13151   1.15261 
 C                     1.01591  -2.21812   0.25179 
 C                     1.75882  -1.31971  -0.63057 
 C                     0.78174  -3.97365   1.97902 
 C                    -0.64202  -3.86312   1.86631 
 C                    -0.40148  -2.1445    0.17546 
 C                    -1.20682  -2.92884   0.94527 
 O                     3.73353  -3.96954   1.98467 
 O                     1.18357  -0.52559  -1.41357 
 H                     5.72525  -3.0245    1.06035 
 H                     7.10384  -1.54253  -0.39369 
 H                     5.9797    0.04332  -1.95833 
 H                    -2.28839  -2.8561    0.87073 
 H                     3.48486   0.12049  -2.04253 
 H                    -0.81181  -1.43029  -0.52865 
 C                    -1.48371  -4.67431   2.66227 
 C                    -0.95644  -5.58177   3.5567 
 C                     0.43341  -5.70655   3.68329 
 C                     1.27456  -4.92311   2.91467 
 O                    -1.74828  -6.39167   4.3515 
 H                    -2.56199  -4.56992   2.55655 
 H                     0.83575  -6.42371   4.3901 
 H                     2.34527  -5.01812   3.0111 
 H                    -2.67076  -6.19761   4.15799 
 
 ITRead=  0  0  0  0  0  0  0  0  0  0  0  0  0  0  0  0  0  0  0  0
 ITRead=  0  0  0  0  0  0  0  0  0  0  0
 MicOpt= -1 -1 -1 -1 -1 -1 -1 -1 -1 -1 -1 -1 -1 -1 -1 -1 -1 -1 -1 -1
 MicOpt= -1 -1 -1 -1 -1 -1 -1 -1 -1 -1 -1
 NAtoms=     31 NQM=       31 NQMF=       0 NMMI=      0 NMMIF=      0
                NMic=       0 NMicF=      0.
                    Isotopes and Nuclear Properties:
 (Nuclear quadrupole moments (NQMom) in fm**2, nuclear magnetic moments (NMagM)
  in nuclear magnetons)

  Atom         1           2           3           4           5           6           7           8           9          10
 IAtWgt=          12          12          12          12          12          12          12          12          12          12
 AtmWgt=  12.0000000  12.0000000  12.0000000  12.0000000  12.0000000  12.0000000  12.0000000  12.0000000  12.0000000  12.0000000
 NucSpn=           0           0           0           0           0           0           0           0           0           0
 AtZEff=  -0.0000000  -0.0000000  -0.0000000  -0.0000000  -0.0000000  -0.0000000  -0.0000000  -0.0000000  -0.0000000  -0.0000000
 NQMom=    0.0000000   0.0000000   0.0000000   0.0000000   0.0000000   0.0000000   0.0000000   0.0000000   0.0000000   0.0000000
 NMagM=    0.0000000   0.0000000   0.0000000   0.0000000   0.0000000   0.0000000   0.0000000   0.0000000   0.0000000   0.0000000
 AtZNuc=   6.0000000   6.0000000   6.0000000   6.0000000   6.0000000   6.0000000   6.0000000   6.0000000   6.0000000   6.0000000

  Atom        11          12          13          14          15          16          17          18          19          20
 IAtWgt=          12          12          12          12          16          16           1           1           1           1
 AtmWgt=  12.0000000  12.0000000  12.0000000  12.0000000  15.9949146  15.9949146   1.0078250   1.0078250   1.0078250   1.0078250
 NucSpn=           0           0           0           0           0           0           1           1           1           1
 AtZEff=  -0.0000000  -0.0000000  -0.0000000  -0.0000000  -0.0000000  -0.0000000  -0.0000000  -0.0000000  -0.0000000  -0.0000000
 NQMom=    0.0000000   0.0000000   0.0000000   0.0000000   0.0000000   0.0000000   0.0000000   0.0000000   0.0000000   0.0000000
 NMagM=    0.0000000   0.0000000   0.0000000   0.0000000   0.0000000   0.0000000   2.7928460   2.7928460   2.7928460   2.7928460
 AtZNuc=   6.0000000   6.0000000   6.0000000   6.0000000   8.0000000   8.0000000   1.0000000   1.0000000   1.0000000   1.0000000

  Atom        21          22          23          24          25          26          27          28          29          30
 IAtWgt=           1           1          12          12          12          12          16           1           1           1
 AtmWgt=   1.0078250   1.0078250  12.0000000  12.0000000  12.0000000  12.0000000  15.9949146   1.0078250   1.0078250   1.0078250
 NucSpn=           1           1           0           0           0           0           0           1           1           1
 AtZEff=  -0.0000000  -0.0000000  -0.0000000  -0.0000000  -0.0000000  -0.0000000  -0.0000000  -0.0000000  -0.0000000  -0.0000000
 NQMom=    0.0000000   0.0000000   0.0000000   0.0000000   0.0000000   0.0000000   0.0000000   0.0000000   0.0000000   0.0000000
 NMagM=    2.7928460   2.7928460   0.0000000   0.0000000   0.0000000   0.0000000   0.0000000   2.7928460   2.7928460   2.7928460
 AtZNuc=   1.0000000   1.0000000   6.0000000   6.0000000   6.0000000   6.0000000   8.0000000   1.0000000   1.0000000   1.0000000

  Atom        31
 IAtWgt=           1
 AtmWgt=   1.0078250
 NucSpn=           1
 AtZEff=  -0.0000000
 NQMom=    0.0000000
 NMagM=    2.7928460
 AtZNuc=   1.0000000
 Leave Link  101 at Sun Jan  7 06:38:00 2024, MaxMem=  4026531840 cpu:               3.7 elap:               0.6
 (Enter /sysapps/ubuntu-applications/gaussian/Gaussian/AVX2/g16/l103.exe)

 GradGradGradGradGradGradGradGradGradGradGradGradGradGradGradGradGradGrad
 Berny optimization.
 Initialization pass.
                           ----------------------------
                           !    Initial Parameters    !
                           ! (Angstroms and Degrees)  !
 --------------------------                            --------------------------
 ! Name  Definition              Value          Derivative Info.                !
 --------------------------------------------------------------------------------
 ! R1    R(1,2)                  1.3823         estimate D2E/DX2                !
 ! R2    R(1,4)                  1.411          estimate D2E/DX2                !
 ! R3    R(1,17)                 1.0834         estimate D2E/DX2                !
 ! R4    R(2,3)                  1.4095         estimate D2E/DX2                !
 ! R5    R(2,18)                 1.0861         estimate D2E/DX2                !
 ! R6    R(3,6)                  1.3819         estimate D2E/DX2                !
 ! R7    R(3,19)                 1.0859         estimate D2E/DX2                !
 ! R8    R(4,5)                  1.4152         estimate D2E/DX2                !
 ! R9    R(4,7)                  1.4756         estimate D2E/DX2                !
 ! R10   R(5,6)                  1.4097         estimate D2E/DX2                !
 ! R11   R(5,10)                 1.4643         estimate D2E/DX2                !
 ! R12   R(6,21)                 1.0839         estimate D2E/DX2                !
 ! R13   R(7,8)                  1.4621         estimate D2E/DX2                !
 ! R14   R(7,15)                 1.2589         estimate D2E/DX2                !
 ! R15   R(8,9)                  1.4256         estimate D2E/DX2                !
 ! R16   R(8,11)                 1.4576         estimate D2E/DX2                !
 ! R17   R(9,10)                 1.4621         estimate D2E/DX2                !
 ! R18   R(9,13)                 1.4213         estimate D2E/DX2                !
 ! R19   R(10,16)                1.2548         estimate D2E/DX2                !
 ! R20   R(11,12)                1.4325         estimate D2E/DX2                !
 ! R21   R(11,26)                1.4212         estimate D2E/DX2                !
 ! R22   R(12,14)                1.4284         estimate D2E/DX2                !
 ! R23   R(12,23)                1.4142         estimate D2E/DX2                !
 ! R24   R(13,14)                1.3625         estimate D2E/DX2                !
 ! R25   R(13,22)                1.0836         estimate D2E/DX2                !
 ! R26   R(14,20)                1.0866         estimate D2E/DX2                !
 ! R27   R(23,24)                1.379          estimate D2E/DX2                !
 ! R28   R(23,28)                1.0885         estimate D2E/DX2                !
 ! R29   R(24,25)                1.4012         estimate D2E/DX2                !
 ! R30   R(24,27)                1.3837         estimate D2E/DX2                !
 ! R31   R(25,26)                1.3828         estimate D2E/DX2                !
 ! R32   R(25,29)                1.0843         estimate D2E/DX2                !
 ! R33   R(26,30)                1.0792         estimate D2E/DX2                !
 ! R34   R(27,31)                0.9623         estimate D2E/DX2                !
 ! A1    A(2,1,4)              121.1001         estimate D2E/DX2                !
 ! A2    A(2,1,17)             121.5436         estimate D2E/DX2                !
 ! A3    A(4,1,17)             117.3563         estimate D2E/DX2                !
 ! A4    A(1,2,3)              120.0651         estimate D2E/DX2                !
 ! A5    A(1,2,18)             119.9989         estimate D2E/DX2                !
 ! A6    A(3,2,18)             119.9359         estimate D2E/DX2                !
 ! A7    A(2,3,6)              119.7275         estimate D2E/DX2                !
 ! A8    A(2,3,19)             120.0531         estimate D2E/DX2                !
 ! A9    A(6,3,19)             120.2194         estimate D2E/DX2                !
 ! A10   A(1,4,5)              118.6728         estimate D2E/DX2                !
 ! A11   A(1,4,7)              118.7371         estimate D2E/DX2                !
 ! A12   A(5,4,7)              122.5901         estimate D2E/DX2                !
 ! A13   A(4,5,6)              119.5443         estimate D2E/DX2                !
 ! A14   A(4,5,10)             120.677          estimate D2E/DX2                !
 ! A15   A(6,5,10)             119.7787         estimate D2E/DX2                !
 ! A16   A(3,6,5)              120.8902         estimate D2E/DX2                !
 ! A17   A(3,6,21)             121.66           estimate D2E/DX2                !
 ! A18   A(5,6,21)             117.4498         estimate D2E/DX2                !
 ! A19   A(4,7,8)              117.0972         estimate D2E/DX2                !
 ! A20   A(4,7,15)             118.783          estimate D2E/DX2                !
 ! A21   A(8,7,15)             124.1198         estimate D2E/DX2                !
 ! A22   A(7,8,9)              119.5822         estimate D2E/DX2                !
 ! A23   A(7,8,11)             122.2286         estimate D2E/DX2                !
 ! A24   A(9,8,11)             118.1891         estimate D2E/DX2                !
 ! A25   A(8,9,10)             123.6056         estimate D2E/DX2                !
 ! A26   A(8,9,13)             120.1322         estimate D2E/DX2                !
 ! A27   A(10,9,13)            116.2622         estimate D2E/DX2                !
 ! A28   A(5,10,9)             116.4478         estimate D2E/DX2                !
 ! A29   A(5,10,16)            121.3774         estimate D2E/DX2                !
 ! A30   A(9,10,16)            122.1748         estimate D2E/DX2                !
 ! A31   A(8,11,12)            119.6298         estimate D2E/DX2                !
 ! A32   A(8,11,26)            123.7545         estimate D2E/DX2                !
 ! A33   A(12,11,26)           116.6158         estimate D2E/DX2                !
 ! A34   A(11,12,14)           119.6183         estimate D2E/DX2                !
 ! A35   A(11,12,23)           120.1983         estimate D2E/DX2                !
 ! A36   A(14,12,23)           120.1834         estimate D2E/DX2                !
 ! A37   A(9,13,14)            121.957          estimate D2E/DX2                !
 ! A38   A(9,13,22)            116.5281         estimate D2E/DX2                !
 ! A39   A(14,13,22)           121.5149         estimate D2E/DX2                !
 ! A40   A(12,14,13)           120.4736         estimate D2E/DX2                !
 ! A41   A(12,14,20)           118.7912         estimate D2E/DX2                !
 ! A42   A(13,14,20)           120.7352         estimate D2E/DX2                !
 ! A43   A(12,23,24)           120.9949         estimate D2E/DX2                !
 ! A44   A(12,23,28)           118.6799         estimate D2E/DX2                !
 ! A45   A(24,23,28)           120.3251         estimate D2E/DX2                !
 ! A46   A(23,24,25)           119.7678         estimate D2E/DX2                !
 ! A47   A(23,24,27)           122.6114         estimate D2E/DX2                !
 ! A48   A(25,24,27)           117.6208         estimate D2E/DX2                !
 ! A49   A(24,25,26)           120.1798         estimate D2E/DX2                !
 ! A50   A(24,25,29)           119.0674         estimate D2E/DX2                !
 ! A51   A(26,25,29)           120.7528         estimate D2E/DX2                !
 ! A52   A(11,26,25)           122.2433         estimate D2E/DX2                !
 ! A53   A(11,26,30)           117.4946         estimate D2E/DX2                !
 ! A54   A(25,26,30)           120.2621         estimate D2E/DX2                !
 ! A55   A(24,27,31)           108.3625         estimate D2E/DX2                !
 ! D1    D(4,1,2,3)              0.0            estimate D2E/DX2                !
 ! D2    D(4,1,2,18)          -179.9995         estimate D2E/DX2                !
 ! D3    D(17,1,2,3)           179.9983         estimate D2E/DX2                !
 ! D4    D(17,1,2,18)           -0.0012         estimate D2E/DX2                !
 ! D5    D(2,1,4,5)             -0.0022         estimate D2E/DX2                !
 ! D6    D(2,1,4,7)            179.995          estimate D2E/DX2                !
 ! D7    D(17,1,4,5)           179.9995         estimate D2E/DX2                !
 ! D8    D(17,1,4,7)            -0.0034         estimate D2E/DX2                !
 ! D9    D(1,2,3,6)              0.0012         estimate D2E/DX2                !
 ! D10   D(1,2,3,19)          -179.999          estimate D2E/DX2                !
 ! D11   D(18,2,3,6)          -179.9993         estimate D2E/DX2                !
 ! D12   D(18,2,3,19)            0.0006         estimate D2E/DX2                !
 ! D13   D(2,3,6,5)             -0.0002         estimate D2E/DX2                !
 ! D14   D(2,3,6,21)          -179.9998         estimate D2E/DX2                !
 ! D15   D(19,3,6,5)           179.9999         estimate D2E/DX2                !
 ! D16   D(19,3,6,21)            0.0003         estimate D2E/DX2                !
 ! D17   D(1,4,5,6)              0.0031         estimate D2E/DX2                !
 ! D18   D(1,4,5,10)          -179.9954         estimate D2E/DX2                !
 ! D19   D(7,4,5,6)           -179.994          estimate D2E/DX2                !
 ! D20   D(7,4,5,10)             0.0075         estimate D2E/DX2                !
 ! D21   D(1,4,7,8)            179.9798         estimate D2E/DX2                !
 ! D22   D(1,4,7,15)             0.0382         estimate D2E/DX2                !
 ! D23   D(5,4,7,8)             -0.0232         estimate D2E/DX2                !
 ! D24   D(5,4,7,15)          -179.9648         estimate D2E/DX2                !
 ! D25   D(4,5,6,3)             -0.0019         estimate D2E/DX2                !
 ! D26   D(4,5,6,21)           179.9977         estimate D2E/DX2                !
 ! D27   D(10,5,6,3)           179.9966         estimate D2E/DX2                !
 ! D28   D(10,5,6,21)           -0.0038         estimate D2E/DX2                !
 ! D29   D(4,5,10,9)             0.0154         estimate D2E/DX2                !
 ! D30   D(4,5,10,16)          179.9821         estimate D2E/DX2                !
 ! D31   D(6,5,10,9)          -179.9831         estimate D2E/DX2                !
 ! D32   D(6,5,10,16)           -0.0164         estimate D2E/DX2                !
 ! D33   D(4,7,8,9)              0.0152         estimate D2E/DX2                !
 ! D34   D(4,7,8,11)          -179.9847         estimate D2E/DX2                !
 ! D35   D(15,7,8,9)           179.9534         estimate D2E/DX2                !
 ! D36   D(15,7,8,11)           -0.0465         estimate D2E/DX2                !
 ! D37   D(7,8,9,10)             0.0079         estimate D2E/DX2                !
 ! D38   D(7,8,9,13)          -179.9929         estimate D2E/DX2                !
 ! D39   D(11,8,9,10)         -179.9922         estimate D2E/DX2                !
 ! D40   D(11,8,9,13)            0.007          estimate D2E/DX2                !
 ! D41   D(7,8,11,12)          179.994          estimate D2E/DX2                !
 ! D42   D(7,8,11,26)           -0.0098         estimate D2E/DX2                !
 ! D43   D(9,8,11,12)           -0.0059         estimate D2E/DX2                !
 ! D44   D(9,8,11,26)          179.9903         estimate D2E/DX2                !
 ! D45   D(8,9,10,5)            -0.0234         estimate D2E/DX2                !
 ! D46   D(8,9,10,16)         -179.9898         estimate D2E/DX2                !
 ! D47   D(13,9,10,5)          179.9773         estimate D2E/DX2                !
 ! D48   D(13,9,10,16)           0.0109         estimate D2E/DX2                !
 ! D49   D(8,9,13,14)           -0.0028         estimate D2E/DX2                !
 ! D50   D(8,9,13,22)          179.9977         estimate D2E/DX2                !
 ! D51   D(10,9,13,14)         179.9965         estimate D2E/DX2                !
 ! D52   D(10,9,13,22)          -0.003          estimate D2E/DX2                !
 ! D53   D(8,11,12,14)           0.0006         estimate D2E/DX2                !
 ! D54   D(8,11,12,23)         179.9986         estimate D2E/DX2                !
 ! D55   D(26,11,12,14)       -179.9959         estimate D2E/DX2                !
 ! D56   D(26,11,12,23)          0.0021         estimate D2E/DX2                !
 ! D57   D(8,11,26,25)        -179.9974         estimate D2E/DX2                !
 ! D58   D(8,11,26,30)           0.002          estimate D2E/DX2                !
 ! D59   D(12,11,26,25)         -0.0011         estimate D2E/DX2                !
 ! D60   D(12,11,26,30)        179.9983         estimate D2E/DX2                !
 ! D61   D(11,12,14,13)          0.0038         estimate D2E/DX2                !
 ! D62   D(11,12,14,20)       -179.9981         estimate D2E/DX2                !
 ! D63   D(23,12,14,13)       -179.9942         estimate D2E/DX2                !
 ! D64   D(23,12,14,20)          0.0039         estimate D2E/DX2                !
 ! D65   D(11,12,23,24)         -0.0018         estimate D2E/DX2                !
 ! D66   D(11,12,23,28)       -179.9997         estimate D2E/DX2                !
 ! D67   D(14,12,23,24)        179.9962         estimate D2E/DX2                !
 ! D68   D(14,12,23,28)         -0.0017         estimate D2E/DX2                !
 ! D69   D(9,13,14,12)          -0.0028         estimate D2E/DX2                !
 ! D70   D(9,13,14,20)         179.9992         estimate D2E/DX2                !
 ! D71   D(22,13,14,12)        179.9967         estimate D2E/DX2                !
 ! D72   D(22,13,14,20)         -0.0013         estimate D2E/DX2                !
 ! D73   D(12,23,24,25)          0.0003         estimate D2E/DX2                !
 ! D74   D(12,23,24,27)       -179.9993         estimate D2E/DX2                !
 ! D75   D(28,23,24,25)        179.9982         estimate D2E/DX2                !
 ! D76   D(28,23,24,27)         -0.0015         estimate D2E/DX2                !
 ! D77   D(23,24,25,26)          0.0007         estimate D2E/DX2                !
 ! D78   D(23,24,25,29)       -179.9992         estimate D2E/DX2                !
 ! D79   D(27,24,25,26)       -179.9996         estimate D2E/DX2                !
 ! D80   D(27,24,25,29)          0.0005         estimate D2E/DX2                !
 ! D81   D(23,24,27,31)          0.0011         estimate D2E/DX2                !
 ! D82   D(25,24,27,31)       -179.9986         estimate D2E/DX2                !
 ! D83   D(24,25,26,11)         -0.0003         estimate D2E/DX2                !
 ! D84   D(24,25,26,30)       -179.9998         estimate D2E/DX2                !
 ! D85   D(29,25,26,11)        179.9996         estimate D2E/DX2                !
 ! D86   D(29,25,26,30)          0.0001         estimate D2E/DX2                !
 --------------------------------------------------------------------------------
 Trust Radius=3.00D-01 FncErr=1.00D-07 GrdErr=1.00D-06 EigMax=2.50D+02 EigMin=1.00D-04
 Number of steps in this run=    185 maximum allowed number of steps=    186.
 GradGradGradGradGradGradGradGradGradGradGradGradGradGradGradGradGradGrad

 Leave Link  103 at Sun Jan  7 06:38:01 2024, MaxMem=  4026531840 cpu:               0.4 elap:               0.1
 (Enter /sysapps/ubuntu-applications/gaussian/Gaussian/AVX2/g16/l202.exe)
                          Input orientation:                          
 ---------------------------------------------------------------------
 Center     Atomic      Atomic             Coordinates (Angstroms)
 Number     Number       Type             X           Y           Z
 ---------------------------------------------------------------------
      1          6           0        5.262784   -2.327012    0.372335
      2          6           0        6.019441   -1.501274   -0.437891
      3          6           0        5.385083   -0.605274   -1.321902
      4          6           0        3.852740   -2.292732    0.333902
      5          6           0        3.219407   -1.391811   -0.554884
      6          6           0        4.005031   -0.556350   -1.374613
      7          6           0        3.096641   -3.197152    1.221416
      8          6           0        1.637590   -3.131514    1.152605
      9          6           0        1.015906   -2.218115    0.251791
     10          6           0        1.758822   -1.319707   -0.630570
     11          6           0        0.781735   -3.973651    1.979022
     12          6           0       -0.642021   -3.863120    1.866309
     13          6           0       -0.401481   -2.144501    0.175464
     14          6           0       -1.206823   -2.928839    0.945265
     15          8           0        3.733534   -3.969543    1.984674
     16          8           0        1.183566   -0.525593   -1.413572
     17          1           0        5.725248   -3.024503    1.060351
     18          1           0        7.103837   -1.542528   -0.393689
     19          1           0        5.979699    0.043319   -1.958334
     20          1           0       -2.288391   -2.856100    0.870734
     21          1           0        3.484859    0.120485   -2.042531
     22          1           0       -0.811810   -1.430289   -0.528646
     23          6           0       -1.483714   -4.674309    2.662266
     24          6           0       -0.956442   -5.581770    3.556699
     25          6           0        0.433407   -5.706545    3.683291
     26          6           0        1.274556   -4.923107    2.914673
     27          8           0       -1.748282   -6.391668    4.351502
     28          1           0       -2.561992   -4.569919    2.556545
     29          1           0        0.835745   -6.423709    4.390100
     30          1           0        2.345273   -5.018121    3.011099
     31          1           0       -2.670760   -6.197615    4.157987
 ---------------------------------------------------------------------
                    Distance matrix (angstroms):
                    1          2          3          4          5
     1  C    0.000000
     2  C    1.382331   0.000000
     3  C    2.418631   1.409504   0.000000
     4  C    1.410984   2.432419   2.817317   0.000000
     5  C    2.430993   2.804614   2.428397   1.415171   0.000000
     6  C    2.787295   2.414162   1.381925   2.440745   1.409665
     7  C    2.484000   3.764580   4.292233   1.475582   2.535660
     8  C    3.794480   4.938419   5.152551   2.506136   2.905896
     9  C    4.249984   5.101459   4.916042   2.839003   2.487754
    10  C    3.781300   4.268837   3.760070   2.502294   1.464321
    11  C    5.037128   6.275961   6.590362   3.868201   4.362204
    12  C    6.281585   7.433891   7.556734   5.001726   5.184609
    13  C    5.670623   6.482144   6.172167   4.259750   3.769719
    14  C    6.522749   7.494662   7.347940   5.135910   4.919798
    15  O    2.763359   4.145666   4.997936   2.356046   3.654912
    16  O    4.803602   5.028876   4.203272   3.647045   2.373252
    17  H    1.083389   2.156735   3.412259   2.137640   3.399104
    18  H    2.142822   1.086080   2.166596   3.414942   3.890693
    19  H    3.400655   2.167739   1.085950   3.903260   3.412987
    20  H    7.586078   8.518693   8.291928   6.190239   5.874723
    21  H    3.870767   3.410143   2.157981   3.406815   2.137896
    22  H    6.206172   6.832223   6.301697   4.821392   4.031486
    23  C    7.501255   8.716448   8.922500   6.290543   6.576032
    24  C    7.707944   9.014995   9.422378   6.658260   7.204067
    25  C    6.760662   8.116170   8.694482   5.879147   6.658893
    26  C    5.395290   6.742593   7.313596   4.497364   5.318865
    27  O    9.028302  10.353345  10.796053   8.019591   8.587731
    28  H    8.427842   9.592926   9.691066   7.160622   7.294240
    29  H    7.247347   8.626156   9.336896   6.528397   7.446792
    30  H    4.766237   6.145181   6.891194   4.107017   5.160472
    31  H    9.604887  10.894829  11.233880   8.510452   8.944326
                    6          7          8          9         10
     6  C    0.000000
     7  C    3.812922   0.000000
     8  C    4.315446   1.462147   0.000000
     9  C    3.787020   2.495625   1.425572   0.000000
    10  C    2.486316   2.957095   2.545006   1.462061   0.000000
    11  C    5.771867   2.556503   1.457617   2.473877   3.848128
    12  C    6.559984   3.851882   2.498249   2.839266   4.297371
    13  C    4.933793   3.799861   2.467146   1.421348   2.448854
    14  C    6.178508   4.320654   2.859152   2.434453   3.723924
    15  O    4.796708   1.258882   2.405746   3.668226   4.214335
    16  O    2.821902   4.211917   3.685407   2.380373   1.254842
    17  H    3.870397   2.639190   4.090099   4.845816   4.636602
    18  H    3.396669   4.626442   5.898793   6.159218   5.354899
    19  H    2.144679   5.378056   6.213809   5.885404   4.629968
    20  H    7.066654   5.407205   3.945710   3.421768   4.581959
    21  H    1.083881   4.670201   4.919024   4.102279   2.654617
    22  H    4.968037   4.632549   3.423497   2.137825   2.575027
    23  C    7.961175   5.023713   3.794974   4.253396   5.710531
    24  C    8.613298   5.250470   4.302607   5.111433   6.562855
    25  C    8.053782   4.410294   3.805944   4.927843   6.293685
    26  C    6.702390   3.027546   2.538992   3.804579   5.078164
    27  O    9.996997   6.593607   5.685567   6.470464   7.927522
    28  H    8.642253   5.973875   4.655808   4.862533   6.276226
    29  H    8.814885   5.055975   4.686457   5.902972   7.218728
    30  H    6.472763   2.661475   2.741186   4.149823   5.223403
    31  H   10.344067   7.133663   6.082366   6.684781   8.145272
                   11         12         13         14         15
    11  C    0.000000
    12  C    1.432481   0.000000
    13  C    2.828182   2.422905   0.000000
    14  C    2.472782   1.428357   1.362481   0.000000
    15  O    2.951807   4.378449   4.868508   5.154664   0.000000
    16  O    4.853892   5.022895   2.767358   4.129608   5.469114
    17  H    5.116948   6.472632   6.252538   6.933686   2.390481
    18  H    7.176983   8.395895   7.550901   8.531221   4.786017
    19  H    7.658828   8.586928   7.075246   8.301247   6.057692
    20  H    3.450057   2.171588   2.133120   1.086570   6.224484
    21  H    6.343636   6.941129   5.015307   6.343278   5.745307
    22  H    3.911071   3.418085   1.083623   2.138715   5.781413
    23  C    2.467793   1.414221   3.708819   2.464026   5.308060
    24  C    2.845412   2.431057   4.853406   3.730995   5.202539
    25  C    2.455359   2.802889   5.068535   4.231169   4.097965
    26  C    1.421190   2.428149   4.246530   3.743383   2.796561
    27  O    4.228056   3.713967   6.106684   4.887414   6.443514
    28  H    3.445225   2.159231   4.027407   2.669429   6.349893
    29  H    3.437877   3.887149   6.132333   5.315363   4.495129
    30  H    2.144936   3.401249   4.882947   4.609789   2.019983
    31  H    4.649046   3.849342   6.118648   4.811402   7.120574
                   16         17         18         19         20
    16  O    0.000000
    17  H    5.743842   0.000000
    18  H    6.092941   2.492186   0.000000
    19  H    4.860383   4.311466   2.495338   0.000000
    20  H    4.764851   8.017651   9.567559   9.207148   0.000000
    21  H    2.471630   4.953602   4.310603   2.497453   7.118819
    22  H    2.362857   6.913722   7.917593   7.095077   2.484249
    23  C    6.398334   7.566844   9.638099   9.965365   2.676374
    24  C    7.405954   7.577358   9.843228  10.496060   4.051885
    25  C    7.306368   6.486659   8.857508   9.780093   4.841869
    26  C    6.170909   5.181879   7.506936   8.399402   4.598347
    27  O    8.731704   8.833070  11.153072  11.872017   4.990762
    28  H    6.793203   8.561849  10.549750  10.706380   2.419502
    29  H    8.281990   6.822688   9.273594  10.420428   5.905421
    30  H    6.411715   4.382255   6.805605   7.970100   5.543134
    31  H    8.835719   9.495101  11.744375  12.295897   4.702974
                   21         22         23         24         25
    21  H    0.000000
    22  H    4.812288   0.000000
    23  C    8.355350   4.599678   0.000000
    24  C    9.142879   5.826299   1.378953   0.000000
    25  C    8.720704   6.130036   2.404861   1.401169   0.000000
    26  C    7.409260   5.330023   2.780946   2.413169   1.382780
    27  O   10.520340   7.021973   2.423394   1.383711   2.382366
    28  H    8.928370   4.736963   1.088466   2.145214   3.396158
    29  H    9.551074   7.200190   3.380192   2.148337   1.084333
    30  H    7.296787   5.947227   3.860186   3.393627   2.140327
    31  H   10.782229   6.938849   2.442687   1.918254   3.178418
                   26         27         28         29         30
    26  C    0.000000
    27  O    3.654955   0.000000
    28  H    3.869380   2.683797   0.000000
    29  H    2.149708   2.584514   4.282882   0.000000
    30  H    1.079241   4.521118   4.948611   2.481128   0.000000
    31  H    4.328478   0.962325   2.286010   3.521445   5.278934
                   31
    31  H    0.000000
 Symmetry turned off by external request.
 Stoichiometry    C18H10O3(1-,2)
 Framework group  C1[X(C18H10O3)]
 Deg. of freedom    87
 Full point group                 C1      NOp   1
 Rotational constants (GHZ):           0.7777271           0.1919467           0.1539509
 Leave Link  202 at Sun Jan  7 06:38:01 2024, MaxMem=  4026531840 cpu:               0.5 elap:               0.1
 (Enter /sysapps/ubuntu-applications/gaussian/Gaussian/AVX2/g16/l301.exe)
 Standard basis: 6-311++G(d,p) (5D, 7F)
 Ernie: Thresh=  0.10000D-02 Tol=  0.10000D-05 Strict=F.
   532 basis functions,   846 primitive gaussians,   553 cartesian basis functions
    72 alpha electrons       71 beta electrons
       nuclear repulsion energy      1492.2743620318 Hartrees.
 IExCor=  402 DFT=T Ex+Corr=B3LYP ExCW=0 ScaHFX=  0.200000
 ScaDFX=  0.800000  0.720000  1.000000  0.810000 ScalE2=  1.000000  1.000000
 IRadAn=      5 IRanWt=     -1 IRanGd=            0 ICorTp=0 IEmpDi=  4
 NAtoms=   31 NActive=   31 NUniq=   31 SFac= 1.00D+00 NAtFMM=   60 NAOKFM=F Big=F
 Integral buffers will be    131072 words long.
 Raffenetti 2 integral format.
 Two-electron integral symmetry is turned off.
 Leave Link  301 at Sun Jan  7 06:38:01 2024, MaxMem=  4026531840 cpu:               0.5 elap:               0.2
 (Enter /sysapps/ubuntu-applications/gaussian/Gaussian/AVX2/g16/l302.exe)
 NPDir=0 NMtPBC=     1 NCelOv=     1 NCel=       1 NClECP=     1 NCelD=      1
         NCelK=      1 NCelE2=     1 NClLst=     1 CellRange=     0.0.
 One-electron integrals computed using PRISM.
 NBasis=   532 RedAO= T EigKep=  1.12D-06  NBF=   532
 NBsUse=   523 1.00D-06 EigRej=  6.40D-07 NBFU=   523
 Precomputing XC quadrature grid using
 IXCGrd= 4 IRadAn=           5 IRanWt=          -1 IRanGd=           0 AccXCQ= 0.00D+00.
 Generated NRdTot=       0 NPtTot=           0 NUsed=           0 NTot=          32
 NSgBfM=   548   548   548   548   548 MxSgAt=    31 MxSgA2=    31.
 Leave Link  302 at Sun Jan  7 06:38:02 2024, MaxMem=  4026531840 cpu:               5.8 elap:               0.8
 (Enter /sysapps/ubuntu-applications/gaussian/Gaussian/AVX2/g16/l303.exe)
 DipDrv:  MaxL=1.
 Leave Link  303 at Sun Jan  7 06:38:02 2024, MaxMem=  4026531840 cpu:               1.5 elap:               0.3
 (Enter /sysapps/ubuntu-applications/gaussian/Gaussian/AVX2/g16/l401.exe)
 ExpMin= 3.60D-02 ExpMax= 8.59D+03 ExpMxC= 1.30D+03 IAcc=3 IRadAn=         5 AccDes= 0.00D+00
 Harris functional with IExCor=  402 and IRadAn=       5 diagonalized for initial guess.
 HarFok:  IExCor=  402 AccDes= 0.00D+00 IRadAn=         5 IDoV= 1 UseB2=F ITyADJ=14
 ICtDFT=  3500011 ScaDFX=  1.000000  1.000000  1.000000  1.000000
 FoFCou: FMM=F IPFlag=           0 FMFlag=      100000 FMFlg1=           0
         NFxFlg=           0 DoJE=T BraDBF=F KetDBF=T FulRan=T
         wScrn=  0.000000 ICntrl=       500 IOpCl=  0 I1Cent=   200000004 NGrid=           0
         NMat0=    1 NMatS0=      1 NMatT0=    0 NMatD0=    1 NMtDS0=    0 NMtDT0=    0
 Symmetry not used in FoFCou.
 Harris En= -918.116716234492    
 JPrj=0 DoOrth=F DoCkMO=F.
 Initial guess <Sx>= 0.0000 <Sy>= 0.0000 <Sz>= 0.5000 <S**2>= 0.7500 S= 0.5000
 Leave Link  401 at Sun Jan  7 06:38:07 2024, MaxMem=  4026531840 cpu:              40.0 elap:               5.2
 (Enter /sysapps/ubuntu-applications/gaussian/Gaussian/AVX2/g16/l502.exe)
 Two-electron integral symmetry not used.
 UHF open shell SCF:
 Using DIIS extrapolation, IDIIS=  1040.
 NGot=  4026531840 LenX=  4025911962 LenY=  4025605600
 Requested convergence on RMS density matrix=1.00D-08 within 128 cycles.
 Requested convergence on MAX density matrix=1.00D-06.
 Requested convergence on             energy=1.00D-06.
 No special actions if energy rises.
 Fock matrices will be formed incrementally for  20 cycles.

 Cycle   1  Pass 1  IDiag  1:
 FoFJK:  IHMeth= 1 ICntrl=       0 DoSepK=F KAlg= 0 I1Cent=           0 FoldK=F
 IRaf= 820000000 NMat=       1 IRICut=       1 DoRegI=T DoRafI=F ISym2E= 0 IDoP0=0 IntGTp=1.
 FoFCou: FMM=F IPFlag=           0 FMFlag=      100000 FMFlg1=           0
         NFxFlg=           0 DoJE=F BraDBF=F KetDBF=F FulRan=T
         wScrn=  0.000000 ICntrl=         0 IOpCl=  1 I1Cent=           0 NGrid=           0
         NMat0=    1 NMatS0=      1 NMatT0=    0 NMatD0=    1 NMtDS0=    0 NMtDT0=    0
 Symmetry not used in FoFCou.
 E= -917.422731583607    
 DIIS: error= 4.00D-02 at cycle   1 NSaved=   1.
 NSaved= 1 IEnMin= 1 EnMin= -917.422731583607     IErMin= 1 ErrMin= 4.00D-02
 ErrMax= 4.00D-02  0.00D+00 EMaxC= 1.00D-01 BMatC= 2.41D+00 BMatP= 2.41D+00
 IDIUse=3 WtCom= 6.00D-01 WtEn= 4.00D-01
 Coeff-Com:  0.100D+01
 Coeff-En:   0.100D+01
 Coeff:      0.100D+01
 Gap=     0.081 Goal=   None    Shift=    0.000
 Gap=     0.155 Goal=   None    Shift=    0.000
 GapD=    0.081 DampG=0.500 DampE=0.500 DampFc=0.2500 IDamp=-1.
 Damping current iteration by 2.50D-01
 RMSDP=9.18D-01 MaxDP=9.44D+01              OVMax= 9.91D-01

 Cycle   2  Pass 1  IDiag  1:
 RMSU=  1.98D-01    CP:  2.81D+00
 E= -917.544738782164     Delta-E=       -0.122007198557 Rises=F Damp=T
 DIIS: error= 2.08D-02 at cycle   2 NSaved=   2.
 NSaved= 2 IEnMin= 2 EnMin= -917.544738782164     IErMin= 2 ErrMin= 2.08D-02
 ErrMax= 2.08D-02  0.00D+00 EMaxC= 1.00D-01 BMatC= 5.36D-01 BMatP= 2.41D+00
 IDIUse=3 WtCom= 7.92D-01 WtEn= 2.08D-01
 Coeff-Com: -0.438D+00 0.144D+01
 Coeff-En:   0.152D+00 0.848D+00
 Coeff:     -0.315D+00 0.132D+01
 Gap=     0.313 Goal=   None    Shift=    0.000
 Gap=    -0.047 Goal=   None    Shift=    0.000
 RMSDP=2.30D-01 MaxDP=2.26D+01 DE=-1.22D-01 OVMax= 7.95D-01

 Cycle   3  Pass 1  IDiag  1:
 RMSU=  1.26D-02    CP:  1.06D+00 -1.15D-02
 E= -917.645692710708     Delta-E=       -0.100953928544 Rises=F Damp=F
 DIIS: error= 4.00D-02 at cycle   3 NSaved=   3.
 NSaved= 3 IEnMin= 3 EnMin= -917.645692710708     IErMin= 2 ErrMin= 2.08D-02
 ErrMax= 4.00D-02  0.00D+00 EMaxC= 1.00D-01 BMatC= 1.11D+00 BMatP= 5.36D-01
 IDIUse=2 WtCom= 0.00D+00 WtEn= 1.00D+00
 Coeff-En:   0.000D+00 0.369D+00 0.631D+00
 Coeff:      0.000D+00 0.369D+00 0.631D+00
 Gap=     0.092 Goal=   None    Shift=    0.000
 Gap=     0.231 Goal=   None    Shift=    0.000
 RMSDP=4.95D-01 MaxDP=3.89D+01 DE=-1.01D-01 OVMax= 9.98D-01

 Cycle   4  Pass 1  IDiag  1:
 RMSU=  1.44D-01    CP:  3.00D+00  2.13D+00 -2.96D+00
 E= -914.937260823644     Delta-E=        2.708431887064 Rises=F Damp=F
 DIIS: error= 1.45D-01 at cycle   4 NSaved=   4.
 NSaved= 4 IEnMin= 3 EnMin= -917.645692710708     IErMin= 2 ErrMin= 2.08D-02
 ErrMax= 1.45D-01  0.00D+00 EMaxC= 1.00D-01 BMatC= 7.15D+00 BMatP= 5.36D-01
 IDIUse=2 WtCom= 0.00D+00 WtEn= 1.00D+00
 Coeff-En:   0.000D+00 0.000D+00 0.836D+00 0.164D+00
 Coeff:      0.000D+00 0.000D+00 0.836D+00 0.164D+00
 Gap=     0.033 Goal=   None    Shift=    0.000
 Gap=    -0.026 Goal=   None    Shift=    0.000
 RMSDP=4.92D-01 MaxDP=3.96D+01 DE= 2.71D+00 OVMax= 9.91D-01

 Cycle   5  Pass 1  IDiag  1:
 RMSU=  9.61D-03    CP:  1.05D+00  4.81D-03  2.14D-01 -6.25D-03
 E= -917.781285838159     Delta-E=       -2.844025014515 Rises=F Damp=F
 DIIS: error= 2.76D-02 at cycle   5 NSaved=   5.
 NSaved= 5 IEnMin= 5 EnMin= -917.781285838159     IErMin= 2 ErrMin= 2.08D-02
 ErrMax= 2.76D-02  0.00D+00 EMaxC= 1.00D-01 BMatC= 6.92D-01 BMatP= 5.36D-01
 IDIUse=2 WtCom= 0.00D+00 WtEn= 1.00D+00
 Coeff-En:   0.000D+00 0.000D+00 0.381D+00 0.000D+00 0.619D+00
 Coeff:      0.000D+00 0.000D+00 0.381D+00 0.000D+00 0.619D+00
 Gap=     0.083 Goal=   None    Shift=    0.000
 Gap=     0.127 Goal=   None    Shift=    0.000
 RMSDP=8.98D-03 MaxDP=7.25D-01 DE=-2.84D+00 OVMax= 2.50D-01

 Cycle   6  Pass 1  IDiag  1:
 RMSU=  5.01D-03    CP:  9.81D-01  3.35D-05  5.55D-01 -5.27D-03  5.85D-01
 E= -917.894481885151     Delta-E=       -0.113196046992 Rises=F Damp=F
 DIIS: error= 2.03D-02 at cycle   6 NSaved=   6.
 NSaved= 6 IEnMin= 6 EnMin= -917.894481885151     IErMin= 6 ErrMin= 2.03D-02
 ErrMax= 2.03D-02  0.00D+00 EMaxC= 1.00D-01 BMatC= 2.31D-01 BMatP= 5.36D-01
 IDIUse=3 WtCom= 7.97D-01 WtEn= 2.03D-01
 Coeff-Com: -0.847D-01 0.167D+00 0.257D+00-0.182D-01 0.368D+00 0.311D+00
 Coeff-En:   0.000D+00 0.000D+00 0.000D+00 0.000D+00 0.229D+00 0.771D+00
 Coeff:     -0.674D-01 0.133D+00 0.204D+00-0.145D-01 0.340D+00 0.404D+00
 Gap=     0.079 Goal=   None    Shift=    0.000
 Gap=     0.150 Goal=   None    Shift=    0.000
 RMSDP=4.98D-03 MaxDP=3.68D-01 DE=-1.13D-01 OVMax= 1.55D-01

 Cycle   7  Pass 1  IDiag  1:
 RMSU=  2.90D-03    CP:  9.92D-01 -1.53D-03  4.66D-01 -1.66D-03  5.93D-01
                    CP:  2.46D-01
 E= -917.939834747278     Delta-E=       -0.045352862127 Rises=F Damp=F
 DIIS: error= 7.49D-03 at cycle   7 NSaved=   7.
 NSaved= 7 IEnMin= 7 EnMin= -917.939834747278     IErMin= 7 ErrMin= 7.49D-03
 ErrMax= 7.49D-03  0.00D+00 EMaxC= 1.00D-01 BMatC= 2.95D-02 BMatP= 2.31D-01
 IDIUse=3 WtCom= 9.25D-01 WtEn= 7.49D-02
 Coeff-Com: -0.241D-01 0.430D-01 0.242D-01-0.701D-02 0.991D-01 0.270D+00
 Coeff-Com:  0.595D+00
 Coeff-En:   0.000D+00 0.000D+00 0.000D+00 0.000D+00 0.000D+00 0.135D+00
 Coeff-En:   0.865D+00
 Coeff:     -0.223D-01 0.397D-01 0.224D-01-0.649D-02 0.917D-01 0.260D+00
 Coeff:      0.615D+00
 Gap=     0.088 Goal=   None    Shift=    0.000
 Gap=     0.145 Goal=   None    Shift=    0.000
 RMSDP=1.48D-03 MaxDP=1.13D-01 DE=-4.54D-02 OVMax= 6.02D-02

 Cycle   8  Pass 1  IDiag  1:
 RMSU=  8.21D-04    CP:  9.91D-01 -1.10D-03  4.64D-01 -2.53D-03  6.07D-01
                    CP:  4.25D-01  7.18D-01
 E= -917.945480412544     Delta-E=       -0.005645665266 Rises=F Damp=F
 DIIS: error= 2.10D-03 at cycle   8 NSaved=   8.
 NSaved= 8 IEnMin= 8 EnMin= -917.945480412544     IErMin= 8 ErrMin= 2.10D-03
 ErrMax= 2.10D-03  0.00D+00 EMaxC= 1.00D-01 BMatC= 3.35D-03 BMatP= 2.95D-02
 IDIUse=3 WtCom= 9.79D-01 WtEn= 2.10D-02
 Coeff-Com:  0.303D-02-0.778D-02-0.123D-01-0.527D-03 0.157D-01 0.120D+00
 Coeff-Com:  0.416D+00 0.466D+00
 Coeff-En:   0.000D+00 0.000D+00 0.000D+00 0.000D+00 0.000D+00 0.000D+00
 Coeff-En:   0.123D+00 0.877D+00
 Coeff:      0.297D-02-0.762D-02-0.120D-01-0.516D-03 0.154D-01 0.118D+00
 Coeff:      0.410D+00 0.474D+00
 Gap=     0.085 Goal=   None    Shift=    0.000
 Gap=     0.133 Goal=   None    Shift=    0.000
 RMSDP=5.73D-04 MaxDP=6.01D-02 DE=-5.65D-03 OVMax= 1.20D-02

 Cycle   9  Pass 1  IDiag  1:
 RMSU=  2.95D-04    CP:  9.85D-01 -1.04D-03  4.59D-01 -2.13D-03  5.96D-01
                    CP:  4.08D-01  7.56D-01  6.65D-01
 E= -917.946319642651     Delta-E=       -0.000839230107 Rises=F Damp=F
 DIIS: error= 6.72D-04 at cycle   9 NSaved=   9.
 NSaved= 9 IEnMin= 9 EnMin= -917.946319642651     IErMin= 9 ErrMin= 6.72D-04
 ErrMax= 6.72D-04  0.00D+00 EMaxC= 1.00D-01 BMatC= 1.98D-04 BMatP= 3.35D-03
 IDIUse=3 WtCom= 9.93D-01 WtEn= 6.72D-03
 Coeff-Com:  0.272D-02-0.455D-02-0.765D-02 0.317D-03-0.628D-02 0.165D-01
 Coeff-Com:  0.112D+00 0.258D+00 0.629D+00
 Coeff-En:   0.000D+00 0.000D+00 0.000D+00 0.000D+00 0.000D+00 0.000D+00
 Coeff-En:   0.000D+00 0.000D+00 0.100D+01
 Coeff:      0.270D-02-0.452D-02-0.760D-02 0.315D-03-0.623D-02 0.164D-01
 Coeff:      0.112D+00 0.256D+00 0.631D+00
 Gap=     0.085 Goal=   None    Shift=    0.000
 Gap=     0.133 Goal=   None    Shift=    0.000
 RMSDP=1.38D-04 MaxDP=9.78D-03 DE=-8.39D-04 OVMax= 5.87D-03

 Cycle  10  Pass 1  IDiag  1:
 RMSU=  9.28D-05    CP:  9.86D-01 -1.16D-03  4.61D-01 -2.18D-03  5.96D-01
                    CP:  4.07D-01  7.71D-01  6.67D-01  8.05D-01
 E= -917.946380496802     Delta-E=       -0.000060854151 Rises=F Damp=F
 DIIS: error= 2.46D-04 at cycle  10 NSaved=  10.
 NSaved=10 IEnMin=10 EnMin= -917.946380496802     IErMin=10 ErrMin= 2.46D-04
 ErrMax= 2.46D-04  0.00D+00 EMaxC= 1.00D-01 BMatC= 4.46D-05 BMatP= 1.98D-04
 IDIUse=3 WtCom= 9.98D-01 WtEn= 2.46D-03
 Coeff-Com:  0.601D-03-0.157D-04-0.134D-02 0.184D-03-0.577D-02-0.116D-01
 Coeff-Com: -0.144D-01 0.527D-01 0.365D+00 0.615D+00
 Coeff-En:   0.000D+00 0.000D+00 0.000D+00 0.000D+00 0.000D+00 0.000D+00
 Coeff-En:   0.000D+00 0.000D+00 0.000D+00 0.100D+01
 Coeff:      0.599D-03-0.157D-04-0.134D-02 0.184D-03-0.575D-02-0.116D-01
 Coeff:     -0.144D-01 0.526D-01 0.364D+00 0.616D+00
 Gap=     0.086 Goal=   None    Shift=    0.000
 Gap=     0.133 Goal=   None    Shift=    0.000
 RMSDP=6.79D-05 MaxDP=5.83D-03 DE=-6.09D-05 OVMax= 1.93D-03

 Cycle  11  Pass 1  IDiag  1:
 RMSU=  5.72D-05    CP:  9.87D-01 -1.10D-03  4.62D-01 -2.20D-03  5.95D-01
                    CP:  4.09D-01  7.64D-01  6.51D-01  8.20D-01  9.92D-01
 E= -917.946396058847     Delta-E=       -0.000015562045 Rises=F Damp=F
 DIIS: error= 1.16D-04 at cycle  11 NSaved=  11.
 NSaved=11 IEnMin=11 EnMin= -917.946396058847     IErMin=11 ErrMin= 1.16D-04
 ErrMax= 1.16D-04  0.00D+00 EMaxC= 1.00D-01 BMatC= 9.62D-06 BMatP= 4.46D-05
 IDIUse=3 WtCom= 9.99D-01 WtEn= 1.16D-03
 Coeff-Com: -0.295D-03 0.818D-03 0.173D-02 0.447D-04-0.108D-02-0.109D-01
 Coeff-Com: -0.457D-01-0.655D-01-0.142D-01 0.327D+00 0.808D+00
 Coeff-En:   0.000D+00 0.000D+00 0.000D+00 0.000D+00 0.000D+00 0.000D+00
 Coeff-En:   0.000D+00 0.000D+00 0.000D+00 0.000D+00 0.100D+01
 Coeff:     -0.294D-03 0.817D-03 0.173D-02 0.447D-04-0.108D-02-0.108D-01
 Coeff:     -0.457D-01-0.655D-01-0.141D-01 0.326D+00 0.809D+00
 Gap=     0.086 Goal=   None    Shift=    0.000
 Gap=     0.134 Goal=   None    Shift=    0.000
 RMSDP=4.67D-05 MaxDP=3.24D-03 DE=-1.56D-05 OVMax= 2.06D-03

 Cycle  12  Pass 1  IDiag  1:
 RMSU=  3.32D-05    CP:  9.86D-01 -1.12D-03  4.62D-01 -2.19D-03  5.94D-01
                    CP:  4.09D-01  7.67D-01  6.60D-01  8.82D-01  1.19D+00
                    CP:  9.25D-01
 E= -917.946401044680     Delta-E=       -0.000004985834 Rises=F Damp=F
 DIIS: error= 5.00D-05 at cycle  12 NSaved=  12.
 NSaved=12 IEnMin=12 EnMin= -917.946401044680     IErMin=12 ErrMin= 5.00D-05
 ErrMax= 5.00D-05  0.00D+00 EMaxC= 1.00D-01 BMatC= 2.88D-06 BMatP= 9.62D-06
 IDIUse=1 WtCom= 1.00D+00 WtEn= 0.00D+00
 Coeff-Com: -0.221D-03 0.278D-03 0.125D-02-0.436D-04 0.606D-03-0.366D-02
 Coeff-Com: -0.236D-01-0.528D-01-0.899D-01 0.627D-01 0.481D+00 0.625D+00
 Coeff:     -0.221D-03 0.278D-03 0.125D-02-0.436D-04 0.606D-03-0.366D-02
 Coeff:     -0.236D-01-0.528D-01-0.899D-01 0.627D-01 0.481D+00 0.625D+00
 Gap=     0.086 Goal=   None    Shift=    0.000
 Gap=     0.134 Goal=   None    Shift=    0.000
 RMSDP=2.28D-05 MaxDP=2.22D-03 DE=-4.99D-06 OVMax= 5.98D-04

 Cycle  13  Pass 1  IDiag  1:
 RMSU=  1.38D-05    CP:  9.86D-01 -1.13D-03  4.62D-01 -2.18D-03  5.93D-01
                    CP:  4.09D-01  7.66D-01  6.57D-01  8.99D-01  1.25D+00
                    CP:  1.08D+00  1.04D+00
 E= -917.946402127742     Delta-E=       -0.000001083061 Rises=F Damp=F
 DIIS: error= 2.19D-05 at cycle  13 NSaved=  13.
 NSaved=13 IEnMin=13 EnMin= -917.946402127742     IErMin=13 ErrMin= 2.19D-05
 ErrMax= 2.19D-05  0.00D+00 EMaxC= 1.00D-01 BMatC= 5.54D-07 BMatP= 2.88D-06
 IDIUse=1 WtCom= 1.00D+00 WtEn= 0.00D+00
 Coeff-Com:  0.202D-04-0.113D-03 0.196D-03-0.337D-05 0.343D-03 0.651D-03
 Coeff-Com: -0.450D-03-0.118D-01-0.419D-01-0.437D-01 0.492D-01 0.342D+00
 Coeff-Com:  0.705D+00
 Coeff:      0.202D-04-0.113D-03 0.196D-03-0.337D-05 0.343D-03 0.651D-03
 Coeff:     -0.450D-03-0.118D-01-0.419D-01-0.437D-01 0.492D-01 0.342D+00
 Coeff:      0.705D+00
 Gap=     0.086 Goal=   None    Shift=    0.000
 Gap=     0.134 Goal=   None    Shift=    0.000
 RMSDP=9.02D-06 MaxDP=6.91D-04 DE=-1.08D-06 OVMax= 2.25D-04

 Cycle  14  Pass 1  IDiag  1:
 RMSU=  4.79D-06    CP:  9.86D-01 -1.14D-03  4.62D-01 -2.18D-03  5.93D-01
                    CP:  4.09D-01  7.67D-01  6.54D-01  8.98D-01  1.28D+00
                    CP:  1.14D+00  1.12D+00  1.06D+00
 E= -917.946402308698     Delta-E=       -0.000000180956 Rises=F Damp=F
 DIIS: error= 9.83D-06 at cycle  14 NSaved=  14.
 NSaved=14 IEnMin=14 EnMin= -917.946402308698     IErMin=14 ErrMin= 9.83D-06
 ErrMax= 9.83D-06  0.00D+00 EMaxC= 1.00D-01 BMatC= 1.40D-07 BMatP= 5.54D-07
 IDIUse=1 WtCom= 1.00D+00 WtEn= 0.00D+00
 Coeff-Com:  0.748D-04-0.135D-03 0.466D-05 0.458D-05 0.129D-03 0.700D-03
 Coeff-Com:  0.210D-02-0.981D-03-0.127D-01-0.313D-01-0.288D-01 0.125D+00
 Coeff-Com:  0.433D+00 0.514D+00
 Coeff:      0.748D-04-0.135D-03 0.466D-05 0.458D-05 0.129D-03 0.700D-03
 Coeff:      0.210D-02-0.981D-03-0.127D-01-0.313D-01-0.288D-01 0.125D+00
 Coeff:      0.433D+00 0.514D+00
 Gap=     0.086 Goal=   None    Shift=    0.000
 Gap=     0.134 Goal=   None    Shift=    0.000
 RMSDP=2.97D-06 MaxDP=2.19D-04 DE=-1.81D-07 OVMax= 8.79D-05

 Cycle  15  Pass 1  IDiag  1:
 RMSU=  1.86D-06    CP:  9.86D-01 -1.13D-03  4.62D-01 -2.18D-03  5.93D-01
                    CP:  4.09D-01  7.67D-01  6.54D-01  8.98D-01  1.29D+00
                    CP:  1.14D+00  1.16D+00  1.05D+00  8.81D-01
 E= -917.946402346414     Delta-E=       -0.000000037716 Rises=F Damp=F
 DIIS: error= 2.67D-06 at cycle  15 NSaved=  15.
 NSaved=15 IEnMin=15 EnMin= -917.946402346414     IErMin=15 ErrMin= 2.67D-06
 ErrMax= 2.67D-06  0.00D+00 EMaxC= 1.00D-01 BMatC= 1.11D-08 BMatP= 1.40D-07
 IDIUse=1 WtCom= 1.00D+00 WtEn= 0.00D+00
 Coeff-Com:  0.557D-04-0.717D-04-0.476D-04-0.535D-06 0.185D-06 0.239D-03
 Coeff-Com:  0.116D-02 0.253D-02 0.487D-02-0.400D-02-0.242D-01-0.307D-01
 Coeff-Com:  0.165D-01 0.186D+00 0.848D+00
 Coeff:      0.557D-04-0.717D-04-0.476D-04-0.535D-06 0.185D-06 0.239D-03
 Coeff:      0.116D-02 0.253D-02 0.487D-02-0.400D-02-0.242D-01-0.307D-01
 Coeff:      0.165D-01 0.186D+00 0.848D+00
 Gap=     0.086 Goal=   None    Shift=    0.000
 Gap=     0.134 Goal=   None    Shift=    0.000
 RMSDP=1.37D-06 MaxDP=8.48D-05 DE=-3.77D-08 OVMax= 4.99D-05

 Cycle  16  Pass 1  IDiag  1:
 RMSU=  8.45D-07    CP:  9.86D-01 -1.13D-03  4.62D-01 -2.18D-03  5.93D-01
                    CP:  4.09D-01  7.67D-01  6.54D-01  8.98D-01  1.29D+00
                    CP:  1.15D+00  1.18D+00  1.07D+00  9.46D-01  9.71D-01
 E= -917.946402351599     Delta-E=       -0.000000005185 Rises=F Damp=F
 DIIS: error= 2.29D-06 at cycle  16 NSaved=  16.
 NSaved=16 IEnMin=16 EnMin= -917.946402351599     IErMin=16 ErrMin= 2.29D-06
 ErrMax= 2.29D-06  0.00D+00 EMaxC= 1.00D-01 BMatC= 4.59D-09 BMatP= 1.11D-08
 IDIUse=1 WtCom= 1.00D+00 WtEn= 0.00D+00
 Coeff-Com:  0.420D-04-0.589D-04-0.292D-04 0.200D-05-0.232D-04 0.504D-04
 Coeff-Com:  0.461D-03 0.180D-02 0.470D-02 0.118D-02-0.116D-01-0.332D-01
 Coeff-Com: -0.441D-01 0.439D-01 0.489D+00 0.548D+00
 Coeff:      0.420D-04-0.589D-04-0.292D-04 0.200D-05-0.232D-04 0.504D-04
 Coeff:      0.461D-03 0.180D-02 0.470D-02 0.118D-02-0.116D-01-0.332D-01
 Coeff:     -0.441D-01 0.439D-01 0.489D+00 0.548D+00
 Gap=     0.086 Goal=   None    Shift=    0.000
 Gap=     0.134 Goal=   None    Shift=    0.000
 RMSDP=6.71D-07 MaxDP=3.94D-05 DE=-5.19D-09 OVMax= 2.38D-05

 Cycle  17  Pass 1  IDiag  1:
 RMSU=  3.36D-07    CP:  9.86D-01 -1.14D-03  4.62D-01 -2.18D-03  5.93D-01
                    CP:  4.09D-01  7.67D-01  6.54D-01  8.98D-01  1.29D+00
                    CP:  1.15D+00  1.18D+00  1.09D+00  9.51D-01  1.03D+00
                    CP:  8.57D-01
 E= -917.946402353182     Delta-E=       -0.000000001583 Rises=F Damp=F
 DIIS: error= 1.36D-06 at cycle  17 NSaved=  17.
 NSaved=17 IEnMin=17 EnMin= -917.946402353182     IErMin=17 ErrMin= 1.36D-06
 ErrMax= 1.36D-06  0.00D+00 EMaxC= 1.00D-01 BMatC= 1.20D-09 BMatP= 4.59D-09
 IDIUse=1 WtCom= 1.00D+00 WtEn= 0.00D+00
 Coeff-Com: -0.257D-05 0.574D-05 0.817D-05-0.129D-05-0.123D-04-0.597D-04
 Coeff-Com: -0.168D-03 0.147D-03 0.737D-03 0.182D-02 0.278D-02-0.513D-02
 Coeff-Com: -0.314D-01-0.417D-01-0.393D-01 0.331D+00 0.781D+00
 Coeff:     -0.257D-05 0.574D-05 0.817D-05-0.129D-05-0.123D-04-0.597D-04
 Coeff:     -0.168D-03 0.147D-03 0.737D-03 0.182D-02 0.278D-02-0.513D-02
 Coeff:     -0.314D-01-0.417D-01-0.393D-01 0.331D+00 0.781D+00
 Gap=     0.086 Goal=   None    Shift=    0.000
 Gap=     0.134 Goal=   None    Shift=    0.000
 RMSDP=3.68D-07 MaxDP=3.82D-05 DE=-1.58D-09 OVMax= 2.03D-05

 Cycle  18  Pass 1  IDiag  1:
 RMSU=  2.09D-07    CP:  9.86D-01 -1.14D-03  4.62D-01 -2.18D-03  5.93D-01
                    CP:  4.09D-01  7.67D-01  6.54D-01  8.98D-01  1.29D+00
                    CP:  1.15D+00  1.17D+00  1.09D+00  9.62D-01  1.06D+00
                    CP:  9.55D-01  9.70D-01
 E= -917.946402353960     Delta-E=       -0.000000000779 Rises=F Damp=F
 DIIS: error= 4.56D-07 at cycle  18 NSaved=  18.
 NSaved=18 IEnMin=18 EnMin= -917.946402353960     IErMin=18 ErrMin= 4.56D-07
 ErrMax= 4.56D-07  0.00D+00 EMaxC= 1.00D-01 BMatC= 2.16D-10 BMatP= 1.20D-09
 IDIUse=1 WtCom= 1.00D+00 WtEn= 0.00D+00
 Coeff-Com: -0.110D-04 0.157D-04 0.937D-05-0.502D-06-0.252D-05-0.422D-04
 Coeff-Com: -0.171D-03-0.325D-03-0.709D-03 0.416D-03 0.382D-02 0.541D-02
 Coeff-Com: -0.303D-02-0.273D-01-0.134D+00 0.160D-01 0.340D+00 0.799D+00
 Coeff:     -0.110D-04 0.157D-04 0.937D-05-0.502D-06-0.252D-05-0.422D-04
 Coeff:     -0.171D-03-0.325D-03-0.709D-03 0.416D-03 0.382D-02 0.541D-02
 Coeff:     -0.303D-02-0.273D-01-0.134D+00 0.160D-01 0.340D+00 0.799D+00
 Gap=     0.086 Goal=   None    Shift=    0.000
 Gap=     0.134 Goal=   None    Shift=    0.000
 RMSDP=1.70D-07 MaxDP=2.07D-05 DE=-7.79D-10 OVMax= 1.17D-05

 Cycle  19  Pass 1  IDiag  1:
 RMSU=  1.05D-07    CP:  9.86D-01 -1.14D-03  4.62D-01 -2.18D-03  5.93D-01
                    CP:  4.09D-01  7.67D-01  6.54D-01  8.98D-01  1.29D+00
                    CP:  1.15D+00  1.17D+00  1.08D+00  9.61D-01  1.07D+00
                    CP:  9.63D-01  1.10D+00  9.99D-01
 E= -917.946402354153     Delta-E=       -0.000000000192 Rises=F Damp=F
 DIIS: error= 3.69D-07 at cycle  19 NSaved=  19.
 NSaved=19 IEnMin=19 EnMin= -917.946402354153     IErMin=19 ErrMin= 3.69D-07
 ErrMax= 3.69D-07  0.00D+00 EMaxC= 1.00D-01 BMatC= 1.10D-10 BMatP= 2.16D-10
 IDIUse=1 WtCom= 1.00D+00 WtEn= 0.00D+00
 Coeff-Com: -0.711D-05 0.887D-05 0.176D-06 0.503D-07 0.560D-05 0.520D-05
 Coeff-Com: -0.209D-04-0.289D-03-0.831D-03-0.637D-03 0.124D-02 0.536D-02
 Coeff-Com:  0.119D-01 0.184D-02-0.635D-01-0.131D+00-0.121D+00 0.496D+00
 Coeff-Com:  0.800D+00
 Coeff:     -0.711D-05 0.887D-05 0.176D-06 0.503D-07 0.560D-05 0.520D-05
 Coeff:     -0.209D-04-0.289D-03-0.831D-03-0.637D-03 0.124D-02 0.536D-02
 Coeff:      0.119D-01 0.184D-02-0.635D-01-0.131D+00-0.121D+00 0.496D+00
 Coeff:      0.800D+00
 Gap=     0.086 Goal=   None    Shift=    0.000
 Gap=     0.134 Goal=   None    Shift=    0.000
 RMSDP=1.36D-07 MaxDP=1.33D-05 DE=-1.92D-10 OVMax= 8.43D-06

 Cycle  20  Pass 1  IDiag  1:
 RMSU=  9.14D-08    CP:  9.86D-01 -1.13D-03  4.62D-01 -2.18D-03  5.93D-01
                    CP:  4.09D-01  7.67D-01  6.54D-01  8.98D-01  1.29D+00
                    CP:  1.15D+00  1.17D+00  1.08D+00  9.56D-01  1.05D+00
                    CP:  9.93D-01  1.15D+00  1.12D+00  1.12D+00
 E= -917.946402354254     Delta-E=       -0.000000000101 Rises=F Damp=F
 DIIS: error= 1.55D-07 at cycle  20 NSaved=  20.
 NSaved=20 IEnMin=20 EnMin= -917.946402354254     IErMin=20 ErrMin= 1.55D-07
 ErrMax= 1.55D-07  0.00D+00 EMaxC= 1.00D-01 BMatC= 2.03D-11 BMatP= 1.10D-10
 IDIUse=1 WtCom= 1.00D+00 WtEn= 0.00D+00
 Coeff-Com: -0.201D-05 0.252D-05-0.200D-05 0.208D-06 0.337D-05 0.937D-05
 Coeff-Com:  0.151D-04-0.910D-04-0.244D-03-0.267D-03-0.516D-04 0.123D-02
 Coeff-Com:  0.557D-02 0.567D-02-0.606D-02-0.619D-01-0.109D+00 0.701D-01
 Coeff-Com:  0.350D+00 0.745D+00
 Coeff:     -0.201D-05 0.252D-05-0.200D-05 0.208D-06 0.337D-05 0.937D-05
 Coeff:      0.151D-04-0.910D-04-0.244D-03-0.267D-03-0.516D-04 0.123D-02
 Coeff:      0.557D-02 0.567D-02-0.606D-02-0.619D-01-0.109D+00 0.701D-01
 Coeff:      0.350D+00 0.745D+00
 Gap=     0.086 Goal=   None    Shift=    0.000
 Gap=     0.134 Goal=   None    Shift=    0.000
 RMSDP=5.63D-08 MaxDP=5.51D-06 DE=-1.01D-10 OVMax= 2.92D-06

 Cycle  21  Pass 1  IDiag  1:
 Restarting incremental Fock formation.
 E= -917.946402354265     Delta-E=       -0.000000000011 Rises=F Damp=F
 DIIS: error= 9.98D-08 at cycle  21 NSaved=  20.
 NSaved=20 IEnMin=20 EnMin= -917.946402354265     IErMin=20 ErrMin= 9.98D-08
 ErrMax= 9.98D-08  0.00D+00 EMaxC= 1.00D-01 BMatC= 8.79D-12 BMatP= 2.03D-11
 IDIUse=1 WtCom= 1.00D+00 WtEn= 0.00D+00
 Coeff-Com:  0.848D-07 0.213D-06-0.111D-05 0.115D-05 0.446D-05 0.115D-04
 Coeff-Com:  0.102D-04 0.590D-04 0.461D-04-0.316D-03-0.705D-03 0.859D-04
 Coeff-Com:  0.286D-02 0.122D-01-0.118D-02-0.288D-01-0.107D+00-0.193D-01
 Coeff-Com:  0.499D+00 0.643D+00
 Coeff:      0.848D-07 0.213D-06-0.111D-05 0.115D-05 0.446D-05 0.115D-04
 Coeff:      0.102D-04 0.590D-04 0.461D-04-0.316D-03-0.705D-03 0.859D-04
 Coeff:      0.286D-02 0.122D-01-0.118D-02-0.288D-01-0.107D+00-0.193D-01
 Coeff:      0.499D+00 0.643D+00
 Gap=     0.086 Goal=   None    Shift=    0.000
 Gap=     0.134 Goal=   None    Shift=    0.000
 RMSDP=3.96D-08 MaxDP=3.43D-06 DE=-1.09D-11 OVMax= 1.51D-06

 Cycle  22  Pass 1  IDiag  1:
 RMSU=  3.90D-08    CP:  1.00D+00
 E= -917.946402354265     Delta-E=        0.000000000000 Rises=F Damp=F
 DIIS: error= 2.91D-08 at cycle  22 NSaved=  20.
 NSaved=20 IEnMin=19 EnMin= -917.946402354265     IErMin=20 ErrMin= 2.91D-08
 ErrMax= 2.91D-08  0.00D+00 EMaxC= 1.00D-01 BMatC= 9.59D-13 BMatP= 8.79D-12
 IDIUse=1 WtCom= 1.00D+00 WtEn= 0.00D+00
 Coeff-Com:  0.242D-06 0.387D-06-0.165D-06-0.115D-05-0.145D-05 0.859D-05
 Coeff-Com:  0.425D-04 0.682D-04-0.545D-04-0.388D-03-0.683D-03-0.202D-04
 Coeff-Com:  0.337D-02 0.690D-02 0.642D-02-0.426D-01-0.505D-01 0.499D-01
 Coeff-Com:  0.228D+00 0.799D+00
 Coeff:      0.242D-06 0.387D-06-0.165D-06-0.115D-05-0.145D-05 0.859D-05
 Coeff:      0.425D-04 0.682D-04-0.545D-04-0.388D-03-0.683D-03-0.202D-04
 Coeff:      0.337D-02 0.690D-02 0.642D-02-0.426D-01-0.505D-01 0.499D-01
 Coeff:      0.228D+00 0.799D+00
 Gap=     0.086 Goal=   None    Shift=    0.000
 Gap=     0.134 Goal=   None    Shift=    0.000
 RMSDP=1.11D-08 MaxDP=8.79D-07 DE= 0.00D+00 OVMax= 5.03D-07

 Cycle  23  Pass 1  IDiag  1:
 RMSU=  1.09D-08    CP:  1.00D+00  9.48D-01
 E= -917.946402354276     Delta-E=       -0.000000000011 Rises=F Damp=F
 DIIS: error= 1.73D-08 at cycle  23 NSaved=  20.
 NSaved=20 IEnMin=20 EnMin= -917.946402354276     IErMin=20 ErrMin= 1.73D-08
 ErrMax= 1.73D-08  0.00D+00 EMaxC= 1.00D-01 BMatC= 3.33D-13 BMatP= 9.59D-13
 IDIUse=1 WtCom= 1.00D+00 WtEn= 0.00D+00
 Coeff-Com:  0.331D-06-0.445D-06-0.138D-05-0.129D-05 0.598D-05 0.148D-04
 Coeff-Com:  0.231D-04 0.161D-04-0.918D-04-0.378D-03-0.520D-03 0.715D-04
 Coeff-Com:  0.476D-02 0.965D-02-0.418D-02-0.242D-01-0.829D-01-0.148D-01
 Coeff-Com:  0.432D+00 0.680D+00
 Coeff:      0.331D-06-0.445D-06-0.138D-05-0.129D-05 0.598D-05 0.148D-04
 Coeff:      0.231D-04 0.161D-04-0.918D-04-0.378D-03-0.520D-03 0.715D-04
 Coeff:      0.476D-02 0.965D-02-0.418D-02-0.242D-01-0.829D-01-0.148D-01
 Coeff:      0.432D+00 0.680D+00
 Gap=     0.086 Goal=   None    Shift=    0.000
 Gap=     0.134 Goal=   None    Shift=    0.000
 RMSDP=6.24D-09 MaxDP=6.28D-07 DE=-1.09D-11 OVMax= 3.11D-07

 SCF Done:  E(UB3LYP) =  -917.946402354     A.U. after   23 cycles
            NFock= 23  Conv=0.62D-08     -V/T= 2.0041
 <Sx>= 0.0000 <Sy>= 0.0000 <Sz>= 0.5000 <S**2>= 0.7601 S= 0.5050
 <L.S>=  0.00000000000    
 KE= 9.142037914645D+02 PE=-5.143884659713D+03 EE= 1.819460103862D+03
 Annihilation of the first spin contaminant:
 S**2 before annihilation     0.7601,   after     0.7501
 Leave Link  502 at Sun Jan  7 06:49:50 2024, MaxMem=  4026531840 cpu:            5401.7 elap:             702.2
 (Enter /sysapps/ubuntu-applications/gaussian/Gaussian/AVX2/g16/l601.exe)
 Copying SCF densities to generalized density rwf, IOpCl= 1 IROHF=0.

 **********************************************************************

            Population analysis using the SCF density.

 **********************************************************************

 Alpha  occ. eigenvalues --  -19.06525 -18.95399 -18.95111 -10.13370 -10.10439
 Alpha  occ. eigenvalues --  -10.10386 -10.07855 -10.07116 -10.07035 -10.06508
 Alpha  occ. eigenvalues --  -10.06475 -10.06458 -10.06143 -10.06041 -10.05799
 Alpha  occ. eigenvalues --  -10.05703 -10.05688 -10.05624 -10.05614 -10.05567
 Alpha  occ. eigenvalues --  -10.05413  -0.97151  -0.88144  -0.87820  -0.76269
 Alpha  occ. eigenvalues --   -0.74353  -0.71322  -0.67409  -0.65018  -0.63624
 Alpha  occ. eigenvalues --   -0.63380  -0.61051  -0.55736  -0.52819  -0.52593
 Alpha  occ. eigenvalues --   -0.50064  -0.48589  -0.45565  -0.44255  -0.42420
 Alpha  occ. eigenvalues --   -0.40671  -0.39112  -0.36819  -0.35477  -0.34938
 Alpha  occ. eigenvalues --   -0.34379  -0.32796  -0.31858  -0.31643  -0.30878
 Alpha  occ. eigenvalues --   -0.30148  -0.30001  -0.29202  -0.28905  -0.28390
 Alpha  occ. eigenvalues --   -0.26578  -0.26277  -0.25656  -0.25173  -0.23410
 Alpha  occ. eigenvalues --   -0.23303  -0.23088  -0.21911  -0.19894  -0.16898
 Alpha  occ. eigenvalues --   -0.14487  -0.14125  -0.13028  -0.12130  -0.11096
 Alpha  occ. eigenvalues --   -0.10958  -0.02500
 Alpha virt. eigenvalues --    0.06085   0.06107   0.07623   0.07963   0.08895
 Alpha virt. eigenvalues --    0.09671   0.09879   0.09975   0.11135   0.11434
 Alpha virt. eigenvalues --    0.11863   0.13424   0.13667   0.14581   0.14681
 Alpha virt. eigenvalues --    0.15158   0.15450   0.15451   0.15934   0.16766
 Alpha virt. eigenvalues --    0.16781   0.17550   0.18329   0.18378   0.18464
 Alpha virt. eigenvalues --    0.18483   0.19169   0.19383   0.20063   0.20380
 Alpha virt. eigenvalues --    0.20414   0.20606   0.21237   0.21435   0.21590
 Alpha virt. eigenvalues --    0.21594   0.21932   0.22710   0.22780   0.23252
 Alpha virt. eigenvalues --    0.23635   0.24520   0.24798   0.25111   0.25222
 Alpha virt. eigenvalues --    0.25483   0.25951   0.26025   0.26348   0.27044
 Alpha virt. eigenvalues --    0.27267   0.27598   0.27765   0.28867   0.29096
 Alpha virt. eigenvalues --    0.29780   0.29904   0.30296   0.30501   0.30638
 Alpha virt. eigenvalues --    0.31573   0.31620   0.32339   0.32946   0.33391
 Alpha virt. eigenvalues --    0.33729   0.33735   0.34112   0.34126   0.34447
 Alpha virt. eigenvalues --    0.35375   0.35443   0.35932   0.35944   0.36457
 Alpha virt. eigenvalues --    0.36610   0.36804   0.37477   0.37633   0.37708
 Alpha virt. eigenvalues --    0.38236   0.38774   0.38972   0.39128   0.39488
 Alpha virt. eigenvalues --    0.39803   0.40343   0.40814   0.41168   0.41892
 Alpha virt. eigenvalues --    0.42281   0.42851   0.42925   0.43140   0.43546
 Alpha virt. eigenvalues --    0.43576   0.44016   0.44627   0.45102   0.45451
 Alpha virt. eigenvalues --    0.45980   0.46558   0.46898   0.47347   0.47726
 Alpha virt. eigenvalues --    0.48262   0.48824   0.49035   0.50506   0.50804
 Alpha virt. eigenvalues --    0.51315   0.52839   0.53390   0.53813   0.54196
 Alpha virt. eigenvalues --    0.55511   0.56715   0.57194   0.58907   0.60021
 Alpha virt. eigenvalues --    0.60698   0.62065   0.63938   0.64746   0.65649
 Alpha virt. eigenvalues --    0.65706   0.66191   0.66729   0.66893   0.67565
 Alpha virt. eigenvalues --    0.67724   0.68100   0.68550   0.69377   0.69444
 Alpha virt. eigenvalues --    0.69864   0.70251   0.70521   0.70779   0.71316
 Alpha virt. eigenvalues --    0.72760   0.73267   0.73630   0.74187   0.75240
 Alpha virt. eigenvalues --    0.76520   0.76971   0.77460   0.77841   0.78428
 Alpha virt. eigenvalues --    0.79283   0.79331   0.79480   0.80405   0.81230
 Alpha virt. eigenvalues --    0.81736   0.82445   0.83584   0.83701   0.84050
 Alpha virt. eigenvalues --    0.85124   0.85866   0.87423   0.87935   0.87945
 Alpha virt. eigenvalues --    0.88609   0.88920   0.89738   0.91840   0.92697
 Alpha virt. eigenvalues --    0.93730   0.94255   0.94869   0.96712   0.97266
 Alpha virt. eigenvalues --    0.98660   0.99642   1.00585   1.00936   1.01771
 Alpha virt. eigenvalues --    1.02062   1.03258   1.03997   1.05329   1.05757
 Alpha virt. eigenvalues --    1.05946   1.06623   1.06949   1.07616   1.08618
 Alpha virt. eigenvalues --    1.08646   1.09407   1.09659   1.10474   1.11115
 Alpha virt. eigenvalues --    1.11534   1.11982   1.13542   1.14636   1.15218
 Alpha virt. eigenvalues --    1.15890   1.15987   1.17025   1.17109   1.19059
 Alpha virt. eigenvalues --    1.20014   1.20869   1.21278   1.22394   1.22459
 Alpha virt. eigenvalues --    1.23390   1.23746   1.25072   1.25135   1.26424
 Alpha virt. eigenvalues --    1.29117   1.29138   1.30421   1.31631   1.33087
 Alpha virt. eigenvalues --    1.33508   1.36129   1.36869   1.38215   1.38283
 Alpha virt. eigenvalues --    1.39054   1.42615   1.43030   1.44556   1.45905
 Alpha virt. eigenvalues --    1.46785   1.49195   1.49505   1.50659   1.54577
 Alpha virt. eigenvalues --    1.55981   1.57775   1.59502   1.61299   1.61304
 Alpha virt. eigenvalues --    1.61876   1.62213   1.62592   1.63302   1.64179
 Alpha virt. eigenvalues --    1.65019   1.66968   1.67030   1.67968   1.67970
 Alpha virt. eigenvalues --    1.69947   1.70354   1.70372   1.71456   1.72001
 Alpha virt. eigenvalues --    1.73650   1.75820   1.77464   1.79005   1.80348
 Alpha virt. eigenvalues --    1.80377   1.82796   1.83350   1.85016   1.85274
 Alpha virt. eigenvalues --    1.85455   1.87006   1.88699   1.89135   1.91115
 Alpha virt. eigenvalues --    1.91245   1.91675   1.94537   1.95430   1.97393
 Alpha virt. eigenvalues --    1.97934   1.99227   1.99305   2.00392   2.03053
 Alpha virt. eigenvalues --    2.03538   2.03548   2.04685   2.04950   2.05619
 Alpha virt. eigenvalues --    2.06859   2.07481   2.09151   2.09424   2.09596
 Alpha virt. eigenvalues --    2.09702   2.10631   2.11424   2.13160   2.14579
 Alpha virt. eigenvalues --    2.16065   2.17091   2.18074   2.19315   2.19578
 Alpha virt. eigenvalues --    2.21808   2.22015   2.25093   2.26587   2.26983
 Alpha virt. eigenvalues --    2.28558   2.30832   2.31060   2.35479   2.37584
 Alpha virt. eigenvalues --    2.41018   2.42355   2.44337   2.44833   2.47203
 Alpha virt. eigenvalues --    2.48147   2.48152   2.49511   2.54071   2.54791
 Alpha virt. eigenvalues --    2.56888   2.59359   2.60406   2.61382   2.66927
 Alpha virt. eigenvalues --    2.68108   2.68953   2.71600   2.73726   2.75051
 Alpha virt. eigenvalues --    2.75867   2.76574   2.78142   2.80550   2.81696
 Alpha virt. eigenvalues --    2.82108   2.82523   2.84743   2.85313   2.85497
 Alpha virt. eigenvalues --    2.87085   2.87801   2.87932   2.88557   2.88903
 Alpha virt. eigenvalues --    2.89875   2.90074   2.90382   2.91007   2.92756
 Alpha virt. eigenvalues --    2.93428   2.94323   2.94803   2.96821   2.97920
 Alpha virt. eigenvalues --    2.99375   2.99625   3.00405   3.02086   3.02882
 Alpha virt. eigenvalues --    3.04222   3.06002   3.07956   3.08435   3.11737
 Alpha virt. eigenvalues --    3.13248   3.13829   3.14547   3.17934   3.19130
 Alpha virt. eigenvalues --    3.21932   3.23831   3.25593   3.25943   3.29866
 Alpha virt. eigenvalues --    3.32492   3.32910   3.34729   3.35806   3.39195
 Alpha virt. eigenvalues --    3.42529   3.45858   3.45896   3.46060   3.48258
 Alpha virt. eigenvalues --    3.50338   3.51268   3.53591   3.55599   3.58588
 Alpha virt. eigenvalues --    3.60140   3.64409   3.65363   3.68404   3.68429
 Alpha virt. eigenvalues --    3.70664   3.71335   3.72776   3.74755   3.77994
 Alpha virt. eigenvalues --    3.80860   3.88054   3.95076   3.97678   3.99121
 Alpha virt. eigenvalues --    4.04305   4.15383   4.17937   4.19838   4.22366
 Alpha virt. eigenvalues --    4.23608   4.30509   4.33866   4.39919   4.45664
 Alpha virt. eigenvalues --    4.47781   4.70444   4.93109   4.95628   4.96343
 Alpha virt. eigenvalues --    4.97730   5.08873   5.20274   5.21780   5.41864
 Alpha virt. eigenvalues --    5.47978   5.54072   5.83621   5.89750   5.97651
 Alpha virt. eigenvalues --   23.62032  23.76118  23.90278  24.02023  24.04399
 Alpha virt. eigenvalues --   24.05196  24.07099  24.07718  24.08463  24.09233
 Alpha virt. eigenvalues --   24.11753  24.12916  24.17332  24.21266  24.23056
 Alpha virt. eigenvalues --   24.29392  24.30487  24.32998  50.02673  50.19256
 Alpha virt. eigenvalues --   50.24459
  Beta  occ. eigenvalues --  -19.06516 -18.94822 -18.94536 -10.13346 -10.10293
  Beta  occ. eigenvalues --  -10.10283 -10.07859 -10.07123 -10.07025 -10.06474
  Beta  occ. eigenvalues --  -10.06452 -10.06421 -10.06004 -10.05940 -10.05810
  Beta  occ. eigenvalues --  -10.05664 -10.05659 -10.05655 -10.05611 -10.05499
  Beta  occ. eigenvalues --  -10.05278  -0.97127  -0.87165  -0.86807  -0.76155
  Beta  occ. eigenvalues --   -0.74190  -0.71128  -0.67113  -0.64861  -0.63469
  Beta  occ. eigenvalues --   -0.63255  -0.60864  -0.55138  -0.52611  -0.52460
  Beta  occ. eigenvalues --   -0.49876  -0.48510  -0.45454  -0.44083  -0.42266
  Beta  occ. eigenvalues --   -0.40555  -0.39011  -0.36624  -0.35347  -0.34790
  Beta  occ. eigenvalues --   -0.34287  -0.32755  -0.31696  -0.31566  -0.30834
  Beta  occ. eigenvalues --   -0.29852  -0.29115  -0.29057  -0.28629  -0.28002
  Beta  occ. eigenvalues --   -0.26394  -0.25974  -0.25071  -0.23556  -0.23281
  Beta  occ. eigenvalues --   -0.23020  -0.22400  -0.21731  -0.19313  -0.16087
  Beta  occ. eigenvalues --   -0.13684  -0.12898  -0.12431  -0.11598  -0.10570
  Beta  occ. eigenvalues --   -0.10112
  Beta virt. eigenvalues --    0.03247   0.06108   0.06737   0.07957   0.08422
  Beta virt. eigenvalues --    0.08895   0.09670   0.09969   0.10356   0.11412
  Beta virt. eigenvalues --    0.11435   0.11862   0.13421   0.13669   0.14684
  Beta virt. eigenvalues --    0.14871   0.15232   0.15449   0.15865   0.15946
  Beta virt. eigenvalues --    0.16780   0.16867   0.17816   0.18391   0.18482
  Beta virt. eigenvalues --    0.18525   0.19175   0.19383   0.19390   0.20070
  Beta virt. eigenvalues --    0.20427   0.20615   0.20743   0.21252   0.21441
  Beta virt. eigenvalues --    0.21617   0.21872   0.22118   0.22804   0.22836
  Beta virt. eigenvalues --    0.23270   0.23651   0.24664   0.24808   0.25232
  Beta virt. eigenvalues --    0.25305   0.25497   0.25990   0.26033   0.26356
  Beta virt. eigenvalues --    0.27057   0.27411   0.27602   0.27776   0.28965
  Beta virt. eigenvalues --    0.29120   0.29795   0.30130   0.30448   0.30507
  Beta virt. eigenvalues --    0.30637   0.31607   0.31660   0.32409   0.32976
  Beta virt. eigenvalues --    0.33490   0.33741   0.33882   0.34183   0.34267
  Beta virt. eigenvalues --    0.34516   0.35409   0.35496   0.35954   0.36266
  Beta virt. eigenvalues --    0.36511   0.36886   0.36979   0.37558   0.37670
  Beta virt. eigenvalues --    0.37745   0.38322   0.38840   0.39045   0.39200
  Beta virt. eigenvalues --    0.39523   0.39908   0.40392   0.40867   0.41216
  Beta virt. eigenvalues --    0.42000   0.42326   0.42931   0.43235   0.43337
  Beta virt. eigenvalues --    0.43633   0.44025   0.44100   0.44691   0.45162
  Beta virt. eigenvalues --    0.45486   0.46016   0.46628   0.46946   0.47400
  Beta virt. eigenvalues --    0.47811   0.48326   0.48986   0.49089   0.50690
  Beta virt. eigenvalues --    0.50873   0.51398   0.52883   0.53489   0.53887
  Beta virt. eigenvalues --    0.54358   0.55570   0.56820   0.57364   0.59027
  Beta virt. eigenvalues --    0.60106   0.60806   0.62168   0.64062   0.64850
  Beta virt. eigenvalues --    0.65756   0.65805   0.66261   0.66923   0.66985
  Beta virt. eigenvalues --    0.67632   0.67803   0.68542   0.68602   0.69478
  Beta virt. eigenvalues --    0.69485   0.69931   0.70304   0.70658   0.70842
  Beta virt. eigenvalues --    0.71457   0.72886   0.73319   0.73705   0.74290
  Beta virt. eigenvalues --    0.75325   0.76592   0.77124   0.77575   0.78198
  Beta virt. eigenvalues --    0.78498   0.79363   0.79586   0.79654   0.80474
  Beta virt. eigenvalues --    0.81476   0.82043   0.82514   0.83618   0.83948
  Beta virt. eigenvalues --    0.84091   0.85185   0.85901   0.87463   0.87977
  Beta virt. eigenvalues --    0.88247   0.88651   0.88970   0.89796   0.91932
  Beta virt. eigenvalues --    0.93021   0.93769   0.94316   0.94922   0.96757
  Beta virt. eigenvalues --    0.97300   0.98721   0.99714   1.00646   1.01002
  Beta virt. eigenvalues --    1.01842   1.02203   1.03380   1.04097   1.05457
  Beta virt. eigenvalues --    1.06049   1.06113   1.06708   1.07038   1.07702
  Beta virt. eigenvalues --    1.08776   1.08826   1.09437   1.09754   1.10524
  Beta virt. eigenvalues --    1.11260   1.11683   1.12165   1.13687   1.14803
  Beta virt. eigenvalues --    1.15381   1.15980   1.16163   1.17202   1.17322
  Beta virt. eigenvalues --    1.19208   1.20143   1.21182   1.21382   1.22609
  Beta virt. eigenvalues --    1.22738   1.23435   1.24082   1.25185   1.25674
  Beta virt. eigenvalues --    1.26709   1.29382   1.30136   1.30532   1.31713
  Beta virt. eigenvalues --    1.33203   1.33684   1.36965   1.37155   1.38471
  Beta virt. eigenvalues --    1.38988   1.39213   1.42817   1.43237   1.44735
  Beta virt. eigenvalues --    1.46049   1.47060   1.49300   1.49526   1.50845
  Beta virt. eigenvalues --    1.54746   1.56129   1.58144   1.59590   1.61367
  Beta virt. eigenvalues --    1.61577   1.61923   1.62283   1.62635   1.63535
  Beta virt. eigenvalues --    1.64225   1.65307   1.67007   1.67217   1.68044
  Beta virt. eigenvalues --    1.68069   1.70010   1.70473   1.70522   1.71513
  Beta virt. eigenvalues --    1.72045   1.73809   1.75974   1.77557   1.79065
  Beta virt. eigenvalues --    1.80440   1.80779   1.82945   1.83456   1.85147
  Beta virt. eigenvalues --    1.85391   1.85515   1.87082   1.88834   1.89265
  Beta virt. eigenvalues --    1.91238   1.91603   1.91739   1.94627   1.95602
  Beta virt. eigenvalues --    1.97680   1.98199   1.99417   1.99463   2.00553
  Beta virt. eigenvalues --    2.03160   2.03696   2.03713   2.04910   2.05112
  Beta virt. eigenvalues --    2.05815   2.06995   2.07696   2.09352   2.09689
  Beta virt. eigenvalues --    2.09718   2.09826   2.10701   2.11571   2.13254
  Beta virt. eigenvalues --    2.14664   2.16324   2.17149   2.18229   2.19405
  Beta virt. eigenvalues --    2.19676   2.21890   2.22245   2.25218   2.26673
  Beta virt. eigenvalues --    2.27139   2.28713   2.30908   2.31288   2.35706
  Beta virt. eigenvalues --    2.37725   2.41247   2.42481   2.44678   2.45037
  Beta virt. eigenvalues --    2.47321   2.48224   2.48440   2.49681   2.54385
  Beta virt. eigenvalues --    2.54980   2.57068   2.59436   2.60423   2.61419
  Beta virt. eigenvalues --    2.67002   2.68146   2.69007   2.71637   2.74005
  Beta virt. eigenvalues --    2.75113   2.76294   2.76712   2.78395   2.80603
  Beta virt. eigenvalues --    2.82043   2.82131   2.82564   2.84787   2.85334
  Beta virt. eigenvalues --    2.85515   2.87102   2.87960   2.88231   2.88597
  Beta virt. eigenvalues --    2.88923   2.90133   2.90265   2.90402   2.91374
  Beta virt. eigenvalues --    2.92814   2.93696   2.94427   2.95062   2.96902
  Beta virt. eigenvalues --    2.98512   2.99822   2.99994   3.00645   3.02690
  Beta virt. eigenvalues --    3.02990   3.04735   3.06099   3.09157   3.09611
  Beta virt. eigenvalues --    3.12620   3.13929   3.14256   3.14920   3.18015
  Beta virt. eigenvalues --    3.19341   3.22200   3.24327   3.25643   3.26095
  Beta virt. eigenvalues --    3.30545   3.32574   3.32981   3.34853   3.35873
  Beta virt. eigenvalues --    3.39334   3.42642   3.45908   3.46096   3.47394
  Beta virt. eigenvalues --    3.49735   3.50401   3.51368   3.53633   3.55657
  Beta virt. eigenvalues --    3.58697   3.60199   3.64547   3.65549   3.68485
  Beta virt. eigenvalues --    3.68523   3.70875   3.71408   3.72937   3.74845
  Beta virt. eigenvalues --    3.78058   3.80996   3.88156   3.95212   3.98146
  Beta virt. eigenvalues --    3.99177   4.04537   4.15449   4.18003   4.19940
  Beta virt. eigenvalues --    4.22391   4.23722   4.30599   4.33947   4.40165
  Beta virt. eigenvalues --    4.45962   4.47950   4.70698   4.93415   4.95699
  Beta virt. eigenvalues --    4.96574   4.97842   5.08915   5.22663   5.24169
  Beta virt. eigenvalues --    5.42339   5.48446   5.54084   5.83646   5.90221
  Beta virt. eigenvalues --    5.98134  23.62086  23.76155  23.90349  24.02102
  Beta virt. eigenvalues --   24.04518  24.05262  24.07125  24.07796  24.08494
  Beta virt. eigenvalues --   24.09360  24.11770  24.13044  24.17410  24.21285
  Beta virt. eigenvalues --   24.23070  24.29419  24.30508  24.33026  50.02682
  Beta virt. eigenvalues --   50.19834  50.25037
          Condensed to atoms (all electrons):
               1          2          3          4          5          6
     1  C   11.474887  -1.146317  -0.699960  -0.839273  -3.548554   3.155526
     2  C   -1.146317   8.266182   0.201150  -1.550499   1.075951  -0.918274
     3  C   -0.699960   0.201150   7.464081   0.960539  -0.581680   0.198011
     4  C   -0.839273  -1.550499   0.960539  21.993015   0.608551  -0.983838
[...]
 98543,0.00047175,0.00355193,0.02970968,-0.02535610,0.01047502,0.002510
 81,-0.00326969,-0.00042625,0.00044588,0.00014404,0.00094914,-0.0001412
 5,-0.00136145,-0.00020027,-0.00150952,0.00229795,-0.00098865,0.0010658
 0,-0.00101190,0.00008198,0.00001007,0.00000117,0.00002986,-0.00002938,
 -0.00000396,0.00001893,0.00003569,-0.00001942,-0.00008035,-0.00000962,
 0.00006754,-0.00002785,-0.00000641,0.00000481,0.00002078,0.00001801,0.
 00009652,-0.02057534,-0.00273618,0.00955709,-0.05523395,0.03317143,-0.
 09354009,0.00368521,-0.31155767,0.42090064,0.00034066,0.00011596,-0.00
 011329,0.00001278,-0.00030914,0.00030453,-0.00036969,0.00015933,-0.000
 15807,0.00006325,-0.00042423,0.00041726,-0.00103354,-0.00009029,0.0000
 8712,0.00034900,0.00018109,-0.00017775,-0.00295952,0.00048906,-0.00049
 319,0.01769028,-0.01178150,0.01164753,-0.00335814,-0.00281037,0.002740
 70,0.00227883,-0.00032253,0.00032383,-0.14841857,0.05357724,-0.0529808
 9,-0.01112592,0.02748955,-0.02709094,-0.00040727,-0.00056722,0.0005607
 3,-0.00665580,-0.00122421,0.00116781,-0.00173785,-0.00443449,0.0043528
 5,-0.00072085,-0.00016908,0.00016441,0.00002032,-0.00001808,0.00001789
 ,0.00000750,-0.00000423,0.00000413,-0.00000939,0.00000675,-0.00000660,
 -0.00098318,0.00121699,-0.00120112,0.00001429,-0.00000008,0.00000021,0
 .00017734,0.00006439,-0.00006114,-0.00221516,-0.00671830,0.00660304,-0
 .04334506,-0.01412763,0.01376914,-0.21289382,-0.10019912,0.09812546,0.
 74841373,0.00126920,0.00043518,-0.00035144,0.00042461,-0.00126130,0.00
 120312,-0.00130396,0.00067103,-0.00064589,-0.00121683,-0.00286858,0.00
 277166,-0.00353267,0.00012689,-0.00047685,0.00116482,0.00049979,-0.000
 29099,0.00659159,0.00298645,-0.00283063,-0.00657466,-0.02489323,0.0239
 6990,-0.00922482,0.00574595,-0.00068731,0.00362932,-0.00058138,0.00067
 842,0.03286641,-0.15076411,0.08936505,0.04122636,0.00925061,-0.0068628
 0,0.00412859,0.00042002,-0.00165835,0.00025220,0.00119487,0.00453218,-
 0.00715936,-0.00358647,0.00560224,-0.00137051,0.00091651,-0.00089721,0
 .00017932,0.00003112,-0.00005154,0.00001683,-0.00002083,0.00003758,0.0
 0000451,0.00001741,-0.00004046,-0.00051599,0.00027019,-0.00005998,-0.0
 0003892,-0.00003259,0.00000142,0.00021590,-0.00027826,-0.00029586,-0.0
 0119308,-0.02677256,0.02666516,-0.05074054,0.02432495,-0.02277008,-0.0
 5886867,-0.16453452,0.10887316,0.02261138,0.38766219,-0.00124798,-0.00
 035469,0.00041963,-0.00041765,0.00120019,-0.00122349,0.00128195,-0.000
 64111,0.00065405,0.00119780,0.00277172,-0.00277491,0.00347378,-0.00046
 651,0.00012272,-0.00114582,-0.00029369,0.00048658,-0.00649724,-0.00284
 586,0.00287430,0.00652653,0.02395706,-0.02406778,0.00905250,-0.0006675
 1,0.00576022,-0.00356444,0.00066696,-0.00056925,-0.03260617,0.08942390
 ,-0.14812008,-0.04060067,-0.00690001,0.00883170,-0.00406073,-0.0016724
 7,0.00035583,-0.00028544,0.00452892,0.00134343,0.00702947,0.00560869,-
 0.00336344,0.00134639,-0.00089355,0.00089247,-0.00017623,-0.00005209,0
 .00002897,-0.00001661,0.00003751,-0.00001970,-0.00000439,-0.00004043,0
 .00001610,0.00050413,-0.00005480,0.00026608,0.00003845,0.00000150,-0.0
 0003242,-0.00021028,-0.00029626,-0.00028834,0.00116734,0.02665359,-0.0
 2589199,0.04979196,-0.02266402,0.02377775,0.05745592,0.10874280,-0.160
 53776,-0.02042971,-0.24986063,0.37943421,-0.00057075,-0.00028007,0.000
 27404,-0.00006787,0.00047558,-0.00046852,0.00018725,-0.00047177,0.0004
 6508,0.00088978,0.00123951,-0.00121743,0.00100073,-0.00057646,0.000570
 50,-0.00023980,0.00005730,-0.00005729,-0.00018310,-0.00179304,0.001763
 73,0.00108482,0.00017448,-0.00016555,0.00030791,-0.00011549,0.00011434
 ,-0.00085984,0.00036445,-0.00036135,0.00236917,-0.00279406,0.00276013,
 -0.00344034,-0.00121655,0.00115869,-0.00160662,-0.00039492,0.00038511,
 -0.00043492,0.00164872,-0.00162461,-0.00148522,0.00102600,-0.00101484,
 0.00041884,-0.00078397,0.00077297,0.00002223,0.00004693,-0.00004611,-0
 .00012995,0.00000261,-0.00000294,-0.00006398,-0.00007005,0.00006881,0.
 00026970,-0.00006590,0.00006531,0.00004634,-0.00003362,0.00003325,-0.0
 0001653,-0.00005378,0.00005303,0.00730365,0.00327650,-0.00322105,-0.14
 889961,-0.06972586,0.06827380,-0.03826123,-0.03427498,0.03359640,-0.00
 311001,0.00679879,-0.00671080,0.64907177,-0.00029538,-0.00020841,0.000
 17472,-0.00006541,0.00025381,-0.00020923,-0.00004716,-0.00030852,0.000
 28177,0.00044926,0.00087955,-0.00081328,0.00035846,-0.00049034,0.00051
 414,-0.00002107,0.00016523,-0.00012170,0.00065869,-0.00161029,0.001780
 70,-0.00010113,-0.00093056,0.00014680,-0.00103351,0.00021194,-0.000236
 95,-0.00013297,0.00051111,-0.00054657,-0.00149334,-0.00057204,-0.00082
 590,0.00636265,0.00487545,0.00456114,0.00051292,-0.00034040,-0.0000336
 4,-0.00210530,-0.00052095,0.00073531,-0.00098907,0.00119063,-0.0012791
 7,0.00010349,-0.00061312,0.00062303,0.00001199,0.00003579,-0.00004291,
 -0.00011590,-0.00000726,-0.00000076,-0.00006114,-0.00006133,0.00005328
 ,0.00021761,0.00005113,0.00007330,0.00004800,-0.00002494,0.00002564,-0
 .00008911,-0.00013741,0.00009439,-0.02675106,-0.02134980,0.02690524,-0
 .03187579,-0.12927312,0.09081069,-0.00626470,0.00443471,0.00055119,0.0
 0191581,0.00064196,0.00342073,-0.02024662,0.19122898,0.00028910,0.0001
 7471,-0.00020113,0.00006403,-0.00020756,0.00024599,0.00004698,0.000280
 39,-0.00029805,-0.00043968,-0.00081068,0.00084868,-0.00034994,0.000511
 12,-0.00047340,0.00001992,-0.00012136,0.00016125,-0.00064928,0.0017730
 1,-0.00155018,0.00010499,0.00014678,-0.00092647,0.00101771,-0.00023382
 ,0.00020815,0.00012851,-0.00054466,0.00049308,0.00148057,-0.00082947,-
 0.00058617,-0.00629855,0.00453912,0.00500713,-0.00050814,-0.00003644,-
 0.00034208,0.00206942,0.00074626,-0.00049515,0.00096941,-0.00127268,0.
 00114993,-0.00010066,0.00062004,-0.00059133,-0.00001171,-0.00004279,0.
 00003426,0.00011368,-0.00000039,-0.00000692,0.00005999,0.00005321,-0.0
 0005926,-0.00021369,0.00007250,0.00005305,-0.00004710,0.00002537,-0.00
 002418,0.00008777,0.00009442,-0.00013400,0.02632475,0.02699470,-0.0204
 0725,0.03103001,0.09069776,-0.12603421,0.00603649,0.00046833,0.0045703
 5,-0.00190654,0.00343492,0.00072755,0.02178819,-0.16494967,0.18601955,
 -0.00004236,-0.00007205,0.00007086,-0.00003690,0.00005149,-0.00005077,
 0.00001751,-0.00005387,0.00005310,-0.00011736,0.00016194,-0.00015972,0
 .00012739,-0.00005929,0.00005878,-0.00002645,0.00000470,-0.00000477,0.
 00005879,-0.00043628,0.00042955,-0.00090352,0.00065144,-0.00064491,0.0
 0017848,0.00010684,-0.00010465,-0.00002923,0.00010681,-0.00010538,0.00
 072466,-0.00274557,0.00268806,-0.01782069,0.00314794,-0.00315620,0.000
 14110,-0.00042762,0.00042249,0.00062960,0.00187040,-0.00182917,-0.0001
 5228,0.00008099,-0.00008043,0.00006831,-0.00019637,0.00019363,0.000007
 22,0.00001210,-0.00001188,-0.00002559,-0.00000382,0.00000365,-0.000012
 14,-0.00001277,0.00001254,0.00080359,-0.00062233,0.00061460,0.00000723
 ,-0.00000710,0.00000702,-0.00004503,-0.00004225,0.00004072,-0.31275144
 ,0.02666246,-0.02708734,-0.01352936,-0.00345682,0.00335097,0.00188879,
 0.00228399,-0.00225746,0.00038988,-0.00027366,0.00027423,0.00354861,0.
 00027216,-0.00024397,0.33772928,0.00001444,-0.00002829,0.00000758,-0.0
 0000410,-0.00001805,0.00001303,-0.00002330,0.00000708,-0.00001447,-0.0
 0012578,-0.00002748,-0.00000255,-0.00006070,0.00001709,-0.00001707,0.0
 0002873,0.00001749,0.00000238,0.00002775,-0.00015396,0.00019015,-0.000
 80607,0.00044199,-0.00010989,-0.00015979,0.00004509,-0.00008749,0.0001
 2976,0.00003856,0.00000690,-0.00144652,0.00068695,0.00456858,-0.017229
 99,0.00431001,-0.00273620,0.00032105,-0.00012073,-0.00026992,-0.001393
 35,-0.00110798,-0.00205101,0.00002860,0.00002914,0.00002625,-0.0000015
 4,-0.00003249,-0.00000275,0.00000149,0.00000056,-0.00000243,-0.0000026
 8,0.00000290,0.00000813,0.00000020,-0.00000011,-0.00000040,0.00054484,
 -0.00000563,0.00027242,-0.00000100,-0.00000191,0.00000005,-0.00000064,
 0.00010910,0.00013916,0.02661910,-0.04529608,0.01786337,0.02020983,0.0
 0140876,0.00181460,0.00099835,-0.00009667,0.00532527,-0.00036099,-0.00
 112852,-0.00014186,0.00102842,-0.00052335,-0.00384148,-0.02853702,0.04
 146291,-0.00001426,0.00000731,-0.00002788,0.00000394,0.00001317,-0.000
 01777,0.00002299,-0.00001455,0.00000684,0.00012346,-0.00000170,-0.0000
 2758,0.00006007,-0.00001707,0.00001690,-0.00002840,0.00000232,0.000017
 45,-0.00002711,0.00018861,-0.00014663,0.00078927,-0.00010555,0.0004392
 5,0.00015787,-0.00008651,0.00004245,-0.00012787,0.00000687,0.00003808,
 0.00141035,0.00456442,0.00084688,0.01689596,-0.00267365,0.00426291,-0.
 00031418,-0.00027209,-0.00012918,0.00138194,-0.00204179,-0.00117532,-0
 .00002882,0.00002643,0.00002957,0.00000182,-0.00000335,-0.00003200,-0.
 00000143,-0.00000239,0.00000045,0.00000253,0.00000813,0.00000318,-0.00
 000023,-0.00000044,-0.00000009,-0.00053407,0.00026774,0.00000374,0.000
 00101,0.00000003,-0.00000188,-0.00000023,0.00013908,0.00011369,-0.0270
 4635,0.01786342,-0.04487885,-0.01993438,0.00174379,0.00141627,-0.00099
 303,0.00532904,0.00006603,0.00036012,-0.00014103,-0.00113172,-0.000988
 04,-0.00384334,-0.00065167,0.02902919,-0.02162113,0.04093717,-0.000033
 25,-0.00001534,0.00001496,-0.00000935,0.00003022,-0.00002978,0.0000317
 6,-0.00001441,0.00001432,0.00002071,0.00007864,-0.00007717,0.00008289,
 0.00000014,0.00000027,-0.00002865,-0.00000993,0.00000965,0.00004425,-0
 .00011842,0.00011640,0.00078693,-0.00026007,0.00025718,-0.00003763,-0.
 00017362,0.00017189,-0.00000205,-0.00004359,0.00004283,-0.00200095,-0.
 00238390,0.00231601,-0.00078470,-0.00069761,0.00068732,-0.00015940,-0.
 00003142,0.00003028,0.00012615,0.00016016,-0.00015573,-0.00003841,0.00
 019078,-0.00018818,0.00001655,-0.00003479,0.00003437,-0.00000567,-0.00
 000260,0.00000251,0.00000074,-0.00000031,0.00000029,0.00000127,0.00000
 120,-0.00000118,0.00005462,-0.00005004,0.00004930,0.00000012,0.0000007
 6,-0.00000074,0.00000614,0.00000242,-0.00000241,-0.00579659,-0.0005532
 0,0.00051517,-0.00673151,0.02222047,-0.02189247,-0.09792005,0.06883720
 ,-0.06792848,0.01120675,-0.01345224,0.01326293,0.00238149,-0.00014617,
 0.00015867,-0.00071252,0.00104852,-0.00103553,0.09819708,-0.00003741,-
 0.00002818,0.00004183,-0.00001791,0.00003599,-0.00003669,0.00001262,-0
 .00004236,0.00003123,0.00002620,0.00006687,-0.00013851,0.00007523,-0.0
 0006956,0.00002556,-0.00002170,0.00001286,-0.00000158,0.00008689,-0.00
 008506,0.00023596,0.00072281,-0.00016169,0.00049212,-0.00025737,-0.000
 29578,-0.00006437,0.00002395,0.00005378,-0.00002727,-0.00275741,0.0033
 7372,0.00453531,-0.00039902,-0.00047819,-0.00060194,-0.00008292,0.0000
 0828,0.00003584,0.00002795,-0.00016265,-0.00032762,-0.00017786,0.00016
 113,-0.00005653,0.00001565,-0.00012323,0.00009459,0.00000088,0.0000099
 4,-0.00000022,-0.00001436,0.00000151,0.00000446,-0.00000658,-0.0000054
 3,0.00000676,0.00003015,0.00000851,0.00002830,0.00000607,-0.00000369,0
 .00000225,0.00000583,0.00000037,0.00001586,0.00045642,0.00289310,0.001
 22375,-0.00104474,-0.00028558,0.00340198,0.07033143,-0.16322795,0.1305
 2009,0.00753038,-0.00850127,0.01047335,0.00020448,-0.00068431,-0.00199
 146,0.00001346,0.00027213,0.00029312,-0.07480736,0.16940827,0.00003669
 ,0.00004190,-0.00002668,0.00001764,-0.00003659,0.00003483,-0.00001236,
 0.00003115,-0.00004139,-0.00002550,-0.00013846,0.00006227,-0.00007388,
 0.00002526,-0.00006901,0.00002131,-0.00000150,0.00001289,-0.00008586,0
 .00023538,-0.00007761,-0.00071009,0.00048863,-0.00014666,0.00025415,-0
 .00006398,-0.00029668,-0.00002346,-0.00002756,0.00005311,0.00268352,0.
 00453707,0.00353518,0.00039351,-0.00060268,-0.00049463,0.00008112,0.00
 003603,0.00000976,-0.00002566,-0.00032737,-0.00017363,0.00017427,-0.00
 005554,0.00015964,-0.00001541,0.00009452,-0.00012031,-0.00000090,-0.00
 000023,0.00000994,0.00001412,0.00000451,0.00000170,0.00000648,0.000006
 78,-0.00000520,-0.00002959,0.00002807,0.00000948,-0.00000597,0.0000022
 3,-0.00000364,-0.00000576,0.00001586,0.00000085,-0.00047834,0.00122106
 ,0.00293304,0.00099849,0.00347037,-0.00023690,-0.06939817,0.13051730,-
 0.15941210,-0.00738272,0.01040984,-0.00814410,-0.00018599,-0.00199267,
 -0.00074886,-0.00001697,0.00029613,0.00027859,0.07382776,-0.14471791,0
 .16516182,-0.00032359,-0.00003384,0.00003230,0.00003817,0.00012750,-0.
 00012522,-0.00003000,-0.00006301,0.00006178,0.00018294,0.00107230,-0.0
 0105672,0.00026676,-0.00018757,0.00018553,0.00005145,0.00011826,-0.000
 11606,0.00398447,-0.00372351,0.00367715,-0.00058788,-0.00007838,0.0000
 8073,-0.00041718,0.00039311,-0.00038640,-0.00007857,-0.00033200,0.0003
 2574,-0.00543863,0.00073870,-0.00075507,0.00088778,0.00085580,-0.00085
 753,0.00029371,-0.00000320,0.00000436,-0.00056433,-0.00016002,0.000157
 01,-0.01053037,-0.00038684,0.00035036,-0.00023456,0.00033033,-0.000325
 79,-0.00008307,-0.00003736,0.00003645,0.00002373,0.00000561,-0.0000054
 5,0.00001239,0.00001717,-0.00001686,0.00001269,0.00004159,-0.00004098,
 0.00000229,0.00001936,-0.00001910,-0.00001168,0.00002448,-0.00002434,0
 .00096633,0.00005667,-0.00004941,0.00094698,-0.00134819,0.00130265,-0.
 00928617,0.00117689,-0.00119845,-0.34037745,0.03304206,-0.03339379,-0.
 00038581,0.00000144,-0.00000335,-0.00000131,-0.00002104,0.00002250,0.0
 0088188,0.00000769,0.00001053,0.35974448,-0.00014942,0.00005538,-0.000
 05514,0.00000683,0.00002583,-0.00007495,-0.00005053,0.00001770,0.00002
 526,0.00011779,0.00099202,-0.00041545,0.00007264,-0.00013520,0.0000862
 9,0.00007231,0.00006339,-0.00013972,0.00228925,-0.00423001,0.00434398,
 -0.00095011,-0.00065913,-0.00160587,-0.00011337,-0.00000619,-0.0005398
 8,0.00003944,-0.00011895,0.00036013,0.02229946,0.00250028,0.00156610,0
 .00109874,-0.00010412,0.00603108,0.00016789,-0.00004055,-0.00005507,0.
 00097473,0.00014550,-0.00045519,-0.00266074,0.00124424,-0.00272042,-0.
 00024623,0.00027741,-0.00029286,-0.00009323,-0.00001857,0.00003809,0.0
 0002825,0.00000774,-0.00000436,0.00000952,0.00001593,-0.00001727,0.000
 21928,-0.00024795,0.00026097,0.00000422,0.00002407,-0.00000901,-0.0000
 2724,0.00004659,0.00001977,-0.00004946,-0.00096017,-0.00018315,-0.0014
 7192,0.00262268,0.00608410,-0.01825881,0.00478478,-0.00057042,0.029019
 69,-0.05126368,0.01010002,-0.00095568,0.00014367,0.00007148,0.00006354
 ,-0.00025090,-0.00033191,0.00034191,-0.00193696,-0.00314966,-0.0315717
 0,0.04727395,0.00014598,-0.00005478,0.00005414,-0.00000644,-0.00007461
 ,0.00002307,0.00004944,0.00002525,0.00001886,-0.00011786,-0.00041174,0
 .00097537,-0.00007055,0.00008530,-0.00013217,-0.00007076,-0.00013955,0
 .00005828,-0.00224529,0.00431059,-0.00408767,0.00094260,-0.00161725,-0
 .00070755,0.00011222,-0.00053863,-0.00002449,-0.00003972,0.00035884,-0
 .00010646,-0.02196593,0.00151262,0.00247095,-0.00109621,0.00603026,0.0
 0008510,-0.00016383,-0.00005567,-0.00004284,-0.00095963,-0.00045866,0.
 00012832,0.00258748,-0.00269432,0.00114692,0.00024157,-0.00029101,0.00
 026771,0.00009131,0.00003817,-0.00001701,-0.00002774,-0.00000444,0.000
 00749,-0.00000933,-0.00001724,0.00001530,-0.00021570,0.00026036,-0.000
 24026,-0.00000419,-0.00000896,0.00002370,0.00002661,0.00001992,0.00004
 723,0.00005459,-0.00018315,-0.00096570,0.00142503,0.00608497,0.0028279
 4,0.01792686,-0.00051345,0.00481873,-0.02943965,0.01011227,-0.05112637
 ,0.00093887,0.00007442,0.00014880,-0.00006074,-0.00033220,-0.00026178,
 -0.00031887,-0.00315080,-0.00204009,0.03204553,-0.01838482,0.04690183,
 0.00005093,0.00002868,-0.00002830,0.00001547,-0.00004141,0.00004098,0.
 00000230,0.00004876,-0.00004804,-0.00007886,-0.00015964,0.00015664,-0.
 00008327,0.00008332,-0.00008197,0.00000878,-0.00002398,0.00002368,-0.0
 0012469,0.00030761,-0.00030257,-0.00001500,0.00007932,-0.00007891,0.00
 019256,-0.00003296,0.00003249,0.00004197,-0.00011899,0.00011712,0.0004
 4826,-0.00011846,0.00011768,-0.00123396,-0.00000701,0.00001015,-0.0001
 8320,0.00001736,-0.00001733,0.00040885,0.00020859,-0.00020440,0.000073
 94,-0.00028596,0.00028172,-0.00003538,0.00012087,-0.00011904,0.0000014
 6,-0.00000489,0.00000481,0.00001788,-0.00000021,0.00000025,0.00001051,
 0.00000970,-0.00000953,-0.00003934,0.00000682,-0.00000681,-0.00000882,
 0.00000347,-0.00000345,0.00001725,0.00002159,-0.00002127,0.00628398,0.
 00260006,-0.00254212,-0.03185021,0.00588345,-0.00587754,0.00058660,-0.
 00395135,0.00388445,-0.00124339,0.00104400,-0.00103541,-0.46914672,0.0
 8092233,-0.08101760,-0.00011426,-0.00082656,0.00081090,0.00042138,0.00
 004657,-0.00004294,0.00005456,-0.00022706,0.00022436,0.49552042,-0.000
 01102,0.00005253,0.00001891,0.00003586,-0.00004347,-0.00001304,-0.0000
 2011,0.00002340,-0.00000775,0.00005365,-0.00000280,0.00009472,-0.00009
 776,-0.00003469,-0.00007205,0.00003568,-0.00000676,-0.00001355,-0.0000
 5562,-0.00002848,-0.00015633,0.00010084,0.00014295,0.00008410,0.000227
 28,0.00004125,0.00014195,0.00009401,-0.00012159,0.00018338,0.00020034,
 0.00010049,-0.00000389,0.00016362,-0.00172235,-0.00055349,-0.00035886,
 -0.00008026,-0.00003421,0.00012521,0.00028551,-0.00015248,0.00003823,-
 0.00006946,0.00002946,-0.00006398,0.00012258,-0.00013933,-0.00000065,-
 0.00000335,0.00000761,0.00001304,0.00000295,0.00000160,0.00000813,0.00
 000990,-0.00000519,0.00001566,-0.00004348,0.00003741,-0.00000652,0.000
 00321,-0.00000033,0.00000492,0.00001615,0.00000680,-0.00221543,0.00115
 604,-0.00037570,-0.02872396,0.00310611,-0.00508576,-0.00187836,-0.0019
 3989,0.00359849,-0.00081613,0.00129219,0.00025857,0.11750907,-0.046967
 83,0.04417832,0.00145658,-0.00005761,0.00070303,-0.00011737,-0.0002145
 6,-0.00034794,-0.00008233,-0.00026880,0.00001832,-0.08563403,0.0452501
 0,0.00001078,0.00001906,0.00005310,-0.00003507,-0.00001330,-0.00004387
 ,0.00001974,-0.00000754,0.00002307,-0.00005328,0.00009405,0.00000046,0
 .00009626,-0.00007157,-0.00003693,-0.00003501,-0.00001371,-0.00000723,
 0.00005489,-0.00015527,-0.00003405,-0.00009987,0.00008407,0.00014504,-
 0.00022358,0.00014120,0.00004521,-0.00009258,0.00018268,-0.00011566,-0
 .00019614,-0.00000478,0.00010024,-0.00015782,-0.00055416,-0.00174077,0
 .00035284,-0.00003311,-0.00008039,-0.00012233,-0.00015208,0.00027969,-
 0.00003726,0.00002853,-0.00006782,0.00006289,-0.00013872,0.00011796,0.
 00000063,0.00000760,-0.00000309,-0.00001280,0.00000156,0.00000296,-0.0
 0000798,-0.00000518,0.00000969,-0.00001551,0.00003740,-0.00004235,0.00
 000638,-0.00000030,0.00000321,-0.00000486,0.00000685,0.00001629,0.0021
 9567,-0.00036110,0.00114332,0.02817467,-0.00498370,0.00301119,0.001844
 92,0.00359245,-0.00180632,0.00079485,0.00026412,0.00129978,-0.11701773
 ,0.04406931,-0.04613744,-0.00143501,0.00069687,-0.00003708,0.00011841,
 -0.00034747,-0.00022559,0.00008189,0.00001787,-0.00026734,0.08573200,-
 0.04240166,0.04439471\\-0.00000858,-0.00000674,0.00000610,-0.00000177,
 0.00001086,-0.00001070,0.00001002,-0.00000795,0.00000777,0.00001031,0.
 00000362,-0.00000661,0.00000340,0.00000608,0.00000032,-0.00000946,0.00
 000152,-0.00000075,-0.00000461,0.00000023,0.00001198,0.00000980,-0.000
 00179,-0.00000116,0.00001416,0.00001362,-0.00000770,-0.00000622,-0.000
 02814,0.00000513,0.00001191,-0.00000937,0.00000880,-0.00001326,-0.0000
 0889,0.00000859,-0.00001253,-0.00000254,0.00000307,0.00000554,0.000008
 48,-0.00000869,-0.00000045,-0.00000412,-0.00000012,-0.00001010,0.00001
 631,-0.00000774,-0.00000040,0.00000242,-0.00000178,0.00000187,-0.00000
 057,0.00000097,-0.00000008,0.00000181,-0.00000196,-0.00000200,-0.00000
 149,0.00000092,0.00000146,-0.00000192,0.00000130,0.00000324,-0.0000003
 5,-0.00000041,0.00000069,0.00001207,-0.00001181,0.00001962,-0.00000891
 ,0.00000900,-0.00001441,-0.00000442,0.00000436,0.00000986,0.00001272,-
 0.00001229,-0.00001032,-0.00000041,0.00000051,-0.00000254,-0.00000324,
 0.00000295,0.00000196,0.00000230,-0.00000190,-0.00000126,0.00000123,-0
 .00000062,-0.00000586,-0.00000242,0.00000248\\\@


 NOTHING MAKES A PERSON MORE PRODUCTIVE THAN THE LAST MINUTE.
 Job cpu time:       0 days 12 hours 27 minutes 34.6 seconds.
 Elapsed time:       0 days  2 hours 12 minutes 13.0 seconds.
 File lengths (MBytes):  RWF=   1554 Int=      0 D2E=      0 Chk=     32 Scr=      1
 Normal termination of Gaussian 16 at Sun Jan  7 09:17:11 2024.
