 Entering Gaussian System, Link 0=g16
 Input=293.com
 Output=293.log
 Initial command:
 /sysapps/ubuntu-applications/gaussian/Gaussian/AVX2/g16/l1.exe "/scratch/selhajj1/4235649/Gau-3704178.inp" -scrdir="/scratch/selhajj1/4235649/"
 Entering Link 1 = /sysapps/ubuntu-applications/gaussian/Gaussian/AVX2/g16/l1.exe PID=   3704182.
  
 Copyright (c) 1988,1990,1992,1993,1995,1998,2003,2009,2016,
            Gaussian, Inc.  All Rights Reserved.
  
 This is part of the Gaussian(R) 16 program.  It is based on
 the Gaussian(R) 09 system (copyright 2009, Gaussian, Inc.),
 the Gaussian(R) 03 system (copyright 2003, Gaussian, Inc.),
 the Gaussian(R) 98 system (copyright 1998, Gaussian, Inc.),
 the Gaussian(R) 94 system (copyright 1995, Gaussian, Inc.),
 the Gaussian 92(TM) system (copyright 1992, Gaussian, Inc.),
 the Gaussian 90(TM) system (copyright 1990, Gaussian, Inc.),
 the Gaussian 88(TM) system (copyright 1988, Gaussian, Inc.),
 the Gaussian 86(TM) system (copyright 1986, Carnegie Mellon
 University), and the Gaussian 82(TM) system (copyright 1983,
 Carnegie Mellon University). Gaussian is a federally registered
 trademark of Gaussian, Inc.
  
 This software contains proprietary and confidential information,
 including trade secrets, belonging to Gaussian, Inc.
  
 This software is provided under written license and may be
 used, copied, transmitted, or stored only in accord with that
 written license.
  
 The following legend is applicable only to US Government
 contracts under FAR:
  
                    RESTRICTED RIGHTS LEGEND
  
 Use, reproduction and disclosure by the US Government is
 subject to restrictions as set forth in subparagraphs (a)
 and (c) of the Commercial Computer Software - Restricted
 Rights clause in FAR 52.227-19.
  
 Gaussian, Inc.
 340 Quinnipiac St., Bldg. 40, Wallingford CT 06492
  
  
 ---------------------------------------------------------------
 Warning -- This program may not be used in any manner that
 competes with the business of Gaussian, Inc. or will provide
 assistance to any competitor of Gaussian, Inc.  The licensee
 of this program is prohibited from giving any competitor of
 Gaussian, Inc. access to this program.  By using this program,
 the user acknowledges that Gaussian, Inc. is engaged in the
 business of creating and licensing software in the field of
 computational chemistry and represents and warrants to the
 licensee that it is not a competitor of Gaussian, Inc. and that
 it will not use this program in any manner prohibited above.
 ---------------------------------------------------------------
  

 Cite this work as:
 Gaussian 16, Revision A.03,
 M. J. Frisch, G. W. Trucks, H. B. Schlegel, G. E. Scuseria, 
 M. A. Robb, J. R. Cheeseman, G. Scalmani, V. Barone, 
 G. A. Petersson, H. Nakatsuji, X. Li, M. Caricato, A. V. Marenich, 
 J. Bloino, B. G. Janesko, R. Gomperts, B. Mennucci, H. P. Hratchian, 
 J. V. Ortiz, A. F. Izmaylov, J. L. Sonnenberg, D. Williams-Young, 
 F. Ding, F. Lipparini, F. Egidi, J. Goings, B. Peng, A. Petrone, 
 T. Henderson, D. Ranasinghe, V. G. Zakrzewski, J. Gao, N. Rega, 
 G. Zheng, W. Liang, M. Hada, M. Ehara, K. Toyota, R. Fukuda, 
 J. Hasegawa, M. Ishida, T. Nakajima, Y. Honda, O. Kitao, H. Nakai, 
 T. Vreven, K. Throssell, J. A. Montgomery, Jr., J. E. Peralta, 
 F. Ogliaro, M. J. Bearpark, J. J. Heyd, E. N. Brothers, K. N. Kudin, 
 V. N. Staroverov, T. A. Keith, R. Kobayashi, J. Normand, 
 K. Raghavachari, A. P. Rendell, J. C. Burant, S. S. Iyengar, 
 J. Tomasi, M. Cossi, J. M. Millam, M. Klene, C. Adamo, R. Cammi, 
 J. W. Ochterski, R. L. Martin, K. Morokuma, O. Farkas, 
 J. B. Foresman, and D. J. Fox, Gaussian, Inc., Wallingford CT, 2016.
 
 ******************************************
 Gaussian 16:  ES64L-G16RevA.03 25-Dec-2016
                28-Dec-2023 
 ******************************************
 %chk=293.chk
 %nproc=8
 Will use up to    8 processors via shared memory.
 %mem=30GB
 --------------------------------------
 #P UB3LYP/6-311++G(d,p) nosym opt freq
 --------------------------------------
 1/18=20,19=15,26=3,38=1/1,3;
 2/9=110,12=2,15=1,17=6,18=5,40=1/2;
 3/5=4,6=6,7=1111,11=2,25=1,30=1,71=1,74=-5,116=2/1,2,3;
 4//1;
 5/5=2,38=5/2;
 6/7=2,8=2,9=2,10=2,28=1/1;
 7/30=1/1,2,3,16;
 1/18=20,19=15,26=3/3(2);
 2/9=110,15=1/2;
 99//99;
 2/9=110,15=1/2;
 3/5=4,6=6,7=1111,11=2,25=1,30=1,71=1,74=-5,116=2/1,2,3;
 4/5=5,16=3,69=1/1;
 5/5=2,38=5/2;
 7/30=1/1,2,3,16;
 1/18=20,19=15,26=3/3(-5);
 2/9=110,15=1/2;
 6/7=2,8=2,9=2,10=2,19=2,28=1/1;
 99/9=1/99;
 Leave Link    1 at Thu Dec 28 19:45:32 2023, MaxMem=  4026531840 cpu:              22.3 elap:               3.2
 (Enter /sysapps/ubuntu-applications/gaussian/Gaussian/AVX2/g16/l101.exe)
 --------
 Oxidized
 --------
 Symbolic Z-matrix:
 Charge =  0 Multiplicity = 1
 C                    -0.44931   1.16472  -0.63301 
 C                    -1.54576   0.44011  -0.16017 
 C                    -1.36191  -0.83299   0.38056 
 C                     0.8455    0.61748  -0.5671 
 C                     1.0312   -0.66522  -0.02425 
 C                    -0.08112  -1.38626   0.44918 
 C                     2.02059   1.37156  -1.05878 
 C                     3.39031   0.78563  -0.97165 
 C                     3.58184  -0.46059  -0.4466 
 C                     2.39802  -1.23639   0.04247 
 O                     1.87025   2.48689  -1.53673 
 O                     2.56018  -2.35466   0.51158 
 O                     4.43176   1.51824  -1.4267 
 H                    -0.6136    2.15132  -1.04793 
 H                    -2.53921   0.86668  -0.21239 
 H                    -2.21303  -1.39215   0.74739 
 H                     0.03891  -2.37544   0.873 
 H                     4.32943   2.40176  -1.80663 
 C                     4.938    -1.16362  -0.29933 
 C                     6.20879  -0.40655  -0.71905 
 H                     4.89145  -2.11096  -0.87993 
 H                     5.05328  -1.42098   0.77679 
 H                     6.28699   0.52354  -0.11424 
 H                     6.165    -0.15735  -1.80158 
 C                     7.46111  -1.25816  -0.46692 
 C                     8.74124  -0.47329  -0.79868 
 C                     10.04047  -1.21714  -0.54717 
 C                     11.2456  -0.52522  -0.75019 
 C                     10.09797  -2.55479  -0.10662 
 C                     11.33009  -3.17406   0.11847 
 C                     12.53001  -2.48506  -0.08797 
 C                     12.47749  -1.14469  -0.51674 
 O                     13.69068  -3.14208   0.18192 
 C                     14.96268  -2.88719  -0.22626 
 C                     15.27166  -2.20678  -1.42272 
 C                     16.01143  -3.36089   0.57458 
 C                     17.34262  -3.14209   0.20936 
 C                     16.6058  -1.98895  -1.78449 
 C                     17.63995  -2.45271  -0.96774 
 H                     7.40651  -2.17653  -1.09191 
 H                     7.48976  -1.54427   0.60788 
 H                     8.75027   0.44245  -0.16726 
 H                     8.71397  -0.16322  -1.86621 
 H                     11.23045   0.50764  -1.07714 
 H                     9.20304  -3.13362   0.07044 
 H                     11.3522  -4.20137   0.46065 
 H                     13.37464  -0.56011  -0.65579 
 H                     14.49656  -1.85502  -2.08785 
 H                     15.79222  -3.89786   1.48913 
 H                     18.14313  -3.50831   0.83925 
 H                     16.83858  -1.46423  -2.7021 
 H                     18.67122  -2.28428  -1.25004 
 
 ITRead=  0  0  0  0  0  0  0  0  0  0  0  0  0  0  0  0  0  0  0  0
 ITRead=  0  0  0  0  0  0  0  0  0  0  0  0  0  0  0  0  0  0  0  0
 ITRead=  0  0  0  0  0  0  0  0  0  0  0  0
 MicOpt= -1 -1 -1 -1 -1 -1 -1 -1 -1 -1 -1 -1 -1 -1 -1 -1 -1 -1 -1 -1
 MicOpt= -1 -1 -1 -1 -1 -1 -1 -1 -1 -1 -1 -1 -1 -1 -1 -1 -1 -1 -1 -1
 MicOpt= -1 -1 -1 -1 -1 -1 -1 -1 -1 -1 -1 -1
 NAtoms=     52 NQM=       52 NQMF=       0 NMMI=      0 NMMIF=      0
                NMic=       0 NMicF=      0.
                    Isotopes and Nuclear Properties:
 (Nuclear quadrupole moments (NQMom) in fm**2, nuclear magnetic moments (NMagM)
  in nuclear magnetons)

  Atom         1           2           3           4           5           6           7           8           9          10
 IAtWgt=          12          12          12          12          12          12          12          12          12          12
 AtmWgt=  12.0000000  12.0000000  12.0000000  12.0000000  12.0000000  12.0000000  12.0000000  12.0000000  12.0000000  12.0000000
 NucSpn=           0           0           0           0           0           0           0           0           0           0
 AtZEff=  -0.0000000  -0.0000000  -0.0000000  -0.0000000  -0.0000000  -0.0000000  -0.0000000  -0.0000000  -0.0000000  -0.0000000
 NQMom=    0.0000000   0.0000000   0.0000000   0.0000000   0.0000000   0.0000000   0.0000000   0.0000000   0.0000000   0.0000000
 NMagM=    0.0000000   0.0000000   0.0000000   0.0000000   0.0000000   0.0000000   0.0000000   0.0000000   0.0000000   0.0000000
 AtZNuc=   6.0000000   6.0000000   6.0000000   6.0000000   6.0000000   6.0000000   6.0000000   6.0000000   6.0000000   6.0000000

  Atom        11          12          13          14          15          16          17          18          19          20
 IAtWgt=          16          16          16           1           1           1           1           1          12          12
 AtmWgt=  15.9949146  15.9949146  15.9949146   1.0078250   1.0078250   1.0078250   1.0078250   1.0078250  12.0000000  12.0000000
 NucSpn=           0           0           0           1           1           1           1           1           0           0
 AtZEff=  -0.0000000  -0.0000000  -0.0000000  -0.0000000  -0.0000000  -0.0000000  -0.0000000  -0.0000000  -0.0000000  -0.0000000
 NQMom=    0.0000000   0.0000000   0.0000000   0.0000000   0.0000000   0.0000000   0.0000000   0.0000000   0.0000000   0.0000000
 NMagM=    0.0000000   0.0000000   0.0000000   2.7928460   2.7928460   2.7928460   2.7928460   2.7928460   0.0000000   0.0000000
 AtZNuc=   8.0000000   8.0000000   8.0000000   1.0000000   1.0000000   1.0000000   1.0000000   1.0000000   6.0000000   6.0000000

  Atom        21          22          23          24          25          26          27          28          29          30
 IAtWgt=           1           1           1           1          12          12          12          12          12          12
 AtmWgt=   1.0078250   1.0078250   1.0078250   1.0078250  12.0000000  12.0000000  12.0000000  12.0000000  12.0000000  12.0000000
 NucSpn=           1           1           1           1           0           0           0           0           0           0
 AtZEff=  -0.0000000  -0.0000000  -0.0000000  -0.0000000  -0.0000000  -0.0000000  -0.0000000  -0.0000000  -0.0000000  -0.0000000
 NQMom=    0.0000000   0.0000000   0.0000000   0.0000000   0.0000000   0.0000000   0.0000000   0.0000000   0.0000000   0.0000000
 NMagM=    2.7928460   2.7928460   2.7928460   2.7928460   0.0000000   0.0000000   0.0000000   0.0000000   0.0000000   0.0000000
 AtZNuc=   1.0000000   1.0000000   1.0000000   1.0000000   6.0000000   6.0000000   6.0000000   6.0000000   6.0000000   6.0000000

  Atom        31          32          33          34          35          36          37          38          39          40
 IAtWgt=          12          12          16          12          12          12          12          12          12           1
 AtmWgt=  12.0000000  12.0000000  15.9949146  12.0000000  12.0000000  12.0000000  12.0000000  12.0000000  12.0000000   1.0078250
 NucSpn=           0           0           0           0           0           0           0           0           0           1
 AtZEff=  -0.0000000  -0.0000000  -0.0000000  -0.0000000  -0.0000000  -0.0000000  -0.0000000  -0.0000000  -0.0000000  -0.0000000
 NQMom=    0.0000000   0.0000000   0.0000000   0.0000000   0.0000000   0.0000000   0.0000000   0.0000000   0.0000000   0.0000000
 NMagM=    0.0000000   0.0000000   0.0000000   0.0000000   0.0000000   0.0000000   0.0000000   0.0000000   0.0000000   2.7928460
 AtZNuc=   6.0000000   6.0000000   8.0000000   6.0000000   6.0000000   6.0000000   6.0000000   6.0000000   6.0000000   1.0000000

  Atom        41          42          43          44          45          46          47          48          49          50
 IAtWgt=           1           1           1           1           1           1           1           1           1           1
 AtmWgt=   1.0078250   1.0078250   1.0078250   1.0078250   1.0078250   1.0078250   1.0078250   1.0078250   1.0078250   1.0078250
 NucSpn=           1           1           1           1           1           1           1           1           1           1
 AtZEff=  -0.0000000  -0.0000000  -0.0000000  -0.0000000  -0.0000000  -0.0000000  -0.0000000  -0.0000000  -0.0000000  -0.0000000
 NQMom=    0.0000000   0.0000000   0.0000000   0.0000000   0.0000000   0.0000000   0.0000000   0.0000000   0.0000000   0.0000000
 NMagM=    2.7928460   2.7928460   2.7928460   2.7928460   2.7928460   2.7928460   2.7928460   2.7928460   2.7928460   2.7928460
 AtZNuc=   1.0000000   1.0000000   1.0000000   1.0000000   1.0000000   1.0000000   1.0000000   1.0000000   1.0000000   1.0000000

  Atom        51          52
 IAtWgt=           1           1
 AtmWgt=   1.0078250   1.0078250
 NucSpn=           1           1
 AtZEff=  -0.0000000  -0.0000000
 NQMom=    0.0000000   0.0000000
 NMagM=    2.7928460   2.7928460
 AtZNuc=   1.0000000   1.0000000
 Leave Link  101 at Thu Dec 28 19:45:33 2023, MaxMem=  4026531840 cpu:               6.2 elap:               0.8
 (Enter /sysapps/ubuntu-applications/gaussian/Gaussian/AVX2/g16/l103.exe)

 GradGradGradGradGradGradGradGradGradGradGradGradGradGradGradGradGradGrad
 Berny optimization.
 Initialization pass.
                           ----------------------------
                           !    Initial Parameters    !
                           ! (Angstroms and Degrees)  !
 --------------------------                            --------------------------
 ! Name  Definition              Value          Derivative Info.                !
 --------------------------------------------------------------------------------
 ! R1    R(1,2)                  1.3967         estimate D2E/DX2                !
 ! R2    R(1,4)                  1.4073         estimate D2E/DX2                !
 ! R3    R(1,14)                 1.0828         estimate D2E/DX2                !
 ! R4    R(2,3)                  1.3953         estimate D2E/DX2                !
 ! R5    R(2,15)                 1.0824         estimate D2E/DX2                !
 ! R6    R(3,6)                  1.3969         estimate D2E/DX2                !
 ! R7    R(3,16)                 1.0824         estimate D2E/DX2                !
 ! R8    R(4,5)                  1.4052         estimate D2E/DX2                !
 ! R9    R(4,7)                  1.4803         estimate D2E/DX2                !
 ! R10   R(5,6)                  1.4076         estimate D2E/DX2                !
 ! R11   R(5,10)                 1.4829         estimate D2E/DX2                !
 ! R12   R(6,17)                 1.0828         estimate D2E/DX2                !
 ! R13   R(7,8)                  1.4923         estimate D2E/DX2                !
 ! R14   R(7,11)                 1.2227         estimate D2E/DX2                !
 ! R15   R(8,9)                  1.3658         estimate D2E/DX2                !
 ! R16   R(8,13)                 1.3522         estimate D2E/DX2                !
 ! R17   R(9,10)                 1.4975         estimate D2E/DX2                !
 ! R18   R(9,19)                 1.5346         estimate D2E/DX2                !
 ! R19   R(10,12)                1.2235         estimate D2E/DX2                !
 ! R20   R(13,18)                0.9672         estimate D2E/DX2                !
 ! R21   R(19,20)                1.5376         estimate D2E/DX2                !
 ! R22   R(19,21)                1.1121         estimate D2E/DX2                !
 ! R23   R(19,22)                1.1125         estimate D2E/DX2                !
 ! R24   R(20,23)                1.1122         estimate D2E/DX2                !
 ! R25   R(20,24)                1.1117         estimate D2E/DX2                !
 ! R26   R(20,25)                1.5353         estimate D2E/DX2                !
 ! R27   R(25,26)                1.5378         estimate D2E/DX2                !
 ! R28   R(25,40)                1.1122         estimate D2E/DX2                !
 ! R29   R(25,41)                1.1126         estimate D2E/DX2                !
 ! R30   R(26,27)                1.5181         estimate D2E/DX2                !
 ! R31   R(26,42)                1.1124         estimate D2E/DX2                !
 ! R32   R(26,43)                1.112          estimate D2E/DX2                !
 ! R33   R(27,28)                1.4044         estimate D2E/DX2                !
 ! R34   R(27,29)                1.4095         estimate D2E/DX2                !
 ! R35   R(28,32)                1.3985         estimate D2E/DX2                !
 ! R36   R(28,44)                1.0835         estimate D2E/DX2                !
 ! R37   R(29,30)                1.3972         estimate D2E/DX2                !
 ! R38   R(29,45)                1.0804         estimate D2E/DX2                !
 ! R39   R(30,31)                1.399          estimate D2E/DX2                !
 ! R40   R(30,46)                1.083          estimate D2E/DX2                !
 ! R41   R(31,32)                1.4083         estimate D2E/DX2                !
 ! R42   R(31,33)                1.3608         estimate D2E/DX2                !
 ! R43   R(32,47)                1.0798         estimate D2E/DX2                !
 ! R44   R(33,34)                1.36           estimate D2E/DX2                !
 ! R45   R(34,35)                1.4107         estimate D2E/DX2                !
 ! R46   R(34,36)                1.402          estimate D2E/DX2                !
 ! R47   R(35,38)                1.3994         estimate D2E/DX2                !
 ! R48   R(35,48)                1.0802         estimate D2E/DX2                !
 ! R49   R(36,37)                1.3976         estimate D2E/DX2                !
 ! R50   R(36,49)                1.083          estimate D2E/DX2                !
 ! R51   R(37,39)                1.3961         estimate D2E/DX2                !
 ! R52   R(37,50)                1.0825         estimate D2E/DX2                !
 ! R53   R(38,39)                1.397          estimate D2E/DX2                !
 ! R54   R(38,51)                1.0824         estimate D2E/DX2                !
 ! R55   R(39,52)                1.0824         estimate D2E/DX2                !
 ! A1    A(2,1,4)              120.3111         estimate D2E/DX2                !
 ! A2    A(2,1,14)             118.901          estimate D2E/DX2                !
 ! A3    A(4,1,14)             120.7879         estimate D2E/DX2                !
 ! A4    A(1,2,3)              120.0725         estimate D2E/DX2                !
 ! A5    A(1,2,15)             119.9812         estimate D2E/DX2                !
 ! A6    A(3,2,15)             119.9463         estimate D2E/DX2                !
 ! A7    A(2,3,6)              120.0814         estimate D2E/DX2                !
 ! A8    A(2,3,16)             119.9376         estimate D2E/DX2                !
 ! A9    A(6,3,16)             119.981          estimate D2E/DX2                !
 ! A10   A(1,4,5)              119.6478         estimate D2E/DX2                !
 ! A11   A(1,4,7)              121.114          estimate D2E/DX2                !
 ! A12   A(5,4,7)              119.2381         estimate D2E/DX2                !
 ! A13   A(4,5,6)              119.546          estimate D2E/DX2                !
 ! A14   A(4,5,10)             119.393          estimate D2E/DX2                !
 ! A15   A(6,5,10)             121.061          estimate D2E/DX2                !
 ! A16   A(3,6,5)              120.3411         estimate D2E/DX2                !
 ! A17   A(3,6,17)             118.8615         estimate D2E/DX2                !
 ! A18   A(5,6,17)             120.7974         estimate D2E/DX2                !
 ! A19   A(4,7,8)              120.6108         estimate D2E/DX2                !
 ! A20   A(4,7,11)             119.7964         estimate D2E/DX2                !
 ! A21   A(8,7,11)             119.5922         estimate D2E/DX2                !
 ! A22   A(7,8,9)              120.6241         estimate D2E/DX2                !
 ! A23   A(7,8,13)             118.33           estimate D2E/DX2                !
 ! A24   A(9,8,13)             121.0459         estimate D2E/DX2                !
 ! A25   A(8,9,10)             119.1696         estimate D2E/DX2                !
 ! A26   A(8,9,19)             125.367          estimate D2E/DX2                !
 ! A27   A(10,9,19)            115.4629         estimate D2E/DX2                !
 ! A28   A(5,10,9)             120.9596         estimate D2E/DX2                !
 ! A29   A(5,10,12)            119.4375         estimate D2E/DX2                !
 ! A30   A(9,10,12)            119.6014         estimate D2E/DX2                !
 ! A31   A(8,13,18)            123.0686         estimate D2E/DX2                !
 ! A32   A(9,19,20)            118.5939         estimate D2E/DX2                !
 ! A33   A(9,19,21)            107.6471         estimate D2E/DX2                !
 ! A34   A(9,19,22)            106.8806         estimate D2E/DX2                !
 ! A35   A(20,19,21)           108.1509         estimate D2E/DX2                !
 ! A36   A(20,19,22)           106.9968         estimate D2E/DX2                !
 ! A37   A(21,19,22)           108.198          estimate D2E/DX2                !
 ! A38   A(19,20,23)           108.7493         estimate D2E/DX2                !
 ! A39   A(19,20,24)           110.0978         estimate D2E/DX2                !
 ! A40   A(19,20,25)           110.867          estimate D2E/DX2                !
 ! A41   A(23,20,24)           110.1718         estimate D2E/DX2                !
 ! A42   A(23,20,25)           108.4945         estimate D2E/DX2                !
 ! A43   A(24,20,25)           108.4442         estimate D2E/DX2                !
 ! A44   A(20,25,26)           111.1296         estimate D2E/DX2                !
 ! A45   A(20,25,40)           109.0077         estimate D2E/DX2                !
 ! A46   A(20,25,41)           108.8012         estimate D2E/DX2                !
 ! A47   A(26,25,40)           109.9422         estimate D2E/DX2                !
 ! A48   A(26,25,41)           108.5551         estimate D2E/DX2                !
 ! A49   A(40,25,41)           109.3769         estimate D2E/DX2                !
 ! A50   A(25,26,27)           115.2524         estimate D2E/DX2                !
 ! A51   A(25,26,42)           107.7258         estimate D2E/DX2                !
 ! A52   A(25,26,43)           109.2086         estimate D2E/DX2                !
 ! A53   A(27,26,42)           107.6017         estimate D2E/DX2                !
 ! A54   A(27,26,43)           108.4619         estimate D2E/DX2                !
 ! A55   A(42,26,43)           108.3968         estimate D2E/DX2                !
 ! A56   A(26,27,28)           117.9722         estimate D2E/DX2                !
 ! A57   A(26,27,29)           123.4849         estimate D2E/DX2                !
 ! A58   A(28,27,29)           118.538          estimate D2E/DX2                !
 ! A59   A(27,28,32)           120.8987         estimate D2E/DX2                !
 ! A60   A(27,28,44)           120.0853         estimate D2E/DX2                !
 ! A61   A(32,28,44)           119.0091         estimate D2E/DX2                !
 ! A62   A(27,29,30)           120.4604         estimate D2E/DX2                !
 ! A63   A(27,29,45)           121.7265         estimate D2E/DX2                !
 ! A64   A(30,29,45)           117.8129         estimate D2E/DX2                !
 ! A65   A(29,30,31)           120.9504         estimate D2E/DX2                !
 ! A66   A(29,30,46)           119.2954         estimate D2E/DX2                !
 ! A67   A(31,30,46)           119.754          estimate D2E/DX2                !
 ! A68   A(30,31,32)           118.7966         estimate D2E/DX2                !
 ! A69   A(30,31,33)           117.6793         estimate D2E/DX2                !
 ! A70   A(32,31,33)           123.4876         estimate D2E/DX2                !
 ! A71   A(28,32,31)           120.3495         estimate D2E/DX2                !
 ! A72   A(28,32,47)           118.0715         estimate D2E/DX2                !
 ! A73   A(31,32,47)           121.5677         estimate D2E/DX2                !
 ! A74   A(31,33,34)           130.3723         estimate D2E/DX2                !
 ! A75   A(33,34,35)           123.3549         estimate D2E/DX2                !
 ! A76   A(33,34,36)           117.7024         estimate D2E/DX2                !
 ! A77   A(35,34,36)           118.9209         estimate D2E/DX2                !
 ! A78   A(34,35,38)           120.2101         estimate D2E/DX2                !
 ! A79   A(34,35,48)           121.4759         estimate D2E/DX2                !
 ! A80   A(38,35,48)           118.3076         estimate D2E/DX2                !
 ! A81   A(34,36,37)           120.6852         estimate D2E/DX2                !
 ! A82   A(34,36,49)           119.9005         estimate D2E/DX2                !
 ! A83   A(37,36,49)           119.4135         estimate D2E/DX2                !
 ! A84   A(36,37,39)           120.0313         estimate D2E/DX2                !
 ! A85   A(36,37,50)           119.9571         estimate D2E/DX2                !
 ! A86   A(39,37,50)           120.0116         estimate D2E/DX2                !
 ! A87   A(35,38,39)           120.1943         estimate D2E/DX2                !
 ! A88   A(35,38,51)           119.9785         estimate D2E/DX2                !
 ! A89   A(39,38,51)           119.8265         estimate D2E/DX2                !
 ! A90   A(37,39,38)           119.9458         estimate D2E/DX2                !
 ! A91   A(37,39,52)           119.976          estimate D2E/DX2                !
 ! A92   A(38,39,52)           120.0768         estimate D2E/DX2                !
 ! D1    D(4,1,2,3)             -0.0238         estimate D2E/DX2                !
 ! D2    D(4,1,2,15)           179.9264         estimate D2E/DX2                !
 ! D3    D(14,1,2,3)          -179.9386         estimate D2E/DX2                !
 ! D4    D(14,1,2,15)            0.0116         estimate D2E/DX2                !
 ! D5    D(2,1,4,5)              0.1042         estimate D2E/DX2                !
 ! D6    D(2,1,4,7)           -179.793          estimate D2E/DX2                !
 ! D7    D(14,1,4,5)          -179.9826         estimate D2E/DX2                !
 ! D8    D(14,1,4,7)             0.1202         estimate D2E/DX2                !
 ! D9    D(1,2,3,6)             -0.0571         estimate D2E/DX2                !
 ! D10   D(1,2,3,16)           179.9294         estimate D2E/DX2                !
 ! D11   D(15,2,3,6)           179.9927         estimate D2E/DX2                !
 ! D12   D(15,2,3,16)           -0.0208         estimate D2E/DX2                !
 ! D13   D(2,3,6,5)              0.0573         estimate D2E/DX2                !
 ! D14   D(2,3,6,17)           179.9716         estimate D2E/DX2                !
 ! D15   D(16,3,6,5)          -179.9292         estimate D2E/DX2                !
 ! D16   D(16,3,6,17)           -0.0149         estimate D2E/DX2                !
 ! D17   D(1,4,5,6)             -0.1034         estimate D2E/DX2                !
 ! D18   D(1,4,5,10)          -179.9988         estimate D2E/DX2                !
 ! D19   D(7,4,5,6)            179.7957         estimate D2E/DX2                !
 ! D20   D(7,4,5,10)            -0.0997         estimate D2E/DX2                !
 ! D21   D(1,4,7,8)            179.4199         estimate D2E/DX2                !
 ! D22   D(1,4,7,11)            -0.3197         estimate D2E/DX2                !
 ! D23   D(5,4,7,8)             -0.4776         estimate D2E/DX2                !
 ! D24   D(5,4,7,11)           179.7827         estimate D2E/DX2                !
 ! D25   D(4,5,6,3)              0.0234         estimate D2E/DX2                !
 ! D26   D(4,5,6,17)          -179.8892         estimate D2E/DX2                !
 ! D27   D(10,5,6,3)           179.9171         estimate D2E/DX2                !
 ! D28   D(10,5,6,17)            0.0044         estimate D2E/DX2                !
 ! D29   D(4,5,10,9)             0.644          estimate D2E/DX2                !
 ! D30   D(4,5,10,12)         -179.7996         estimate D2E/DX2                !
 ! D31   D(6,5,10,9)          -179.2498         estimate D2E/DX2                !
 ! D32   D(6,5,10,12)            0.3066         estimate D2E/DX2                !
 ! D33   D(4,7,8,9)              0.525          estimate D2E/DX2                !
 ! D34   D(4,7,8,13)          -179.5778         estimate D2E/DX2                !
 ! D35   D(11,7,8,9)          -179.7348         estimate D2E/DX2                !
 ! D36   D(11,7,8,13)            0.1624         estimate D2E/DX2                !
 ! D37   D(7,8,9,10)             0.0174         estimate D2E/DX2                !
 ! D38   D(7,8,9,19)          -179.7147         estimate D2E/DX2                !
 ! D39   D(13,8,9,10)         -179.877          estimate D2E/DX2                !
 ! D40   D(13,8,9,19)            0.3909         estimate D2E/DX2                !
 ! D41   D(7,8,13,18)           -0.1182         estimate D2E/DX2                !
 ! D42   D(9,8,13,18)          179.7785         estimate D2E/DX2                !
 ! D43   D(8,9,10,5)            -0.6026         estimate D2E/DX2                !
 ! D44   D(8,9,10,12)          179.8416         estimate D2E/DX2                !
 ! D45   D(19,9,10,5)          179.1554         estimate D2E/DX2                !
 ! D46   D(19,9,10,12)          -0.4003         estimate D2E/DX2                !
 ! D47   D(8,9,19,20)            2.5023         estimate D2E/DX2                !
 ! D48   D(8,9,19,21)         -120.5713         estimate D2E/DX2                !
 ! D49   D(8,9,19,22)          123.3875         estimate D2E/DX2                !
 ! D50   D(10,9,19,20)        -177.2387         estimate D2E/DX2                !
 ! D51   D(10,9,19,21)          59.6877         estimate D2E/DX2                !
 ! D52   D(10,9,19,22)         -56.3534         estimate D2E/DX2                !
 ! D53   D(9,19,20,23)          59.4497         estimate D2E/DX2                !
 ! D54   D(9,19,20,24)         -61.3459         estimate D2E/DX2                !
 ! D55   D(9,19,20,25)         178.6523         estimate D2E/DX2                !
 ! D56   D(21,19,20,23)       -177.7278         estimate D2E/DX2                !
 ! D57   D(21,19,20,24)         61.4767         estimate D2E/DX2                !
 ! D58   D(21,19,20,25)        -58.5251         estimate D2E/DX2                !
 ! D59   D(22,19,20,23)        -61.3763         estimate D2E/DX2                !
 ! D60   D(22,19,20,24)        177.8281         estimate D2E/DX2                !
 ! D61   D(22,19,20,25)         57.8263         estimate D2E/DX2                !
 ! D62   D(19,20,25,26)       -176.3094         estimate D2E/DX2                !
 ! D63   D(19,20,25,40)         62.367          estimate D2E/DX2                !
 ! D64   D(19,20,25,41)        -56.8403         estimate D2E/DX2                !
 ! D65   D(23,20,25,26)        -56.9537         estimate D2E/DX2                !
 ! D66   D(23,20,25,40)       -178.2772         estimate D2E/DX2                !
 ! D67   D(23,20,25,41)         62.5154         estimate D2E/DX2                !
 ! D68   D(24,20,25,26)         62.707          estimate D2E/DX2                !
 ! D69   D(24,20,25,40)        -58.6166         estimate D2E/DX2                !
 ! D70   D(24,20,25,41)       -177.8239         estimate D2E/DX2                !
 ! D71   D(20,25,26,27)        178.4417         estimate D2E/DX2                !
 ! D72   D(20,25,26,42)         58.3238         estimate D2E/DX2                !
 ! D73   D(20,25,26,43)        -59.2068         estimate D2E/DX2                !
 ! D74   D(40,25,26,27)        -60.7837         estimate D2E/DX2                !
 ! D75   D(40,25,26,42)        179.0984         estimate D2E/DX2                !
 ! D76   D(40,25,26,43)         61.5678         estimate D2E/DX2                !
 ! D77   D(41,25,26,27)         58.8258         estimate D2E/DX2                !
 ! D78   D(41,25,26,42)        -61.2921         estimate D2E/DX2                !
 ! D79   D(41,25,26,43)       -178.8227         estimate D2E/DX2                !
 ! D80   D(25,26,27,28)       -176.0547         estimate D2E/DX2                !
 ! D81   D(25,26,27,29)          3.1324         estimate D2E/DX2                !
 ! D82   D(42,26,27,28)        -55.8688         estimate D2E/DX2                !
 ! D83   D(42,26,27,29)        123.3183         estimate D2E/DX2                !
 ! D84   D(43,26,27,28)         61.1948         estimate D2E/DX2                !
 ! D85   D(43,26,27,29)       -119.6182         estimate D2E/DX2                !
 ! D86   D(26,27,28,32)        178.9949         estimate D2E/DX2                !
 ! D87   D(26,27,28,44)         -0.0387         estimate D2E/DX2                !
 ! D88   D(29,27,28,32)         -0.2333         estimate D2E/DX2                !
 ! D89   D(29,27,28,44)       -179.2669         estimate D2E/DX2                !
 ! D90   D(26,27,29,30)       -179.3253         estimate D2E/DX2                !
 ! D91   D(26,27,29,45)          0.5246         estimate D2E/DX2                !
 ! D92   D(28,27,29,30)         -0.1426         estimate D2E/DX2                !
 ! D93   D(28,27,29,45)        179.7073         estimate D2E/DX2                !
 ! D94   D(27,28,32,31)          0.8004         estimate D2E/DX2                !
 ! D95   D(27,28,32,47)       -177.9926         estimate D2E/DX2                !
 ! D96   D(44,28,32,31)        179.8442         estimate D2E/DX2                !
 ! D97   D(44,28,32,47)          1.0512         estimate D2E/DX2                !
 ! D98   D(27,29,30,31)         -0.0481         estimate D2E/DX2                !
 ! D99   D(27,29,30,46)        179.757          estimate D2E/DX2                !
 ! D100  D(45,29,30,31)       -179.9038         estimate D2E/DX2                !
 ! D101  D(45,29,30,46)         -0.0987         estimate D2E/DX2                !
 ! D102  D(29,30,31,32)          0.6028         estimate D2E/DX2                !
 ! D103  D(29,30,31,33)        178.483          estimate D2E/DX2                !
 ! D104  D(46,30,31,32)       -179.2015         estimate D2E/DX2                !
 ! D105  D(46,30,31,33)         -1.3212         estimate D2E/DX2                !
 ! D106  D(30,31,32,28)         -0.9739         estimate D2E/DX2                !
 ! D107  D(30,31,32,47)        177.7761         estimate D2E/DX2                !
 ! D108  D(33,31,32,28)       -178.723          estimate D2E/DX2                !
 ! D109  D(33,31,32,47)          0.027          estimate D2E/DX2                !
 ! D110  D(30,31,33,34)        161.0019         estimate D2E/DX2                !
 ! D111  D(32,31,33,34)        -21.2255         estimate D2E/DX2                !
 ! D112  D(31,33,34,35)        -26.3105         estimate D2E/DX2                !
 ! D113  D(31,33,34,36)        155.4089         estimate D2E/DX2                !
 ! D114  D(33,34,35,38)       -179.5003         estimate D2E/DX2                !
 ! D115  D(33,34,35,48)         -0.4343         estimate D2E/DX2                !
 ! D116  D(36,34,35,38)         -1.2395         estimate D2E/DX2                !
 ! D117  D(36,34,35,48)        177.8265         estimate D2E/DX2                !
 ! D118  D(33,34,36,37)        179.5628         estimate D2E/DX2                !
 ! D119  D(33,34,36,49)         -0.7595         estimate D2E/DX2                !
 ! D120  D(35,34,36,37)          1.2036         estimate D2E/DX2                !
 ! D121  D(35,34,36,49)       -179.1187         estimate D2E/DX2                !
 ! D122  D(34,35,38,39)          0.4717         estimate D2E/DX2                !
 ! D123  D(34,35,38,51)       -179.8443         estimate D2E/DX2                !
 ! D124  D(48,35,38,39)       -178.6236         estimate D2E/DX2                !
 ! D125  D(48,35,38,51)          1.0605         estimate D2E/DX2                !
 ! D126  D(34,36,37,39)         -0.3946         estimate D2E/DX2                !
 ! D127  D(34,36,37,50)        179.6643         estimate D2E/DX2                !
 ! D128  D(49,36,37,39)        179.9261         estimate D2E/DX2                !
 ! D129  D(49,36,37,50)         -0.015          estimate D2E/DX2                !
 ! D130  D(36,37,39,38)         -0.3953         estimate D2E/DX2                !
 ! D131  D(36,37,39,52)       -179.9628         estimate D2E/DX2                !
 ! D132  D(50,37,39,38)        179.5458         estimate D2E/DX2                !
 ! D133  D(50,37,39,52)         -0.0217         estimate D2E/DX2                !
 ! D134  D(35,38,39,37)          0.3541         estimate D2E/DX2                !
 ! D135  D(35,38,39,52)        179.9211         estimate D2E/DX2                !
 ! D136  D(51,38,39,37)       -179.3305         estimate D2E/DX2                !
 ! D137  D(51,38,39,52)          0.2365         estimate D2E/DX2                !
 --------------------------------------------------------------------------------
 Trust Radius=3.00D-01 FncErr=1.00D-07 GrdErr=1.00D-06 EigMax=2.50D+02 EigMin=1.00D-04
 Number of steps in this run=    294 maximum allowed number of steps=    312.
 GradGradGradGradGradGradGradGradGradGradGradGradGradGradGradGradGradGrad

 Leave Link  103 at Thu Dec 28 19:45:33 2023, MaxMem=  4026531840 cpu:               0.4 elap:               0.1
 (Enter /sysapps/ubuntu-applications/gaussian/Gaussian/AVX2/g16/l202.exe)
 Symmetry turned off by external request.
 Stoichiometry    C26H22O4
 Framework group  C1[X(C26H22O4)]
 Deg. of freedom   150
 Full point group                 C1      NOp   1
                          Input orientation:                          
 ---------------------------------------------------------------------
 Center     Atomic      Atomic             Coordinates (Angstroms)
 Number     Number       Type             X           Y           Z
 ---------------------------------------------------------------------
      1          6           0       -0.449308    1.164722   -0.633009
      2          6           0       -1.545765    0.440112   -0.160175
      3          6           0       -1.361912   -0.832995    0.380559
      4          6           0        0.845504    0.617476   -0.567102
      5          6           0        1.031196   -0.665222   -0.024250
      6          6           0       -0.081118   -1.386265    0.449184
      7          6           0        2.020589    1.371560   -1.058785
      8          6           0        3.390314    0.785635   -0.971650
      9          6           0        3.581842   -0.460588   -0.446597
     10          6           0        2.398018   -1.236387    0.042465
     11          8           0        1.870252    2.486891   -1.536734
     12          8           0        2.560177   -2.354655    0.511584
     13          8           0        4.431758    1.518239   -1.426700
     14          1           0       -0.613598    2.151318   -1.047932
     15          1           0       -2.539209    0.866677   -0.212389
     16          1           0       -2.213026   -1.392153    0.747394
     17          1           0        0.038915   -2.375437    0.873000
     18          1           0        4.329427    2.401761   -1.806633
     19          6           0        4.938002   -1.163622   -0.299330
     20          6           0        6.208788   -0.406549   -0.719050
     21          1           0        4.891446   -2.110959   -0.879929
     22          1           0        5.053276   -1.420976    0.776786
     23          1           0        6.286990    0.523539   -0.114245
     24          1           0        6.165001   -0.157350   -1.801575
     25          6           0        7.461106   -1.258164   -0.466921
     26          6           0        8.741244   -0.473289   -0.798679
     27          6           0       10.040468   -1.217144   -0.547175
     28          6           0       11.245601   -0.525220   -0.750187
     29          6           0       10.097972   -2.554791   -0.106617
     30          6           0       11.330091   -3.174061    0.118469
     31          6           0       12.530011   -2.485058   -0.087968
     32          6           0       12.477492   -1.144688   -0.516740
     33          8           0       13.690676   -3.142080    0.181923
     34          6           0       14.962677   -2.887193   -0.226257
     35          6           0       15.271656   -2.206782   -1.422718
     36          6           0       16.011429   -3.360885    0.574584
     37          6           0       17.342618   -3.142085    0.209356
     38          6           0       16.605801   -1.988949   -1.784490
     39          6           0       17.639953   -2.452708   -0.967737
     40          1           0        7.406506   -2.176528   -1.091909
     41          1           0        7.489755   -1.544268    0.607879
     42          1           0        8.750268    0.442448   -0.167257
     43          1           0        8.713968   -0.163222   -1.866211
     44          1           0       11.230451    0.507637   -1.077143
     45          1           0        9.203039   -3.133624    0.070436
     46          1           0       11.352204   -4.201372    0.460647
     47          1           0       13.374636   -0.560113   -0.655787
     48          1           0       14.496559   -1.855020   -2.087851
     49          1           0       15.792217   -3.897862    1.489131
     50          1           0       18.143128   -3.508311    0.839251
     51          1           0       16.838585   -1.464228   -2.702101
     52          1           0       18.671220   -2.284284   -1.250039
 ---------------------------------------------------------------------
 Rotational constants (GHZ):           0.7146907           0.0327849           0.0315049
 Leave Link  202 at Thu Dec 28 19:45:33 2023, MaxMem=  4026531840 cpu:               0.4 elap:               0.1
 (Enter /sysapps/ubuntu-applications/gaussian/Gaussian/AVX2/g16/l301.exe)
 Standard basis: 6-311++G(d,p) (5D, 7F)
 Ernie: Thresh=  0.10000D-02 Tol=  0.10000D-05 Strict=F.
   814 basis functions,  1278 primitive gaussians,   844 cartesian basis functions
   105 alpha electrons      105 beta electrons
       nuclear repulsion energy      2411.4656260529 Hartrees.
 IExCor=  402 DFT=T Ex+Corr=B3LYP ExCW=0 ScaHFX=  0.200000
 ScaDFX=  0.800000  0.720000  1.000000  0.810000 ScalE2=  1.000000  1.000000
 IRadAn=      5 IRanWt=     -1 IRanGd=            0 ICorTp=0 IEmpDi=  4
 NAtoms=   52 NActive=   52 NUniq=   52 SFac= 1.00D+00 NAtFMM=   60 NAOKFM=F Big=F
 Integral buffers will be    131072 words long.
 Raffenetti 2 integral format.
 Two-electron integral symmetry is turned off.
 Leave Link  301 at Thu Dec 28 19:45:34 2023, MaxMem=  4026531840 cpu:               0.9 elap:               0.2
 (Enter /sysapps/ubuntu-applications/gaussian/Gaussian/AVX2/g16/l302.exe)
 NPDir=0 NMtPBC=     1 NCelOv=     1 NCel=       1 NClECP=     1 NCelD=      1
         NCelK=      1 NCelE2=     1 NClLst=     1 CellRange=     0.0.
 One-electron integrals computed using PRISM.
 NBasis=   814 RedAO= T EigKep=  1.18D-06  NBF=   814
 NBsUse=   804 1.00D-06 EigRej=  9.50D-07 NBFU=   804
 Precomputing XC quadrature grid using
 IXCGrd= 4 IRadAn=           5 IRanWt=          -1 IRanGd=           0 AccXCQ= 0.00D+00.
 Generated NRdTot=       0 NPtTot=           0 NUsed=           0 NTot=          32
 NSgBfM=   755   755   755   755   755 MxSgAt=    52 MxSgA2=    52.
 Leave Link  302 at Thu Dec 28 19:45:35 2023, MaxMem=  4026531840 cpu:              10.0 elap:               1.3
 (Enter /sysapps/ubuntu-applications/gaussian/Gaussian/AVX2/g16/l303.exe)
 DipDrv:  MaxL=1.
 Leave Link  303 at Thu Dec 28 19:45:35 2023, MaxMem=  4026531840 cpu:               1.8 elap:               0.5
 (Enter /sysapps/ubuntu-applications/gaussian/Gaussian/AVX2/g16/l401.exe)
 ExpMin= 3.60D-02 ExpMax= 8.59D+03 ExpMxC= 1.30D+03 IAcc=3 IRadAn=         5 AccDes= 0.00D+00
 Harris functional with IExCor=  402 and IRadAn=       5 diagonalized for initial guess.
 HarFok:  IExCor=  402 AccDes= 0.00D+00 IRadAn=         5 IDoV= 1 UseB2=F ITyADJ=14
 ICtDFT=  3500011 ScaDFX=  1.000000  1.000000  1.000000  1.000000
 FoFCou: FMM=F IPFlag=           0 FMFlag=      100000 FMFlg1=           0
         NFxFlg=           0 DoJE=T BraDBF=F KetDBF=T FulRan=T
         wScrn=  0.000000 ICntrl=       500 IOpCl=  0 I1Cent=   200000004 NGrid=           0
         NMat0=    1 NMatS0=      1 NMatT0=    0 NMatD0=    1 NMtDS0=    0 NMtDT0=    0
 Symmetry not used in FoFCou.
 Harris En= -1305.31073100277    
 JPrj=0 DoOrth=F DoCkMO=F.
 Initial guess <Sx>= 0.0000 <Sy>= 0.0000 <Sz>= 0.0000 <S**2>= 0.0000 S= 0.0000
 Leave Link  401 at Thu Dec 28 19:45:41 2023, MaxMem=  4026531840 cpu:              43.3 elap:               5.6
 (Enter /sysapps/ubuntu-applications/gaussian/Gaussian/AVX2/g16/l502.exe)
 Two-electron integral symmetry not used.
 UHF open shell SCF:
 Using DIIS extrapolation, IDIIS=  1040.
 NGot=  4026531840 LenX=  4025094412 LenY=  4024381232
 Requested convergence on RMS density matrix=1.00D-08 within 128 cycles.
 Requested convergence on MAX density matrix=1.00D-06.
 Requested convergence on             energy=1.00D-06.
 No special actions if energy rises.
 Fock matrices will be formed incrementally for  20 cycles.

 Cycle   1  Pass 1  IDiag  1:
 FoFJK:  IHMeth= 1 ICntrl=       0 DoSepK=F KAlg= 0 I1Cent=           0 FoldK=F
 IRaf= 660000000 NMat=       1 IRICut=       1 DoRegI=T DoRafI=F ISym2E= 0 IDoP0=0 IntGTp=1.
 FoFCou: FMM=F IPFlag=           0 FMFlag=      100000 FMFlg1=           0
         NFxFlg=           0 DoJE=F BraDBF=F KetDBF=F FulRan=T
         wScrn=  0.000000 ICntrl=         0 IOpCl=  1 I1Cent=           0 NGrid=           0
         NMat0=    1 NMatS0=      1 NMatT0=    0 NMatD0=    1 NMtDS0=    0 NMtDT0=    0
 Symmetry not used in FoFCou.
 E= -1304.50027014124    
 DIIS: error= 3.41D-02 at cycle   1 NSaved=   1.
 NSaved= 1 IEnMin= 1 EnMin= -1304.50027014124     IErMin= 1 ErrMin= 3.41D-02
 ErrMax= 3.41D-02  0.00D+00 EMaxC= 1.00D-01 BMatC= 3.39D+00 BMatP= 3.39D+00
 IDIUse=3 WtCom= 6.59D-01 WtEn= 3.41D-01
 Coeff-Com:  0.100D+01
 Coeff-En:   0.100D+01
 Coeff:      0.100D+01
 Gap=     0.051 Goal=   None    Shift=    0.000
 Gap=     0.051 Goal=   None    Shift=    0.000
 GapD=    0.051 DampG=0.500 DampE=0.500 DampFc=0.2500 IDamp=-1.
 Damping current iteration by 2.50D-01
 RMSDP=1.70D-02 MaxDP=1.29D+00              OVMax= 2.46D-01

 Cycle   2  Pass 1  IDiag  1:
 RMSU=  4.24D-03    CP:  1.01D+00
 E= -1304.76054264605     Delta-E=       -0.260272504818 Rises=F Damp=T
 DIIS: error= 1.69D-02 at cycle   2 NSaved=   2.
 NSaved= 2 IEnMin= 2 EnMin= -1304.76054264605     IErMin= 2 ErrMin= 1.69D-02
 ErrMax= 1.69D-02  0.00D+00 EMaxC= 1.00D-01 BMatC= 8.19D-01 BMatP= 3.39D+00
 IDIUse=3 WtCom= 8.31D-01 WtEn= 1.69D-01
 Coeff-Com: -0.658D+00 0.166D+01
 Coeff-En:   0.000D+00 0.100D+01
 Coeff:     -0.547D+00 0.155D+01
 Gap=     0.182 Goal=   None    Shift=    0.000
 Gap=     0.182 Goal=   None    Shift=    0.000
 RMSDP=5.28D-03 MaxDP=5.60D-01 DE=-2.60D-01 OVMax= 2.43D-01

 Cycle   3  Pass 1  IDiag  1:
 RMSU=  4.75D-03    CP:  9.57D-01  1.22D+00
 E= -1305.13327096427     Delta-E=       -0.372728318213 Rises=F Damp=F
 DIIS: error= 2.15D-02 at cycle   3 NSaved=   3.
 NSaved= 3 IEnMin= 3 EnMin= -1305.13327096427     IErMin= 2 ErrMin= 1.69D-02
 ErrMax= 2.15D-02  0.00D+00 EMaxC= 1.00D-01 BMatC= 4.86D-01 BMatP= 8.19D-01
 IDIUse=3 WtCom= 7.85D-01 WtEn= 2.15D-01
 Coeff-Com: -0.453D+00 0.989D+00 0.464D+00
 Coeff-En:   0.000D+00 0.000D+00 0.100D+01
 Coeff:     -0.355D+00 0.776D+00 0.579D+00
 Gap=     0.096 Goal=   None    Shift=    0.000
 Gap=     0.096 Goal=   None    Shift=    0.000
 RMSDP=4.35D-03 MaxDP=3.99D-01 DE=-3.73D-01 OVMax= 1.25D-01

 Cycle   4  Pass 1  IDiag  1:
 RMSU=  2.81D-03    CP:  1.01D+00  1.40D+00  4.86D-01
 E= -1305.18810214108     Delta-E=       -0.054831176818 Rises=F Damp=F
 DIIS: error= 1.71D-02 at cycle   4 NSaved=   4.
 NSaved= 4 IEnMin= 4 EnMin= -1305.18810214108     IErMin= 2 ErrMin= 1.69D-02
 ErrMax= 1.71D-02  0.00D+00 EMaxC= 1.00D-01 BMatC= 2.52D-01 BMatP= 4.86D-01
 IDIUse=3 WtCom= 8.29D-01 WtEn= 1.71D-01
 Coeff-Com: -0.803D-01 0.195D+00 0.408D+00 0.478D+00
 Coeff-En:   0.000D+00 0.000D+00 0.369D+00 0.631D+00
 Coeff:     -0.665D-01 0.161D+00 0.401D+00 0.504D+00
 Gap=     0.092 Goal=   None    Shift=    0.000
 Gap=     0.092 Goal=   None    Shift=    0.000
 RMSDP=2.72D-03 MaxDP=2.27D-01 DE=-5.48D-02 OVMax= 5.64D-02

 Cycle   5  Pass 1  IDiag  1:
 RMSU=  7.11D-04    CP:  9.63D-01  1.33D+00  7.00D-01  4.61D-01
 E= -1305.23975213335     Delta-E=       -0.051649992263 Rises=F Damp=F
 DIIS: error= 1.81D-03 at cycle   5 NSaved=   5.
 NSaved= 5 IEnMin= 5 EnMin= -1305.23975213335     IErMin= 5 ErrMin= 1.81D-03
 ErrMax= 1.81D-03  0.00D+00 EMaxC= 1.00D-01 BMatC= 7.63D-03 BMatP= 2.52D-01
 IDIUse=3 WtCom= 9.82D-01 WtEn= 1.81D-02
 Coeff-Com: -0.122D-01 0.344D-01 0.197D+00 0.293D+00 0.487D+00
 Coeff-En:   0.000D+00 0.000D+00 0.000D+00 0.000D+00 0.100D+01
 Coeff:     -0.120D-01 0.337D-01 0.193D+00 0.288D+00 0.497D+00
 Gap=     0.092 Goal=   None    Shift=    0.000
 Gap=     0.092 Goal=   None    Shift=    0.000
 RMSDP=3.91D-04 MaxDP=3.45D-02 DE=-5.16D-02 OVMax= 1.28D-02

 Cycle   6  Pass 1  IDiag  1:
 RMSU=  3.04D-04    CP:  9.60D-01  1.32D+00  6.86D-01  4.66D-01  7.30D-01
 E= -1305.24104926833     Delta-E=       -0.001297134986 Rises=F Damp=F
 DIIS: error= 9.11D-04 at cycle   6 NSaved=   6.
 NSaved= 6 IEnMin= 6 EnMin= -1305.24104926833     IErMin= 6 ErrMin= 9.11D-04
 ErrMax= 9.11D-04  0.00D+00 EMaxC= 1.00D-01 BMatC= 1.38D-03 BMatP= 7.63D-03
 IDIUse=3 WtCom= 9.91D-01 WtEn= 9.11D-03
 Coeff-Com:  0.270D-02-0.480D-02 0.575D-01 0.104D+00 0.331D+00 0.510D+00
 Coeff-En:   0.000D+00 0.000D+00 0.000D+00 0.000D+00 0.171D+00 0.829D+00
 Coeff:      0.267D-02-0.476D-02 0.570D-01 0.103D+00 0.329D+00 0.513D+00
 Gap=     0.094 Goal=   None    Shift=    0.000
 Gap=     0.094 Goal=   None    Shift=    0.000
 RMSDP=1.62D-04 MaxDP=1.32D-02 DE=-1.30D-03 OVMax= 6.50D-03

 Cycle   7  Pass 1  IDiag  1:
 RMSU=  8.68D-05    CP:  9.61D-01  1.31D+00  6.92D-01  4.85D-01  7.24D-01
                    CP:  6.34D-01
 E= -1305.24130759885     Delta-E=       -0.000258330514 Rises=F Damp=F
 DIIS: error= 3.52D-04 at cycle   7 NSaved=   7.
 NSaved= 7 IEnMin= 7 EnMin= -1305.24130759885     IErMin= 7 ErrMin= 3.52D-04
 ErrMax= 3.52D-04  0.00D+00 EMaxC= 1.00D-01 BMatC= 1.92D-04 BMatP= 1.38D-03
 IDIUse=3 WtCom= 9.96D-01 WtEn= 3.52D-03
 Coeff-Com:  0.256D-02-0.560D-02 0.163D-01 0.352D-01 0.163D+00 0.338D+00
 Coeff-Com:  0.451D+00
 Coeff-En:   0.000D+00 0.000D+00 0.000D+00 0.000D+00 0.000D+00 0.119D+00
 Coeff-En:   0.881D+00
 Coeff:      0.255D-02-0.558D-02 0.162D-01 0.351D-01 0.163D+00 0.337D+00
 Coeff:      0.452D+00
 Gap=     0.093 Goal=   None    Shift=    0.000
 Gap=     0.093 Goal=   None    Shift=    0.000
 RMSDP=5.22D-05 MaxDP=3.77D-03 DE=-2.58D-04 OVMax= 2.87D-03

 Cycle   8  Pass 1  IDiag  1:
 RMSU=  3.41D-05    CP:  9.62D-01  1.31D+00  6.92D-01  4.87D-01  7.25D-01
                    CP:  6.14D-01  6.93D-01
 E= -1305.24135006264     Delta-E=       -0.000042463791 Rises=F Damp=F
 DIIS: error= 1.16D-04 at cycle   8 NSaved=   8.
 NSaved= 8 IEnMin= 8 EnMin= -1305.24135006264     IErMin= 8 ErrMin= 1.16D-04
 ErrMax= 1.16D-04  0.00D+00 EMaxC= 1.00D-01 BMatC= 1.36D-05 BMatP= 1.92D-04
 IDIUse=3 WtCom= 9.99D-01 WtEn= 1.16D-03
 Coeff-Com:  0.108D-02-0.238D-02 0.301D-02 0.823D-02 0.582D-01 0.134D+00
 Coeff-Com:  0.262D+00 0.536D+00
 Coeff-En:   0.000D+00 0.000D+00 0.000D+00 0.000D+00 0.000D+00 0.000D+00
 Coeff-En:   0.148D-01 0.985D+00
 Coeff:      0.108D-02-0.238D-02 0.301D-02 0.822D-02 0.581D-01 0.133D+00
 Coeff:      0.262D+00 0.537D+00
 Gap=     0.093 Goal=   None    Shift=    0.000
 Gap=     0.093 Goal=   None    Shift=    0.000
 RMSDP=1.65D-05 MaxDP=1.27D-03 DE=-4.25D-05 OVMax= 9.28D-04

 Cycle   9  Pass 1  IDiag  1:
 RMSU=  1.03D-05    CP:  9.62D-01  1.31D+00  6.92D-01  4.86D-01  7.29D-01
                    CP:  6.19D-01  6.59D-01  7.34D-01
 E= -1305.24135255664     Delta-E=       -0.000002493997 Rises=F Damp=F
 DIIS: error= 3.57D-05 at cycle   9 NSaved=   9.
 NSaved= 9 IEnMin= 9 EnMin= -1305.24135255664     IErMin= 9 ErrMin= 3.57D-05
 ErrMax= 3.57D-05  0.00D+00 EMaxC= 1.00D-01 BMatC= 3.13D-06 BMatP= 1.36D-05
 IDIUse=1 WtCom= 1.00D+00 WtEn= 0.00D+00
 Coeff-Com:  0.433D-03-0.866D-03-0.313D-03 0.274D-03 0.151D-01 0.391D-01
 Coeff-Com:  0.108D+00 0.360D+00 0.478D+00
 Coeff:      0.433D-03-0.866D-03-0.313D-03 0.274D-03 0.151D-01 0.391D-01
 Coeff:      0.108D+00 0.360D+00 0.478D+00
 Gap=     0.093 Goal=   None    Shift=    0.000
 Gap=     0.093 Goal=   None    Shift=    0.000
 RMSDP=8.38D-06 MaxDP=6.60D-04 DE=-2.49D-06 OVMax= 3.40D-04

 Cycle  10  Pass 1  IDiag  1:
 RMSU=  4.64D-06    CP:  9.62D-01  1.31D+00  6.93D-01  4.85D-01  7.33D-01
                    CP:  6.19D-01  6.71D-01  7.48D-01  6.47D-01
 E= -1305.24135324392     Delta-E=       -0.000000687282 Rises=F Damp=F
 DIIS: error= 1.34D-05 at cycle  10 NSaved=  10.
 NSaved=10 IEnMin=10 EnMin= -1305.24135324392     IErMin=10 ErrMin= 1.34D-05
 ErrMax= 1.34D-05  0.00D+00 EMaxC= 1.00D-01 BMatC= 3.23D-07 BMatP= 3.13D-06
 IDIUse=1 WtCom= 1.00D+00 WtEn= 0.00D+00
 Coeff-Com:  0.167D-03-0.307D-03-0.456D-03-0.683D-03 0.373D-02 0.114D-01
 Coeff-Com:  0.424D-01 0.171D+00 0.305D+00 0.468D+00
 Coeff:      0.167D-03-0.307D-03-0.456D-03-0.683D-03 0.373D-02 0.114D-01
 Coeff:      0.424D-01 0.171D+00 0.305D+00 0.468D+00
 Gap=     0.093 Goal=   None    Shift=    0.000
 Gap=     0.093 Goal=   None    Shift=    0.000
 RMSDP=2.09D-06 MaxDP=1.48D-04 DE=-6.87D-07 OVMax= 8.27D-05

 Cycle  11  Pass 1  IDiag  1:
 RMSU=  1.58D-06    CP:  9.62D-01  1.31D+00  6.93D-01  4.85D-01  7.33D-01
                    CP:  6.20D-01  6.69D-01  7.51D-01  6.97D-01  8.32D-01
 E= -1305.24135331821     Delta-E=       -0.000000074296 Rises=F Damp=F
 DIIS: error= 1.97D-06 at cycle  11 NSaved=  11.
 NSaved=11 IEnMin=11 EnMin= -1305.24135331821     IErMin=11 ErrMin= 1.97D-06
 ErrMax= 1.97D-06  0.00D+00 EMaxC= 1.00D-01 BMatC= 1.43D-08 BMatP= 3.23D-07
 IDIUse=1 WtCom= 1.00D+00 WtEn= 0.00D+00
 Coeff-Com:  0.262D-04-0.388D-04-0.170D-03-0.381D-03-0.153D-03 0.443D-03
 Coeff-Com:  0.655D-02 0.323D-01 0.869D-01 0.215D+00 0.660D+00
 Coeff:      0.262D-04-0.388D-04-0.170D-03-0.381D-03-0.153D-03 0.443D-03
 Coeff:      0.655D-02 0.323D-01 0.869D-01 0.215D+00 0.660D+00
 Gap=     0.093 Goal=   None    Shift=    0.000
 Gap=     0.093 Goal=   None    Shift=    0.000
 RMSDP=8.12D-07 MaxDP=7.37D-05 DE=-7.43D-08 OVMax= 2.03D-05

 Cycle  12  Pass 1  IDiag  1:
 RMSU=  4.86D-07    CP:  9.62D-01  1.31D+00  6.93D-01  4.85D-01  7.32D-01
                    CP:  6.19D-01  6.71D-01  7.54D-01  7.06D-01  8.33D-01
                    CP:  8.51D-01
 E= -1305.24135332127     Delta-E=       -0.000000003052 Rises=F Damp=F
 DIIS: error= 1.18D-06 at cycle  12 NSaved=  12.
 NSaved=12 IEnMin=12 EnMin= -1305.24135332127     IErMin=12 ErrMin= 1.18D-06
 ErrMax= 1.18D-06  0.00D+00 EMaxC= 1.00D-01 BMatC= 2.98D-09 BMatP= 1.43D-08
 IDIUse=1 WtCom= 1.00D+00 WtEn= 0.00D+00
 Coeff-Com: -0.307D-05 0.102D-04-0.492D-04-0.144D-03-0.444D-03-0.821D-03
 Coeff-Com: -0.221D-03 0.110D-02 0.214D-01 0.722D-01 0.382D+00 0.525D+00
 Coeff:     -0.307D-05 0.102D-04-0.492D-04-0.144D-03-0.444D-03-0.821D-03
 Coeff:     -0.221D-03 0.110D-02 0.214D-01 0.722D-01 0.382D+00 0.525D+00
 Gap=     0.093 Goal=   None    Shift=    0.000
 Gap=     0.093 Goal=   None    Shift=    0.000
 RMSDP=2.71D-07 MaxDP=2.33D-05 DE=-3.05D-09 OVMax= 1.16D-05

 Cycle  13  Pass 1  IDiag  1:
 RMSU=  1.62D-07    CP:  9.62D-01  1.31D+00  6.93D-01  4.85D-01  7.33D-01
                    CP:  6.19D-01  6.71D-01  7.54D-01  7.14D-01  8.33D-01
                    CP:  9.15D-01  7.16D-01
 E= -1305.24135332200     Delta-E=       -0.000000000732 Rises=F Damp=F
 DIIS: error= 5.18D-07 at cycle  13 NSaved=  13.
 NSaved=13 IEnMin=13 EnMin= -1305.24135332200     IErMin=13 ErrMin= 5.18D-07
 ErrMax= 5.18D-07  0.00D+00 EMaxC= 1.00D-01 BMatC= 4.08D-10 BMatP= 2.98D-09
 IDIUse=1 WtCom= 1.00D+00 WtEn= 0.00D+00
 Coeff-Com: -0.578D-05 0.110D-04-0.532D-05-0.276D-04-0.258D-03-0.600D-03
 Coeff-Com: -0.116D-02-0.503D-02-0.884D-03 0.530D-02 0.119D+00 0.309D+00
 Coeff-Com:  0.575D+00
 Coeff:     -0.578D-05 0.110D-04-0.532D-05-0.276D-04-0.258D-03-0.600D-03
 Coeff:     -0.116D-02-0.503D-02-0.884D-03 0.530D-02 0.119D+00 0.309D+00
 Coeff:      0.575D+00
 Gap=     0.093 Goal=   None    Shift=    0.000
 Gap=     0.093 Goal=   None    Shift=    0.000
 RMSDP=1.06D-07 MaxDP=8.82D-06 DE=-7.32D-10 OVMax= 3.91D-06

 Cycle  14  Pass 1  IDiag  1:
 RMSU=  6.49D-08    CP:  9.62D-01  1.31D+00  6.93D-01  4.85D-01  7.33D-01
                    CP:  6.20D-01  6.71D-01  7.53D-01  7.14D-01  8.46D-01
                    CP:  9.26D-01  7.18D-01  8.84D-01
 E= -1305.24135332212     Delta-E=       -0.000000000123 Rises=F Damp=F
 DIIS: error= 1.83D-07 at cycle  14 NSaved=  14.
 NSaved=14 IEnMin=14 EnMin= -1305.24135332212     IErMin=14 ErrMin= 1.83D-07
 ErrMax= 1.83D-07  0.00D+00 EMaxC= 1.00D-01 BMatC= 4.71D-11 BMatP= 4.08D-10
 IDIUse=1 WtCom= 1.00D+00 WtEn= 0.00D+00
 Coeff-Com: -0.236D-05 0.387D-05 0.424D-05 0.710D-05-0.672D-04-0.187D-03
 Coeff-Com: -0.507D-03-0.278D-02-0.321D-02-0.827D-02 0.537D-02 0.891D-01
 Coeff-Com:  0.314D+00 0.607D+00
 Coeff:     -0.236D-05 0.387D-05 0.424D-05 0.710D-05-0.672D-04-0.187D-03
 Coeff:     -0.507D-03-0.278D-02-0.321D-02-0.827D-02 0.537D-02 0.891D-01
 Coeff:      0.314D+00 0.607D+00
 Gap=     0.093 Goal=   None    Shift=    0.000
 Gap=     0.093 Goal=   None    Shift=    0.000
 RMSDP=3.84D-08 MaxDP=2.63D-06 DE=-1.23D-10 OVMax= 2.19D-06

 Cycle  15  Pass 1  IDiag  1:
 RMSU=  2.39D-08    CP:  9.62D-01  1.31D+00  6.93D-01  4.85D-01  7.33D-01
                    CP:  6.19D-01  6.71D-01  7.54D-01  7.15D-01  8.46D-01
                    CP:  9.28D-01  7.41D-01  8.52D-01  7.76D-01
 E= -1305.24135332213     Delta-E=       -0.000000000010 Rises=F Damp=F
 DIIS: error= 3.56D-08 at cycle  15 NSaved=  15.
 NSaved=15 IEnMin=15 EnMin= -1305.24135332213     IErMin=15 ErrMin= 3.56D-08
 ErrMax= 3.56D-08  0.00D+00 EMaxC= 1.00D-01 BMatC= 3.86D-12 BMatP= 4.71D-11
 IDIUse=1 WtCom= 1.00D+00 WtEn= 0.00D+00
 Coeff-Com: -0.583D-06 0.933D-06 0.248D-05 0.549D-05-0.153D-04-0.532D-04
 Coeff-Com: -0.171D-03-0.105D-02-0.163D-02-0.493D-02-0.807D-02 0.174D-01
 Coeff-Com:  0.101D+00 0.292D+00 0.605D+00
 Coeff:     -0.583D-06 0.933D-06 0.248D-05 0.549D-05-0.153D-04-0.532D-04
 Coeff:     -0.171D-03-0.105D-02-0.163D-02-0.493D-02-0.807D-02 0.174D-01
 Coeff:      0.101D+00 0.292D+00 0.605D+00
 Gap=     0.093 Goal=   None    Shift=    0.000
 Gap=     0.093 Goal=   None    Shift=    0.000
 RMSDP=1.15D-08 MaxDP=9.66D-07 DE=-1.00D-11 OVMax= 4.11D-07

 Cycle  16  Pass 1  IDiag  1:
 RMSU=  7.91D-09    CP:  9.62D-01  1.31D+00  6.93D-01  4.85D-01  7.33D-01
                    CP:  6.19D-01  6.71D-01  7.54D-01  7.15D-01  8.46D-01
                    CP:  9.29D-01  7.46D-01  8.45D-01  7.90D-01  8.89D-01
 E= -1305.24135332208     Delta-E=        0.000000000055 Rises=F Damp=F
 DIIS: error= 1.64D-08 at cycle  16 NSaved=  16.
 NSaved=16 IEnMin=15 EnMin= -1305.24135332213     IErMin=16 ErrMin= 1.64D-08
 ErrMax= 1.64D-08  0.00D+00 EMaxC= 1.00D-01 BMatC= 9.51D-13 BMatP= 3.86D-12
 IDIUse=1 WtCom= 1.00D+00 WtEn= 0.00D+00
 Coeff-Com:  0.151D-06-0.220D-06 0.792D-06 0.184D-05 0.243D-05-0.246D-06
 Coeff-Com: -0.649D-05-0.135D-03-0.316D-03-0.126D-02-0.459D-02-0.357D-02
 Coeff-Com:  0.663D-02 0.753D-01 0.377D+00 0.551D+00
 Coeff:      0.151D-06-0.220D-06 0.792D-06 0.184D-05 0.243D-05-0.246D-06
 Coeff:     -0.649D-05-0.135D-03-0.316D-03-0.126D-02-0.459D-02-0.357D-02
 Coeff:      0.663D-02 0.753D-01 0.377D+00 0.551D+00
 Gap=     0.093 Goal=   None    Shift=    0.000
 Gap=     0.093 Goal=   None    Shift=    0.000
 RMSDP=5.34D-09 MaxDP=5.07D-07 DE= 5.50D-11 OVMax= 2.17D-07

 SCF Done:  E(UB3LYP) =  -1305.24135332     A.U. after   16 cycles
            NFock= 16  Conv=0.53D-08     -V/T= 2.0046
 <Sx>= 0.0000 <Sy>= 0.0000 <Sz>= 0.0000 <S**2>=-0.0000 S=-0.0000
 <L.S>=  0.00000000000    
 KE= 1.299294929713D+03 PE=-7.862463452776D+03 EE= 2.846461543688D+03
 Annihilation of the first spin contaminant:
 S**2 before annihilation    -0.0000,   after     0.0000
 Leave Link  502 at Thu Dec 28 19:58:05 2023, MaxMem=  4026531840 cpu:            5918.5 elap:             743.5
 (Enter /sysapps/ubuntu-applications/gaussian/Gaussian/AVX2/g16/l601.exe)
 Copying SCF densities to generalized density rwf, IOpCl= 1 IROHF=0.

 **********************************************************************

            Population analysis using the SCF density.

 **********************************************************************

 Alpha  occ. eigenvalues --  -19.17867 -19.17007 -19.14066 -19.12458 -10.29024
 Alpha  occ. eigenvalues --  -10.27845 -10.27701 -10.24964 -10.24499 -10.21516
 Alpha  occ. eigenvalues --  -10.21415 -10.21292 -10.20632 -10.20541 -10.20470
 Alpha  occ. eigenvalues --  -10.20388 -10.18732 -10.18295 -10.18243 -10.18237
 Alpha  occ. eigenvalues --  -10.18062 -10.17932 -10.17843 -10.17807 -10.17780
 Alpha  occ. eigenvalues --  -10.17758 -10.17626 -10.17491 -10.17234 -10.17094
 Alpha  occ. eigenvalues --   -1.09751  -1.09528  -1.06518  -1.05841  -0.89284
 Alpha  occ. eigenvalues --   -0.86876  -0.85452  -0.84412  -0.81036  -0.79113
 Alpha  occ. eigenvalues --   -0.77998  -0.77418  -0.75695  -0.75212  -0.74702
 Alpha  occ. eigenvalues --   -0.71900  -0.69319  -0.66824  -0.66500  -0.64083
 Alpha  occ. eigenvalues --   -0.62696  -0.61355  -0.61008  -0.60890  -0.58820
 Alpha  occ. eigenvalues --   -0.57687  -0.57226  -0.55688  -0.54810  -0.51721
 Alpha  occ. eigenvalues --   -0.50794  -0.49882  -0.49035  -0.49017  -0.48006
 Alpha  occ. eigenvalues --   -0.47262  -0.47120  -0.46792  -0.46147  -0.45638
 Alpha  occ. eigenvalues --   -0.45489  -0.44834  -0.44291  -0.43812  -0.43302
 Alpha  occ. eigenvalues --   -0.43088  -0.42754  -0.42272  -0.41766  -0.40574
 Alpha  occ. eigenvalues --   -0.40415  -0.39748  -0.39237  -0.38319  -0.38046
 Alpha  occ. eigenvalues --   -0.37679  -0.37391  -0.37270  -0.36818  -0.36001
 Alpha  occ. eigenvalues --   -0.35347  -0.33975  -0.33800  -0.33161  -0.32937
 Alpha  occ. eigenvalues --   -0.32705  -0.29181  -0.29111  -0.28090  -0.27445
 Alpha  occ. eigenvalues --   -0.26241  -0.26131  -0.25948  -0.25550  -0.21670
 Alpha virt. eigenvalues --   -0.12338  -0.06150  -0.03115  -0.02398  -0.02080
 Alpha virt. eigenvalues --   -0.01926  -0.01725  -0.00913  -0.00626  -0.00020
 Alpha virt. eigenvalues --    0.00134   0.00395   0.01058   0.01236   0.01475
 Alpha virt. eigenvalues --    0.01655   0.01973   0.02499   0.02698   0.03093
 Alpha virt. eigenvalues --    0.03428   0.03821   0.03990   0.04324   0.04441
 Alpha virt. eigenvalues --    0.04487   0.05225   0.05256   0.05802   0.05883
 Alpha virt. eigenvalues --    0.06289   0.06588   0.06993   0.07024   0.07323
 Alpha virt. eigenvalues --    0.07973   0.08310   0.08422   0.08744   0.08931
 Alpha virt. eigenvalues --    0.09448   0.09537   0.09769   0.10171   0.10456
 Alpha virt. eigenvalues --    0.10695   0.10875   0.10969   0.11199   0.11338
 Alpha virt. eigenvalues --    0.11558   0.11769   0.11908   0.12024   0.12240
 Alpha virt. eigenvalues --    0.12420   0.12517   0.12646   0.12692   0.12851
 Alpha virt. eigenvalues --    0.13261   0.13323   0.13374   0.13580   0.13784
 Alpha virt. eigenvalues --    0.13840   0.13953   0.14132   0.14456   0.14506
 Alpha virt. eigenvalues --    0.14686   0.14719   0.14903   0.15086   0.15370
 Alpha virt. eigenvalues --    0.15416   0.15562   0.16038   0.16218   0.16284
 Alpha virt. eigenvalues --    0.16364   0.16534   0.16624   0.17081   0.17168
 Alpha virt. eigenvalues --    0.17478   0.17654   0.17843   0.18222   0.18501
 Alpha virt. eigenvalues --    0.18718   0.18998   0.19129   0.19395   0.19632
 Alpha virt. eigenvalues --    0.19876   0.19961   0.20206   0.20467   0.20753
 Alpha virt. eigenvalues --    0.20898   0.20913   0.21197   0.21401   0.21501
 Alpha virt. eigenvalues --    0.21672   0.22238   0.22429   0.22557   0.22839
 Alpha virt. eigenvalues --    0.22967   0.23013   0.23136   0.23595   0.23868
 Alpha virt. eigenvalues --    0.23935   0.24223   0.24392   0.24969   0.25192
 Alpha virt. eigenvalues --    0.25385   0.25637   0.25829   0.26164   0.26195
 Alpha virt. eigenvalues --    0.26413   0.26788   0.26894   0.27157   0.27630
 Alpha virt. eigenvalues --    0.27769   0.27916   0.28284   0.28522   0.28720
 Alpha virt. eigenvalues --    0.29108   0.29327   0.29433   0.29721   0.29852
 Alpha virt. eigenvalues --    0.29939   0.30074   0.30421   0.30706   0.30904
 Alpha virt. eigenvalues --    0.31216   0.31383   0.31890   0.32075   0.32098
 Alpha virt. eigenvalues --    0.32704   0.32807   0.32886   0.32962   0.33199
 Alpha virt. eigenvalues --    0.33453   0.34083   0.34311   0.34387   0.34924
 Alpha virt. eigenvalues --    0.35113   0.35263   0.35659   0.36017   0.36225
 Alpha virt. eigenvalues --    0.36564   0.36687   0.36929   0.37080   0.37969
 Alpha virt. eigenvalues --    0.38079   0.38943   0.39393   0.39799   0.40574
 Alpha virt. eigenvalues --    0.40836   0.41209   0.41377   0.41865   0.42050
 Alpha virt. eigenvalues --    0.42301   0.42569   0.43258   0.43918   0.44171
 Alpha virt. eigenvalues --    0.44692   0.46032   0.46888   0.47472   0.47998
 Alpha virt. eigenvalues --    0.49381   0.49570   0.50185   0.50625   0.50792
 Alpha virt. eigenvalues --    0.51659   0.52283   0.52719   0.52881   0.53218
 Alpha virt. eigenvalues --    0.53824   0.54085   0.54312   0.54544   0.54840
 Alpha virt. eigenvalues --    0.55350   0.55497   0.56161   0.56235   0.56800
 Alpha virt. eigenvalues --    0.57040   0.57659   0.58099   0.58409   0.58525
 Alpha virt. eigenvalues --    0.58801   0.59439   0.59543   0.59877   0.60384
 Alpha virt. eigenvalues --    0.60940   0.61147   0.61646   0.61948   0.62697
 Alpha virt. eigenvalues --    0.62859   0.63142   0.63356   0.63924   0.64100
 Alpha virt. eigenvalues --    0.64448   0.65031   0.65245   0.65565   0.66196
 Alpha virt. eigenvalues --    0.66389   0.66727   0.67005   0.67315   0.67520
 Alpha virt. eigenvalues --    0.67932   0.68228   0.68938   0.69170   0.69263
 Alpha virt. eigenvalues --    0.69952   0.70123   0.70338   0.70644   0.71156
 Alpha virt. eigenvalues --    0.71695   0.72100   0.72349   0.72510   0.72775
 Alpha virt. eigenvalues --    0.73623   0.74028   0.74309   0.74535   0.74940
 Alpha virt. eigenvalues --    0.75335   0.75597   0.76026   0.76661   0.77383
 Alpha virt. eigenvalues --    0.77910   0.78242   0.78889   0.79369   0.80005
 Alpha virt. eigenvalues --    0.80138   0.80445   0.81506   0.81976   0.82712
 Alpha virt. eigenvalues --    0.82805   0.83630   0.84332   0.84558   0.84657
 Alpha virt. eigenvalues --    0.85304   0.86448   0.86647   0.87374   0.87594
 Alpha virt. eigenvalues --    0.87791   0.88277   0.89542   0.89830   0.90145
 Alpha virt. eigenvalues --    0.90803   0.91952   0.92349   0.92379   0.92638
 Alpha virt. eigenvalues --    0.92689   0.93095   0.93476   0.94311   0.95026
 Alpha virt. eigenvalues --    0.95878   0.96194   0.96311   0.97579   0.97808
 Alpha virt. eigenvalues --    0.99172   0.99363   1.00037   1.00789   1.01018
 Alpha virt. eigenvalues --    1.01607   1.02069   1.02259   1.02626   1.03605
 Alpha virt. eigenvalues --    1.04099   1.04653   1.05319   1.05865   1.06220
 Alpha virt. eigenvalues --    1.06495   1.06966   1.07523   1.08027   1.08400
 Alpha virt. eigenvalues --    1.08691   1.09295   1.09679   1.10698   1.10914
 Alpha virt. eigenvalues --    1.11278   1.12280   1.13034   1.14190   1.14212
 Alpha virt. eigenvalues --    1.15259   1.16779   1.17711   1.17810   1.19831
 Alpha virt. eigenvalues --    1.20314   1.21129   1.21617   1.22176   1.24255
 Alpha virt. eigenvalues --    1.24414   1.25305   1.25874   1.26798   1.27822
 Alpha virt. eigenvalues --    1.28668   1.29328   1.30802   1.31320   1.32095
 Alpha virt. eigenvalues --    1.32716   1.34297   1.35018   1.35687   1.37714
 Alpha virt. eigenvalues --    1.37989   1.38634   1.39374   1.40508   1.42190
 Alpha virt. eigenvalues --    1.44079   1.45086   1.46697   1.47416   1.47988
 Alpha virt. eigenvalues --    1.48790   1.49461   1.50346   1.50649   1.50854
 Alpha virt. eigenvalues --    1.50927   1.51562   1.52068   1.52948   1.53787
 Alpha virt. eigenvalues --    1.54848   1.55024   1.55088   1.55723   1.56473
 Alpha virt. eigenvalues --    1.56843   1.57299   1.57541   1.57896   1.58133
 Alpha virt. eigenvalues --    1.58408   1.59539   1.59893   1.60603   1.62103
 Alpha virt. eigenvalues --    1.62373   1.63176   1.63664   1.64423   1.64750
 Alpha virt. eigenvalues --    1.64934   1.64964   1.65539   1.66579   1.66904
 Alpha virt. eigenvalues --    1.68189   1.69422   1.69508   1.70040   1.70658
 Alpha virt. eigenvalues --    1.71586   1.71759   1.72656   1.72767   1.73273
 Alpha virt. eigenvalues --    1.73522   1.74246   1.74476   1.75062   1.75508
 Alpha virt. eigenvalues --    1.76242   1.77709   1.78524   1.78831   1.79224
 Alpha virt. eigenvalues --    1.79694   1.80333   1.80492   1.82331   1.83787
 Alpha virt. eigenvalues --    1.85053   1.85403   1.86527   1.86990   1.87731
 Alpha virt. eigenvalues --    1.88335   1.88651   1.89446   1.90639   1.90979
 Alpha virt. eigenvalues --    1.91053   1.92100   1.92549   1.92818   1.93425
 Alpha virt. eigenvalues --    1.93651   1.94366   1.94565   1.94820   1.95815
 Alpha virt. eigenvalues --    1.96077   1.96140   1.97123   1.98483   1.99211
 Alpha virt. eigenvalues --    1.99772   2.00474   2.01048   2.02004   2.02151
 Alpha virt. eigenvalues --    2.02940   2.04720   2.04814   2.05599   2.05992
 Alpha virt. eigenvalues --    2.07746   2.07987   2.08406   2.08692   2.09362
 Alpha virt. eigenvalues --    2.10382   2.10744   2.11181   2.12425   2.14080
 Alpha virt. eigenvalues --    2.15649   2.17606   2.18720   2.19282   2.19763
 Alpha virt. eigenvalues --    2.22624   2.24570   2.24898   2.27216   2.27719
 Alpha virt. eigenvalues --    2.27942   2.29468   2.30116   2.32285   2.32341
 Alpha virt. eigenvalues --    2.32642   2.33185   2.33733   2.34335   2.36456
 Alpha virt. eigenvalues --    2.36619   2.38764   2.40044   2.40368   2.41344
 Alpha virt. eigenvalues --    2.43646   2.44150   2.45505   2.46213   2.46314
 Alpha virt. eigenvalues --    2.47300   2.47954   2.48220   2.50526   2.52593
 Alpha virt. eigenvalues --    2.52642   2.53149   2.56910   2.59203   2.59656
 Alpha virt. eigenvalues --    2.60467   2.60590   2.62195   2.62480   2.62821
 Alpha virt. eigenvalues --    2.63478   2.63952   2.65057   2.65725   2.66458
 Alpha virt. eigenvalues --    2.68556   2.68623   2.69511   2.69906   2.70486
 Alpha virt. eigenvalues --    2.70620   2.70974   2.71375   2.72300   2.72460
 Alpha virt. eigenvalues --    2.72941   2.73535   2.73649   2.73919   2.74353
 Alpha virt. eigenvalues --    2.74697   2.75143   2.75787   2.76323   2.77014
 Alpha virt. eigenvalues --    2.78602   2.78709   2.79672   2.79890   2.80392
 Alpha virt. eigenvalues --    2.81177   2.81296   2.81400   2.81894   2.82428
 Alpha virt. eigenvalues --    2.83161   2.83463   2.83752   2.84484   2.85928
 Alpha virt. eigenvalues --    2.86508   2.86649   2.87544   2.88290   2.90018
 Alpha virt. eigenvalues --    2.90796   2.91307   2.92927   2.93250   2.94086
 Alpha virt. eigenvalues --    2.95289   2.95698   2.95806   2.99861   3.00651
 Alpha virt. eigenvalues --    3.02446   3.03724   3.03910   3.04286   3.06062
 Alpha virt. eigenvalues --    3.07278   3.07817   3.07946   3.08899   3.09523
 Alpha virt. eigenvalues --    3.11087   3.11714   3.13035   3.15247   3.16965
 Alpha virt. eigenvalues --    3.18032   3.19466   3.20169   3.20494   3.21668
 Alpha virt. eigenvalues --    3.23227   3.24518   3.26901   3.29618   3.31287
 Alpha virt. eigenvalues --    3.31743   3.32725   3.34408   3.35082   3.36027
 Alpha virt. eigenvalues --    3.37389   3.38944   3.40325   3.42982   3.46386
 Alpha virt. eigenvalues --    3.48505   3.49139   3.51236   3.52089   3.52356
 Alpha virt. eigenvalues --    3.52536   3.53507   3.56621   3.57071   3.59965
 Alpha virt. eigenvalues --    3.62193   3.65665   3.66703   3.71238   3.74172
 Alpha virt. eigenvalues --    3.76907   3.77427   3.78443   3.79369   3.81390
 Alpha virt. eigenvalues --    3.85251   3.88246   3.95640   4.00279   4.00840
 Alpha virt. eigenvalues --    4.02305   4.04120   4.04793   4.05334   4.07372
 Alpha virt. eigenvalues --    4.13406   4.15262   4.15809   4.16314   4.17068
 Alpha virt. eigenvalues --    4.18559   4.18638   4.22234   4.22419   4.31283
 Alpha virt. eigenvalues --    4.33277   4.41293   4.48370   4.74665   4.82175
 Alpha virt. eigenvalues --    4.83452   4.85620   4.98345   5.04996   5.07584
 Alpha virt. eigenvalues --    5.07902   5.21594   5.27068   5.37854   5.44957
 Alpha virt. eigenvalues --    5.67613   5.79297   5.86321   5.98417  23.54067
 Alpha virt. eigenvalues --   23.60110  23.64697  23.67746  23.84589  23.88482
 Alpha virt. eigenvalues --   23.88789  23.89017  23.90243  23.91787  23.92083
 Alpha virt. eigenvalues --   23.93213  23.93834  23.94295  23.96528  23.96648
 Alpha virt. eigenvalues --   24.02581  24.03693  24.05106  24.05551  24.08232
 Alpha virt. eigenvalues --   24.08772  24.09366  24.14801  24.16701  24.17625
 Alpha virt. eigenvalues --   49.92834  49.98817  50.02396  50.06655
  Beta  occ. eigenvalues --  -19.17867 -19.17007 -19.14066 -19.12458 -10.29024
  Beta  occ. eigenvalues --  -10.27845 -10.27701 -10.24964 -10.24499 -10.21516
  Beta  occ. eigenvalues --  -10.21415 -10.21292 -10.20632 -10.20541 -10.20470
  Beta  occ. eigenvalues --  -10.20388 -10.18732 -10.18295 -10.18243 -10.18237
  Beta  occ. eigenvalues --  -10.18062 -10.17932 -10.17843 -10.17807 -10.17780
  Beta  occ. eigenvalues --  -10.17758 -10.17626 -10.17491 -10.17234 -10.17094
  Beta  occ. eigenvalues --   -1.09751  -1.09528  -1.06518  -1.05841  -0.89284
  Beta  occ. eigenvalues --   -0.86876  -0.85452  -0.84412  -0.81036  -0.79113
  Beta  occ. eigenvalues --   -0.77998  -0.77418  -0.75695  -0.75212  -0.74702
  Beta  occ. eigenvalues --   -0.71900  -0.69319  -0.66824  -0.66500  -0.64083
  Beta  occ. eigenvalues --   -0.62696  -0.61355  -0.61008  -0.60890  -0.58820
  Beta  occ. eigenvalues --   -0.57687  -0.57226  -0.55688  -0.54810  -0.51721
  Beta  occ. eigenvalues --   -0.50794  -0.49882  -0.49035  -0.49017  -0.48006
  Beta  occ. eigenvalues --   -0.47262  -0.47120  -0.46792  -0.46147  -0.45638
  Beta  occ. eigenvalues --   -0.45489  -0.44834  -0.44291  -0.43812  -0.43302
  Beta  occ. eigenvalues --   -0.43088  -0.42754  -0.42272  -0.41766  -0.40574
  Beta  occ. eigenvalues --   -0.40415  -0.39748  -0.39237  -0.38319  -0.38046
  Beta  occ. eigenvalues --   -0.37679  -0.37391  -0.37270  -0.36818  -0.36001
  Beta  occ. eigenvalues --   -0.35347  -0.33975  -0.33800  -0.33161  -0.32937
  Beta  occ. eigenvalues --   -0.32705  -0.29181  -0.29111  -0.28090  -0.27445
  Beta  occ. eigenvalues --   -0.26241  -0.26131  -0.25948  -0.25550  -0.21670
  Beta virt. eigenvalues --   -0.12338  -0.06150  -0.03115  -0.02398  -0.02080
  Beta virt. eigenvalues --   -0.01926  -0.01725  -0.00913  -0.00626  -0.00020
  Beta virt. eigenvalues --    0.00134   0.00395   0.01058   0.01236   0.01475
  Beta virt. eigenvalues --    0.01655   0.01973   0.02499   0.02698   0.03093
  Beta virt. eigenvalues --    0.03428   0.03821   0.03990   0.04324   0.04441
  Beta virt. eigenvalues --    0.04487   0.05225   0.05256   0.05802   0.05883
  Beta virt. eigenvalues --    0.06289   0.06588   0.06993   0.07024   0.07323
  Beta virt. eigenvalues --    0.07973   0.08310   0.08422   0.08744   0.08931
  Beta virt. eigenvalues --    0.09448   0.09537   0.09769   0.10171   0.10456
  Beta virt. eigenvalues --    0.10695   0.10875   0.10969   0.11199   0.11338
  Beta virt. eigenvalues --    0.11558   0.11769   0.11908   0.12024   0.12240
  Beta virt. eigenvalues --    0.12420   0.12517   0.12646   0.12692   0.12851
  Beta virt. eigenvalues --    0.13261   0.13323   0.13374   0.13580   0.13784
  Beta virt. eigenvalues --    0.13840   0.13953   0.14132   0.14456   0.14506
  Beta virt. eigenvalues --    0.14686   0.14719   0.14903   0.15086   0.15370
  Beta virt. eigenvalues --    0.15416   0.15562   0.16038   0.16218   0.16284
  Beta virt. eigenvalues --    0.16364   0.16534   0.16624   0.17081   0.17168
  Beta virt. eigenvalues --    0.17478   0.17654   0.17843   0.18222   0.18501
  Beta virt. eigenvalues --    0.18718   0.18998   0.19129   0.19395   0.19632
  Beta virt. eigenvalues --    0.19876   0.19961   0.20206   0.20467   0.20753
  Beta virt. eigenvalues --    0.20898   0.20913   0.21197   0.21401   0.21501
  Beta virt. eigenvalues --    0.21672   0.22238   0.22429   0.22557   0.22839
  Beta virt. eigenvalues --    0.22967   0.23013   0.23136   0.23595   0.23868
  Beta virt. eigenvalues --    0.23935   0.24223   0.24392   0.24969   0.25192
  Beta virt. eigenvalues --    0.25385   0.25637   0.25829   0.26164   0.26195
  Beta virt. eigenvalues --    0.26413   0.26788   0.26894   0.27157   0.27630
  Beta virt. eigenvalues --    0.27769   0.27916   0.28284   0.28522   0.28720
  Beta virt. eigenvalues --    0.29108   0.29327   0.29433   0.29721   0.29852
  Beta virt. eigenvalues --    0.29939   0.30074   0.30421   0.30706   0.30904
  Beta virt. eigenvalues --    0.31216   0.31383   0.31890   0.32075   0.32098
  Beta virt. eigenvalues --    0.32704   0.32807   0.32886   0.32962   0.33199
  Beta virt. eigenvalues --    0.33453   0.34083   0.34311   0.34387   0.34924
  Beta virt. eigenvalues --    0.35113   0.35263   0.35659   0.36017   0.36225
  Beta virt. eigenvalues --    0.36564   0.36687   0.36929   0.37080   0.37969
  Beta virt. eigenvalues --    0.38079   0.38943   0.39393   0.39799   0.40574
  Beta virt. eigenvalues --    0.40836   0.41209   0.41377   0.41865   0.42050
  Beta virt. eigenvalues --    0.42301   0.42569   0.43258   0.43918   0.44171
  Beta virt. eigenvalues --    0.44692   0.46032   0.46888   0.47472   0.47998
  Beta virt. eigenvalues --    0.49381   0.49570   0.50185   0.50625   0.50792
  Beta virt. eigenvalues --    0.51659   0.52283   0.52719   0.52881   0.53218
  Beta virt. eigenvalues --    0.53824   0.54085   0.54312   0.54544   0.54840
  Beta virt. eigenvalues --    0.55350   0.55497   0.56161   0.56235   0.56800
  Beta virt. eigenvalues --    0.57040   0.57659   0.58099   0.58409   0.58525
  Beta virt. eigenvalues --    0.58801   0.59439   0.59543   0.59877   0.60384
  Beta virt. eigenvalues --    0.60940   0.61147   0.61646   0.61948   0.62697
  Beta virt. eigenvalues --    0.62859   0.63142   0.63356   0.63924   0.64100
  Beta virt. eigenvalues --    0.64448   0.65031   0.65245   0.65565   0.66196
  Beta virt. eigenvalues --    0.66389   0.66727   0.67005   0.67315   0.67520
  Beta virt. eigenvalues --    0.67932   0.68228   0.68938   0.69170   0.69263
  Beta virt. eigenvalues --    0.69952   0.70123   0.70338   0.70644   0.71156
  Beta virt. eigenvalues --    0.71695   0.72100   0.72349   0.72510   0.72775
  Beta virt. eigenvalues --    0.73623   0.74028   0.74309   0.74535   0.74940
  Beta virt. eigenvalues --    0.75335   0.75597   0.76026   0.76661   0.77383
  Beta virt. eigenvalues --    0.77910   0.78242   0.78889   0.79369   0.80005
[...]
 -0.00000027,-0.00000008,-0.00000020,-0.00000026,-0.00000021,-0.0000002
 0,0.00000007,0.00000010,-0.00000026,-0.00000005,-0.00000011,-0.0000000
 2,-0.00000001,0.00000008,0.00000094,-0.00000014,0.00000019,0.00000005,
 0.00000113,0.00000057,-0.00000056,-0.00000111,-0.00000037,0.00000077,0
 .00000080,0.00000018,-0.00000079,-0.00000053,-0.00000060,-0.00000101,-
 0.00000161,-0.00000057,-0.00000088,-0.00000127,-0.00000104,0.00000018,
 0.00000022,0.00000011,0.00000011,0.00000021,0.00000013,0.00000016,0.00
 000023,0.00000016,0.00000024,0.00000039,0.00000018,0.00000070,0.000000
 95,0.00000067,-0.00000069,0.00000047,0.00000015,-0.00000045,0.00000024
 ,-0.00000105,0.00000017,0.00000053,-0.00000078,-0.00000028,-0.00000039
 ,0.00000083,0.00000049,-0.00000011,-0.00000058,0.00000024,-0.00000086,
 0.00000055,-0.00000017,0.00000177,0.00000165,-0.00000293,-0.00000506,-
 0.00000082,0.00000114,-0.00000375,-0.00000889,0.00000058,-0.00007196,-
 0.00003544,-0.00002756,-0.00000870,-0.00000898,-0.00000982,0.00005776,
 0.00004163,-0.00006854,-0.00031285,-0.00021081,0.00020706,0.00000493,0
 .00009209,0.00101716,-0.00226215,-0.00128015,0.00263253,0.01058152,-0.
 00478608,-0.00262808,0.00259976,0.00266078,0.00618141,0.15104132,-0.17
 494586,-0.00109895,0.00476203,-0.00210263,-0.00016489,-0.00090842,-0.0
 0024925,0.00120412,0.00301957,0.00459031,0.,0.00000053,-0.00000158,-0.
 00000076,-0.00000118,0.00000147,0.00000295,-0.00000038,-0.00000106,0.0
 0000307,-0.00000159,0.00000098,0.00001680,-0.00000869,-0.00000162,-0.0
 0000577,0.00000026,0.00000055,-0.00001822,0.00000378,-0.00001540,-0.00
 001498,-0.00002079,-0.00003466,0.00014059,0.00040106,-0.00026377,-0.00
 769708,-0.16640498,0.17892356,0.00000084,-0.00000121,0.00000125,-0.000
 00025,-0.00000024,0.00000043,0.00000045,-0.00000015,-0.00000028,-0.000
 00553,-0.00000026,0.00000564,-0.00000529,0.00000298,0.00000107,-0.0000
 0247,0.00000177,-0.00000090,0.00002429,-0.00001192,-0.00000242,-0.0000
 1346,0.00000995,0.00000233,0.00000631,-0.00001127,0.00000174,0.0000138
 6,-0.00000275,-0.00000524,-0.00001047,0.00000734,-0.00000380,-0.000010
 93,0.00000222,0.00000136,-0.00000350,0.00000116,-0.00000586,0.00000061
 ,0.00000009,-0.00000043,-0.00000067,0.00000047,0.00000015,-0.00000053,
 0.00000010,0.00000064,0.00000126,-0.00000019,-0.00000033,0.00000377,-0
 .00000210,0.00000310,-0.00000860,0.00000294,0.00000004,0.00000499,-0.0
 0000333,-0.00000115,0.00000055,0.00000047,0.00000083,0.00000114,0.0000
 0023,-0.00000032,-0.00000092,0.00000104,0.00000104,-0.00000085,0.00000
 071,-0.00000020,-0.00000268,0.00001313,0.00000425,0.00001096,0.0000038
 0,0.00000312,-0.00000438,-0.00000919,-0.00000334,-0.00000144,0.0000030
 5,-0.00000041,-0.00001715,-0.00001894,-0.00002453,-0.00018612,0.000110
 24,0.00004060,0.00032774,-0.00056040,-0.00007930,-0.00008517,0.0000479
 9,0.00000382,-0.00202255,0.00072097,-0.00029025,-0.00151760,-0.0030774
 0,0.00198556,0.00002358,-0.00054980,0.00065616,-0.01907056,0.01100620,
 -0.01261767,-0.25564766,0.07975594,-0.09575195,0.00179852,-0.00063380,
 0.00007883,0.00447957,-0.00187301,0.00180646,0.00000164,-0.00000125,0.
 00000280,0.00000215,-0.00000045,-0.00000162,-0.00001468,0.00000256,0.0
 0000350,-0.00001284,0.00000536,-0.00000563,-0.00001349,0.00001518,0.00
 000421,-0.00002189,0.00000412,-0.00000568,0.00001186,0.00000253,0.0000
 0220,0.00000414,-0.00001091,-0.00001506,-0.00003479,0.00010283,-0.0000
 1569,0.00100794,0.00004918,0.00041847,0.27026585,-0.00000047,-0.000000
 30,-0.00000057,0.00000008,0.00000008,0.,-0.00000034,-0.00000022,-0.000
 00009,0.00000138,0.00000060,-0.00000087,0.00000112,-0.00000029,0.00000
 020,0.00000039,-0.00000044,0.00000005,-0.00000250,0.00000200,0.0000020
 7,-0.00000045,-0.00000260,0.00000217,-0.00000072,0.00000125,-0.0000018
 7,-0.00000299,0.00000021,0.00000178,0.00000133,-0.00000098,-0.00000108
 ,0.00000139,-0.00000076,-0.00000106,0.00000248,0.00000033,-0.00000209,
 -0.00000007,0.00000009,0.00000016,0.00000021,0.00000003,0.00000006,0.0
 0000018,0.00000013,-0.00000006,-0.00000009,0.00000032,0.00000018,-0.00
 000116,0.00000054,0.00000043,0.00000053,0.00000052,0.00000055,-0.00000
 066,-0.00000064,0.00000018,-0.00000003,0.00000002,-0.00000052,-0.00000
 013,-0.00000009,0.00000038,0.00000032,-0.00000005,-0.00000073,-0.00000
 009,0.00000004,0.00000027,-0.00000067,0.00000073,0.00000254,0.00000028
 ,0.00000029,0.00000032,-0.00001106,-0.00001078,-0.00000358,0.00001304,
 0.00000419,-0.00000654,-0.00001842,-0.00000430,-0.00001803,-0.00006281
 ,0.00004210,0.00003071,-0.00019510,-0.00021817,-0.00009415,0.00001319,
 -0.00000418,-0.00001721,-0.00061063,0.00045736,-0.00015576,-0.00267318
 ,0.00298019,0.00412040,-0.00064694,-0.00086750,-0.00021917,-0.01131531
 ,0.00762643,-0.00518282,0.07997693,-0.08207581,0.04997969,-0.00129154,
 -0.00000285,0.00624864,0.02070834,-0.00338103,0.00830086,-0.00000040,-
 0.00000052,-0.00000105,0.00000012,-0.00000018,0.00000007,0.00000036,0.
 00000053,-0.00000099,-0.00000110,0.00000092,0.00000066,0.00000045,-0.0
 0000238,0.00000548,-0.00000586,0.00000523,-0.00000484,-0.00000137,-0.0
 0000355,0.00000372,0.00001138,0.00000603,0.00000576,0.00008642,-0.0003
 3541,-0.00042484,0.00062180,-0.00155863,-0.00250249,-0.08551536,0.0788
 6332,-0.00000029,-0.00000067,0.00000020,0.00000018,-0.00000008,-0.0000
 0005,-0.00000013,-0.00000031,-0.00000024,-0.00000120,0.00000042,0.0000
 0109,-0.00000125,0.00000123,0.00000092,-0.00000065,0.00000012,-0.00000
 006,0.00000796,-0.00000275,0.00000139,-0.00000531,0.00000124,0.0000012
 8,0.00000148,-0.00000246,-0.00000032,0.00000362,-0.00000237,0.00000036
 ,-0.00000353,0.00000215,-0.00000276,-0.00000362,0.00000138,-0.00000154
 ,0.00000012,0.00000075,-0.00000319,0.00000026,0.00000012,-0.00000005,-
 0.00000015,0.00000026,0.00000016,0.00000003,0.00000011,0.00000028,0.00
 000051,0.00000022,0.00000003,0.00000107,-0.00000037,0.00000152,-0.0000
 0163,0.00000017,-0.00000002,0.00000096,-0.00000048,0.00000058,0.000000
 25,0.00000031,-0.00000007,0.00000018,0.00000003,0.00000027,0.00000011,
 0.00000008,-0.00000028,-0.00000002,-0.00000011,0.00000016,-0.00000064,
 0.00000118,0.00000261,0.00000309,0.00000278,-0.00000309,-0.00000625,-0
 .00001449,-0.00000497,0.00001658,-0.00000866,-0.00000045,-0.00000687,0
 .00000678,0.00001257,0.00001459,-0.00001957,0.00002340,0.00003874,0.00
 004218,-0.00001035,0.00000778,-0.00000681,-0.00001628,0.00045321,-0.00
 016340,0.00003639,0.00149277,0.00417916,0.00407067,0.00069334,-0.00032
 801,-0.00068618,0.00864223,-0.00287895,0.00696334,-0.09599864,0.049992
 15,-0.09288521,0.00061220,0.00628737,0.00093775,-0.01919337,0.00598828
 ,-0.00402365,0.00000027,0.00000011,-0.00000028,0.00000014,-0.00000052,
 0.00000019,-0.00000074,0.,0.00000042,-0.00000109,0.00000042,-0.0000004
 3,0.00000274,-0.00000179,0.00000256,0.00000235,0.00000198,-0.00000675,
 0.00000268,0.00000221,-0.00000020,0.00001614,0.00000380,-0.00001029,-0
 .00001889,-0.00043134,-0.00041536,-0.00008357,-0.00252205,-0.00192236,
 0.10371399,-0.05809757,0.08982340,-0.00000027,0.00000027,-0.00000026,-
 0.00000004,0.00000021,-0.00000008,-0.00000022,0.00000012,0.00000007,0.
 00000155,0.00000038,-0.00000150,0.00000077,-0.00000060,0.00000025,0.00
 000060,-0.00000037,0.00000013,-0.00000062,-0.00000235,0.00000394,-0.00
 000567,-0.00000283,0.00001065,0.00000155,0.00000095,-0.00000563,-0.000
 00339,-0.00000179,0.00000655,0.00000156,0.00000227,-0.00000393,0.00000
 019,0.00000239,-0.00000409,0.00000720,0.00000305,-0.00000918,-0.000000
 31,-0.00000008,0.00000009,0.00000009,-0.00000015,-0.00000002,0.0000001
 1,-0.00000006,-0.00000018,-0.00000018,0.,0.00000004,-0.00000321,-0.000
 00081,0.00000148,-0.00000204,0.00000121,0.00000098,-0.00000098,-0.0000
 0512,-0.00000016,-0.00000040,-0.00000079,-0.00000032,0.00000071,0.0000
 0053,-0.00000014,0.00000056,-0.00000001,-0.00000085,-0.00000130,0.0000
 0242,-0.00000035,-0.00000289,0.00000870,0.00000694,0.00000125,-0.00000
 163,0.00000994,-0.00001867,0.00002044,0.00000342,-0.00002423,0.0000172
 4,-0.00002264,0.00001559,-0.00000807,-0.00001424,-0.00011092,0.0000246
 8,-0.00002657,0.00068894,-0.00031249,0.00000180,-0.00003395,0.00005465
 ,-0.00002435,-0.00075628,-0.00125496,0.00122513,-0.00411649,-0.0017632
 2,0.00041740,0.00261116,-0.02077844,0.01988163,-0.00115511,-0.00010782
 ,0.00007452,-0.00432584,0.00138469,-0.00242006,-0.05880492,-0.00550486
 ,0.00300833,0.00556005,0.02016472,-0.01878387,-0.00000049,-0.00000324,
 -0.00000184,0.00000284,0.00000210,-0.00000173,-0.00000868,0.00000154,-
 0.00000165,-0.00001355,0.00000900,-0.00000239,-0.00001444,0.00000814,0
 .00001445,-0.00001076,-0.00000131,-0.00000025,0.00000740,-0.00000260,0
 .00001566,0.00000864,-0.00002689,0.00001565,0.00105282,0.00063459,-0.0
 0000742,0.00009762,0.00003796,0.00004814,0.00006865,0.00102136,-0.0009
 3683,0.05839911,-0.00000005,-0.00000033,0.00000062,-0.00000003,-0.0000
 0006,-0.00000022,-0.00000009,-0.00000017,-0.00000024,-0.00000112,-0.00
 000025,0.00000075,-0.00000212,0.00000119,0.00000069,-0.00000051,0.0000
 0030,-0.00000020,0.00001271,-0.00000903,0.00000495,-0.00001307,0.00000
 245,0.00001337,0.00000531,-0.00000413,-0.00000597,0.00000397,-0.000004
 30,0.00000642,-0.00000468,0.00000620,-0.00000813,-0.00000632,0.0000040
 3,-0.00000589,0.00000523,0.00000234,-0.00001465,0.00000019,0.00000019,
 0.00000002,-0.00000021,0.00000027,0.00000021,0.00000008,0.00000011,0.0
 0000027,0.00000067,0.00000016,0.00000005,-0.00000067,-0.00000089,0.000
 00461,-0.00000559,0.00000173,0.00000197,0.00000187,-0.00000399,-0.0000
 0036,-0.00000009,-0.00000008,-0.00000054,0.00000079,0.00000031,0.00000
 016,0.00000067,0.00000019,-0.00000097,-0.00000092,0.00000151,0.0000003
 7,-0.00000265,0.00000955,0.00000856,0.00000406,0.00000027,0.00000618,0
 .00001054,0.00003838,0.00001521,-0.00004599,0.00000679,-0.00002786,0.0
 0003201,-0.00003759,-0.00002066,-0.00012779,0.00001600,-0.00001640,0.0
 0051874,-0.00023187,0.00008164,0.00004296,0.00005845,-0.00002619,-0.00
 056441,-0.00036694,0.00036665,-0.00209869,0.00405624,0.00291331,0.0012
 2541,-0.00509789,0.00817198,-0.00003893,-0.00017678,-0.00089102,0.0020
 3015,0.00369577,0.00325479,-0.00584729,-0.19389554,0.14852765,-0.00211
 248,-0.00401026,0.00680869,-0.00000009,-0.00000230,-0.00000202,0.00000
 174,0.00000036,-0.00000166,-0.00000807,0.00000108,-0.00000071,-0.00000
 944,0.00000525,-0.00000157,-0.00000592,0.00000482,0.00000720,-0.000012
 35,-0.00000450,-0.00000112,0.00000381,-0.00000514,0.00000963,-0.000001
 00,-0.00002486,-0.00000156,0.00010323,-0.00150201,-0.00252600,0.000025
 04,-0.00038700,-0.00034378,-0.00013728,-0.00029176,0.00035279,0.006579
 18,0.19958682,-0.00000018,0.00000024,-0.00000076,0.,-0.00000024,-0.000
 00012,-0.00000015,-0.00000024,-0.00000017,0.00000199,-0.00000038,-0.00
 000183,0.00000267,-0.00000132,-0.00000092,0.00000083,-0.00000064,0.000
 00016,-0.00001233,0.00000916,-0.00000123,0.00000989,-0.00000358,-0.000
 00557,-0.00000435,0.00000461,0.00000111,-0.00000577,0.00000417,-0.0000
 0149,0.00000454,-0.00000690,0.00000415,0.00000550,-0.00000476,0.000002
 05,-0.00000208,-0.00000402,0.00000631,0.00000004,0.00000028,0.00000038
 ,0.00000050,0.00000006,0.,0.00000031,0.00000025,-0.00000014,-0.0000003
 9,0.00000045,0.00000028,-0.00000013,0.00000317,-0.00000152,0.00000499,
 -0.00000099,0.00000068,-0.00000220,0.00000429,-0.00000045,-0.00000026,
 0.00000033,-0.00000101,-0.00000126,-0.00000087,0.00000058,0.00000090,-
 0.00000031,-0.00000101,0.00000116,-0.00000230,0.00000150,0.00000276,-0
 .00000831,-0.00000259,-0.00000805,0.00000061,-0.00000576,0.00003482,0.
 00005017,0.00004488,-0.00005895,0.00001006,-0.00002048,0.00004636,-0.0
 0006014,-0.00002074,-0.00002739,-0.00004350,-0.00003169,-0.00034895,0.
 00015936,0.00005513,0.00015775,-0.00000516,0.00000728,0.00031004,0.000
 48791,-0.00054672,0.00102110,0.00276685,0.00490065,-0.00110060,0.00601
 651,-0.00249420,-0.00005569,-0.00096022,-0.00018250,-0.00297205,0.0032
 9625,0.00337710,0.00282261,0.14857754,-0.17681626,0.00267744,0.0087490
 9,-0.00456776,-0.00000137,0.00000139,-0.00000263,-0.00000333,-0.000002
 59,0.00000130,0.00001166,-0.00000077,-0.00000323,0.00001360,-0.0000082
 8,0.00000683,0.00001974,-0.00001296,-0.00001361,0.00000818,-0.00000140
 ,0.00000144,-0.00001357,-0.00000725,-0.00000473,-0.00001314,0.00002100
 ,0.00000145,0.00033707,-0.00251523,-0.00180567,0.00005156,-0.00032048,
 -0.00043847,0.00013371,0.00048614,-0.00031316,-0.00311107,-0.16431357,
 0.18055511,0.00000031,-0.00000109,0.00000126,0.,-0.00000002,0.00000010
 ,0.00000022,-0.00000009,-0.00000018,-0.00000409,0.00000050,0.00000401,
 -0.00000475,0.00000264,0.00000149,-0.00000187,0.00000123,-0.00000050,0
 .00002285,-0.00001317,0.00000119,-0.00001511,0.00000770,0.00000657,0.0
 0000638,-0.00000925,-0.00000101,0.00001185,-0.00000530,0.00000003,-0.0
 0000953,0.00000901,-0.00000665,-0.00001055,0.00000503,-0.00000238,-0.0
 0000009,0.00000304,-0.00000966,0.00000040,-0.00000005,-0.00000041,-0.0
 0000069,0.00000033,0.00000019,-0.00000035,-0.00000005,0.00000053,0.000
 00110,-0.00000022,-0.00000030,0.00000235,-0.00000289,0.00000382,-0.000
 00748,0.00000170,-0.00000007,0.00000416,-0.00000361,0.00000038,0.00000
 044,0.00000022,0.00000082,0.00000122,0.00000050,-0.00000035,-0.0000007
 3,0.00000069,0.00000078,-0.00000069,0.00000128,-0.00000061,-0.00000288
 ,0.00000993,0.00000305,0.00000974,0.00000088,0.00000092,0.00000163,-0.
 00002022,-0.00001508,0.00002208,-0.00002686,0.00000809,-0.00001116,0.0
 0001468,0.00000842,0.00000109,0.00002151,0.00003635,0.00012163,-0.0000
 7421,0.00000323,-0.00005362,-0.00001476,0.00001337,-0.00013119,0.00000
 123,0.00018954,0.00027606,0.00078205,-0.00072524,-0.00253890,0.0023788
 5,-0.00316511,0.00175453,-0.00006402,-0.00044093,0.00284656,0.00154142
 ,-0.00134682,-0.01845643,-0.01207243,0.00929706,-0.27238909,-0.0962204
 0,0.06653217,0.00000168,-0.00000098,0.00000235,0.00000192,0.00000053,-
 0.00000140,-0.00001072,0.00000100,0.00000298,-0.00000843,0.00000471,-0
 .00000508,-0.00000615,0.00000916,0.00000334,-0.00000623,-0.00000266,-0
 .00000340,0.00000650,0.00000647,-0.00000536,0.00000380,-0.00001123,-0.
 00002968,-0.00089152,-0.00060465,0.00043409,0.00001915,0.00010588,-0.0
 0013492,0.00065582,-0.00010362,0.00053511,0.00088691,0.00043952,0.0000
 6155,0.28790192,0.00000016,-0.00000037,0.00000056,-0.00000008,-0.00000
 025,-0.00000014,0.00000012,-0.00000022,-0.00000028,-0.00000140,0.00000
 008,0.00000167,-0.00000223,0.00000052,-0.00000012,-0.00000062,0.000000
 63,-0.00000005,0.00000823,-0.00000554,0.00000012,-0.00000509,0.0000041
 0,0.00000408,0.00000236,-0.00000380,-0.00000109,0.00000495,-0.00000140
 ,0.00000124,-0.00000379,0.00000280,-0.00000275,-0.00000467,0.00000115,
 -0.00000194,-0.00000055,-0.00000016,-0.00000496,0.00000033,0.00000021,
 -0.00000003,-0.00000016,0.00000030,0.00000015,0.,0.00000014,0.00000031
 ,0.00000058,0.00000011,0.,0.00000129,-0.00000014,0.00000203,-0.0000030
 1,0.00000092,0.00000061,0.00000174,-0.00000018,-0.00000068,0.00000004,
 0.00000029,-0.00000030,0.00000036,-0.00000005,0.00000017,0.00000023,0.
 00000021,-0.00000033,-0.00000038,0.00000019,0.00000018,-0.00000028,0.0
 0000408,0.00000295,0.00000401,0.00000207,-0.00000115,-0.00001477,-0.00
 001598,-0.00001337,0.00001538,-0.00001513,-0.00000234,-0.00002313,0.00
 000920,0.00001309,-0.00003341,0.00001662,0.00000790,0.00011759,-0.0001
 4040,-0.00013038,-0.00001425,0.00004238,0.00006544,-0.00025670,-0.0001
 6650,-0.00057587,0.00082061,-0.00069475,0.00040316,0.00163038,0.002724
 01,0.00386049,0.00069183,0.00029842,0.00597673,-0.02128261,-0.00540726
 ,0.00475589,0.01096026,0.00696484,-0.00363266,-0.09636033,-0.08895187,
 0.04251651,0.00000037,-0.00000056,-0.00000061,0.00000065,-0.00000037,-
 0.00000033,-0.00000302,0.00000007,0.00000040,-0.00000448,0.00000235,-0
 .00000035,0.00000320,-0.00000003,0.00000328,-0.00000655,-0.00000074,0.
 00000014,0.00000351,0.00000252,0.00000032,-0.00000847,-0.00000182,-0.0
 0000923,0.00052217,0.00040809,0.00004326,-0.00100488,-0.00011852,0.000
 38389,0.00054668,-0.00123006,-0.00238701,-0.00020228,-0.00144309,-0.00
 236351,0.10390010,0.08771292,-0.00000005,0.00000011,-0.00000011,-0.000
 00011,-0.00000011,-0.00000016,-0.00000017,-0.00000008,-0.00000007,0.00
 000098,-0.00000004,-0.00000089,0.00000050,-0.00000064,-0.00000030,0.00
 000040,-0.00000025,-0.00000001,-0.00000200,-0.00000012,0.00000181,-0.0
 0000031,-0.00000070,0.00000387,-0.00000021,0.00000022,-0.00000241,-0.0
 0000174,0.00000084,0.00000279,0.00000093,-0.00000020,-0.00000156,0.000
 00044,-0.00000067,-0.00000171,0.00000170,-0.00000044,-0.00000344,0.,0.
 00000016,0.00000018,0.00000018,0.00000006,0.00000008,0.00000020,0.0000
 0014,-0.00000003,-0.00000004,0.00000025,0.00000018,-0.00000078,0.00000
 070,0.00000103,0.,0.00000074,0.00000085,-0.00000047,-0.00000015,0.0000
 0015,-0.00000008,0.00000006,-0.00000066,-0.00000016,-0.00000013,0.0000
 0031,0.00000033,0.,-0.00000073,-0.00000014,-0.00000012,0.00000039,0.00
 000073,0.00000159,0.00000126,0.00000188,-0.00000065,-0.00000222,-0.000
 01570,-0.00002503,-0.00003306,0.00003953,-0.00002919,0.00001442,-0.000
 03419,0.00002621,0.00002153,0.00005696,0.00000403,0.00002357,-0.000105
 73,-0.00002879,-0.00012571,0.00000114,-0.00000415,0.00007904,0.0002300
 3,-0.00049209,-0.00032520,-0.00071448,0.00042679,-0.00083460,-0.002797
 30,0.00374689,0.00285550,-0.00090472,0.00602225,0.00091490,0.01991700,
 0.00685218,-0.00250489,-0.01181705,-0.00594290,0.00638937,0.06646934,0
 .04268839,-0.06666658,0.00000008,-0.00000014,-0.00000133,-0.00000008,-
 0.00000052,0.00000029,0.00000069,-0.00000003,-0.00000040,-0.00000044,0
 .00000064,0.00000132,0.00000840,-0.00000487,0.00000189,-0.00000139,-0.
 00000131,0.00000259,-0.00000305,0.00000371,-0.00000780,-0.00001557,0.0
 0001529,-0.00001912,-0.00056521,-0.00004787,0.00036928,0.00091819,0.00
 050794,-0.00000372,-0.00004522,-0.00245546,-0.00157393,0.00063442,-0.0
 0234746,-0.00168197,-0.07125766,-0.04891509,0.06310602\\-0.00000109,-0
 .00000318,0.00001736,-0.00000432,0.00000203,-0.00001316,0.00000607,0.0
 0000213,0.00000447,0.00000946,0.00001384,-0.00003268,-0.00001313,0.000
 02442,0.00000179,0.00000559,-0.00001578,-0.00000266,-0.00001355,-0.000
 01357,0.00000758,-0.00000190,0.00000370,0.00002643,-0.00000539,0.00000
 137,-0.00001496,0.00002220,-0.00001248,-0.00000021,0.00000105,-0.00000
 100,0.00000819,0.00000144,0.00000258,-0.00000835,-0.00001162,0.0000119
 6,-0.00002153,-0.00000297,0.00000095,-0.00000009,0.00000179,0.00000203
 ,0.00000014,0.00000042,-0.00000162,0.00000012,-0.00000486,0.00000138,0
 .00000076,0.00000896,-0.00001979,0.00001861,0.00003295,0.00003026,0.00
 000838,-0.00000902,-0.00004273,-0.00001696,-0.00000818,-0.00000490,0.0
 0000191,-0.00000454,-0.00001052,0.00000081,0.00000440,0.00000565,0.000
 00705,-0.00000184,0.00001070,0.00000330,-0.00000793,0.00002751,0.00002
 003,0.00000631,-0.00001433,-0.00001609,-0.00001301,-0.00001208,-0.0000
 1131,0.00002268,0.00000896,0.00000745,-0.00001350,0.00001205,0.0000010
 4,0.00002177,0.00000246,0.00000946,-0.00002549,-0.00001109,-0.00001359
 ,-0.00000339,0.00000877,0.00000527,0.00000766,0.00001113,-0.00000848,0
 .00000783,-0.00001586,0.00002485,-0.00000574,-0.00000411,0.00000389,-0
 .00000001,0.00000913,-0.00001476,0.00000458,-0.00000600,0.00000762,0.0
 0000402,0.00001046,-0.00001162,-0.00001231,-0.00000216,0.00000143,0.00
 000453,-0.00000864,-0.00000684,-0.00000313,-0.00000338,0.00000564,-0.0
 0000320,0.00000257,0.00000653,0.00000096,0.00000426,0.00000019,-0.0000
 0501,-0.00000272,-0.00000250,0.00000137,-0.00000114,0.00000014,-0.0000
 0406,-0.00000053,-0.00000048,-0.00000077,-0.00000204,-0.00000023,0.000
 00144,-0.00000071,-0.00000222,-0.00000238,-0.00000203,0.00000077,0.000
 00022,0.00000376,-0.00000401,0.00000205,-0.00000174,0.00000196,0.00000
 261,0.00000006,-0.00000045\\\@


 MUD THROWN IS GROUND LOST -- FROM A TEA BAG
 Job cpu time:       1 days 10 hours 28 minutes 44.6 seconds.
 Elapsed time:       0 days  4 hours 18 minutes 51.1 seconds.
 File lengths (MBytes):  RWF=   5810 Int=      0 D2E=      0 Chk=     89 Scr=      1
 Normal termination of Gaussian 16 at Fri Dec 29 07:47:11 2023.
