
Running Job 1 of 1 129-rad-CPCM.in
qchem 129-rad-CPCM.in_4137765.0 /expanse/lustre/scratch/selhajj/temp_project/qcscratch/31248398/qchem4137765/ 0
/cm/shared/apps/spack/cpu/opt/spack/linux-centos8-zen2/gcc-10.2.0/qchem-5.4-akfmr7b3t57bfs6qan3padb2wnb2i7cl/exe/qcprog.exe_s 129-rad-CPCM.in_4137765.0 /expanse/lustre/scratch/selhajj/temp_project/qcscratch/31248398/qchem4137765/
                  Welcome to Q-Chem
     A Quantum Leap Into The Future Of Chemistry


 Q-Chem 5.4, Q-Chem, Inc., Pleasanton, CA (2021)

 License issued to: University of California, San Diego (site)

 E. Epifanovsky,  A. T. B. Gilbert,  Xintian Feng,  Joonho Lee,  Yuezhi Mao,  
 N. Mardirossian,  P. Pokhilko,  A. White,  M. Wormit,  M. P. Coons,  
 A. L. Dempwolff,  Zhengting Gan,  D. Hait,  P. R. Horn,  L. D. Jacobson,  
 I. Kaliman,  J. Kussmann,  A. W. Lange,  Ka Un Lao,  D. S. Levine,  Jie Liu,  
 S. C. McKenzie,  A. F. Morrison,  K. Nanda,  F. Plasser,  D. R. Rehn,  
 M. L. Vidal,  Zhi-Qiang You,  Ying Zhu,  B. Alam,  B. Albrecht,  
 A. Aldossary,  E. Alguire,  J. H. Andersen,  D. Barton,  K. Begam,  A. Behn,  
 Y. A. Bernard,  E. J. Berquist,  H. Burton,  A. Carreras,  K. Carter-Fenk,  
 R. Chakraborty,  A. D. Chien,  K. D. Closser,  V. Cofer-Shabica,  
 S. Dasgupta,  Jia Deng,  M. de Wergifosse,  M. Diedenhofen,  Hainam Do,  
 S. Ehlert,  Po-Tung Fang,  S. Fatehi,  Qingguo Feng,  J. Gayvert,  
 Qinghui Ge,  G. Gidofalvi,  M. Goldey,  J. Gomes,  C. Gonzalez-Espinoza,  
 S. Gulania,  A. Gunina,  M. W. D. Hanson-Heine,  P. H. P. Harbach,  
 A. W. Hauser,  M. F. Herbst,  M. Hernandez Vera,  M. Hodecker,  
 Z. C. Holden,  S. Houck,  Xunkun Huang,  Kerwin Hui,  B. C. Huynh,  
 M. Ivanov,  Hyunjun Ji,  Hanjie Jiang,  B. Kaduk,  S. Kaehler,  
 K. Khistyaev,  Jaehoon Kim,  P. Klunzinger,  Z. Koczor-Benda,  
 Joong Hoon Koh,  D. Kosenkov,  L. Koulias,  T. Kowalczyk,  C. M. Krauter,  
 K. Kue,  A. Kunitsa,  T. Kus,  A. Landau,  K. V. Lawler,  D. Lefrancois,  
 S. Lehtola,  Rain Li,  Yi-Pei Li,  Jiashu Liang,  M. Liebenthal,  
 Hung-Hsuan Lin,  You-Sheng Lin,  Fenglai Liu,  Kuan-Yu Liu,  
 M. Loipersberger,  A. Luenser,  A. Manjanath,  P. Manohar,  E. Mansoor,  
 S. F. Manzer,  Shan-Ping Mao,  A. V. Marenich,  T. Markovich,  S. Mason,  
 S. A. Maurer,  P. F. McLaughlin,  M. F. S. J. Menger,  J.-M. Mewes,  
 S. A. Mewes,  P. Morgante,  J. W. Mullinax,  T. S. Nguyen-Beck,  
 K. J. Oosterbaan,  G. Paran,  Alexander C. Paul,  Suranjan K. Paul,  
 F. Pavosevic,  Zheng Pei,  S. Prager,  E. I. Proynov,  E. Ramos,  B. Rana,  
 A. E. Rask,  A. Rettig,  R. M. Richard,  F. Rob,  E. Rossomme,  T. Scheele,  
 M. Scheurer,  M. Schneider,  N. Sergueev,  S. M. Sharada,  W. Skomorowski,  
 D. W. Small,  C. J. Stein,  Yu-Chuan Su,  E. J. Sundstrom,  Zhen Tao,  
 J. Thirman,  T. Tsuchimochi,  N. M. Tubman,  S. P. Veccham,  O. Vydrov,  
 J. Wenzel,  J. Witte,  A. Yamada,  Kun Yao,  S. Yeganeh,  S. R. Yost,  
 A. Zech,  Igor Ying Zhang,  Xing Zhang,  Yu Zhang,  D. Zuev,  
 A. Aspuru-Guzik,  A. T. Bell,  N. A. Besley,  K. B. Bravaya,  B. R. Brooks,  
 D. Casanova,  Jeng-Da Chai,  S. Coriani,  C. J. Cramer,  
 A. E. DePrince, III,  R. A. DiStasio Jr.,  A. Dreuw,  B. D. Dunietz,  
 T. R. Furlani,  W. A. Goddard III,  S. Grimme,  S. Hammes-Schiffer,  
 T. Head-Gordon,  W. J. Hehre,  Chao-Ping Hsu,  T.-C. Jagau,  Yousung Jung,  
 A. Klamt,  Jing Kong,  D. S. Lambrecht,  WanZhen Liang,  N. J. Mayhall,  
 C. W. McCurdy,  J. B. Neaton,  C. Ochsenfeld,  J. A. Parkhill,  R. Peverati,  
 V. A. Rassolov,  Yihan Shao,  L. V. Slipchenko,  T. Stauch,  R. P. Steele,  
 J. E. Subotnik,  A. J. W. Thom,  A. Tkatchenko,  D. G. Truhlar,  
 T. Van Voorhis,  T. A. Wesolowski,  K. B. Whaley,  H. L. Woodcock III,  
 P. M. Zimmerman,  S. Faraji,  P. M. W. Gill,  M. Head-Gordon,  
 J. M. Herbert,  A. I. Krylov

 Contributors to earlier versions of Q-Chem not listed above: 
 R. D. Adamson,  B. Austin,  R. Baer,  J. Baker,  G. J. O. Beran,  
 K. Brandhorst,  S. T. Brown,  E. F. C. Byrd,  A. K. Chakraborty,  
 G. K. L. Chan,  Chun-Min Chang,  Yunqing Chen,  C.-L. Cheng,  
 Siu Hung Chien,  D. M. Chipman,  D. L. Crittenden,  H. Dachsel,  
 R. J. Doerksen,  A. D. Dutoi,  R. G. Edgar,  J. Fosso-Tande,  
 L. Fusti-Molnar,  D. Ghosh,  A. Ghysels,  A. Golubeva-Zadorozhnaya,  
 J. Gonthier,  M. S. Gordon,  S. R. Gwaltney,  G. Hawkins,  J. E. Herr,  
 A. Heyden,  S. Hirata,  E. G. Hohenstein,  G. Kedziora,  F. J. Keil,  
 C. Kelley,  Jihan Kim,  R. A. King,  R. Z. Khaliullin,  P. P. Korambath,  
 W. Kurlancheek,  A. Laurent,  A. M. Lee,  M. S. Lee,  S. V. Levchenko,  
 Ching Yeh Lin,  D. Liotard,  E. Livshits,  R. C. Lochan,  I. Lotan,  
 L. A. Martinez-Martinez,  P. E. Maslen,  N. Nair,  D. P. O'Neill,  
 D. Neuhauser,  E. Neuscamman,  C. M. Oana,  R. Olivares-Amaya,  R. Olson,  
 T. M. Perrine,  B. Peters,  P. A. Pieniazek,  A. Prociuk,  Y. M. Rhee,  
 J. Ritchie,  M. A. Rohrdanz,  E. Rosta,  N. J. Russ,  H. F. Schaefer III,  
 M. W. Schmidt,  N. E. Schultz,  S. Sharma,  N. Shenvi,  C. D. Sherrill,  
 A. C. Simmonett,  A. Sodt,  T. Stein,  D. Stuck,  K. S. Thanthiriwatte,  
 V. Vanovschi,  L. Vogt,  Tao Wang,  A. Warshel,  M. A. Watson,  
 C. F. Williams,  Q. Wu,  X. Xu,  Jun Yang,  W. Zhang,  Yan Zhao

 Please cite Q-Chem as follows:
 Y. Shao et al., Mol. Phys. 113, 184-215 (2015)
 DOI: 10.1080/00268976.2014.952696

 Q-Chem 5.4.0 for Intel X86 EM64T Linux

 Parts of Q-Chem use Armadillo 9.800.1 (Horizon Scraper).
 http://arma.sourceforge.net/

 Q-Chem begins on Tue Jun 11 17:56:32 2024  

 Host: 
0

     Scratch files written to /expanse/lustre/scratch/selhajj/temp_project/qcscratch/31248398/qchem4137765//
 May1621 |scratch|qcdevops|jenkins|workspace|build_RNUM    
 Processing $rem in /cm/shared/apps/spack/cpu/opt/spack/linux-centos8-zen2/gcc-10.2.0/qchem-5.4-akfmr7b3t57bfs6qan3padb2wnb2i7cl/config/preferences:
 Processing $rem in /home/selhajj/.qchemrc:
 Symmetry turned off for PCM/SM12/SMD calculation

 Checking the input file for inconsistencies... 	...done.

--------------------------------------------------------------
User input:
--------------------------------------------------------------
$molecule
-1 2
C                 -3.7593750000      1.7706550000     -0.3502070000
C                 -2.5272090000      0.9217370000     -0.1401410000
C                 -1.2717880000      1.4311590000     -0.4143900000
C                 -0.0900650000      0.6805810000     -0.2354050000
C                  1.2032790000      1.2893790000     -0.5478900000
O                  1.3004530000      2.4683620000     -0.9745360000
C                  2.3777960000      0.4419260000     -0.3335360000
C                  3.6621880000      0.9599270000     -0.6129130000
C                  4.7987140000      0.1989670000     -0.4264010000
C                  4.6881250000     -1.1258350000      0.0529830000
C                  3.4439680000     -1.6542040000      0.3330410000
C                  2.2661390000     -0.8956550000      0.1504690000
C                  0.9703040000     -1.5018340000      0.4619970000
O                  0.8707370000     -2.6806310000      0.8885800000
C                 -0.2013390000     -0.6522090000      0.2466580000
C                 -1.4882330000     -1.1615140000      0.5230020000
C                 -2.6389650000     -0.4169010000      0.3436680000
C                 -3.9917900000     -1.0132890000      0.6556520000
H                 -3.4856880000      2.7608240000     -0.7212280000
H                 -4.4491290000      1.3208360000     -1.0752350000
H                 -4.3273820000      1.9067980000      0.5785430000
H                 -1.1567370000      2.4451570000     -0.7832290000
H                  3.7169000000      1.9787490000     -0.9793590000
H                  5.7769800000      0.6161720000     -0.6472400000
H                  5.5814870000     -1.7258810000      0.2002330000
H                  3.3290800000     -2.6671630000      0.7017910000
H                 -1.5430000000     -2.1814090000      0.8894640000
H                 -4.5227040000     -0.4444900000      1.4291860000
H                 -4.6461870000     -1.0295500000     -0.2248110000
H                 -3.8865600000     -2.0406650000      1.0112540000
$end
$rem
MAX_SCF_CYCLES=200
BASIS  =  6-311++G(d,p)
GUI  =  2
JOB_TYPE  =  SP
METHOD  =  B3LYP
SOLVENT_METHOD = PCM
$end
$pcm
theory = CPCM
$end
$solvent
dielectric 37.219
opticaldielectric 1.43
$end





--------------------------------------------------------------
 ----------------------------------------------------------------
             Standard Nuclear Orientation (Angstroms)
    I     Atom           X                Y                Z
 ----------------------------------------------------------------
    1      C      -3.7593750000     1.7706550000    -0.3502070000
    2      C      -2.5272090000     0.9217370000    -0.1401410000
    3      C      -1.2717880000     1.4311590000    -0.4143900000
    4      C      -0.0900650000     0.6805810000    -0.2354050000
    5      C       1.2032790000     1.2893790000    -0.5478900000
    6      O       1.3004530000     2.4683620000    -0.9745360000
    7      C       2.3777960000     0.4419260000    -0.3335360000
    8      C       3.6621880000     0.9599270000    -0.6129130000
    9      C       4.7987140000     0.1989670000    -0.4264010000
   10      C       4.6881250000    -1.1258350000     0.0529830000
   11      C       3.4439680000    -1.6542040000     0.3330410000
   12      C       2.2661390000    -0.8956550000     0.1504690000
   13      C       0.9703040000    -1.5018340000     0.4619970000
   14      O       0.8707370000    -2.6806310000     0.8885800000
   15      C      -0.2013390000    -0.6522090000     0.2466580000
   16      C      -1.4882330000    -1.1615140000     0.5230020000
   17      C      -2.6389650000    -0.4169010000     0.3436680000
   18      C      -3.9917900000    -1.0132890000     0.6556520000
   19      H      -3.4856880000     2.7608240000    -0.7212280000
   20      H      -4.4491290000     1.3208360000    -1.0752350000
   21      H      -4.3273820000     1.9067980000     0.5785430000
   22      H      -1.1567370000     2.4451570000    -0.7832290000
   23      H       3.7169000000     1.9787490000    -0.9793590000
   24      H       5.7769800000     0.6161720000    -0.6472400000
   25      H       5.5814870000    -1.7258810000     0.2002330000
   26      H       3.3290800000    -2.6671630000     0.7017910000
   27      H      -1.5430000000    -2.1814090000     0.8894640000
   28      H      -4.5227040000    -0.4444900000     1.4291860000
   29      H      -4.6461870000    -1.0295500000    -0.2248110000
   30      H      -3.8865600000    -2.0406650000     1.0112540000
 ----------------------------------------------------------------
 Nuclear Repulsion Energy =        1198.05204342 hartrees
 There are       63 alpha and       62 beta electrons
 Requested basis set is 6-311++G(d,p)
 There are 168 shells and 480 basis functions

 Total QAlloc Memory Limit   8000 MB
 Mega-Array Size       188 MB
 MEM_STATIC part       192 MB
 Discretize the solute cavity surface with Lebedev spheres
	Using 110 Lebedev grid points for each H atom
	Using 194 Lebedev grid points for other atoms
	Atomic van der Waals radii will be scaled by 1.20
 Remove points where switching function is < 1.0e-08
 Keep 1971 surface tesserae and discard 2841 interior tesserae
 Molecular Surface Area = 272.694 Angst**2
 A cutoff of  1.0D-08 yielded   9702 shell pairs
 There are     82654 function pairs (     88336 Cartesian)
 Smallest overlap matrix eigenvalue = 2.59E-08

 Q-Chem warning in module stvman/mkSTV.C, line 323:

 Overlap eigenvalue is smaller than square root of threshold
 Use THRESH >= 12 to get rid of this warning

 Linear dependence detected in AO basis
 Tighter screening thresholds may be required for diffuse basis sets
 Use S2THRESH > 14 and THRESH = 14 in case of SCF convergence issues
 Number of orthogonalized atomic orbitals = 472
 Maximum deviation from orthogonality = 1.724E-10

 Scale SEOQF with 1.000000e-02/1.000000e-01/1.000000e-01

 Standard Electronic Orientation quadrupole field applied
 Nucleus-field energy     =     0.0000000185 hartrees
 Guess from superposition of atomic densities
 Warning:  Energy on first SCF cycle will be non-variational
 SAD guess density has 124.000000 electrons

 -----------------------------------------------------------------------
  General SCF calculation program by
  Eric Jon Sundstrom, Paul Horn, Yuezhi Mao, Dmitri Zuev, Alec White,
  David Stuck, Shaama M.S., Shane Yost, Joonho Lee, David Small,
  Daniel Levine, Susi Lehtola, Hugh Burton, Evgeny Epifanovsky,
  Bang C. Huynh
 -----------------------------------------------------------------------
 Exchange:     0.2000 Hartree-Fock + 0.0800 Slater + 0.7200 B88
 Correlation:  0.1900 VWN1RPA + 0.8100 LYP
 Using SG-1 standard quadrature grid
 using 8 threads for integral computing
 -------------------------------------------------------
 OpenMP Integral computing Module                
 Release: version 1.0, May 2013, Q-Chem Inc. Pittsburgh 
 -------------------------------------------------------
 A unrestricted SCF calculation will be
 performed using DIIS
 SCF converges when DIIS error is below 1.0e-05
 ---------------------------------------
  Cycle       Energy         DIIS error
 ---------------------------------------
    1    -771.8170851173      1.51e-02  
    2    -767.3999271412      1.82e-03  
    3    -767.1466467725      2.60e-03  
    4    -767.7104613369      6.69e-04  
    5    -767.7521160891      1.12e-04  
    6    -767.7532407225      4.73e-05  
    7    -767.7534702672      1.09e-05  
    8    -767.7534855173      5.31e-06  Convergence criterion met
 ---------------------------------------
 SCF time:   CPU 409.77s  wall 53.00s 
<S^2> =          0.757898510

************** Final PCM Free Energy Summary **************
 G_electrostatic  =      -0.09051535 hartree =     -56.79923903 kcal/mol
 G_cavitation     =       0.00000000 hartree =       0.00000000 kcal/mol
 G_dispersion     =       0.00000000 hartree =       0.00000000 kcal/mol
 G_repulsion      =       0.00000000 hartree =       0.00000000 kcal/mol
 --------------------------------------------------
 Non-electrostatic Free Energy =       0.00000000 hartree =       0.00000000 kcal/mol
 Total                         =      -0.09051535 hartree =     -56.79923903 kcal/mol
 --------------------------------------------------
 SCF Energy (H0 + V/2)                       =    -767.75348552 
 Solute Internal Energy (H0)                 =    -767.66297017 
 Total Free Energy (H0 + V/2 + non-elec)     =    -767.75348552 hartree
                                             = -481772.58355536 kcal/mol
***********************************************************

 SCF   energy in the final basis set =     -767.7534855173
 Total energy in the final basis set =     -767.7534855173
 
 --------------------------------------------------------------
 
                    Orbital Energies (a.u.)
 --------------------------------------------------------------
 
 Alpha MOs
 -- Occupied --
-19.0757 -19.0757 -10.2233 -10.2233 -10.1777 -10.1773 -10.1713 -10.1709
-10.1706 -10.1702 -10.1685 -10.1683 -10.1682 -10.1680 -10.1631 -10.1631
-10.1593 -10.1593  -1.0030  -1.0006  -0.8619  -0.8517  -0.7946  -0.7622
 -0.7514  -0.7492  -0.7030  -0.6828  -0.6537  -0.6191  -0.5975  -0.5846
 -0.5543  -0.5183  -0.5149  -0.4754  -0.4639  -0.4475  -0.4388  -0.4316
 -0.4219  -0.4204  -0.4164  -0.4164  -0.4127  -0.3956  -0.3940  -0.3808
 -0.3803  -0.3726  -0.3641  -0.3582  -0.3397  -0.3383  -0.3284  -0.3275
 -0.2634  -0.2567  -0.2497  -0.2473  -0.2376  -0.2371  -0.1401
 -- Virtual --
 -0.0510  -0.0173  -0.0033  -0.0012   0.0037   0.0130   0.0197   0.0227
  0.0361   0.0401   0.0412   0.0424   0.0482   0.0490   0.0576   0.0618
  0.0644   0.0671   0.0748   0.0749   0.0795   0.0825   0.0864   0.1029
  0.1038   0.1059   0.1068   0.1072   0.1131   0.1186   0.1266   0.1266
  0.1271   0.1301   0.1344   0.1356   0.1378   0.1433   0.1438   0.1505
  0.1516   0.1528   0.1538   0.1567   0.1645   0.1688   0.1756   0.1774
  0.1788   0.1856   0.1888   0.1900   0.1960   0.2000   0.2005   0.2075
  0.2100   0.2139   0.2216   0.2221   0.2227   0.2231   0.2339   0.2369
  0.2387   0.2405   0.2446   0.2451   0.2577   0.2627   0.2648   0.2687
  0.2699   0.2734   0.2787   0.2815   0.2888   0.2941   0.2950   0.2990
  0.3006   0.3057   0.3059   0.3083   0.3116   0.3155   0.3242   0.3260
  0.3312   0.3413   0.3432   0.3448   0.3537   0.3615   0.3659   0.3670
  0.3778   0.3826   0.3912   0.3959   0.4043   0.4185   0.4305   0.4331
  0.4434   0.4506   0.4590   0.4675   0.4754   0.4818   0.4934   0.5075
  0.5120   0.5229   0.5389   0.5488   0.5590   0.5633   0.5689   0.5723
  0.5764   0.5771   0.5887   0.5933   0.5965   0.5989   0.6026   0.6119
  0.6204   0.6342   0.6430   0.6449   0.6513   0.6516   0.6630   0.6640
  0.6663   0.6689   0.6787   0.6792   0.6910   0.6935   0.6944   0.6970
  0.7104   0.7186   0.7241   0.7418   0.7423   0.7480   0.7537   0.7675
  0.7703   0.7800   0.7885   0.7977   0.7986   0.8160   0.8344   0.8370
  0.8476   0.8647   0.8790   0.8946   0.9146   0.9241   0.9242   0.9376
  0.9381   0.9429   0.9439   0.9495   0.9610   0.9754   0.9762   0.9849
  0.9870   0.9952   0.9990   1.0190   1.0198   1.0266   1.0333   1.0347
  1.0523   1.0563   1.0817   1.0912   1.0916   1.0943   1.1155   1.1358
  1.1429   1.1666   1.1679   1.1715   1.1935   1.2090   1.2348   1.2390
  1.2537   1.2598   1.2761   1.3206   1.3229   1.3262   1.3492   1.3536
  1.3681   1.3740   1.3851   1.4133   1.4508   1.4661   1.4735   1.4771
  1.4955   1.4978   1.5163   1.5286   1.5290   1.5304   1.5369   1.5492
  1.5655   1.5713   1.5743   1.5803   1.6036   1.6069   1.6069   1.6367
  1.6382   1.6411   1.6652   1.6831   1.6900   1.6924   1.7014   1.7031
  1.7270   1.7462   1.7499   1.7588   1.7697   1.7931   1.7960   1.8118
  1.8238   1.8250   1.8288   1.8532   1.8545   1.8570   1.8934   1.9184
  1.9205   1.9344   1.9385   1.9416   1.9569   1.9613   1.9780   1.9793
  1.9916   1.9920   2.0183   2.0343   2.0451   2.0555   2.0581   2.0637
  2.0831   2.1086   2.1552   2.1713   2.1857   2.1943   2.2020   2.2217
  2.2322   2.2751   2.2812   2.2891   2.2899   2.3216   2.3299   2.3640
  2.3673   2.4010   2.4171   2.4257   2.4570   2.4604   2.4865   2.4941
  2.5008   2.5221   2.5367   2.5406   2.5796   2.5918   2.6171   2.6358
  2.6405   2.6506   2.6635   2.6705   2.6820   2.6857   2.7142   2.7250
  2.7264   2.7555   2.7656   2.7668   2.7740   2.7770   2.7853   2.7953
  2.7992   2.8127   2.8200   2.8265   2.8518   2.8592   2.8914   2.8989
  2.9017   2.9069   2.9115   2.9350   2.9504   2.9609   2.9767   2.9790
  2.9883   2.9974   3.0526   3.1051   3.1146   3.1258   3.1363   3.1717
  3.1884   3.2291   3.2340   3.2483   3.2862   3.3334   3.3360   3.3460
  3.3530   3.3574   3.3950   3.4385   3.4930   3.5257   3.5427   3.5597
  3.5642   3.5874   3.5893   3.6473   3.7016   3.7463   3.7561   3.7981
  3.8266   3.8527   3.8539   3.8935   3.8987   4.0504   4.0823   4.1980
  4.2357   4.2402   4.3088   4.3234   4.3739   4.5243   4.8201   4.8437
  4.8874   5.0778   5.0915   5.2793   5.3051   5.7613   5.8425  23.5258
 23.6917  23.9079  23.9120  23.9426  23.9438  23.9639  23.9674  23.9868
 23.9872  24.0281  24.0546  24.1246  24.1301  24.1819  24.1956  50.0641
 50.1191
 
 Beta MOs
 -- Occupied --
-19.0706 -19.0706 -10.2213 -10.2213 -10.1773 -10.1768 -10.1705 -10.1701
-10.1701 -10.1697 -10.1682 -10.1682 -10.1679 -10.1674 -10.1630 -10.1629
-10.1594 -10.1594  -0.9938  -0.9912  -0.8596  -0.8503  -0.7914  -0.7607
 -0.7495  -0.7470  -0.7006  -0.6813  -0.6474  -0.6179  -0.5949  -0.5841
 -0.5517  -0.5159  -0.5133  -0.4739  -0.4618  -0.4458  -0.4380  -0.4289
 -0.4215  -0.4196  -0.4146  -0.4072  -0.4044  -0.3937  -0.3933  -0.3806
 -0.3720  -0.3630  -0.3571  -0.3541  -0.3392  -0.3371  -0.3263  -0.3170
 -0.2516  -0.2457  -0.2426  -0.2412  -0.2325  -0.2319
 -- Virtual --
 -0.0819  -0.0413  -0.0072  -0.0032   0.0013   0.0037   0.0131   0.0199
  0.0227   0.0367   0.0402   0.0413   0.0424   0.0507   0.0514   0.0577
  0.0618   0.0721   0.0739   0.0751   0.0758   0.0825   0.0866   0.0867
  0.1030   0.1040   0.1064   0.1069   0.1076   0.1134   0.1186   0.1267
  0.1269   0.1275   0.1302   0.1360   0.1375   0.1380   0.1439   0.1441
  0.1507   0.1529   0.1538   0.1543   0.1568   0.1646   0.1689   0.1757
  0.1788   0.1792   0.1860   0.1888   0.1912   0.1960   0.2002   0.2005
  0.2079   0.2115   0.2145   0.2223   0.2229   0.2234   0.2285   0.2341
  0.2378   0.2403   0.2412   0.2451   0.2458   0.2591   0.2633   0.2660
  0.2700   0.2724   0.2742   0.2793   0.2822   0.2896   0.2946   0.2958
  0.2994   0.3016   0.3070   0.3083   0.3093   0.3153   0.3162   0.3248
  0.3284   0.3319   0.3417   0.3437   0.3456   0.3544   0.3622   0.3670
  0.3676   0.3783   0.3840   0.3918   0.3971   0.4053   0.4201   0.4313
  0.4362   0.4443   0.4510   0.4596   0.4678   0.4759   0.4821   0.4954
  0.5078   0.5135   0.5249   0.5397   0.5503   0.5629   0.5640   0.5697
  0.5762   0.5774   0.5779   0.5891   0.5940   0.5971   0.6009   0.6030
  0.6134   0.6213   0.6354   0.6439   0.6470   0.6519   0.6558   0.6635
  0.6661   0.6690   0.6694   0.6792   0.6799   0.6936   0.6966   0.6968
  0.6973   0.7110   0.7189   0.7265   0.7426   0.7427   0.7515   0.7539
  0.7679   0.7711   0.7806   0.7892   0.7987   0.8002   0.8163   0.8363
  0.8373   0.8478   0.8655   0.8799   0.8958   0.9157   0.9253   0.9258
  0.9394   0.9415   0.9444   0.9455   0.9506   0.9614   0.9764   0.9781
  0.9859   0.9894   0.9968   1.0018   1.0201   1.0215   1.0276   1.0342
  1.0374   1.0564   1.0566   1.0827   1.0947   1.0953   1.0962   1.1244
  1.1370   1.1477   1.1672   1.1683   1.1801   1.1958   1.2126   1.2406
  1.2442   1.2562   1.2665   1.2788   1.3225   1.3256   1.3275   1.3501
  1.3553   1.3686   1.3762   1.3862   1.4153   1.4524   1.4663   1.4741
  1.4775   1.4988   1.5002   1.5172   1.5294   1.5297   1.5339   1.5417
  1.5501   1.5658   1.5728   1.5754   1.5809   1.6041   1.6073   1.6091
  1.6372   1.6389   1.6428   1.6667   1.6838   1.6913   1.6928   1.7022
  1.7078   1.7283   1.7473   1.7514   1.7609   1.7709   1.7974   1.7978
  1.8131   1.8247   1.8257   1.8325   1.8536   1.8553   1.8587   1.8960
  1.9190   1.9239   1.9366   1.9405   1.9426   1.9585   1.9662   1.9788
  1.9814   1.9927   1.9936   2.0219   2.0360   2.0473   2.0579   2.0599
  2.0656   2.0846   2.1099   2.1557   2.1720   2.1869   2.1972   2.2027
  2.2227   2.2332   2.2772   2.2837   2.2902   2.2917   2.3247   2.3310
  2.3671   2.3703   2.4020   2.4206   2.4263   2.4590   2.4610   2.4868
  2.4943   2.5010   2.5224   2.5370   2.5413   2.5801   2.5921   2.6176
  2.6417   2.6431   2.6515   2.6638   2.6735   2.6835   2.6860   2.7147
  2.7252   2.7307   2.7557   2.7660   2.7675   2.7774   2.7818   2.7857
  2.7956   2.7998   2.8154   2.8202   2.8335   2.8529   2.8642   2.8959
  2.9060   2.9071   2.9126   2.9140   2.9393   2.9560   2.9643   2.9829
  2.9853   2.9951   3.0049   3.0581   3.1094   3.1166   3.1289   3.1379
  3.1720   3.1924   3.2304   3.2359   3.2488   3.2877   3.3376   3.3466
  3.3476   3.3538   3.3714   3.3959   3.4394   3.4939   3.5277   3.5440
  3.5612   3.5655   3.5882   3.5918   3.6481   3.7028   3.7466   3.7562
  3.7995   3.8267   3.8545   3.8571   3.8937   3.9010   4.0514   4.0837
  4.1992   4.2368   4.2420   4.3108   4.3265   4.3745   4.5273   4.8248
  4.8450   4.8884   5.0992   5.1128   5.2835   5.3093   5.7659   5.8471
 23.5265  23.6923  23.9082  23.9137  23.9437  23.9444  23.9658  23.9680
 23.9871  23.9878  24.0287  24.0553  24.1249  24.1304  24.1822  24.1960
 50.0692  50.1242
 --------------------------------------------------------------
 
          Ground-State Mulliken Net Atomic Charges

     Atom                 Charge (a.u.)    Spin (a.u.)
  --------------------------------------------------------
      1 C                    -0.524427      -0.002504
      2 C                     0.340332       0.036714
      3 C                    -0.156301       0.027200
      4 C                     0.004270       0.021498
      5 C                    -0.504226       0.110979
      6 O                    -0.486265       0.194571
      7 C                     0.228120       0.041327
      8 C                     0.031996       0.032158
      9 C                    -0.444634       0.041356
     10 C                    -0.446493       0.041371
     11 C                     0.032745       0.032076
     12 C                     0.227900       0.041289
     13 C                    -0.504881       0.110977
     14 O                    -0.486155       0.194570
     15 C                     0.003551       0.021463
     16 C                    -0.155838       0.027182
     17 C                     0.345924       0.036724
     18 C                    -0.523017      -0.002504
     19 H                     0.179273       0.000165
     20 H                     0.166141       0.001759
     21 H                     0.166150       0.001763
     22 H                     0.132384      -0.002233
     23 H                     0.167751      -0.001316
     24 H                     0.197272      -0.003366
     25 H                     0.197184      -0.003366
     26 H                     0.167267      -0.001321
     27 H                     0.132718      -0.002225
     28 H                     0.166416       0.001768
     29 H                     0.165789       0.001760
     30 H                     0.179051       0.000167
  --------------------------------------------------------
  Sum of atomic charges =    -1.000000
  Sum of spin   charges =     1.000000

 -----------------------------------------------------------------
                    Cartesian Multipole Moments
 -----------------------------------------------------------------
    Charge (ESU x 10^10)
                -4.8032
    Dipole Moment (Debye)
         X      -6.7838      Y       0.6624      Z       0.2701
       Tot       6.8214
    Quadrupole Moments (Debye-Ang)
        XX    -103.2674     XY      -3.1749     YY    -139.4730
        XZ       0.4471     YZ       9.8710     ZZ    -115.9696
    Octopole Moments (Debye-Ang^2)
       XXX    -151.6298    XXY      -1.1304    XYY     -84.4770
       YYY      24.9427    XXZ       2.7988    XYZ       9.3188
       YYZ       1.5586    XZZ     -63.1170    YZZ       5.4258
       ZZZ       7.4797
    Hexadecapole Moments (Debye-Ang^3)
      XXXX   -4862.2607   XXXY     158.1468   XXYY   -1106.0143
      XYYY     172.3257   YYYY   -1699.9107   XXXZ      91.2749
      XXYZ      51.6757   XYYZ      50.1988   YYYZ     296.6438
      XXZZ    -976.0882   XYZZ      69.2928   YYZZ    -331.9563
      XZZZ     126.5322   YZZZ     236.4902   ZZZZ    -330.1159
 -----------------------------------------------------------------
 Total job time:  155.28s(wall), 417.64s(cpu) 
 Tue Jun 11 17:59:07 2024

        *************************************************************
        *                                                           *
        *  Thank you very much for using Q-Chem.  Have a nice day.  *
        *                                                           *
        *************************************************************


