 Entering Gaussian System, Link 0=g16
 Input=037-an.com
 Output=037-an.log
 Initial command:
 /sysapps/ubuntu-applications/gaussian/Gaussian/AVX2/g16/l1.exe "/scratch/selhajj1/4406436/Gau-2031365.inp" -scrdir="/scratch/selhajj1/4406436/"
 Entering Link 1 = /sysapps/ubuntu-applications/gaussian/Gaussian/AVX2/g16/l1.exe PID=   2031371.
  
 Copyright (c) 1988,1990,1992,1993,1995,1998,2003,2009,2016,
            Gaussian, Inc.  All Rights Reserved.
  
 This is part of the Gaussian(R) 16 program.  It is based on
 the Gaussian(R) 09 system (copyright 2009, Gaussian, Inc.),
 the Gaussian(R) 03 system (copyright 2003, Gaussian, Inc.),
 the Gaussian(R) 98 system (copyright 1998, Gaussian, Inc.),
 the Gaussian(R) 94 system (copyright 1995, Gaussian, Inc.),
 the Gaussian 92(TM) system (copyright 1992, Gaussian, Inc.),
 the Gaussian 90(TM) system (copyright 1990, Gaussian, Inc.),
 the Gaussian 88(TM) system (copyright 1988, Gaussian, Inc.),
 the Gaussian 86(TM) system (copyright 1986, Carnegie Mellon
 University), and the Gaussian 82(TM) system (copyright 1983,
 Carnegie Mellon University). Gaussian is a federally registered
 trademark of Gaussian, Inc.
  
 This software contains proprietary and confidential information,
 including trade secrets, belonging to Gaussian, Inc.
  
 This software is provided under written license and may be
 used, copied, transmitted, or stored only in accord with that
 written license.
  
 The following legend is applicable only to US Government
 contracts under FAR:
  
                    RESTRICTED RIGHTS LEGEND
  
 Use, reproduction and disclosure by the US Government is
 subject to restrictions as set forth in subparagraphs (a)
 and (c) of the Commercial Computer Software - Restricted
 Rights clause in FAR 52.227-19.
  
 Gaussian, Inc.
 340 Quinnipiac St., Bldg. 40, Wallingford CT 06492
  
  
 ---------------------------------------------------------------
 Warning -- This program may not be used in any manner that
 competes with the business of Gaussian, Inc. or will provide
 assistance to any competitor of Gaussian, Inc.  The licensee
 of this program is prohibited from giving any competitor of
 Gaussian, Inc. access to this program.  By using this program,
 the user acknowledges that Gaussian, Inc. is engaged in the
 business of creating and licensing software in the field of
 computational chemistry and represents and warrants to the
 licensee that it is not a competitor of Gaussian, Inc. and that
 it will not use this program in any manner prohibited above.
 ---------------------------------------------------------------
  

 Cite this work as:
 Gaussian 16, Revision A.03,
 M. J. Frisch, G. W. Trucks, H. B. Schlegel, G. E. Scuseria, 
 M. A. Robb, J. R. Cheeseman, G. Scalmani, V. Barone, 
 G. A. Petersson, H. Nakatsuji, X. Li, M. Caricato, A. V. Marenich, 
 J. Bloino, B. G. Janesko, R. Gomperts, B. Mennucci, H. P. Hratchian, 
 J. V. Ortiz, A. F. Izmaylov, J. L. Sonnenberg, D. Williams-Young, 
 F. Ding, F. Lipparini, F. Egidi, J. Goings, B. Peng, A. Petrone, 
 T. Henderson, D. Ranasinghe, V. G. Zakrzewski, J. Gao, N. Rega, 
 G. Zheng, W. Liang, M. Hada, M. Ehara, K. Toyota, R. Fukuda, 
 J. Hasegawa, M. Ishida, T. Nakajima, Y. Honda, O. Kitao, H. Nakai, 
 T. Vreven, K. Throssell, J. A. Montgomery, Jr., J. E. Peralta, 
 F. Ogliaro, M. J. Bearpark, J. J. Heyd, E. N. Brothers, K. N. Kudin, 
 V. N. Staroverov, T. A. Keith, R. Kobayashi, J. Normand, 
 K. Raghavachari, A. P. Rendell, J. C. Burant, S. S. Iyengar, 
 J. Tomasi, M. Cossi, J. M. Millam, M. Klene, C. Adamo, R. Cammi, 
 J. W. Ochterski, R. L. Martin, K. Morokuma, O. Farkas, 
 J. B. Foresman, and D. J. Fox, Gaussian, Inc., Wallingford CT, 2016.
 
 ******************************************
 Gaussian 16:  ES64L-G16RevA.03 25-Dec-2016
                10-Feb-2024 
 ******************************************
 %chk=037-an.chk
 %nproc=8
 Will use up to    8 processors via shared memory.
 %mem=30GB
 ----------------------------------------------------------------------
 #P UB3LYP/6-311++G(d,p) nosym opt freq SCRF=(PCM,Solvent=n,n-DiMethylF
 ormamide)
 ----------------------------------------------------------------------
 1/18=20,19=15,26=3,38=1/1,3;
 2/9=110,12=2,15=1,17=6,18=5,40=1/2;
 3/5=4,6=6,7=1111,11=2,25=1,30=1,70=2201,71=1,72=148,74=-5,116=2/1,2,3;
 4//1;
 5/5=2,38=5,53=148/2;
 6/7=2,8=2,9=2,10=2,28=1/1;
 7/30=1/1,2,3,16;
 1/18=20,19=15,26=3/3(2);
 2/9=110,15=1/2;
 99//99;
 2/9=110,15=1/2;
 3/5=4,6=6,7=1111,11=2,25=1,30=1,70=2205,71=1,72=148,74=-5,116=2/1,2,3;
 4/5=5,16=3,69=1/1;
 5/5=2,38=5,53=148/2;
 7/30=1/1,2,3,16;
 1/18=20,19=15,26=3/3(-5);
 2/9=110,15=1/2;
 6/7=2,8=2,9=2,10=2,19=2,28=1/1;
 99/9=1/99;
 Leave Link    1 at Sat Feb 10 10:01:36 2024, MaxMem=  4026531840 cpu:               0.7 elap:               0.1
 (Enter /sysapps/ubuntu-applications/gaussian/Gaussian/AVX2/g16/l101.exe)
 -------
 Reduced
 -------
 Symbolic Z-matrix:
 Charge = -2 Multiplicity = 1
 C                    -1.59312  -1.38697  -0.16725 
 C                    -0.25604  -0.68361  -0.11045 
 C                    -0.18387   0.7005    0.1431 
 C                    -1.44011   1.50358   0.39366 
 C                     1.06858   1.41602   0.21036 
 O                     1.15116   2.68758   0.48565 
 C                     2.21735   0.59996  -0.0326 
 C                     2.14532  -0.76772  -0.29314 
 C                     0.91431  -1.49228  -0.35847 
 O                     0.85793  -2.7649   -0.63558 
 H                    -1.41859  -2.46576  -0.14453 
 H                    -2.15444  -1.16934  -1.09957 
 H                    -2.25576  -1.10053   0.65793 
 H                    -1.87063   1.32567   1.40097 
 H                    -2.2384    1.27192  -0.32119 
 H                    -1.18941   2.56601   0.3373 
 H                     3.18813   1.09688   0.01479 
 H                     3.05757  -1.33702  -0.481 
 
 ITRead=  0  0  0  0  0  0  0  0  0  0  0  0  0  0  0  0  0  0
 MicOpt= -1 -1 -1 -1 -1 -1 -1 -1 -1 -1 -1 -1 -1 -1 -1 -1 -1 -1
 NAtoms=     18 NQM=       18 NQMF=       0 NMMI=      0 NMMIF=      0
                NMic=       0 NMicF=      0.
                    Isotopes and Nuclear Properties:
 (Nuclear quadrupole moments (NQMom) in fm**2, nuclear magnetic moments (NMagM)
  in nuclear magnetons)

  Atom         1           2           3           4           5           6           7           8           9          10
 IAtWgt=          12          12          12          12          12          16          12          12          12          16
 AtmWgt=  12.0000000  12.0000000  12.0000000  12.0000000  12.0000000  15.9949146  12.0000000  12.0000000  12.0000000  15.9949146
 NucSpn=           0           0           0           0           0           0           0           0           0           0
 AtZEff=  -0.0000000  -0.0000000  -0.0000000  -0.0000000  -0.0000000  -0.0000000  -0.0000000  -0.0000000  -0.0000000  -0.0000000
 NQMom=    0.0000000   0.0000000   0.0000000   0.0000000   0.0000000   0.0000000   0.0000000   0.0000000   0.0000000   0.0000000
 NMagM=    0.0000000   0.0000000   0.0000000   0.0000000   0.0000000   0.0000000   0.0000000   0.0000000   0.0000000   0.0000000
 AtZNuc=   6.0000000   6.0000000   6.0000000   6.0000000   6.0000000   8.0000000   6.0000000   6.0000000   6.0000000   8.0000000

  Atom        11          12          13          14          15          16          17          18
 IAtWgt=           1           1           1           1           1           1           1           1
 AtmWgt=   1.0078250   1.0078250   1.0078250   1.0078250   1.0078250   1.0078250   1.0078250   1.0078250
 NucSpn=           1           1           1           1           1           1           1           1
 AtZEff=  -0.0000000  -0.0000000  -0.0000000  -0.0000000  -0.0000000  -0.0000000  -0.0000000  -0.0000000
 NQMom=    0.0000000   0.0000000   0.0000000   0.0000000   0.0000000   0.0000000   0.0000000   0.0000000
 NMagM=    2.7928460   2.7928460   2.7928460   2.7928460   2.7928460   2.7928460   2.7928460   2.7928460
 AtZNuc=   1.0000000   1.0000000   1.0000000   1.0000000   1.0000000   1.0000000   1.0000000   1.0000000
 Leave Link  101 at Sat Feb 10 10:01:37 2024, MaxMem=  4026531840 cpu:               3.6 elap:               0.5
 (Enter /sysapps/ubuntu-applications/gaussian/Gaussian/AVX2/g16/l103.exe)

 GradGradGradGradGradGradGradGradGradGradGradGradGradGradGradGradGradGrad
 Berny optimization.
 Initialization pass.
                           ----------------------------
                           !    Initial Parameters    !
                           ! (Angstroms and Degrees)  !
 --------------------------                            --------------------------
 ! Name  Definition              Value          Derivative Info.                !
 --------------------------------------------------------------------------------
 ! R1    R(1,2)                  1.5119         estimate D2E/DX2                !
 ! R2    R(1,11)                 1.0931         estimate D2E/DX2                !
 ! R3    R(1,12)                 1.1098         estimate D2E/DX2                !
 ! R4    R(1,13)                 1.0964         estimate D2E/DX2                !
 ! R5    R(2,3)                  1.409          estimate D2E/DX2                !
 ! R6    R(2,9)                  1.444          estimate D2E/DX2                !
 ! R7    R(3,4)                  1.5119         estimate D2E/DX2                !
 ! R8    R(3,5)                  1.444          estimate D2E/DX2                !
 ! R9    R(4,14)                 1.1098         estimate D2E/DX2                !
 ! R10   R(4,15)                 1.0963         estimate D2E/DX2                !
 ! R11   R(4,16)                 1.0931         estimate D2E/DX2                !
 ! R12   R(5,6)                  1.3036         estimate D2E/DX2                !
 ! R13   R(5,7)                  1.4299         estimate D2E/DX2                !
 ! R14   R(7,8)                  1.3941         estimate D2E/DX2                !
 ! R15   R(7,17)                 1.0916         estimate D2E/DX2                !
 ! R16   R(8,9)                  1.4299         estimate D2E/DX2                !
 ! R17   R(8,18)                 1.0916         estimate D2E/DX2                !
 ! R18   R(9,10)                 1.3037         estimate D2E/DX2                !
 ! A1    A(2,1,11)             108.4912         estimate D2E/DX2                !
 ! A2    A(2,1,12)             112.8079         estimate D2E/DX2                !
 ! A3    A(2,1,13)             112.6253         estimate D2E/DX2                !
 ! A4    A(11,1,12)            106.963          estimate D2E/DX2                !
 ! A5    A(11,1,13)            109.7982         estimate D2E/DX2                !
 ! A6    A(12,1,13)            105.983          estimate D2E/DX2                !
 ! A7    A(1,2,3)              120.6018         estimate D2E/DX2                !
 ! A8    A(1,2,9)              116.7308         estimate D2E/DX2                !
 ! A9    A(3,2,9)              122.6511         estimate D2E/DX2                !
 ! A10   A(2,3,4)              120.6007         estimate D2E/DX2                !
 ! A11   A(2,3,5)              122.6544         estimate D2E/DX2                !
 ! A12   A(4,3,5)              116.7284         estimate D2E/DX2                !
 ! A13   A(3,4,14)             112.8047         estimate D2E/DX2                !
 ! A14   A(3,4,15)             112.6262         estimate D2E/DX2                !
 ! A15   A(3,4,16)             108.4916         estimate D2E/DX2                !
 ! A16   A(14,4,15)            105.9906         estimate D2E/DX2                !
 ! A17   A(14,4,16)            106.9528         estimate D2E/DX2                !
 ! A18   A(15,4,16)            109.8023         estimate D2E/DX2                !
 ! A19   A(3,5,6)              123.2367         estimate D2E/DX2                !
 ! A20   A(3,5,7)              113.9609         estimate D2E/DX2                !
 ! A21   A(6,5,7)              122.796          estimate D2E/DX2                !
 ! A22   A(5,7,8)              123.375          estimate D2E/DX2                !
 ! A23   A(5,7,17)             116.5699         estimate D2E/DX2                !
 ! A24   A(8,7,17)             120.0429         estimate D2E/DX2                !
 ! A25   A(7,8,9)              123.3755         estimate D2E/DX2                !
 ! A26   A(7,8,18)             120.0408         estimate D2E/DX2                !
 ! A27   A(9,8,18)             116.5717         estimate D2E/DX2                !
 ! A28   A(2,9,8)              113.9614         estimate D2E/DX2                !
 ! A29   A(2,9,10)             123.2396         estimate D2E/DX2                !
 ! A30   A(8,9,10)             122.7926         estimate D2E/DX2                !
 ! D1    D(11,1,2,3)          -167.2462         estimate D2E/DX2                !
 ! D2    D(11,1,2,9)            14.1805         estimate D2E/DX2                !
 ! D3    D(12,1,2,3)            74.4358         estimate D2E/DX2                !
 ! D4    D(12,1,2,9)          -104.1375         estimate D2E/DX2                !
 ! D5    D(13,1,2,3)           -45.49           estimate D2E/DX2                !
 ! D6    D(13,1,2,9)           135.9366         estimate D2E/DX2                !
 ! D7    D(1,2,3,4)              1.363          estimate D2E/DX2                !
 ! D8    D(1,2,3,5)            179.8374         estimate D2E/DX2                !
 ! D9    D(9,2,3,4)            179.8496         estimate D2E/DX2                !
 ! D10   D(9,2,3,5)             -1.676          estimate D2E/DX2                !
 ! D11   D(1,2,9,8)            179.869          estimate D2E/DX2                !
 ! D12   D(1,2,9,10)             0.7641         estimate D2E/DX2                !
 ! D13   D(3,2,9,8)              1.3275         estimate D2E/DX2                !
 ! D14   D(3,2,9,10)          -177.7774         estimate D2E/DX2                !
 ! D15   D(2,3,4,14)            74.554          estimate D2E/DX2                !
 ! D16   D(2,3,4,15)           -45.3801         estimate D2E/DX2                !
 ! D17   D(2,3,4,16)          -167.1423         estimate D2E/DX2                !
 ! D18   D(5,3,4,14)          -104.0079         estimate D2E/DX2                !
 ! D19   D(5,3,4,15)           136.058          estimate D2E/DX2                !
 ! D20   D(5,3,4,16)            14.2958         estimate D2E/DX2                !
 ! D21   D(2,3,5,6)           -177.77           estimate D2E/DX2                !
 ! D22   D(2,3,5,7)              1.3311         estimate D2E/DX2                !
 ! D23   D(4,3,5,6)              0.7598         estimate D2E/DX2                !
 ! D24   D(4,3,5,7)            179.8609         estimate D2E/DX2                !
 ! D25   D(3,5,7,8)             -0.8567         estimate D2E/DX2                !
 ! D26   D(3,5,7,17)          -179.588          estimate D2E/DX2                !
 ! D27   D(6,5,7,8)            178.2488         estimate D2E/DX2                !
 ! D28   D(6,5,7,17)            -0.4824         estimate D2E/DX2                !
 ! D29   D(5,7,8,9)              0.6994         estimate D2E/DX2                !
 ! D30   D(5,7,8,18)           179.3925         estimate D2E/DX2                !
 ! D31   D(17,7,8,9)           179.3885         estimate D2E/DX2                !
 ! D32   D(17,7,8,18)           -1.9183         estimate D2E/DX2                !
 ! D33   D(7,8,9,2)             -0.8531         estimate D2E/DX2                !
 ! D34   D(7,8,9,10)           178.2563         estimate D2E/DX2                !
 ! D35   D(18,8,9,2)          -179.5883         estimate D2E/DX2                !
 ! D36   D(18,8,9,10)           -0.4789         estimate D2E/DX2                !
 --------------------------------------------------------------------------------
 Trust Radius=3.00D-01 FncErr=1.00D-07 GrdErr=1.00D-06 EigMax=2.50D+02 EigMin=1.00D-04
 Number of steps in this run=     94 maximum allowed number of steps=    108.
 GradGradGradGradGradGradGradGradGradGradGradGradGradGradGradGradGradGrad

 Leave Link  103 at Sat Feb 10 10:01:37 2024, MaxMem=  4026531840 cpu:               0.4 elap:               0.1
 (Enter /sysapps/ubuntu-applications/gaussian/Gaussian/AVX2/g16/l202.exe)
                          Input orientation:                          
 ---------------------------------------------------------------------
 Center     Atomic      Atomic             Coordinates (Angstroms)
 Number     Number       Type             X           Y           Z
 ---------------------------------------------------------------------
      1          6           0       -1.593122   -1.386965   -0.167247
      2          6           0       -0.256035   -0.683609   -0.110448
      3          6           0       -0.183865    0.700503    0.143099
      4          6           0       -1.440110    1.503581    0.393660
      5          6           0        1.068577    1.416015    0.210364
      6          8           0        1.151157    2.687583    0.485653
      7          6           0        2.217354    0.599957   -0.032596
      8          6           0        2.145324   -0.767716   -0.293136
      9          6           0        0.914314   -1.492284   -0.358469
     10          8           0        0.857934   -2.764904   -0.635578
     11          1           0       -1.418591   -2.465755   -0.144530
     12          1           0       -2.154440   -1.169339   -1.099572
     13          1           0       -2.255763   -1.100530    0.657925
     14          1           0       -1.870625    1.325671    1.400970
     15          1           0       -2.238404    1.271915   -0.321190
     16          1           0       -1.189409    2.566007    0.337303
     17          1           0        3.188135    1.096884    0.014791
     18          1           0        3.057568   -1.337015   -0.481000
 ---------------------------------------------------------------------
                    Distance matrix (angstroms):
                    1          2          3          4          5
     1  C    0.000000
     2  C    1.511866   0.000000
     3  C    2.537684   1.408993   0.000000
     4  C    2.948438   2.537707   1.511908   0.000000
     5  C    3.883803   2.503186   1.443985   2.516898   0.000000
     6  O    4.955733   3.701413   2.418287   2.850436   1.303644
     7  C    4.299502   2.787697   2.409737   3.791474   1.429919
     8  C    3.791477   2.409766   2.787667   4.299513   2.486278
     9  C    2.516921   1.444017   2.503174   3.883841   2.967418
    10  O    2.850566   2.418363   3.701450   4.955835   4.270840
    11  H    1.093053   2.128084   3.410640   4.005713   4.623861
    12  H    1.109806   2.195049   2.987257   3.143964   4.334493
    13  H    1.096379   2.182460   2.793121   2.741627   4.193393
    14  H    3.145585   2.988058   2.195048   1.109806   3.172477
    15  H    2.740389   2.792539   2.182477   1.096336   3.352527
    16  H    4.005439   3.410524   2.128130   1.093058   2.537143
    17  H    5.391017   3.879194   3.397641   4.661501   2.152352
    18  H    4.661529   3.397678   3.879158   5.391022   3.466013
                    6          7          8          9         10
     6  O    0.000000
     7  C    2.400737   0.000000
     8  C    3.678855   1.394130   0.000000
     9  C    4.270822   2.486278   1.429914   0.000000
    10  O    5.574294   3.678845   2.400708   1.303660   0.000000
    11  H    5.792895   4.757228   3.950558   2.536900   2.348017
    12  H    5.321255   4.835435   4.393132   3.173449   3.440278
    13  H    5.097704   4.835003   4.514958   3.352002   3.760106
    14  H    3.438572   4.392419   4.835298   4.335018   5.322158
    15  H    3.760882   4.515373   4.835075   4.193068   5.097260
    16  H    2.348412   3.950723   4.757269   4.623794   5.792816
    17  H    2.627035   1.091603   2.158473   3.466032   4.556997
    18  H    4.556996   2.158445   1.091597   2.152361   2.627004
                   11         12         13         14         15
    11  H    0.000000
    12  H    1.770388   0.000000
    13  H    1.791265   1.761760   0.000000
    14  H    4.119201   3.543774   2.566495   0.000000
    15  H    3.830598   2.563718   2.566605   1.761813   0.000000
    16  H    5.059972   4.116880   3.831893   1.770276   1.791278
    17  H    5.825779   5.909372   5.905783   5.250227   5.439747
    18  H    4.628527   5.251264   5.439169   5.909213   5.905876
                   16         17         18
    16  H    0.000000
    17  H    4.628739   0.000000
    18  H    5.825806   2.487312   0.000000
 Symmetry turned off by external request.
 Stoichiometry    C8H8O2(2-)
 Framework group  C1[X(C8H8O2)]
 Deg. of freedom    48
 Full point group                 C1      NOp   1
 Rotational constants (GHZ):           2.0652163           1.2548626           0.7881810
 Leave Link  202 at Sat Feb 10 10:01:37 2024, MaxMem=  4026531840 cpu:               0.8 elap:               0.2
 (Enter /sysapps/ubuntu-applications/gaussian/Gaussian/AVX2/g16/l301.exe)
 Standard basis: 6-311++G(d,p) (5D, 7F)
 Ernie: Thresh=  0.10000D-02 Tol=  0.10000D-05 Strict=F.
   276 basis functions,   432 primitive gaussians,   286 cartesian basis functions
    37 alpha electrons       37 beta electrons
       nuclear repulsion energy       491.6454130437 Hartrees.
 IExCor=  402 DFT=T Ex+Corr=B3LYP ExCW=0 ScaHFX=  0.200000
 ScaDFX=  0.800000  0.720000  1.000000  0.810000 ScalE2=  1.000000  1.000000
 IRadAn=      5 IRanWt=     -1 IRanGd=            0 ICorTp=0 IEmpDi=  4
 NAtoms=   18 NActive=   18 NUniq=   18 SFac= 1.00D+00 NAtFMM=   60 NAOKFM=F Big=F
 Integral buffers will be    131072 words long.
 Raffenetti 2 integral format.
 Two-electron integral symmetry is turned off.
 ------------------------------------------------------------------------------
 Polarizable Continuum Model (PCM)
 =================================
 Model                : PCM.
 Atomic radii         : UFF (Universal Force Field).
 Polarization charges : Total charges.
 Charge compensation  : None.
 Solution method      : On-the-fly selection.
 Cavity type          : Scaled VdW (van der Waals Surface) (Alpha=1.100).
 Cavity algorithm     : GePol (No added spheres)
                        Default sphere list used, NSphG=   18.
                        Lebedev-Laikov grids with approx.  5.0 points / Ang**2.
                        Smoothing algorithm: York/Karplus (Gamma=1.0000).
                        Polarization charges: spherical gaussians, with
                                              point-specific exponents (IZeta= 3).
                        Self-potential: point-specific (ISelfS= 7).
                        Self-field    : sphere-specific E.n sum rule (ISelfD= 2).
 1st derivatives      : Analytical E(r).r(x)/FMM algorithm (CHGder, D1EAlg=3).
                        Cavity 1st derivative terms included.
 Solvent              : n,n-DiMethylFormamide, Eps=  37.219000 Eps(inf)=   2.046330
 ------------------------------------------------------------------------------
 Spheres list:
 ISph  on   Nord     Re0    Alpha      Xe            Ye            Ze
    1   C      1    1.9255  1.100     -1.593122     -1.386965     -0.167247
    2   C      2    1.9255  1.100     -0.256035     -0.683609     -0.110448
    3   C      3    1.9255  1.100     -0.183865      0.700503      0.143099
    4   C      4    1.9255  1.100     -1.440110      1.503581      0.393660
    5   C      5    1.9255  1.100      1.068577      1.416015      0.210364
    6   O      6    1.7500  1.100      1.151157      2.687583      0.485653
    7   C      7    1.9255  1.100      2.217354      0.599957     -0.032596
    8   C      8    1.9255  1.100      2.145324     -0.767716     -0.293136
    9   C      9    1.9255  1.100      0.914314     -1.492284     -0.358469
   10   O     10    1.7500  1.100      0.857934     -2.764904     -0.635578
   11   H     11    1.4430  1.100     -1.418591     -2.465755     -0.144530
   12   H     12    1.4430  1.100     -2.154440     -1.169339     -1.099572
   13   H     13    1.4430  1.100     -2.255763     -1.100530      0.657925
   14   H     14    1.4430  1.100     -1.870625      1.325671      1.400970
   15   H     15    1.4430  1.100     -2.238404      1.271915     -0.321190
   16   H     16    1.4430  1.100     -1.189409      2.566007      0.337303
   17   H     17    1.4430  1.100      3.188135      1.096884      0.014791
   18   H     18    1.4430  1.100      3.057568     -1.337015     -0.481000
 ------------------------------------------------------------------------------
 GePol: Number of generator spheres                  =      18
 GePol: Total number of spheres                      =      18
 GePol: Number of exposed spheres                    =      18 (100.00%)
 GePol: Number of points                             =    1523
 GePol: Average weight of points                     =       0.13
 GePol: Minimum weight of points                     =   0.23D-11
 GePol: Maximum weight of points                     =    0.20577
 GePol: Number of points with low weight             =     109
 GePol: Fraction of low-weight points (<1% of avg)   =       7.16%
 GePol: Cavity surface area                          =    197.966 Ang**2
 GePol: Cavity volume                                =    200.468 Ang**3
 Leave Link  301 at Sat Feb 10 10:01:37 2024, MaxMem=  4026531840 cpu:               0.8 elap:               0.2
 (Enter /sysapps/ubuntu-applications/gaussian/Gaussian/AVX2/g16/l302.exe)
 NPDir=0 NMtPBC=     1 NCelOv=     1 NCel=       1 NClECP=     1 NCelD=      1
         NCelK=      1 NCelE2=     1 NClLst=     1 CellRange=     0.0.
 One-electron integrals computed using PRISM.
 NBasis=   276 RedAO= T EigKep=  1.07D-06  NBF=   276
 NBsUse=   276 1.00D-06 EigRej= -1.00D+00 NBFU=   276
 Precomputing XC quadrature grid using
 IXCGrd= 4 IRadAn=           5 IRanWt=          -1 IRanGd=           0 AccXCQ= 0.00D+00.
 Generated NRdTot=       0 NPtTot=           0 NUsed=           0 NTot=          32
 NSgBfM=   286   286   286   286   286 MxSgAt=    18 MxSgA2=    18.
 Leave Link  302 at Sat Feb 10 10:01:38 2024, MaxMem=  4026531840 cpu:               5.8 elap:               0.9
 (Enter /sysapps/ubuntu-applications/gaussian/Gaussian/AVX2/g16/l303.exe)
 DipDrv:  MaxL=1.
 Leave Link  303 at Sat Feb 10 10:01:39 2024, MaxMem=  4026531840 cpu:               1.2 elap:               0.3
 (Enter /sysapps/ubuntu-applications/gaussian/Gaussian/AVX2/g16/l401.exe)
 ExpMin= 3.60D-02 ExpMax= 8.59D+03 ExpMxC= 1.30D+03 IAcc=3 IRadAn=         5 AccDes= 0.00D+00
 Harris functional with IExCor=  402 and IRadAn=       5 diagonalized for initial guess.
 HarFok:  IExCor=  402 AccDes= 0.00D+00 IRadAn=         5 IDoV= 1 UseB2=F ITyADJ=14
 ICtDFT=  3500011 ScaDFX=  1.000000  1.000000  1.000000  1.000000
 FoFCou: FMM=F IPFlag=           0 FMFlag=      100000 FMFlg1=           0
         NFxFlg=           0 DoJE=T BraDBF=F KetDBF=T FulRan=T
         wScrn=  0.000000 ICntrl=       500 IOpCl=  0 I1Cent=   200000004 NGrid=           0
         NMat0=    1 NMatS0=      1 NMatT0=    0 NMatD0=    1 NMtDS0=    0 NMtDT0=    0
 Symmetry not used in FoFCou.
 Harris En= -460.742241325833    
 JPrj=0 DoOrth=F DoCkMO=F.
 Initial guess <Sx>= 0.0000 <Sy>= 0.0000 <Sz>= 0.0000 <S**2>=-0.0000 S=-0.0000
 Leave Link  401 at Sat Feb 10 10:01:41 2024, MaxMem=  4026531840 cpu:              15.3 elap:               2.2
 (Enter /sysapps/ubuntu-applications/gaussian/Gaussian/AVX2/g16/l502.exe)
 Two-electron integral symmetry not used.
 UHF open shell SCF:
 Using DIIS extrapolation, IDIIS=  1040.
 NGot=  4026531840 LenX=  4026363800 LenY=  4026281563
 Requested convergence on RMS density matrix=1.00D-08 within 128 cycles.
 Requested convergence on MAX density matrix=1.00D-06.
 Requested convergence on             energy=1.00D-06.
 No special actions if energy rises.
 Fock matrices will be formed incrementally for  20 cycles.

 Cycle   1  Pass 1  IDiag  1:
 FoFJK:  IHMeth= 1 ICntrl=       0 DoSepK=F KAlg= 0 I1Cent=           0 FoldK=F
 IRaf= 950000000 NMat=       1 IRICut=       1 DoRegI=T DoRafI=F ISym2E= 0 IDoP0=0 IntGTp=1.
 FoFCou: FMM=F IPFlag=           0 FMFlag=      100000 FMFlg1=           0
         NFxFlg=           0 DoJE=F BraDBF=F KetDBF=F FulRan=T
         wScrn=  0.000000 ICntrl=         0 IOpCl=  1 I1Cent=           0 NGrid=           0
         NMat0=    1 NMatS0=      1 NMatT0=    0 NMatD0=    1 NMtDS0=    0 NMtDT0=    0
 Symmetry not used in FoFCou.
 Inv3:  Mode=1 IEnd=     6958587.
 Iteration    1 A*A^-1 deviation from unit magnitude is 2.66D-15 for    184.
 Iteration    1 A*A^-1 deviation from orthogonality  is 2.14D-15 for    902    557.
 Iteration    1 A^-1*A deviation from unit magnitude is 2.89D-15 for    184.
 Iteration    1 A^-1*A deviation from orthogonality  is 2.29D-15 for   1093   1001.
 E= -459.993283601711    
 DIIS: error= 4.10D-02 at cycle   1 NSaved=   1.
 NSaved= 1 IEnMin= 1 EnMin= -459.993283601711     IErMin= 1 ErrMin= 4.10D-02
 ErrMax= 4.10D-02  0.00D+00 EMaxC= 1.00D-01 BMatC= 2.09D+00 BMatP= 2.09D+00
 IDIUse=3 WtCom= 5.90D-01 WtEn= 4.10D-01
 Coeff-Com:  0.100D+01
 Coeff-En:   0.100D+01
 Coeff:      0.100D+01
 Gap=     0.112 Goal=   None    Shift=    0.000
 Gap=     0.112 Goal=   None    Shift=    0.000
 GapD=    0.112 DampG=1.000 DampE=0.500 DampFc=0.5000 IDamp=-1.
 Damping current iteration by 5.00D-01
 RMSDP=2.97D+00 MaxDP=1.82D+02              OVMax= 9.65D-01

 Cycle   2  Pass 1  IDiag  1:
 RMSU=  1.43D+00    CP:  3.00D+00
 E= -459.803052826838     Delta-E=        0.190230774873 Rises=F Damp=T
 DIIS: error= 3.12D-02 at cycle   2 NSaved=   2.
 NSaved= 2 IEnMin= 1 EnMin= -459.993283601711     IErMin= 2 ErrMin= 3.12D-02
 ErrMax= 3.12D-02  0.00D+00 EMaxC= 1.00D-01 BMatC= 7.40D-01 BMatP= 2.09D+00
 IDIUse=3 WtCom= 6.88D-01 WtEn= 3.12D-01
 Coeff-Com:  0.343D+00 0.657D+00
 Coeff-En:   0.620D+00 0.380D+00
 Coeff:      0.429D+00 0.571D+00
 Gap=    -0.003 Goal=   None    Shift=    0.000
 Gap=    -0.003 Goal=   None    Shift=    0.000
 RMSDP=1.49D+00 MaxDP=9.16D+01 DE= 1.90D-01 OVMax= 9.42D-01

 Cycle   3  Pass 1  IDiag  1:
 RMSU=  1.63D-02    CP:  7.59D-01  7.70D-04
 E= -460.373833015657     Delta-E=       -0.570780188819 Rises=F Damp=F
 DIIS: error= 2.83D-02 at cycle   3 NSaved=   3.
 NSaved= 3 IEnMin= 3 EnMin= -460.373833015657     IErMin= 3 ErrMin= 2.83D-02
 ErrMax= 2.83D-02  0.00D+00 EMaxC= 1.00D-01 BMatC= 4.33D-01 BMatP= 7.40D-01
 IDIUse=3 WtCom= 7.17D-01 WtEn= 2.83D-01
 Coeff-Com:  0.145D+00 0.426D+00 0.429D+00
 Coeff-En:   0.000D+00 0.000D+00 0.100D+01
 Coeff:      0.104D+00 0.305D+00 0.591D+00
 Gap=     0.108 Goal=   None    Shift=    0.000
 Gap=     0.108 Goal=   None    Shift=    0.000
 RMSDP=1.32D-02 MaxDP=6.19D-01 DE=-5.71D-01 OVMax= 1.11D-01

 Cycle   4  Pass 1  IDiag  1:
 RMSU=  1.13D-02    CP:  7.19D-01  3.81D-03  1.26D+00
 E= -460.447041289895     Delta-E=       -0.073208274239 Rises=F Damp=F
 DIIS: error= 1.38D-02 at cycle   4 NSaved=   4.
 NSaved= 4 IEnMin= 4 EnMin= -460.447041289895     IErMin= 4 ErrMin= 1.38D-02
 ErrMax= 1.38D-02  0.00D+00 EMaxC= 1.00D-01 BMatC= 1.10D-01 BMatP= 4.33D-01
 IDIUse=3 WtCom= 8.62D-01 WtEn= 1.38D-01
 Coeff-Com: -0.766D-02 0.787D-01 0.345D+00 0.584D+00
 Coeff-En:   0.000D+00 0.000D+00 0.226D+00 0.774D+00
 Coeff:     -0.661D-02 0.679D-01 0.328D+00 0.610D+00
 Gap=     0.105 Goal=   None    Shift=    0.000
 Gap=     0.105 Goal=   None    Shift=    0.000
 RMSDP=1.05D-02 MaxDP=1.03D+00 DE=-7.32D-02 OVMax= 4.72D-02

 Cycle   5  Pass 1  IDiag  1:
 RMSU=  5.47D-03    CP:  6.10D-01  3.51D-03  1.02D+00  8.93D-01
 E= -460.471477240466     Delta-E=       -0.024435950571 Rises=F Damp=F
 DIIS: error= 3.70D-03 at cycle   5 NSaved=   5.
 NSaved= 5 IEnMin= 5 EnMin= -460.471477240466     IErMin= 5 ErrMin= 3.70D-03
 ErrMax= 3.70D-03  0.00D+00 EMaxC= 1.00D-01 BMatC= 5.28D-03 BMatP= 1.10D-01
 IDIUse=3 WtCom= 9.63D-01 WtEn= 3.70D-02
 Coeff-Com: -0.101D-01 0.264D-01 0.120D+00 0.289D+00 0.574D+00
 Coeff-En:   0.000D+00 0.000D+00 0.000D+00 0.000D+00 0.100D+01
 Coeff:     -0.974D-02 0.254D-01 0.116D+00 0.279D+00 0.590D+00
 Gap=     0.108 Goal=   None    Shift=    0.000
 Gap=     0.108 Goal=   None    Shift=    0.000
 RMSDP=1.41D-03 MaxDP=9.08D-02 DE=-2.44D-02 OVMax= 1.02D-02

 Cycle   6  Pass 1  IDiag  1:
 RMSU=  1.26D-03    CP:  6.09D-01  3.30D-03  1.03D+00  9.32D-01  9.56D-01
 E= -460.472581005589     Delta-E=       -0.001103765122 Rises=F Damp=F
 DIIS: error= 6.65D-04 at cycle   6 NSaved=   6.
 NSaved= 6 IEnMin= 6 EnMin= -460.472581005589     IErMin= 6 ErrMin= 6.65D-04
 ErrMax= 6.65D-04  0.00D+00 EMaxC= 1.00D-01 BMatC= 5.11D-04 BMatP= 5.28D-03
 IDIUse=3 WtCom= 9.93D-01 WtEn= 6.65D-03
 Coeff-Com: -0.134D-02-0.594D-03-0.557D-02 0.270D-01 0.292D+00 0.688D+00
 Coeff-En:   0.000D+00 0.000D+00 0.000D+00 0.000D+00 0.450D-01 0.955D+00
 Coeff:     -0.133D-02-0.590D-03-0.554D-02 0.268D-01 0.291D+00 0.690D+00
 Gap=     0.107 Goal=   None    Shift=    0.000
 Gap=     0.107 Goal=   None    Shift=    0.000
 RMSDP=4.76D-04 MaxDP=1.99D-02 DE=-1.10D-03 OVMax= 2.47D-03

 Cycle   7  Pass 1  IDiag  1:
 RMSU=  2.64D-04    CP:  6.09D-01  3.33D-03  1.02D+00  9.33D-01  1.02D+00
                    CP:  9.10D-01
 E= -460.472702392599     Delta-E=       -0.000121387010 Rises=F Damp=F
 DIIS: error= 1.04D-04 at cycle   7 NSaved=   7.
 NSaved= 7 IEnMin= 7 EnMin= -460.472702392599     IErMin= 7 ErrMin= 1.04D-04
 ErrMax= 1.04D-04  0.00D+00 EMaxC= 1.00D-01 BMatC= 1.31D-05 BMatP= 5.11D-04
 IDIUse=3 WtCom= 9.99D-01 WtEn= 1.04D-03
 Coeff-Com:  0.708D-03-0.663D-03-0.303D-02 0.132D-02 0.767D-01 0.223D+00
 Coeff-Com:  0.702D+00
 Coeff-En:   0.000D+00 0.000D+00 0.000D+00 0.000D+00 0.000D+00 0.000D+00
 Coeff-En:   0.100D+01
 Coeff:      0.708D-03-0.662D-03-0.303D-02 0.132D-02 0.767D-01 0.223D+00
 Coeff:      0.702D+00
 Gap=     0.108 Goal=   None    Shift=    0.000
 Gap=     0.108 Goal=   None    Shift=    0.000
 RMSDP=1.86D-04 MaxDP=1.05D-02 DE=-1.21D-04 OVMax= 8.95D-04

 Cycle   8  Pass 1  IDiag  1:
 RMSU=  4.85D-05    CP:  6.09D-01  3.27D-03  1.01D+00  9.25D-01  1.02D+00
                    CP:  9.87D-01  1.01D+00
 E= -460.472705034411     Delta-E=       -0.000002641812 Rises=F Damp=F
 DIIS: error= 6.77D-05 at cycle   8 NSaved=   8.
 NSaved= 8 IEnMin= 8 EnMin= -460.472705034411     IErMin= 8 ErrMin= 6.77D-05
 ErrMax= 6.77D-05  0.00D+00 EMaxC= 1.00D-01 BMatC= 3.46D-06 BMatP= 1.31D-05
 IDIUse=1 WtCom= 1.00D+00 WtEn= 0.00D+00
 Coeff-Com:  0.612D-03-0.516D-03-0.961D-03-0.583D-03 0.243D-01 0.807D-01
 Coeff-Com:  0.407D+00 0.490D+00
 Coeff:      0.612D-03-0.516D-03-0.961D-03-0.583D-03 0.243D-01 0.807D-01
 Coeff:      0.407D+00 0.490D+00
 Gap=     0.108 Goal=   None    Shift=    0.000
 Gap=     0.108 Goal=   None    Shift=    0.000
 RMSDP=5.46D-05 MaxDP=4.03D-03 DE=-2.64D-06 OVMax= 4.88D-04

 Cycle   9  Pass 1  IDiag  1:
 RMSU=  2.18D-05    CP:  6.09D-01  3.26D-03  1.01D+00  9.23D-01  1.02D+00
                    CP:  9.99D-01  1.04D+00  1.04D+00
 E= -460.472705763191     Delta-E=       -0.000000728781 Rises=F Damp=F
 DIIS: error= 2.26D-05 at cycle   9 NSaved=   9.
 NSaved= 9 IEnMin= 9 EnMin= -460.472705763191     IErMin= 9 ErrMin= 2.26D-05
 ErrMax= 2.26D-05  0.00D+00 EMaxC= 1.00D-01 BMatC= 3.19D-07 BMatP= 3.46D-06
 IDIUse=1 WtCom= 1.00D+00 WtEn= 0.00D+00
 Coeff-Com:  0.272D-03-0.262D-03 0.915D-04 0.198D-05 0.564D-02 0.201D-01
 Coeff-Com:  0.125D+00 0.245D+00 0.604D+00
 Coeff:      0.272D-03-0.262D-03 0.915D-04 0.198D-05 0.564D-02 0.201D-01
 Coeff:      0.125D+00 0.245D+00 0.604D+00
 Gap=     0.108 Goal=   None    Shift=    0.000
 Gap=     0.108 Goal=   None    Shift=    0.000
 RMSDP=2.80D-05 MaxDP=1.82D-03 DE=-7.29D-07 OVMax= 1.81D-04

 Cycle  10  Pass 1  IDiag  1:
 RMSU=  8.37D-06    CP:  6.09D-01  3.25D-03  1.01D+00  9.22D-01  1.02D+00
                    CP:  1.01D+00  1.06D+00  1.23D+00  8.25D-01
 E= -460.472705825331     Delta-E=       -0.000000062140 Rises=F Damp=F
 DIIS: error= 1.12D-05 at cycle  10 NSaved=  10.
 NSaved=10 IEnMin=10 EnMin= -460.472705825331     IErMin=10 ErrMin= 1.12D-05
 ErrMax= 1.12D-05  0.00D+00 EMaxC= 1.00D-01 BMatC= 8.50D-08 BMatP= 3.19D-07
 IDIUse=1 WtCom= 1.00D+00 WtEn= 0.00D+00
 Coeff-Com:  0.802D-04-0.864D-04 0.349D-03 0.179D-03-0.102D-02-0.259D-02
 Coeff-Com: -0.148D-02 0.633D-01 0.393D+00 0.548D+00
 Coeff:      0.802D-04-0.864D-04 0.349D-03 0.179D-03-0.102D-02-0.259D-02
 Coeff:     -0.148D-02 0.633D-01 0.393D+00 0.548D+00
 Gap=     0.108 Goal=   None    Shift=    0.000
 Gap=     0.108 Goal=   None    Shift=    0.000
 RMSDP=1.58D-05 MaxDP=7.55D-04 DE=-6.21D-08 OVMax= 5.58D-05

 Cycle  11  Pass 1  IDiag  1:
 RMSU=  2.98D-06    CP:  6.09D-01  3.25D-03  1.01D+00  9.21D-01  1.02D+00
                    CP:  1.01D+00  1.07D+00  1.28D+00  9.63D-01  1.07D+00
 E= -460.472705846621     Delta-E=       -0.000000021290 Rises=F Damp=F
 DIIS: error= 2.33D-06 at cycle  11 NSaved=  11.
 NSaved=11 IEnMin=11 EnMin= -460.472705846621     IErMin=11 ErrMin= 2.33D-06
 ErrMax= 2.33D-06  0.00D+00 EMaxC= 1.00D-01 BMatC= 3.85D-09 BMatP= 8.50D-08
 IDIUse=1 WtCom= 1.00D+00 WtEn= 0.00D+00
 Coeff-Com:  0.154D-04-0.249D-04 0.134D-03 0.872D-04-0.474D-03-0.146D-02
 Coeff-Com: -0.895D-02 0.322D-02 0.797D-01 0.162D+00 0.765D+00
 Coeff:      0.154D-04-0.249D-04 0.134D-03 0.872D-04-0.474D-03-0.146D-02
 Coeff:     -0.895D-02 0.322D-02 0.797D-01 0.162D+00 0.765D+00
 Gap=     0.108 Goal=   None    Shift=    0.000
 Gap=     0.108 Goal=   None    Shift=    0.000
 RMSDP=5.48D-06 MaxDP=2.95D-04 DE=-2.13D-08 OVMax= 1.16D-05

 Cycle  12  Pass 1  IDiag  1:
 RMSU=  8.03D-07    CP:  6.09D-01  3.25D-03  1.01D+00  9.21D-01  1.02D+00
                    CP:  1.01D+00  1.07D+00  1.32D+00  9.68D-01  1.14D+00
                    CP:  8.16D-01
 E= -460.472705847226     Delta-E=       -0.000000000605 Rises=F Damp=F
 DIIS: error= 1.44D-06 at cycle  12 NSaved=  12.
 NSaved=12 IEnMin=12 EnMin= -460.472705847226     IErMin=12 ErrMin= 1.44D-06
 ErrMax= 1.44D-06  0.00D+00 EMaxC= 1.00D-01 BMatC= 1.23D-09 BMatP= 3.85D-09
 IDIUse=1 WtCom= 1.00D+00 WtEn= 0.00D+00
 Coeff-Com:  0.481D-05-0.109D-04 0.636D-04 0.472D-04-0.187D-03-0.625D-03
 Coeff-Com: -0.570D-02-0.367D-02 0.166D-01 0.542D-01 0.523D+00 0.416D+00
 Coeff:      0.481D-05-0.109D-04 0.636D-04 0.472D-04-0.187D-03-0.625D-03
 Coeff:     -0.570D-02-0.367D-02 0.166D-01 0.542D-01 0.523D+00 0.416D+00
 Gap=     0.108 Goal=   None    Shift=    0.000
 Gap=     0.108 Goal=   None    Shift=    0.000
 RMSDP=1.39D-06 MaxDP=9.92D-05 DE=-6.05D-10 OVMax= 7.90D-06

 Cycle  13  Pass 1  IDiag  1:
 RMSU=  2.45D-07    CP:  6.09D-01  3.25D-03  1.01D+00  9.21D-01  1.02D+00
                    CP:  1.01D+00  1.07D+00  1.32D+00  9.89D-01  1.16D+00
                    CP:  1.00D+00  5.47D-01
 E= -460.472705847465     Delta-E=       -0.000000000239 Rises=F Damp=F
 DIIS: error= 3.22D-07 at cycle  13 NSaved=  13.
 NSaved=13 IEnMin=13 EnMin= -460.472705847465     IErMin=13 ErrMin= 3.22D-07
 ErrMax= 3.22D-07  0.00D+00 EMaxC= 1.00D-01 BMatC= 8.50D-11 BMatP= 1.23D-09
 IDIUse=1 WtCom= 1.00D+00 WtEn= 0.00D+00
 Coeff-Com:  0.415D-06-0.330D-06 0.568D-05 0.477D-05 0.617D-05 0.417D-05
 Coeff-Com: -0.778D-03-0.254D-02-0.932D-02-0.129D-01 0.680D-01 0.180D+00
 Coeff-Com:  0.778D+00
 Coeff:      0.415D-06-0.330D-06 0.568D-05 0.477D-05 0.617D-05 0.417D-05
 Coeff:     -0.778D-03-0.254D-02-0.932D-02-0.129D-01 0.680D-01 0.180D+00
 Coeff:      0.778D+00
 Gap=     0.108 Goal=   None    Shift=    0.000
 Gap=     0.108 Goal=   None    Shift=    0.000
 RMSDP=8.71D-07 MaxDP=4.54D-05 DE=-2.39D-10 OVMax= 1.57D-06

 Cycle  14  Pass 1  IDiag  1:
 RMSU=  5.87D-08    CP:  6.09D-01  3.25D-03  1.01D+00  9.21D-01  1.02D+00
                    CP:  1.01D+00  1.07D+00  1.32D+00  9.91D-01  1.18D+00
                    CP:  1.01D+00  6.69D-01  9.10D-01
 E= -460.472705847487     Delta-E=       -0.000000000022 Rises=F Damp=F
 DIIS: error= 1.53D-08 at cycle  14 NSaved=  14.
 NSaved=14 IEnMin=14 EnMin= -460.472705847487     IErMin=14 ErrMin= 1.53D-08
 ErrMax= 1.53D-08  0.00D+00 EMaxC= 1.00D-01 BMatC= 2.51D-13 BMatP= 8.50D-11
 IDIUse=1 WtCom= 1.00D+00 WtEn= 0.00D+00
 Coeff-Com:  0.804D-07 0.821D-07-0.370D-06 0.846D-07 0.890D-05 0.190D-04
 Coeff-Com:  0.343D-04-0.332D-03-0.179D-02-0.342D-02-0.761D-03 0.218D-01
 Coeff-Com:  0.135D+00 0.849D+00
 Coeff:      0.804D-07 0.821D-07-0.370D-06 0.846D-07 0.890D-05 0.190D-04
 Coeff:      0.343D-04-0.332D-03-0.179D-02-0.342D-02-0.761D-03 0.218D-01
 Coeff:      0.135D+00 0.849D+00
 Gap=     0.108 Goal=   None    Shift=    0.000
 Gap=     0.108 Goal=   None    Shift=    0.000
 RMSDP=7.74D-08 MaxDP=3.78D-06 DE=-2.21D-11 OVMax= 2.83D-07

 Cycle  15  Pass 1  IDiag  1:
 RMSU=  1.22D-08    CP:  6.09D-01  3.25D-03  1.01D+00  9.21D-01  1.02D+00
                    CP:  1.01D+00  1.07D+00  1.33D+00  9.92D-01  1.18D+00
                    CP:  1.01D+00  6.78D-01  9.49D-01  1.13D+00
 E= -460.472705847491     Delta-E=       -0.000000000004 Rises=F Damp=F
 DIIS: error= 5.87D-09 at cycle  15 NSaved=  15.
 NSaved=15 IEnMin=15 EnMin= -460.472705847491     IErMin=15 ErrMin= 5.87D-09
 ErrMax= 5.87D-09  0.00D+00 EMaxC= 1.00D-01 BMatC= 2.18D-14 BMatP= 2.51D-13
 IDIUse=1 WtCom= 1.00D+00 WtEn= 0.00D+00
 Coeff-Com: -0.139D-07 0.263D-07-0.251D-06-0.915D-07 0.959D-06 0.165D-05
 Coeff-Com:  0.303D-04 0.126D-04 0.136D-03-0.486D-04-0.196D-02-0.186D-02
 Coeff-Com: -0.695D-02 0.113D+00 0.898D+00
 Coeff:     -0.139D-07 0.263D-07-0.251D-06-0.915D-07 0.959D-06 0.165D-05
 Coeff:      0.303D-04 0.126D-04 0.136D-03-0.486D-04-0.196D-02-0.186D-02
 Coeff:     -0.695D-02 0.113D+00 0.898D+00
 Gap=     0.108 Goal=   None    Shift=    0.000
 Gap=     0.108 Goal=   None    Shift=    0.000
 RMSDP=1.09D-08 MaxDP=7.45D-07 DE=-3.92D-12 OVMax= 8.87D-08

 Cycle  16  Pass 1  IDiag  1:
 RMSU=  2.76D-09    CP:  6.09D-01  3.25D-03  1.01D+00  9.21D-01  1.02D+00
                    CP:  1.01D+00  1.07D+00  1.33D+00  9.92D-01  1.18D+00
                    CP:  1.01D+00  6.82D-01  9.53D-01  1.21D+00  1.16D+00
 E= -460.472705847486     Delta-E=        0.000000000005 Rises=F Damp=F
 DIIS: error= 2.74D-09 at cycle  16 NSaved=  16.
 NSaved=16 IEnMin=15 EnMin= -460.472705847491     IErMin=16 ErrMin= 2.74D-09
 ErrMax= 2.74D-09  0.00D+00 EMaxC= 1.00D-01 BMatC= 5.08D-15 BMatP= 2.18D-14
 IDIUse=1 WtCom= 1.00D+00 WtEn= 0.00D+00
 Coeff-Com: -0.142D-07 0.119D-07-0.125D-06-0.546D-07 0.525D-07-0.965D-07
 Coeff-Com:  0.146D-04 0.199D-04 0.169D-03 0.127D-03-0.975D-03-0.195D-02
 Coeff-Com: -0.106D-01 0.173D-01 0.471D+00 0.525D+00
 Coeff:     -0.142D-07 0.119D-07-0.125D-06-0.546D-07 0.525D-07-0.965D-07
 Coeff:      0.146D-04 0.199D-04 0.169D-03 0.127D-03-0.975D-03-0.195D-02
 Coeff:     -0.106D-01 0.173D-01 0.471D+00 0.525D+00
 Gap=     0.108 Goal=   None    Shift=    0.000
 Gap=     0.108 Goal=   None    Shift=    0.000
 RMSDP=2.39D-09 MaxDP=1.35D-07 DE= 5.29D-12 OVMax= 2.11D-08

 Error on total polarization charges =  0.03142
 SCF Done:  E(UB3LYP) =  -460.472705847     A.U. after   16 cycles
            NFock= 16  Conv=0.24D-08     -V/T= 2.0045
 <Sx>= 0.0000 <Sy>= 0.0000 <Sz>= 0.0000 <S**2>=-0.0000 S=-0.0000
 <L.S>=  0.00000000000    
 KE= 4.584016469077D+02 PE=-2.084171716010D+03 EE= 6.736519502114D+02
 Annihilation of the first spin contaminant:
 S**2 before annihilation    -0.0000,   after    -0.0000
 Leave Link  502 at Sat Feb 10 10:03:06 2024, MaxMem=  4026531840 cpu:             672.3 elap:              85.0
 (Enter /sysapps/ubuntu-applications/gaussian/Gaussian/AVX2/g16/l601.exe)
 Copying SCF densities to generalized density rwf, IOpCl= 1 IROHF=0.

 **********************************************************************

            Population analysis using the SCF density.

 **********************************************************************

 Alpha  occ. eigenvalues --  -19.00431 -19.00428 -10.15532 -10.15530 -10.13158
 Alpha  occ. eigenvalues --  -10.13156 -10.11921 -10.11873 -10.11138 -10.11084
 Alpha  occ. eigenvalues --   -0.91552  -0.91211  -0.77593  -0.72304  -0.69035
 Alpha  occ. eigenvalues --   -0.62177  -0.61716  -0.52440  -0.50280  -0.43864
 Alpha  occ. eigenvalues --   -0.41271  -0.39753  -0.38473  -0.36794  -0.35609
 Alpha  occ. eigenvalues --   -0.35566  -0.34635  -0.34232  -0.32846  -0.30125
 Alpha  occ. eigenvalues --   -0.29541  -0.29512  -0.21350  -0.19247  -0.18691
 Alpha  occ. eigenvalues --   -0.18150  -0.10691
 Alpha virt. eigenvalues --    0.00090   0.01419   0.01905   0.03130   0.03424
 Alpha virt. eigenvalues --    0.03650   0.04408   0.05490   0.06570   0.06784
 Alpha virt. eigenvalues --    0.07098   0.07785   0.08893   0.09644   0.09662
 Alpha virt. eigenvalues --    0.10550   0.10722   0.11480   0.12188   0.13083
 Alpha virt. eigenvalues --    0.13555   0.13637   0.13942   0.14992   0.15069
 Alpha virt. eigenvalues --    0.15329   0.15839   0.16246   0.17116   0.17348
 Alpha virt. eigenvalues --    0.18108   0.18250   0.19170   0.20237   0.20577
 Alpha virt. eigenvalues --    0.20898   0.21615   0.22739   0.22961   0.23692
 Alpha virt. eigenvalues --    0.23828   0.25741   0.25782   0.26327   0.26994
 Alpha virt. eigenvalues --    0.27736   0.28824   0.29252   0.31079   0.31216
 Alpha virt. eigenvalues --    0.31599   0.32170   0.33401   0.34367   0.34727
 Alpha virt. eigenvalues --    0.34911   0.35474   0.35612   0.36831   0.38248
 Alpha virt. eigenvalues --    0.40198   0.40349   0.42354   0.43657   0.44998
 Alpha virt. eigenvalues --    0.47929   0.48572   0.49184   0.51714   0.52190
 Alpha virt. eigenvalues --    0.56798   0.57268   0.58067   0.59837   0.60724
 Alpha virt. eigenvalues --    0.61959   0.62188   0.64354   0.64563   0.66063
 Alpha virt. eigenvalues --    0.67426   0.67479   0.68936   0.69257   0.69492
 Alpha virt. eigenvalues --    0.71331   0.72971   0.74324   0.75692   0.76429
 Alpha virt. eigenvalues --    0.77103   0.78123   0.81113   0.83068   0.83447
 Alpha virt. eigenvalues --    0.86800   0.88552   0.91792   0.93833   0.94423
 Alpha virt. eigenvalues --    0.98268   0.98935   1.00999   1.02508   1.03751
 Alpha virt. eigenvalues --    1.05427   1.05455   1.08248   1.10758   1.11896
 Alpha virt. eigenvalues --    1.12620   1.16331   1.18053   1.18810   1.24990
 Alpha virt. eigenvalues --    1.26463   1.29592   1.30712   1.32478   1.34043
 Alpha virt. eigenvalues --    1.37101   1.37648   1.39868   1.42981   1.49012
 Alpha virt. eigenvalues --    1.50162   1.51094   1.53842   1.54986   1.57394
 Alpha virt. eigenvalues --    1.59440   1.61174   1.61655   1.62496   1.64395
 Alpha virt. eigenvalues --    1.66197   1.67267   1.69683   1.71535   1.73125
 Alpha virt. eigenvalues --    1.73652   1.78511   1.78848   1.84578   1.86618
 Alpha virt. eigenvalues --    1.86865   1.88459   1.89533   1.90739   1.91676
 Alpha virt. eigenvalues --    1.91902   1.96334   1.97718   1.99805   2.01459
 Alpha virt. eigenvalues --    2.06156   2.07829   2.13923   2.14449   2.16461
 Alpha virt. eigenvalues --    2.19211   2.20855   2.22316   2.30443   2.30589
 Alpha virt. eigenvalues --    2.33625   2.38011   2.40615   2.43104   2.45969
 Alpha virt. eigenvalues --    2.50760   2.51071   2.55383   2.58763   2.59819
 Alpha virt. eigenvalues --    2.62069   2.62559   2.64966   2.67837   2.68906
 Alpha virt. eigenvalues --    2.72121   2.74574   2.77317   2.77647   2.78393
 Alpha virt. eigenvalues --    2.80143   2.83154   2.84917   2.89327   2.93840
 Alpha virt. eigenvalues --    2.94863   2.99051   3.00659   3.02973   3.03192
 Alpha virt. eigenvalues --    3.04022   3.07099   3.14152   3.18527   3.21603
 Alpha virt. eigenvalues --    3.21813   3.27881   3.32063   3.35360   3.37640
 Alpha virt. eigenvalues --    3.38965   3.45407   3.51791   3.55898   3.59920
 Alpha virt. eigenvalues --    3.63901   3.77794   3.79264   3.83142   3.84040
 Alpha virt. eigenvalues --    3.92166   3.96183   4.11725   4.21783   4.31991
 Alpha virt. eigenvalues --    4.32523   4.40599   4.85427   5.14422   5.16588
 Alpha virt. eigenvalues --    5.29242   5.32424   5.76399   5.84909  23.65340
 Alpha virt. eigenvalues --   23.90569  23.97806  23.99284  23.99868  24.02202
 Alpha virt. eigenvalues --   24.10701  24.18383  50.08133  50.12385
  Beta  occ. eigenvalues --  -19.00431 -19.00428 -10.15532 -10.15530 -10.13158
  Beta  occ. eigenvalues --  -10.13156 -10.11921 -10.11873 -10.11138 -10.11084
  Beta  occ. eigenvalues --   -0.91552  -0.91211  -0.77593  -0.72304  -0.69035
  Beta  occ. eigenvalues --   -0.62177  -0.61716  -0.52440  -0.50280  -0.43864
  Beta  occ. eigenvalues --   -0.41271  -0.39753  -0.38473  -0.36794  -0.35609
  Beta  occ. eigenvalues --   -0.35566  -0.34635  -0.34232  -0.32846  -0.30125
  Beta  occ. eigenvalues --   -0.29541  -0.29512  -0.21350  -0.19247  -0.18691
  Beta  occ. eigenvalues --   -0.18150  -0.10691
  Beta virt. eigenvalues --    0.00090   0.01419   0.01905   0.03130   0.03424
  Beta virt. eigenvalues --    0.03650   0.04408   0.05490   0.06570   0.06784
  Beta virt. eigenvalues --    0.07098   0.07785   0.08893   0.09644   0.09662
  Beta virt. eigenvalues --    0.10550   0.10722   0.11480   0.12188   0.13083
  Beta virt. eigenvalues --    0.13555   0.13637   0.13942   0.14992   0.15069
  Beta virt. eigenvalues --    0.15329   0.15839   0.16246   0.17116   0.17348
  Beta virt. eigenvalues --    0.18108   0.18250   0.19170   0.20237   0.20577
  Beta virt. eigenvalues --    0.20898   0.21615   0.22739   0.22961   0.23692
  Beta virt. eigenvalues --    0.23828   0.25741   0.25782   0.26327   0.26994
  Beta virt. eigenvalues --    0.27736   0.28824   0.29252   0.31079   0.31216
  Beta virt. eigenvalues --    0.31599   0.32170   0.33401   0.34367   0.34727
  Beta virt. eigenvalues --    0.34911   0.35474   0.35612   0.36831   0.38248
  Beta virt. eigenvalues --    0.40198   0.40349   0.42354   0.43657   0.44998
  Beta virt. eigenvalues --    0.47929   0.48572   0.49184   0.51714   0.52190
  Beta virt. eigenvalues --    0.56798   0.57268   0.58067   0.59837   0.60724
  Beta virt. eigenvalues --    0.61959   0.62188   0.64354   0.64563   0.66063
  Beta virt. eigenvalues --    0.67426   0.67479   0.68936   0.69257   0.69492
  Beta virt. eigenvalues --    0.71331   0.72971   0.74324   0.75692   0.76429
  Beta virt. eigenvalues --    0.77103   0.78123   0.81113   0.83068   0.83447
  Beta virt. eigenvalues --    0.86800   0.88552   0.91792   0.93833   0.94423
  Beta virt. eigenvalues --    0.98268   0.98935   1.00999   1.02508   1.03751
  Beta virt. eigenvalues --    1.05427   1.05455   1.08248   1.10758   1.11896
  Beta virt. eigenvalues --    1.12620   1.16331   1.18053   1.18810   1.24990
  Beta virt. eigenvalues --    1.26463   1.29592   1.30712   1.32478   1.34043
  Beta virt. eigenvalues --    1.37101   1.37648   1.39868   1.42981   1.49012
  Beta virt. eigenvalues --    1.50162   1.51094   1.53842   1.54986   1.57394
  Beta virt. eigenvalues --    1.59440   1.61174   1.61655   1.62496   1.64395
  Beta virt. eigenvalues --    1.66197   1.67267   1.69683   1.71535   1.73125
  Beta virt. eigenvalues --    1.73652   1.78511   1.78848   1.84578   1.86618
  Beta virt. eigenvalues --    1.86865   1.88459   1.89533   1.90739   1.91676
  Beta virt. eigenvalues --    1.91902   1.96334   1.97718   1.99805   2.01459
  Beta virt. eigenvalues --    2.06156   2.07829   2.13923   2.14449   2.16461
  Beta virt. eigenvalues --    2.19211   2.20855   2.22316   2.30443   2.30589
  Beta virt. eigenvalues --    2.33625   2.38011   2.40615   2.43104   2.45969
  Beta virt. eigenvalues --    2.50760   2.51071   2.55383   2.58763   2.59819
  Beta virt. eigenvalues --    2.62069   2.62559   2.64966   2.67837   2.68906
  Beta virt. eigenvalues --    2.72121   2.74574   2.77317   2.77647   2.78393
  Beta virt. eigenvalues --    2.80143   2.83154   2.84917   2.89327   2.93840
  Beta virt. eigenvalues --    2.94863   2.99051   3.00659   3.02973   3.03192
  Beta virt. eigenvalues --    3.04022   3.07099   3.14152   3.18527   3.21603
  Beta virt. eigenvalues --    3.21813   3.27881   3.32063   3.35360   3.37640
  Beta virt. eigenvalues --    3.38965   3.45407   3.51791   3.55898   3.59920
  Beta virt. eigenvalues --    3.63901   3.77794   3.79264   3.83142   3.84040
  Beta virt. eigenvalues --    3.92166   3.96183   4.11725   4.21783   4.31991
  Beta virt. eigenvalues --    4.32523   4.40599   4.85427   5.14422   5.16588
  Beta virt. eigenvalues --    5.29242   5.32424   5.76399   5.84909  23.65340
  Beta virt. eigenvalues --   23.90569  23.97806  23.99284  23.99868  24.02202
  Beta virt. eigenvalues --   24.10701  24.18383  50.08133  50.12385
          Condensed to atoms (all electrons):
               1          2          3          4          5          6
     1  C    6.622985   0.110969  -0.226059  -0.263956   0.421383  -0.004867
     2  C    0.110969  17.163706  -4.544371  -0.225379   1.507477  -0.191778
     3  C   -0.226059  -4.544371  17.157892   0.109315  -4.823794  -0.197990
     4  C   -0.263956  -0.225379   0.109315   6.623763  -1.038332   0.032136
     5  C    0.421383   1.507477  -4.823794  -1.038332  12.159354   0.465866
     6  O   -0.004867  -0.191778  -0.197990   0.032136   0.465866   8.827819
     7  C    0.113377  -1.308242  -1.874851  -0.371015  -1.125730  -0.199718
     8  C   -0.370925  -1.869103  -1.308737   0.112825   1.639981  -0.017246
     9  C   -1.037925  -4.840850   1.506607   0.423149  -2.313342   0.026505
    10  O    0.032148  -0.196312  -0.191771  -0.004864   0.026549  -0.000195
    11  H    0.358533  -0.169289  -0.020757  -0.003963  -0.034191   0.000143
    12  H    0.367564   0.065344  -0.130910   0.009979   0.021562   0.000017
    13  H    0.401660  -0.107493   0.090257   0.005468   0.040318   0.000144
    14  H    0.010117  -0.131547   0.065650   0.367563  -0.031179   0.004590
    15  H    0.005423   0.090036  -0.107742   0.401813  -0.086279   0.004193
    16  H   -0.003983  -0.020374  -0.169891   0.358126   0.205455  -0.002180
    17  H    0.002751   0.019515   0.030130  -0.004701  -0.162929  -0.002845
    18  H   -0.004628   0.030774   0.019215   0.002727   0.027019   0.000698
               7          8          9         10         11         12
     1  C    0.113377  -0.370925  -1.037925   0.032148   0.358533   0.367564
     2  C   -1.308242  -1.869103  -4.840850  -0.196312  -0.169289   0.065344
     3  C   -1.874851  -1.308737   1.506607  -0.191771  -0.020757  -0.130910
     4  C   -0.371015   0.112825   0.423149  -0.004864  -0.003963   0.009979
     5  C   -1.125730   1.639981  -2.313342   0.026549  -0.034191   0.021562
     6  O   -0.199718  -0.017246   0.026505  -0.000195   0.000143   0.000017
     7  C   10.915356  -2.238084   1.641124  -0.017075   0.018465  -0.015946
     8  C   -2.238084  10.906071  -1.118379  -0.199867   0.009960   0.038151
     9  C    1.641124  -1.118379  12.169766   0.463991   0.205217  -0.031370
    10  O   -0.017075  -0.199867   0.463991   8.828092  -0.002350   0.004579
    11  H    0.018465   0.009960   0.205217  -0.002350   0.546089  -0.042319
    12  H   -0.015946   0.038151  -0.031370   0.004579  -0.042319   0.633775
    13  H   -0.018753   0.019792  -0.086483   0.004174  -0.023146  -0.058103
    14  H    0.038073  -0.015854   0.021564   0.000016   0.001859  -0.008425
    15  H    0.020034  -0.018897   0.040361   0.000138  -0.001351   0.008047
    16  H    0.010164   0.018481  -0.034307   0.000142   0.001309   0.001878
    17  H    0.428734  -0.043051   0.026988   0.000696   0.000371  -0.000297
    18  H   -0.042783   0.429083  -0.164170  -0.002689  -0.000916   0.000710
              13         14         15         16         17         18
     1  C    0.401660   0.010117   0.005423  -0.003983   0.002751  -0.004628
     2  C   -0.107493  -0.131547   0.090036  -0.020374   0.019515   0.030774
     3  C    0.090257   0.065650  -0.107742  -0.169891   0.030130   0.019215
     4  C    0.005468   0.367563   0.401813   0.358126  -0.004701   0.002727
     5  C    0.040318  -0.031179  -0.086279   0.205455  -0.162929   0.027019
     6  O    0.000144   0.004590   0.004193  -0.002180  -0.002845   0.000698
     7  C   -0.018753   0.038073   0.020034   0.010164   0.428734  -0.042783
     8  C    0.019792  -0.015854  -0.018897   0.018481  -0.043051   0.429083
     9  C   -0.086483   0.021564   0.040361  -0.034307   0.026988  -0.164170
    10  O    0.004174   0.000016   0.000138   0.000142   0.000696  -0.002689
    11  H   -0.023146   0.001859  -0.001351   0.001309   0.000371  -0.000916
    12  H   -0.058103  -0.008425   0.008047   0.001878  -0.000297   0.000710
    13  H    0.605219   0.008044  -0.006873  -0.001361  -0.000245   0.000450
    14  H    0.008044   0.633685  -0.057987  -0.042533   0.000705  -0.000297
    15  H   -0.006873  -0.057987   0.605143  -0.023204   0.000449  -0.000244
    16  H   -0.001361  -0.042533  -0.023204   0.546742  -0.000900   0.000367
    17  H   -0.000245   0.000705   0.000449  -0.000900   0.620129  -0.031677
    18  H    0.000450  -0.000297  -0.000244   0.000367  -0.031677   0.620381
          Atomic-Atomic Spin Densities.
               1          2          3          4          5          6
     1  C    0.000000  -0.000000  -0.000000   0.000000   0.000000  -0.000000
     2  C   -0.000000  -0.000000   0.000000   0.000000  -0.000000   0.000000
     3  C   -0.000000   0.000000  -0.000000  -0.000000  -0.000000   0.000000
     4  C    0.000000   0.000000  -0.000000  -0.000000   0.000000   0.000000
     5  C    0.000000  -0.000000  -0.000000   0.000000   0.000000  -0.000000
     6  O   -0.000000   0.000000   0.000000   0.000000  -0.000000   0.000000
     7  C   -0.000000  -0.000000   0.000000   0.000000  -0.000000   0.000000
     8  C    0.000000   0.000000  -0.000000  -0.000000   0.000000  -0.000000
     9  C   -0.000000  -0.000000   0.000000   0.000000  -0.000000   0.000000
    10  O    0.000000   0.000000   0.000000  -0.000000   0.000000  -0.000000
    11  H   -0.000000   0.000000  -0.000000   0.000000  -0.000000   0.000000
    12  H    0.000000  -0.000000   0.000000  -0.000000   0.000000  -0.000000
    13  H    0.000000  -0.000000   0.000000  -0.000000   0.000000  -0.000000
    14  H   -0.000000   0.000000  -0.000000   0.000000  -0.000000   0.000000
    15  H   -0.000000   0.000000  -0.000000   0.000000  -0.000000   0.000000
    16  H    0.000000  -0.000000   0.000000  -0.000000   0.000000  -0.000000
    17  H   -0.000000  -0.000000   0.000000   0.000000  -0.000000   0.000000
    18  H    0.000000   0.000000  -0.000000  -0.000000   0.000000  -0.000000
               7          8          9         10         11         12
     1  C   -0.000000   0.000000  -0.000000   0.000000  -0.000000   0.000000
     2  C   -0.000000   0.000000  -0.000000   0.000000   0.000000  -0.000000
     3  C    0.000000  -0.000000   0.000000   0.000000  -0.000000   0.000000
     4  C    0.000000  -0.000000   0.000000  -0.000000   0.000000  -0.000000
     5  C   -0.000000   0.000000  -0.000000   0.000000  -0.000000   0.000000
     6  O    0.000000  -0.000000   0.000000  -0.000000   0.000000  -0.000000
     7  C    0.000000  -0.000000   0.000000  -0.000000   0.000000  -0.000000
     8  C   -0.000000   0.000000  -0.000000   0.000000  -0.000000   0.000000
     9  C    0.000000  -0.000000   0.000000  -0.000000   0.000000  -0.000000
    10  O   -0.000000   0.000000  -0.000000  -0.000000  -0.000000   0.000000
    11  H    0.000000  -0.000000   0.000000  -0.000000   0.000000  -0.000000
    12  H   -0.000000   0.000000  -0.000000   0.000000  -0.000000  -0.000000
    13  H   -0.000000   0.000000  -0.000000   0.000000  -0.000000   0.000000
    14  H    0.000000  -0.000000   0.000000  -0.000000   0.000000  -0.000000
    15  H    0.000000  -0.000000   0.000000   0.000000   0.000000  -0.000000
    16  H   -0.000000   0.000000  -0.000000  -0.000000   0.000000  -0.000000
    17  H    0.000000  -0.000000   0.000000  -0.000000   0.000000  -0.000000
    18  H   -0.000000   0.000000  -0.000000   0.000000  -0.000000   0.000000
              13         14         15         16         17         18
     1  C    0.000000  -0.000000  -0.000000   0.000000  -0.000000   0.000000
     2  C   -0.000000   0.000000   0.000000  -0.000000  -0.000000   0.000000
     3  C    0.000000  -0.000000  -0.000000   0.000000   0.000000  -0.000000
     4  C   -0.000000   0.000000   0.000000  -0.000000   0.000000  -0.000000
     5  C    0.000000  -0.000000  -0.000000   0.000000  -0.000000   0.000000
     6  O   -0.000000   0.000000   0.000000  -0.000000   0.000000  -0.000000
     7  C   -0.000000   0.000000   0.000000  -0.000000   0.000000  -0.000000
     8  C    0.000000  -0.000000  -0.000000   0.000000  -0.000000   0.000000
     9  C   -0.000000   0.000000   0.000000  -0.000000   0.000000  -0.000000
    10  O    0.000000  -0.000000   0.000000  -0.000000  -0.000000   0.000000
    11  H   -0.000000   0.000000   0.000000   0.000000   0.000000  -0.000000
    12  H    0.000000  -0.000000  -0.000000  -0.000000  -0.000000   0.000000
    13  H    0.000000  -0.000000  -0.000000   0.000000  -0.000000   0.000000
    14  H   -0.000000   0.000000   0.000000  -0.000000   0.000000  -0.000000
    15  H   -0.000000   0.000000   0.000000  -0.000000   0.000000  -0.000000
    16  H    0.000000  -0.000000  -0.000000   0.000000  -0.000000   0.000000
    17  H   -0.000000   0.000000   0.000000  -0.000000   0.000000  -0.000000
    18  H    0.000000  -0.000000  -0.000000   0.000000  -0.000000   0.000000
 Mulliken charges and spin densities:
               1          2
     1  C   -0.534566   0.000000
     2  C    0.616917  -0.000000
     3  C    0.617807  -0.000000
     4  C   -0.534653   0.000000
     5  C   -0.899189   0.000000
     6  O   -0.745291  -0.000000
     7  C    0.026871  -0.000000
     8  C    0.025799   0.000000
     9  C   -0.898445   0.000000
    10  O   -0.745403  -0.000000
    11  H    0.156336  -0.000000
    12  H    0.135764   0.000000
    13  H    0.126931   0.000000
    14  H    0.135954  -0.000000
    15  H    0.126939   0.000000
    16  H    0.156070  -0.000000
    17  H    0.116178   0.000000
    18  H    0.115980  -0.000000
 Sum of Mulliken charges =  -2.00000   0.00000
 Mulliken charges and spin densities with hydrogens summed into heavy atoms:
               1          2
     1  C   -0.115535   0.000000
     2  C    0.616917  -0.000000
     3  C    0.617807  -0.000000
     4  C   -0.115689   0.000000
     5  C   -0.899189   0.000000
     6  O   -0.745291  -0.000000
     7  C    0.143049  -0.000000
     8  C    0.141779   0.000000
     9  C   -0.898445   0.000000
    10  O   -0.745403  -0.000000
 Electronic spatial extent (au):  <R**2>=           1531.7784
 Charge=             -2.0000 electrons
 Dipole moment (field-independent basis, Debye):
    X=             -9.8629    Y=              0.3817    Z=              0.7368  Tot=              9.8977
 Quadrupole moment (field-independent basis, Debye-Ang):
   XX=            -82.6053   YY=           -130.8559   ZZ=            -72.2532
   XY=             -2.7864   XZ=              0.2838   YZ=            -12.5866
 Traceless Quadrupole moment (field-independent basis, Debye-Ang):
   XX=             12.6328   YY=            -35.6178   ZZ=             22.9849
   XY=             -2.7864   XZ=              0.2838   YZ=            -12.5866
 Octapole moment (field-independent basis, Debye-Ang**2):
  XXX=           -101.8968  YYY=             10.7203  ZZZ=              8.2655  XYY=            -92.6319
  XXY=             -5.0258  XXZ=              1.1447  XZZ=            -36.7704  YZZ=              3.2304
  YYZ=              7.8652  XYZ=            -11.8673
 Hexadecapole moment (field-independent basis, Debye-Ang**3):
 XXXX=           -988.8639 YYYY=          -1726.5863 ZZZZ=           -157.2419 XXXY=            -24.5979
 XXXZ=             23.6923 YYYX=            -31.3039 YYYZ=           -218.0534 ZZZX=             28.0547
 ZZZY=           -119.6984 XXYY=           -444.4113 XXZZ=           -197.4514 YYZZ=           -255.7020
 XXYZ=            -50.9219 YYXZ=              9.6749 ZZXY=             -3.4698
 N-N= 4.916454130437D+02 E-N=-2.084171715901D+03  KE= 4.584016469077D+02
                          Isotropic Fermi Contact Couplings
        Atom                 a.u.       MegaHertz       Gauss      10(-4) cm-1
     1  C(13)              0.00000       0.00000       0.00000       0.00000
     2  C(13)              0.00000       0.00000       0.00000       0.00000
     3  C(13)              0.00000       0.00000       0.00000       0.00000
     4  C(13)              0.00000       0.00000       0.00000       0.00000
     5  C(13)             -0.00000      -0.00000      -0.00000      -0.00000
     6  O(17)              0.00000      -0.00000      -0.00000      -0.00000
     7  C(13)              0.00000       0.00000       0.00000       0.00000
     8  C(13)              0.00000       0.00000       0.00000       0.00000
     9  C(13)             -0.00000      -0.00000      -0.00000      -0.00000
    10  O(17)             -0.00000       0.00000       0.00000       0.00000
    11  H(1)               0.00000       0.00000       0.00000       0.00000
    12  H(1)              -0.00000      -0.00000      -0.00000      -0.00000
    13  H(1)               0.00000       0.00000       0.00000       0.00000
    14  H(1)               0.00000       0.00000       0.00000       0.00000
    15  H(1)               0.00000       0.00000       0.00000       0.00000
    16  H(1)               0.00000       0.00000       0.00000       0.00000
    17  H(1)               0.00000       0.00000       0.00000       0.00000
    18  H(1)              -0.00000      -0.00000      -0.00000      -0.00000
 --------------------------------------------------------
       Center         ----  Spin Dipole Couplings  ----
                      3XX-RR        3YY-RR        3ZZ-RR
 --------------------------------------------------------
     1   Atom        0.000000     -0.000000      0.000000
     2   Atom       -0.000000     -0.000000      0.000000
     3   Atom        0.000000     -0.000000     -0.000000
     4   Atom        0.000000     -0.000000     -0.000000
     5   Atom       -0.000000      0.000000      0.000000
     6   Atom        0.000000     -0.000000     -0.000000
     7   Atom       -0.000000      0.000000      0.000000
     8   Atom        0.000000      0.000000     -0.000000
     9   Atom        0.000000     -0.000000      0.000000
    10   Atom       -0.000000      0.000000      0.000000
    11   Atom       -0.000000      0.000000     -0.000000
    12   Atom        0.000000     -0.000000     -0.000000
    13   Atom        0.000000     -0.000000     -0.000000
    14   Atom        0.000000     -0.000000      0.000000
    15   Atom        0.000000     -0.000000     -0.000000
    16   Atom        0.000000      0.000000     -0.000000
    17   Atom        0.000000     -0.000000      0.000000
    18   Atom       -0.000000      0.000000      0.000000
 --------------------------------------------------------
                        XY            XZ            YZ
 --------------------------------------------------------
     1   Atom       -0.000000      0.000000     -0.000000
     2   Atom       -0.000000     -0.000000      0.000000
     3   Atom       -0.000000      0.000000      0.000000
     4   Atom       -0.000000      0.000000      0.000000
     5   Atom        0.000000      0.000000      0.000000
     6   Atom        0.000000      0.000000      0.000000
     7   Atom        0.000000     -0.000000     -0.000000
     8   Atom       -0.000000      0.000000     -0.000000
     9   Atom        0.000000     -0.000000     -0.000000
    10   Atom       -0.000000     -0.000000     -0.000000
    11   Atom        0.000000      0.000000      0.000000
    12   Atom        0.000000     -0.000000      0.000000
    13   Atom        0.000000      0.000000     -0.000000
    14   Atom       -0.000000      0.000000      0.000000
    15   Atom       -0.000000     -0.000000      0.000000
    16   Atom       -0.000000      0.000000      0.000000
    17   Atom       -0.000000      0.000000      0.000000
    18   Atom        0.000000      0.000000     -0.000000
 --------------------------------------------------------


 ---------------------------------------------------------------------------------
              Anisotropic Spin Dipole Couplings in Principal Axis System
 ---------------------------------------------------------------------------------

       Atom             a.u.   MegaHertz   Gauss  10(-4) cm-1        Axes

              Baa    -0.0000    -0.000    -0.000    -0.000  0.4876  0.8722  0.0394
     1 C(13)  Bbb     0.0000     0.000     0.000     0.000  0.6946 -0.3601 -0.6228
              Bcc     0.0000     0.000     0.000     0.000  0.5290 -0.3310  0.7814
 
              Baa    -0.0000    -0.000    -0.000    -0.000  0.2670  0.9627  0.0448
     2 C(13)  Bbb    -0.0000    -0.000    -0.000    -0.000  0.8816 -0.2628  0.3921
              Bcc     0.0000     0.000     0.000     0.000 -0.3892  0.0651  0.9188
 
              Baa    -0.0000    -0.000    -0.000    -0.000 -0.4560 -0.5856  0.6702
     3 C(13)  Bbb    -0.0000    -0.000    -0.000    -0.000 -0.1309  0.7890  0.6003
              Bcc     0.0000     0.000     0.000     0.000  0.8803 -0.1860  0.4365
 
              Baa    -0.0000    -0.000    -0.000    -0.000  0.4094  0.7919 -0.4530
     4 C(13)  Bbb    -0.0000    -0.000    -0.000    -0.000 -0.1431  0.5461  0.8254
              Bcc     0.0000     0.000     0.000     0.000  0.9011 -0.2731  0.3369
 
              Baa    -0.0000    -0.000    -0.000    -0.000  0.9600 -0.0657 -0.2721
     5 C(13)  Bbb    -0.0000    -0.000    -0.000    -0.000  0.2019 -0.5110  0.8355
              Bcc     0.0000     0.000     0.000     0.000  0.1940  0.8570  0.4773
 
              Baa    -0.0000     0.000     0.000     0.000  0.3505  0.6673 -0.6572
     6 O(17)  Bbb    -0.0000     0.000     0.000     0.000 -0.4065  0.7406  0.5351
              Bcc     0.0000    -0.000    -0.000    -0.000  0.8437  0.0796  0.5308
 
              Baa    -0.0000    -0.000    -0.000    -0.000  0.8459 -0.0287  0.5326
     7 C(13)  Bbb    -0.0000    -0.000    -0.000    -0.000 -0.2775  0.8290  0.4854
              Bcc     0.0000     0.000     0.000     0.000 -0.4555 -0.5584  0.6933
 
              Baa    -0.0000    -0.000    -0.000    -0.000 -0.2411  0.2349  0.9416
     8 C(13)  Bbb     0.0000     0.000     0.000     0.000  0.7939  0.6059  0.0522
              Bcc     0.0000     0.000     0.000     0.000 -0.5583  0.7601 -0.3326
 
              Baa    -0.0000    -0.000    -0.000    -0.000 -0.0082  0.9642  0.2650
     9 C(13)  Bbb     0.0000     0.000     0.000     0.000  0.9711 -0.0555  0.2320
              Bcc     0.0000     0.000     0.000     0.000 -0.2385 -0.2593  0.9359
 
              Baa    -0.0000     0.000     0.000     0.000  0.8295  0.1991  0.5218
    10 O(17)  Bbb     0.0000    -0.000    -0.000    -0.000 -0.1592  0.9798 -0.1208
              Bcc     0.0000    -0.000    -0.000    -0.000 -0.5354  0.0172  0.8444
 
              Baa    -0.0000    -0.000    -0.000    -0.000  0.8659 -0.4963  0.0626
    11 H(1)   Bbb    -0.0000    -0.000    -0.000    -0.000 -0.1155 -0.0766  0.9903
              Bcc     0.0000     0.000     0.000     0.000  0.4868  0.8647  0.1236
 
              Baa    -0.0000    -0.000    -0.000    -0.000  0.2783 -0.6461  0.7107
    12 H(1)   Bbb     0.0000     0.000     0.000     0.000  0.8053  0.5602  0.1940
              Bcc     0.0000     0.000     0.000     0.000 -0.5235  0.5183  0.6762
 
              Baa    -0.0000    -0.000    -0.000    -0.000 -0.3819  0.7030  0.6000
    13 H(1)   Bbb     0.0000     0.000     0.000     0.000 -0.0243 -0.6566  0.7538
              Bcc     0.0000     0.000     0.000     0.000  0.9239  0.2733  0.2678
 
              Baa    -0.0000    -0.000    -0.000    -0.000  0.5594  0.6526 -0.5110
    14 H(1)   Bbb    -0.0000    -0.000    -0.000    -0.000 -0.4928  0.7576  0.4280
              Bcc     0.0000     0.000     0.000     0.000  0.6665  0.0124  0.7454
 
              Baa    -0.0000    -0.000    -0.000    -0.000  0.0964  0.7931 -0.6014
    15 H(1)   Bbb     0.0000     0.000     0.000     0.000  0.5768  0.4479  0.6832
              Bcc     0.0000     0.000     0.000     0.000  0.8112 -0.4128 -0.4142
 
              Baa    -0.0000    -0.000    -0.000    -0.000 -0.2610 -0.3627  0.8946
    16 H(1)   Bbb     0.0000     0.000     0.000     0.000  0.7939  0.4465  0.4127
              Bcc     0.0000     0.000     0.000     0.000 -0.5491  0.8180  0.1714
 
              Baa    -0.0000    -0.000    -0.000    -0.000  0.2753  0.9529 -0.1269
    17 H(1)   Bbb    -0.0000    -0.000    -0.000    -0.000  0.7221 -0.2922 -0.6271
              Bcc     0.0000     0.000     0.000     0.000  0.6347 -0.0810  0.7685
 
              Baa    -0.0000    -0.000    -0.000    -0.000  0.8580 -0.5106 -0.0555
    18 H(1)   Bbb     0.0000     0.000     0.000     0.000  0.0533 -0.0189  0.9984
              Bcc     0.0000     0.000     0.000     0.000  0.5109  0.8596 -0.0110
 

 ---------------------------------------------------------------------------------

 No NMR shielding tensors so no spin-rotation constants.
 Leave Link  601 at Sat Feb 10 10:03:07 2024, MaxMem=  4026531840 cpu:               5.3 elap:               1.1
 (Enter /sysapps/ubuntu-applications/gaussian/Gaussian/AVX2/g16/l701.exe)
 ... and contract with generalized density number  0.
 Compute integral first derivatives.
 D1PCM: PCM CHGder 1st derivatives, ID1Alg=3 FixD1E=F DoIter=F DoCFld=F I1PDM=0.
 GePol: Maximum number of non-zero 1st derivatives   =     209
 Leave Link  701 at Sat Feb 10 10:03:08 2024, MaxMem=  4026531840 cpu:               9.8 elap:               1.4
 (Enter /sysapps/ubuntu-applications/gaussian/Gaussian/AVX2/g16/l702.exe)
 L702 exits ... SP integral derivatives will be done elsewhere.
 Leave Link  702 at Sat Feb 10 10:03:09 2024, MaxMem=  4026531840 cpu:               0.3 elap:               0.1
 (Enter /sysapps/ubuntu-applications/gaussian/Gaussian/AVX2/g16/l703.exe)
 Integral derivatives from FoFJK, PRISM(SPDF).
 Compute integral first derivatives, UseDBF=F ICtDFT=           0.
 Calling FoFJK, ICntrl=      2127 FMM=F ISym2X=0 I1Cent= 0 IOpClX= 1 NMat=1 NMatS=1 NMatT=0.
 FoFJK:  IHMeth= 1 ICntrl=    2127 DoSepK=F KAlg= 0 I1Cent=           0 FoldK=F
 IRaf=         0 NMat=       1 IRICut=       1 DoRegI=T DoRafI=F ISym2E= 0 IDoP0=0 IntGTp=1.
 FoFCou: FMM=F IPFlag=           0 FMFlag=      100000 FMFlg1=         800
         NFxFlg=           0 DoJE=F BraDBF=F KetDBF=F FulRan=T
         wScrn=  0.000000 ICntrl=      2127 IOpCl=  1 I1Cent=           0 NGrid=           0
         NMat0=    1 NMatS0=      1 NMatT0=    0 NMatD0=    1 NMtDS0=    0 NMtDT0=    0
 Symmetry not used in FoFCou.
 Leave Link  703 at Sat Feb 10 10:03:25 2024, MaxMem=  4026531840 cpu:             112.6 elap:              16.4
 (Enter /sysapps/ubuntu-applications/gaussian/Gaussian/AVX2/g16/l716.exe)
 Dipole        =-3.88036036D+00 1.50166412D-01 2.89871447D-01
 -------------------------------------------------------------------
 Center     Atomic                   Forces (Hartrees/Bohr)
 Number     Number              X              Y              Z
 -------------------------------------------------------------------
      1        6          -0.003358444    0.000996843   -0.004039500
      2        6           0.003011014   -0.004584584   -0.002898112
      3        6           0.003848836    0.004229685    0.002436492
      4        6          -0.002797282   -0.000902251    0.004286387
      5        6           0.000444858   -0.022338016   -0.003246471
      6        8           0.001195422    0.013489731    0.002177924
      7        6          -0.003327829    0.009996269    0.002558596
      8        6          -0.004590497   -0.009430830   -0.002005552
      9        6           0.002690040    0.022292661    0.003119680
     10        8           0.000107717   -0.013708325   -0.002232011
     11        1          -0.002037996    0.000991083    0.000868904
     12        1           0.002992729   -0.000726794    0.004236210
     13        1           0.000352681   -0.001140138    0.000143544
     14        1           0.002364609    0.000525926   -0.004633687
     15        1           0.000410452    0.001115950   -0.000182780
     16        1          -0.001915812   -0.000822327   -0.000492199
     17        1           0.000170987   -0.001456936   -0.000766824
     18        1           0.000438515    0.001472053    0.000669400
 -------------------------------------------------------------------
 Cartesian Forces:  Max     0.022338016 RMS     0.005841595
 Leave Link  716 at Sat Feb 10 10:03:25 2024, MaxMem=  4026531840 cpu:               0.5 elap:               0.2
 (Enter /sysapps/ubuntu-applications/gaussian/Gaussian/AVX2/g16/l103.exe)

 GradGradGradGradGradGradGradGradGradGradGradGradGradGradGradGradGradGrad
 Berny optimization.
 FormGI is forming the generalized inverse of G from B-inverse, IUseBI=4.
 GSVD:  received Info=                   1 from GESDD.
 Internal  Forces:  Max     0.013858881 RMS     0.002740707
 Search for a local minimum.
 Step number   1 out of a maximum of   94
 All quantities printed in internal units (Hartrees-Bohrs-Radians)
 RMS Force = .27407D-02 SwitMx=.10000D-02 MixMth= 1
 Mixed Optimization -- RFO/linear search
 Second derivative matrix not updated -- first step.
 ITU=  0
     Eigenvalues ---    0.00608   0.00609   0.01296   0.01316   0.01595
     Eigenvalues ---    0.01598   0.01601   0.01789   0.01881   0.01924
     Eigenvalues ---    0.02000   0.06874   0.06875   0.07278   0.07278
     Eigenvalues ---    0.15996   0.15998   0.16000   0.16000   0.16000
     Eigenvalues ---    0.16000   0.16000   0.16000   0.22444   0.24476
     Eigenvalues ---    0.24989   0.24990   0.24995   0.24997   0.24997
     Eigenvalues ---    0.31159   0.31164   0.32621   0.32621   0.34086
     Eigenvalues ---    0.34091   0.34462   0.34462   0.34628   0.34629
     Eigenvalues ---    0.37307   0.37874   0.40304   0.40327   0.43021
     Eigenvalues ---    0.45895   0.66187   0.66191
 RFO step:  Lambda=-1.60599258D-03 EMin= 6.08424066D-03
 Linear search not attempted -- first point.
 Iteration  1 RMS(Cart)=  0.01966233 RMS(Int)=  0.00025480
 Iteration  2 RMS(Cart)=  0.00029345 RMS(Int)=  0.00006855
 Iteration  3 RMS(Cart)=  0.00000005 RMS(Int)=  0.00006855
 ITry= 1 IFail=0 DXMaxC= 5.80D-02 DCOld= 1.00D+10 DXMaxT= 3.00D-01 DXLimC= 3.00D+00 Rises=F
 Variable       Old X    -DE/DX   Delta X   Delta X   Delta X     New X
                                 (Linear)    (Quad)   (Total)
    R1        2.85701   0.00173   0.00000   0.00551   0.00551   2.86252
    R2        2.06557  -0.00130   0.00000  -0.00375  -0.00375   2.06182
    R3        2.09723  -0.00521   0.00000  -0.01589  -0.01589   2.08133
    R4        2.07186  -0.00039   0.00000  -0.00114  -0.00114   2.07071
    R5        2.66261   0.00083   0.00000   0.00181   0.00182   2.66444
    R6        2.72880  -0.00306   0.00000  -0.00783  -0.00782   2.72097
    R7        2.85709   0.00138   0.00000   0.00441   0.00441   2.86151
    R8        2.72874  -0.00336   0.00000  -0.00865  -0.00863   2.72010
    R9        2.09723  -0.00521   0.00000  -0.01590  -0.01590   2.08133
   R10        2.07178  -0.00043   0.00000  -0.00124  -0.00124   2.07053
   R11        2.06558  -0.00120   0.00000  -0.00347  -0.00347   2.06211
   R12        2.46353   0.01369   0.00000   0.02063   0.02063   2.48416
   R13        2.70216  -0.00597   0.00000  -0.01447  -0.01448   2.68768
   R14        2.63452   0.00335   0.00000   0.00722   0.00720   2.64173
   R15        2.06283  -0.00055   0.00000  -0.00158  -0.00158   2.06126
   R16        2.70215  -0.00573   0.00000  -0.01386  -0.01387   2.68827
   R17        2.06282  -0.00051   0.00000  -0.00147  -0.00147   2.06134
   R18        2.46356   0.01386   0.00000   0.02089   0.02089   2.48445
    A1        1.89353   0.00257   0.00000   0.01636   0.01636   1.90989
    A2        1.96887  -0.00098   0.00000  -0.00491  -0.00492   1.96395
    A3        1.96568   0.00006   0.00000  -0.00120  -0.00120   1.96448
    A4        1.86686  -0.00034   0.00000   0.00110   0.00110   1.86795
[...]
 5473,0.57062,0.0689601,-0.8175862,-0.2799252,0.0643115,-0.1885842,-0.0
 250597,-0.3481993,0.2845542,-0.611878,-0.1631471,0.7675568,-0.2894428,
 -0.0438248,0.0911286,0.0583934,-0.3522036,-0.6227714,0.1240397,0.06215
 33,0.0827907,2.8018601,0.5422727,0.0572212,0.5321222,0.0432821,-0.6037
 36,-0.0101371,-0.0076631,-0.0373436,-3.2155775,-0.4724457,-0.0111939,-
 0.4768129,-0.7812731,0.1219799,-0.0018351,-0.0079321,-0.1106066,-0.149
 1128,-0.015216,-0.016569,-0.0159484,0.0911753,-0.2095003,-0.0219345,-0
 .126127,0.0381032,0.0417727,0.1021205,-0.2183168,0.05802,-0.109886,-0.
 1617257,-0.0446533,0.1179147,-0.005023,0.0733142,-0.0602022,0.2136589,
 -0.0115352,-0.1569609,-0.1575017,0.0455648,0.1419054,-0.0081843,0.0404
 487,0.0960926,0.2279968,0.037232,-0.1611643,-0.2035202,0.065035,-0.113
 2288,0.020409,0.0686042,-0.0502237,-0.2089105,0.0002349,-0.1127752,0.1
 415394,-0.0386028,-0.0031505,0.0856484,-0.149982,-0.0319382,0.0100348,
 -0.0190219,0.0873488,-0.2466296,-0.1756308,-0.0028421,-0.1852955,-0.02
 61014,-0.027566,-0.0031855,-0.029166,0.189997,-0.2080584,0.1836456,0.0
 629784,0.1960785,-0.0543339,-0.0605306,0.0674949,-0.0606365,0.1794022\
 Polar=202.1063111,1.9789302,216.2627209,-5.74244,19.9020876,115.608200
 1\Quadrupole=9.9845557,-27.7478213,17.7632656,-2.0224567,0.2355821,-8.
 7550108\PG=C01 [X(C8H8O2)]\NImag=0\\0.47505991,-0.04318126,0.54866096,
 -0.00759946,0.00975168,0.51069337,-0.16973920,-0.04267467,0.00030607,0
 .56837845,-0.03932473,-0.10730677,-0.00451464,0.00646793,0.60570593,-0
 .00063421,-0.00479533,-0.06723766,-0.02717830,0.08484414,0.16507310,-0
 .00242603,-0.03136101,-0.00530815,-0.12059269,0.01872383,0.00823015,0.
 56867431,-0.01201327,-0.01694901,-0.00260397,-0.03748972,-0.27747232,-
 0.03907716,0.00940459,0.60620815,-0.00182123,-0.00146168,0.00112107,-0
 .00205924,-0.04292923,-0.06004718,-0.02532429,0.08487926,0.16553061,-0
 .00251775,-0.00212979,-0.00054474,0.00186692,0.00999364,0.00163275,-0.
 16089956,0.04262577,0.01417387,0.48577972,0.00203901,-0.00333025,0.000
 21716,0.02928784,-0.02015907,-0.00605645,0.04612686,-0.11400180,-0.011
 94583,0.04980106,0.53961782,0.00042550,0.00041371,-0.00357050,0.005120
 19,-0.00457303,0.00006493,0.01339124,-0.01121054,-0.06927418,0.0126933
 6,0.00221583,0.50678156,0.00437091,0.00427409,0.00074928,0.03131424,-0
 .07178961,-0.01496748,-0.20771545,-0.00808813,0.00654252,-0.02920889,-
 0.00640368,0.00160747,0.55627056,0.00102310,-0.00395241,-0.00189281,-0
 .03280539,-0.01417372,-0.00105461,-0.05539015,-0.13126173,-0.00739215,
 0.01085336,0.01510166,0.00047895,-0.01519446,0.60625499,0.00052902,-0.
 00227655,0.00591242,-0.00811718,0.00206730,0.00243987,-0.00186350,-0.0
 1136728,-0.07319188,0.00448733,0.00242661,0.00640513,-0.02809210,0.084
 64853,0.18731973,-0.00010220,-0.00224802,-0.00028518,-0.00897125,0.009
 56654,0.00250187,-0.00430225,-0.04661343,-0.00760519,-0.00130424,0.000
 57903,-0.00088527,-0.07996603,-0.01050777,-0.00019497,0.08071572,0.001
 23328,-0.00106027,-0.00017420,0.00273344,-0.00224770,-0.00129995,-0.02
 647222,-0.04130017,-0.00927097,0.00540370,-0.00327629,-0.00038017,-0.0
 1189642,-0.30318137,-0.04681158,0.01793099,0.40671408,0.00020468,-0.00
 004490,-0.00005683,0.00144878,-0.00182252,0.00387698,-0.00396632,-0.00
 724158,0.01272439,0.00061963,-0.00024427,-0.00099852,-0.00060767,-0.04
 683990,-0.06525124,0.00082021,0.07135998,0.04081145,-0.00089715,0.0004
 1755,-0.00002474,-0.01438776,0.02031061,0.00480593,-0.04711457,-0.0126
 8285,0.00151816,-0.00286158,-0.00204026,-0.00021374,-0.22616496,0.0792
 9891,0.02535860,0.00805192,0.01869427,0.00383044,0.64176510,0.00173795
 ,0.00083164,-0.00019972,0.02410827,-0.04662680,-0.01032371,0.02366628,
 0.05359416,0.00714517,-0.00256534,-0.00109975,-0.00070533,0.02912342,-
 0.15149063,-0.01808405,0.04610218,-0.04890936,-0.01523150,0.03789915,0
 .64322584,0.00041468,0.00019358,-0.00022223,0.00549555,-0.01045701,-0.
 00027326,0.00771712,0.00995305,0.00540921,0.00008289,-0.00100437,0.004
 86221,0.01617067,-0.02137039,-0.07204625,0.00881079,-0.01366893,0.0110
 6294,-0.02955211,0.09806855,0.12671569,-0.00231990,0.00198276,0.001256
 15,-0.04736147,0.02170075,0.00719593,-0.01931910,-0.02372872,-0.002880
 41,-0.00109489,-0.00022965,0.00010994,0.03587740,0.03111495,0.00354345
 ,-0.00876348,-0.00485177,-0.00005117,-0.11571109,0.01203753,0.00752188
 ,0.63631306,0.00254954,-0.00142989,-0.00118497,-0.01466382,0.05367396,
 0.00989137,-0.02740629,-0.04297116,-0.00613774,-0.00161884,0.00101742,
 0.00004684,0.06752957,-0.01786548,-0.00828424,-0.00941878,-0.00550959,
 -0.00132463,-0.03538857,-0.31711710,-0.04798514,-0.02173463,0.64785196
 ,0.00091546,-0.00134836,0.00469399,0.00097586,0.00766810,0.00548894,-0
 .00363360,-0.00675968,0.00112685,-0.00027274,0.00026640,-0.00017663,0.
 01035582,-0.00624797,0.00106087,-0.00081646,-0.00137057,0.00437872,-0.
 00142939,-0.05127670,-0.05370873,-0.04108109,0.10293984,0.13007485,-0.
 02926939,0.00998135,0.00404561,-0.20076552,0.01140802,0.01103051,0.041
 43652,0.06715168,0.00931829,0.00374413,-0.00519202,-0.00054785,-0.0716
 1073,0.00025393,0.00480056,0.01079472,0.00269647,-0.00028101,0.0254357
 7,-0.07134569,-0.01491828,-0.23689237,-0.02475003,0.00657212,0.5605725
 4,-0.00755953,0.01513235,0.00161462,0.05880051,-0.13656682,-0.01593595
 ,0.02820265,-0.02187181,-0.00645570,-0.00187367,-0.00351050,-0.0016808
 7,0.00378291,-0.01304489,-0.00253230,0.00091388,0.01944177,0.00399795,
 -0.03484509,-0.00986125,-0.00020848,-0.07465230,-0.14372894,-0.0095569
 2,0.03021505,0.60226473,0.00095687,0.00119680,0.00642588,0.01943043,-0
 .01345001,-0.07379025,0.00254859,-0.00884273,-0.00015058,-0.00038844,-
 0.00149971,0.00606826,0.00558097,-0.00226679,-0.00194369,-0.00072474,0
 .00380936,-0.00088303,-0.00798334,0.00268280,0.00377850,-0.00286406,-0
 .01308648,-0.07106256,-0.02056547,0.08015833,0.18589035,-0.00184764,-0
 .00094913,0.00071549,0.00273881,0.04183748,0.00856905,-0.01015812,-0.0
 0913127,-0.00053096,-0.00000320,0.00215016,0.00029088,0.01057006,0.000
 25532,-0.00074458,-0.00112662,-0.00128082,-0.00019308,-0.00730128,0.00
 931616,0.00257160,0.00012467,-0.05162856,-0.00831651,-0.07992378,-0.01
 326140,-0.00085032,0.08255547,-0.00517865,-0.00281001,0.00044688,0.021
 40737,-0.04618248,-0.01343953,-0.00240475,-0.00144003,-0.00084906,-0.0
 0133721,-0.00108168,0.00002560,-0.00135957,0.01966844,0.00416823,-0.00
 121672,-0.02624981,-0.00498597,0.00469092,-0.00668191,-0.00222239,-0.0
 2439011,-0.04324359,-0.00916382,-0.01138420,-0.30204733,-0.04603634,0.
 01669760,0.40640217,-0.00097601,-0.00019103,-0.00170687,0.00488227,-0.
 01425177,0.01074847,0.00051854,-0.00041165,0.00416544,-0.00022750,-0.0
 0034910,-0.00005566,-0.00112507,0.00402151,-0.00082091,-0.00013245,-0.
 00490649,-0.00092627,0.00174763,-0.00277474,0.00398605,-0.00337032,-0.
 00714238,0.01292451,-0.00053468,-0.04573498,-0.06414377,-0.00092218,0.
 07143937,0.04204227,-0.04815463,0.03596564,0.00382094,0.00570745,-0.03
 008635,-0.00362272,-0.00577181,-0.00108277,0.00029272,-0.00052602,0.00
 068904,0.00012482,0.00077878,-0.00098833,-0.00039614,-0.00053568,-0.00
 044138,-0.00004932,-0.00002464,-0.00024206,-0.00002147,0.00075383,0.00
 055955,-0.00005964,-0.00120905,-0.00168380,-0.00014779,-0.00029620,0.0
 0114523,-0.00007046,0.05433666,0.03155191,-0.30266790,-0.02870641,-0.0
 0077184,-0.01562112,-0.00186634,-0.00289539,-0.00007068,0.00034134,-0.
 00035684,0.00003134,0.00015275,0.00060449,-0.00009950,-0.00010617,-0.0
 0045492,-0.00066524,-0.00011892,-0.00012194,-0.00026969,-0.00004956,0.
 00017110,0.00033326,0.00016066,0.00118345,-0.00402675,-0.00111452,0.00
 345966,0.00082272,-0.00044793,-0.03433680,0.33311483,0.00386911,-0.029
 07781,-0.05163535,-0.00078190,-0.00087001,-0.00104828,-0.00013025,-0.0
 0007231,0.00061213,-0.00004056,-0.00006624,-0.00052901,0.00009906,-0.0
 0003387,0.00031915,-0.00006045,-0.00008108,-0.00006712,-0.00000209,0.0
 0005588,-0.00003677,-0.00009425,-0.00008929,0.00005496,0.00042493,-0.0
 0039940,0.00045524,-0.00001771,-0.00053694,-0.00188061,-0.00330017,0.0
 3321394,0.05167149,-0.11719202,0.04804118,-0.10562977,-0.02028901,0.00
 668450,-0.01920013,0.00021436,0.00315728,0.00118089,0.00082929,0.00025
 367,-0.00075485,-0.00148860,0.00067463,0.00106164,0.00024806,-0.000783
 43,-0.00020841,-0.00000183,-0.00133165,-0.00033751,0.00033051,0.000988
 13,0.00137568,-0.00185734,-0.00492804,-0.00122071,0.00029026,0.0019713
 5,-0.00000690,-0.00280487,0.00145666,-0.00282911,0.13320685,0.04500917
 ,-0.07254450,0.06217168,-0.00807107,0.00564556,-0.01259972,0.00027522,
 -0.00051327,-0.00016774,-0.00130373,0.00002423,-0.00094999,-0.00027063
 ,-0.00006533,0.00091158,0.00015719,0.00022204,0.00002346,-0.00024716,-
 0.00042496,-0.00015640,0.00046491,0.00024305,0.00105723,-0.00099360,-0
 .00236478,-0.00012759,0.00143609,0.00151951,-0.00098001,0.01605137,-0.
 00895219,0.02558694,-0.04982731,0.07574572,-0.10260840,0.06296805,-0.1
 8320381,-0.00098006,-0.00250728,0.00342803,-0.00059903,0.00087032,0.00
 106231,0.00014232,0.00058147,-0.00001645,-0.00063867,0.00026489,-0.000
 16452,0.00013606,-0.00036719,-0.00004772,0.00005202,-0.00054974,-0.000
 28797,0.00024485,0.00028066,0.00007424,0.00031867,-0.00131037,-0.00063
 506,0.00000216,0.00096063,-0.00028547,0.00311627,-0.00054586,0.0035077
 2,0.11498111,-0.07057220,0.20008589,-0.10548037,0.02199021,0.10842470,
 -0.01861535,0.00344819,0.02203904,0.00037667,0.00305944,-0.00014594,0.
 00091202,0.00009278,0.00058768,-0.00130327,0.00090180,-0.00047719,0.00
 024630,-0.00072034,-0.00008925,0.00003903,-0.00108062,-0.00011980,-0.0
 0017372,0.00140816,-0.00085221,-0.00203282,-0.00492781,-0.00001939,0.0
 0010292,0.00135822,0.00059400,-0.00268558,0.00060052,0.00284385,0.0085
 9544,-0.00325682,-0.01453126,0.12010414,0.02019200,-0.05244668,-0.0353
 4887,-0.00723017,0.00257643,0.01283840,0.00012184,-0.00019970,-0.00016
 966,-0.00089921,-0.00036336,0.00124071,-0.00042705,0.00028515,-0.00053
 132,0.00019636,0.00018437,0.00000026,-0.00024049,-0.00056545,0.0000729
 8,0.00032891,0.00079908,-0.00091748,-0.00133057,-0.00302769,-0.0007075
 2,0.00226127,0.00115466,0.00114769,0.01431693,-0.00232449,-0.02753606,
 -0.00550844,0.00152638,0.01028146,-0.02214970,0.05277508,0.10611703,-0
 .03545455,-0.21982596,0.00021182,0.00143400,0.00478899,0.00080035,-0.0
 0146705,0.00073813,-0.00071729,-0.00081547,0.00037007,0.00044584,-0.00
 015704,-0.00042157,-0.00010122,0.00043076,0.00009632,-0.00007327,0.000
 51500,-0.00003702,-0.00016445,-0.00026534,-0.00010075,-0.00042137,0.00
 105095,-0.00030810,0.00020709,-0.00039365,-0.00022826,0.00020021,-0.00
 084631,-0.00217323,0.01150896,-0.00450812,-0.02366441,-0.11782512,0.04
 018817,0.24089181,0.00096352,-0.00026608,0.00052122,-0.00012801,-0.003
 00221,-0.00101596,-0.01678677,-0.00529617,0.02082521,-0.09522049,-0.03
 694408,0.09737844,-0.00131706,0.00460515,0.00135553,0.00002101,-0.0016
 5389,-0.00011880,-0.00002917,-0.00095136,-0.00126957,0.00014793,0.0011
 7979,0.00026542,-0.00152642,-0.00053637,-0.00076370,0.00029134,0.00073
 684,0.00016398,0.00001825,0.00004690,-0.00019283,0.00014882,0.00030772
 ,-0.00006782,0.00026614,0.00031593,0.00001569,0.10844845,0.00109825,-0
 .00009860,-0.00120540,-0.00037714,-0.00024201,-0.00005600,0.00793917,0
 .00564433,-0.01543492,-0.03412591,-0.06684939,0.06047503,0.00094939,-0
 .00285985,-0.00036268,-0.00148066,0.00178074,-0.00077258,-0.00028120,0
 .00037010,0.00123352,0.00016630,-0.00054944,-0.00021305,0.00054667,-0.
 00005163,0.00092603,-0.00016471,0.00017453,0.00003412,0.00008706,0.000
 10006,0.00004980,-0.00029567,0.00008525,0.00020112,-0.00031659,-0.0003
 0643,0.00027346,0.03689830,0.06973277,-0.00022014,0.00065180,-0.000091
 58,0.00081901,0.00125446,0.00116156,0.00372052,-0.00185825,0.00011657,
 0.09452460,0.06185919,-0.21074880,-0.00029566,-0.00199791,-0.00078270,
 -0.00002870,0.00121817,-0.00028346,-0.00021506,0.00045818,0.00031581,-
 0.00015810,-0.00072115,-0.00031754,0.00084966,0.00030276,-0.00014385,-
 0.00021673,-0.00046794,-0.00005082,-0.00022285,0.00000346,0.00032179,0
 .00001307,0.00013771,-0.00030218,-0.00025199,-0.00059853,0.00018679,-0
 .10690288,-0.06859998,0.23047510,0.00094706,-0.00030890,-0.00056425,0.
 00004250,-0.00325462,0.00018612,-0.02062036,-0.00120893,-0.01730920,-0
 .14137953,-0.01892866,-0.12244093,-0.00145501,0.00485120,0.00018749,-0
 .00025363,-0.00130053,-0.00051110,-0.00013878,-0.00135781,0.00077866,0
 .00017260,0.00107920,0.00009839,-0.00133005,-0.00077919,0.00058566,0.0
 0030918,0.00076264,0.00005781,0.00014314,-0.00004823,0.00022897,0.0002
 4858,0.00043136,0.00026028,0.00013440,0.00023378,0.00000210,0.00910810
 ,0.00190640,0.01069991,0.15929312,0.00101679,-0.00042116,0.00115576,-0
 .00016193,0.00006767,-0.00015036,0.01087506,0.00193355,0.01317441,-0.0
 1712685,-0.04861664,-0.02166625,0.00106259,-0.00353011,-0.00089393,-0.
 00191554,0.00140957,0.00151073,-0.00039423,0.00093699,-0.00093980,0.00
 019725,-0.00066606,0.00003291,0.00047116,0.00032124,-0.00065937,-0.000
 20609,0.00013463,0.00002530,0.00006033,0.00013667,-0.00011863,-0.00040
 960,-0.00030242,-0.00049154,-0.00025126,-0.00017717,0.00002544,0.00633
 030,0.00076222,0.00860745,0.01814514,0.04866011,0.00053424,-0.00076656
 ,0.00038864,-0.00080130,-0.00100066,0.00081439,0.00369943,0.00167697,0
 .00769641,-0.12003207,-0.02178455,-0.18713144,0.00066861,0.00028388,-0
 .00041603,-0.00025431,-0.00018710,-0.00013082,0.00014637,-0.00008089,-
 0.00025564,0.00009287,0.00035808,-0.00006854,-0.00034641,-0.00001227,-
 0.00044404,0.00009855,0.00032897,0.00007297,0.00029974,-0.00004645,0.0
 0010252,0.00002621,0.00031196,0.00011395,-0.00010508,-0.00003101,-0.00
 059583,-0.01643139,-0.00347415,-0.02341287,0.13260178,0.02515728,0.204
 97549,-0.00057218,-0.00063805,-0.00008073,-0.00525625,0.00147715,0.000
 64143,0.00830136,0.02772946,0.00250534,-0.05725482,-0.06030240,-0.0066
 5396,-0.00129517,0.00188229,0.00047523,0.00060365,-0.00093080,-0.00062
 785,0.00073118,-0.00067164,-0.00006762,-0.00000743,0.00016771,0.000005
 53,0.00085163,0.00100511,0.00030544,-0.00045190,0.00027555,0.00007451,
 0.00023045,0.00006406,0.00000313,0.00006101,-0.00007256,0.00024962,0.0
 0005815,-0.00007748,-0.00030226,-0.00392880,-0.01265283,-0.00227011,-0
 .00468837,-0.01786171,-0.00019585,0.06255037,0.00041470,0.00005848,0.0
 0011506,0.00332649,-0.00042199,-0.00017006,-0.00133490,-0.01817062,-0.
 00221478,-0.05608624,-0.29386461,-0.02416024,-0.00158015,-0.00400770,-
 0.00093350,-0.00276435,0.00140543,0.00085334,-0.00016838,0.00036882,0.
 00016842,0.00009354,-0.00027630,-0.00006541,-0.00069213,-0.00013417,-0
 .00003025,0.00042143,-0.00073140,-0.00018719,-0.00008997,0.00004595,-0
 .00003397,-0.00004715,0.00010810,-0.00001863,0.00004581,0.00013828,-0.
 00003242,-0.00190880,-0.00772306,-0.00017566,-0.00046598,-0.00059132,-
 0.00072817,0.06068112,0.32368941,0.00005208,0.00005381,-0.00050895,0.0
 0102869,-0.00030074,0.00049843,-0.00068225,-0.00518824,-0.00148249,-0.
 00627979,-0.02414613,-0.05089036,-0.00020931,-0.00059938,0.00051996,-0
 .00097998,0.00071042,-0.00126122,-0.00001139,-0.00001972,0.00004995,0.
 00000637,0.00001729,-0.00003820,-0.00018588,-0.00015612,0.00028437,0.0
 0011100,-0.00015474,-0.00009007,-0.00000122,-0.00004054,0.00029743,0.0
 0022090,0.00004623,0.00025200,-0.00023426,-0.00009007,0.00018646,0.005
 98261,0.02714902,0.00352515,-0.00481556,-0.02491595,-0.00183344,0.0059
 7807,0.02761744,0.05046009,0.00000380,-0.00009012,-0.00005798,0.000550
 02,0.00067378,0.00005860,-0.00370982,0.00502413,0.00153175,-0.00088389
 ,-0.00109480,-0.00020695,-0.02006089,-0.01889487,-0.00183675,0.0049249
 8,0.00036407,-0.00049717,-0.26395440,-0.10151695,-0.00260742,-0.000233
 81,0.00179951,0.00038878,0.00286917,0.00133026,0.00049174,-0.00056703,
 -0.00151159,-0.00023295,-0.00004994,-0.00005189,-0.00000466,-0.0000990
 6,-0.00000344,-0.00002328,-0.00007521,0.00001730,0.00003774,-0.0004020
 4,0.00011622,0.00011779,-0.00045753,0.00016598,0.00001236,0.00010761,0
 .00010500,0.00000667,0.28077688,-0.00003242,0.00012009,0.00013238,0.00
 057250,-0.00109654,-0.00013707,0.00264112,-0.00014401,-0.00107406,0.00
 068727,0.00024433,0.00015004,0.01293530,0.00638201,-0.00068105,-0.0001
 9316,0.00382168,0.00150917,-0.10321916,-0.10480863,-0.00731093,-0.0294
 6472,-0.00958559,0.00009357,0.00265934,-0.00249144,-0.00183411,-0.0015
 7722,-0.00236168,-0.00037559,0.00003883,-0.00000855,-0.00000520,-0.000
 09058,0.00001399,-0.00004975,-0.00010990,-0.00003662,0.00002547,0.0000
 4368,0.00002402,-0.00000681,0.00012583,-0.00001135,-0.00001774,-0.0000
 2319,0.00011704,0.00001911,0.11421398,0.10884375,-0.00005685,0.0001458
 8,-0.00057021,0.00003607,-0.00018461,-0.00052985,0.00108526,-0.0012255
 0,0.00434192,0.00016307,0.00021818,-0.00059484,0.00402078,0.00161731,0
 .00497878,-0.00050159,0.00156644,-0.00311231,-0.00304097,-0.00759374,-
 0.02938276,-0.00534306,-0.00204713,0.00077507,0.00069001,-0.00176736,0
 .00595826,-0.00024696,-0.00032105,0.00015381,0.00002710,-0.00002523,0.
 00000579,-0.00008305,-0.00014420,0.00005274,0.00005028,0.00010069,0.00
 007660,0.00016502,-0.00006980,-0.00000342,-0.00003099,0.00004216,0.000
 03595,-0.00001827,0.00002636,0.00002291,0.00331990,0.00865869,0.021715
 47,-0.00082672,0.00119424,0.00025554,-0.00449188,-0.00483491,-0.000272
 58,0.00041332,-0.00081709,-0.00021227,0.00002280,0.00011609,-0.0000259
 8,0.00240411,-0.00193367,-0.00007643,-0.00028101,0.00127539,0.00027741
 ,0.00256422,-0.00292782,-0.00067005,-0.24184272,0.10934836,0.03550859,
 -0.01928702,0.02079682,0.00562826,0.00469306,-0.00026293,-0.00044023,0
 .00008985,-0.00010091,-0.00001506,-0.00044044,-0.00008668,-0.00005483,
 -0.00046888,-0.00012119,0.00005815,-0.00007480,-0.00001304,0.00003766,
 -0.00007542,0.00000262,-0.00001376,-0.00004048,0.00004996,0.00001325,0
 .00126114,0.00079251,-0.00023577,0.25638088,-0.00057584,0.00021394,0.0
 0022577,-0.00245859,0.00044778,-0.00061168,-0.00071190,-0.00101390,-0.
 00003665,0.00005883,0.00011653,0.00012696,-0.00325206,-0.00215951,-0.0
 0135760,0.00136718,-0.00257989,-0.00062813,0.02831791,-0.01147201,-0.0
 0431669,0.11079390,-0.12097558,-0.02529876,-0.01087889,0.00556791,0.00
 088211,0.00036404,0.00295325,0.00108488,0.00003748,0.00012127,0.000014
 27,-0.00000551,0.00003361,0.00000397,-0.00009210,0.00000816,-0.0000033
 1,0.00009436,0.00000640,-0.00006696,0.00011730,-0.00004643,0.00001242,
 -0.00005179,-0.00001034,-0.00000167,-0.00064657,0.00097751,0.00100289,
 -0.12247776,0.12781130,-0.00010236,0.00004147,-0.00060542,0.00016322,-
 0.00040649,0.00454279,-0.00020385,-0.00005365,-0.00049875,-0.00001666,
 0.00012729,-0.00056576,-0.00030505,-0.00146225,0.00608288,0.00030159,-
 0.00057692,0.00006775,0.00508695,-0.00208575,0.00007026,0.03603546,-0.
 02526557,-0.03518006,-0.00024941,-0.00137390,0.00464409,-0.00052677,0.
 00120173,-0.00390481,0.00000998,0.00004210,0.00002216,-0.00009800,-0.0
 0004083,0.00003072,0.00011194,0.00006016,0.00001996,0.00008985,-0.0001
 5354,0.00003448,-0.00001514,0.00010440,0.00008831,-0.00002166,-0.00003
 034,0.00000798,-0.00049818,0.00090389,-0.00392390,-0.03976190,0.028968
 18,0.02906733\\-0.00001040,0.00001172,0.00001138,-0.00002371,0.0000311
 7,0.00000750,-0.00000890,-0.00001566,-0.00001019,0.00000796,-0.0000106
 0,-0.00000643,0.00003292,0.00001190,-0.00001059,0.00000850,-0.00001566
 ,-0.00002035,-0.00000966,0.00001605,-0.00000536,-0.00001708,-0.0000432
 1,-0.00001206,0.00002030,-0.00002207,0.00000696,-0.00001658,0.00000243
 ,0.00001128,-0.00000882,0.00000314,0.00001967,-0.00000747,0.00000693,0
 .00001382,-0.00000192,0.00001022,0.00001899,0.00001332,0.00001729,0.00
 000841,0.00000669,0.00001066,0.00000131,0.00001099,0.00001246,-0.00000
 973,0.00000724,-0.00001886,-0.00002012,-0.00000338,-0.00000789,-0.0000
 0449\\\@


 CURIOUSER AND CURIOUSER

                  -- ALICE, IN WONDERLAND
 Job cpu time:       0 days  1 hours 15 minutes 56.1 seconds.
 Elapsed time:       0 days  0 hours 11 minutes 46.1 seconds.
 File lengths (MBytes):  RWF=    304 Int=      0 D2E=      0 Chk=     16 Scr=      1
 Normal termination of Gaussian 16 at Sat Feb 10 10:39:39 2024.
