
Running Job 1 of 1 247-SM12.in
qchem 247-SM12.in_4011412.0 /expanse/lustre/scratch/selhajj/temp_project/qcscratch/28446750/qchem4011412/ 0
/cm/shared/apps/spack/cpu/opt/spack/linux-centos8-zen2/gcc-10.2.0/qchem-5.4-akfmr7b3t57bfs6qan3padb2wnb2i7cl/exe/qcprog.exe_s 247-SM12.in_4011412.0 /expanse/lustre/scratch/selhajj/temp_project/qcscratch/28446750/qchem4011412/
                  Welcome to Q-Chem
     A Quantum Leap Into The Future Of Chemistry


 Q-Chem 5.4, Q-Chem, Inc., Pleasanton, CA (2021)

 License issued to: University of California, San Diego (site)

 E. Epifanovsky,  A. T. B. Gilbert,  Xintian Feng,  Joonho Lee,  Yuezhi Mao,  
 N. Mardirossian,  P. Pokhilko,  A. White,  M. Wormit,  M. P. Coons,  
 A. L. Dempwolff,  Zhengting Gan,  D. Hait,  P. R. Horn,  L. D. Jacobson,  
 I. Kaliman,  J. Kussmann,  A. W. Lange,  Ka Un Lao,  D. S. Levine,  Jie Liu,  
 S. C. McKenzie,  A. F. Morrison,  K. Nanda,  F. Plasser,  D. R. Rehn,  
 M. L. Vidal,  Zhi-Qiang You,  Ying Zhu,  B. Alam,  B. Albrecht,  
 A. Aldossary,  E. Alguire,  J. H. Andersen,  D. Barton,  K. Begam,  A. Behn,  
 Y. A. Bernard,  E. J. Berquist,  H. Burton,  A. Carreras,  K. Carter-Fenk,  
 R. Chakraborty,  A. D. Chien,  K. D. Closser,  V. Cofer-Shabica,  
 S. Dasgupta,  Jia Deng,  M. de Wergifosse,  M. Diedenhofen,  Hainam Do,  
 S. Ehlert,  Po-Tung Fang,  S. Fatehi,  Qingguo Feng,  J. Gayvert,  
 Qinghui Ge,  G. Gidofalvi,  M. Goldey,  J. Gomes,  C. Gonzalez-Espinoza,  
 S. Gulania,  A. Gunina,  M. W. D. Hanson-Heine,  P. H. P. Harbach,  
 A. W. Hauser,  M. F. Herbst,  M. Hernandez Vera,  M. Hodecker,  
 Z. C. Holden,  S. Houck,  Xunkun Huang,  Kerwin Hui,  B. C. Huynh,  
 M. Ivanov,  Hyunjun Ji,  Hanjie Jiang,  B. Kaduk,  S. Kaehler,  
 K. Khistyaev,  Jaehoon Kim,  P. Klunzinger,  Z. Koczor-Benda,  
 Joong Hoon Koh,  D. Kosenkov,  L. Koulias,  T. Kowalczyk,  C. M. Krauter,  
 K. Kue,  A. Kunitsa,  T. Kus,  A. Landau,  K. V. Lawler,  D. Lefrancois,  
 S. Lehtola,  Rain Li,  Yi-Pei Li,  Jiashu Liang,  M. Liebenthal,  
 Hung-Hsuan Lin,  You-Sheng Lin,  Fenglai Liu,  Kuan-Yu Liu,  
 M. Loipersberger,  A. Luenser,  A. Manjanath,  P. Manohar,  E. Mansoor,  
 S. F. Manzer,  Shan-Ping Mao,  A. V. Marenich,  T. Markovich,  S. Mason,  
 S. A. Maurer,  P. F. McLaughlin,  M. F. S. J. Menger,  J.-M. Mewes,  
 S. A. Mewes,  P. Morgante,  J. W. Mullinax,  T. S. Nguyen-Beck,  
 K. J. Oosterbaan,  G. Paran,  Alexander C. Paul,  Suranjan K. Paul,  
 F. Pavosevic,  Zheng Pei,  S. Prager,  E. I. Proynov,  E. Ramos,  B. Rana,  
 A. E. Rask,  A. Rettig,  R. M. Richard,  F. Rob,  E. Rossomme,  T. Scheele,  
 M. Scheurer,  M. Schneider,  N. Sergueev,  S. M. Sharada,  W. Skomorowski,  
 D. W. Small,  C. J. Stein,  Yu-Chuan Su,  E. J. Sundstrom,  Zhen Tao,  
 J. Thirman,  T. Tsuchimochi,  N. M. Tubman,  S. P. Veccham,  O. Vydrov,  
 J. Wenzel,  J. Witte,  A. Yamada,  Kun Yao,  S. Yeganeh,  S. R. Yost,  
 A. Zech,  Igor Ying Zhang,  Xing Zhang,  Yu Zhang,  D. Zuev,  
 A. Aspuru-Guzik,  A. T. Bell,  N. A. Besley,  K. B. Bravaya,  B. R. Brooks,  
 D. Casanova,  Jeng-Da Chai,  S. Coriani,  C. J. Cramer,  
 A. E. DePrince, III,  R. A. DiStasio Jr.,  A. Dreuw,  B. D. Dunietz,  
 T. R. Furlani,  W. A. Goddard III,  S. Grimme,  S. Hammes-Schiffer,  
 T. Head-Gordon,  W. J. Hehre,  Chao-Ping Hsu,  T.-C. Jagau,  Yousung Jung,  
 A. Klamt,  Jing Kong,  D. S. Lambrecht,  WanZhen Liang,  N. J. Mayhall,  
 C. W. McCurdy,  J. B. Neaton,  C. Ochsenfeld,  J. A. Parkhill,  R. Peverati,  
 V. A. Rassolov,  Yihan Shao,  L. V. Slipchenko,  T. Stauch,  R. P. Steele,  
 J. E. Subotnik,  A. J. W. Thom,  A. Tkatchenko,  D. G. Truhlar,  
 T. Van Voorhis,  T. A. Wesolowski,  K. B. Whaley,  H. L. Woodcock III,  
 P. M. Zimmerman,  S. Faraji,  P. M. W. Gill,  M. Head-Gordon,  
 J. M. Herbert,  A. I. Krylov

 Contributors to earlier versions of Q-Chem not listed above: 
 R. D. Adamson,  B. Austin,  R. Baer,  J. Baker,  G. J. O. Beran,  
 K. Brandhorst,  S. T. Brown,  E. F. C. Byrd,  A. K. Chakraborty,  
 G. K. L. Chan,  Chun-Min Chang,  Yunqing Chen,  C.-L. Cheng,  
 Siu Hung Chien,  D. M. Chipman,  D. L. Crittenden,  H. Dachsel,  
 R. J. Doerksen,  A. D. Dutoi,  R. G. Edgar,  J. Fosso-Tande,  
 L. Fusti-Molnar,  D. Ghosh,  A. Ghysels,  A. Golubeva-Zadorozhnaya,  
 J. Gonthier,  M. S. Gordon,  S. R. Gwaltney,  G. Hawkins,  J. E. Herr,  
 A. Heyden,  S. Hirata,  E. G. Hohenstein,  G. Kedziora,  F. J. Keil,  
 C. Kelley,  Jihan Kim,  R. A. King,  R. Z. Khaliullin,  P. P. Korambath,  
 W. Kurlancheek,  A. Laurent,  A. M. Lee,  M. S. Lee,  S. V. Levchenko,  
 Ching Yeh Lin,  D. Liotard,  E. Livshits,  R. C. Lochan,  I. Lotan,  
 L. A. Martinez-Martinez,  P. E. Maslen,  N. Nair,  D. P. O'Neill,  
 D. Neuhauser,  E. Neuscamman,  C. M. Oana,  R. Olivares-Amaya,  R. Olson,  
 T. M. Perrine,  B. Peters,  P. A. Pieniazek,  A. Prociuk,  Y. M. Rhee,  
 J. Ritchie,  M. A. Rohrdanz,  E. Rosta,  N. J. Russ,  H. F. Schaefer III,  
 M. W. Schmidt,  N. E. Schultz,  S. Sharma,  N. Shenvi,  C. D. Sherrill,  
 A. C. Simmonett,  A. Sodt,  T. Stein,  D. Stuck,  K. S. Thanthiriwatte,  
 V. Vanovschi,  L. Vogt,  Tao Wang,  A. Warshel,  M. A. Watson,  
 C. F. Williams,  Q. Wu,  X. Xu,  Jun Yang,  W. Zhang,  Yan Zhao

 Please cite Q-Chem as follows:
 Y. Shao et al., Mol. Phys. 113, 184-215 (2015)
 DOI: 10.1080/00268976.2014.952696

 Q-Chem 5.4.0 for Intel X86 EM64T Linux

 Parts of Q-Chem use Armadillo 9.800.1 (Horizon Scraper).
 http://arma.sourceforge.net/

 Q-Chem begins on Sat Feb  3 13:15:19 2024  

 Host: 
0

     Scratch files written to /expanse/lustre/scratch/selhajj/temp_project/qcscratch/28446750/qchem4011412//
 May1621 |scratch|qcdevops|jenkins|workspace|build_RNUM    
 Processing $rem in /cm/shared/apps/spack/cpu/opt/spack/linux-centos8-zen2/gcc-10.2.0/qchem-5.4-akfmr7b3t57bfs6qan3padb2wnb2i7cl/config/preferences:
 Processing $rem in /home/selhajj/.qchemrc:
 Symmetry turned off for PCM/SM12/SMD calculation
 Method-specific promolecule density matrix will be built for SM12 calculation

 Checking the input file for inconsistencies... 	...done.

--------------------------------------------------------------
User input:
--------------------------------------------------------------
$molecule
0 1
C                 -3.1850150000      1.4045140000      0.2465200000
C                 -2.4388040000      0.7149670000     -0.9119290000
C                 -1.1012210000      0.1558050000     -0.4914350000
C                 -0.9149170000     -1.1026640000     -0.0196900000
C                 -2.0058460000     -2.1226980000      0.1476660000
C                  0.4443660000     -1.5887480000      0.3740240000
O                  0.5936000000     -2.7346690000      0.7710680000
C                  1.5994190000     -0.6547990000      0.2727990000
C                  2.8768790000     -1.0827030000      0.6423690000
C                  3.9543630000     -0.2077150000      0.5507150000
C                  3.7616770000      1.0974080000      0.0899980000
C                  2.4917010000      1.5279680000     -0.2799630000
C                  1.4060150000      0.6533000000     -0.1897640000
C                  0.0467570000      1.1134230000     -0.5905640000
O                 -0.1324270000      2.2528660000     -0.9942060000
H                 -4.1373980000      1.8107940000     -0.1039590000
H                 -2.5958110000      2.2306630000      0.6500830000
H                 -3.3935050000      0.7044720000      1.0600600000
H                 -3.0598870000     -0.0779400000     -1.3323090000
H                 -2.2674570000      1.4481670000     -1.7017530000
H                 -1.9944540000     -2.5189080000      1.1660510000
H                 -2.9928480000     -1.7170520000     -0.0613090000
H                 -1.8279140000     -2.9798420000     -0.5087810000
H                  3.0030820000     -2.0982090000      0.9968980000
H                  4.9456870000     -0.5396500000      0.8377390000
H                  4.6037600000      1.7766010000      0.0201100000
H                  2.3202010000      2.5346490000     -0.6404400000
$end

$rem
BASIS  =  6-311++G(d,p)
GUI  =  2
JOB_TYPE  =  SP
METHOD  =  B3LYP
SCF_CONVERGENCE  = 8
SOLVENT_METHOD = sm12
$end

$smx
solvent dimethylformamide
charges CM5
$end





--------------------------------------------------------------
 ----------------------------------------------------------------
             Standard Nuclear Orientation (Angstroms)
    I     Atom           X                Y                Z
 ----------------------------------------------------------------
    1      C      -3.1850150000     1.4045140000     0.2465200000
    2      C      -2.4388040000     0.7149670000    -0.9119290000
    3      C      -1.1012210000     0.1558050000    -0.4914350000
    4      C      -0.9149170000    -1.1026640000    -0.0196900000
    5      C      -2.0058460000    -2.1226980000     0.1476660000
    6      C       0.4443660000    -1.5887480000     0.3740240000
    7      O       0.5936000000    -2.7346690000     0.7710680000
    8      C       1.5994190000    -0.6547990000     0.2727990000
    9      C       2.8768790000    -1.0827030000     0.6423690000
   10      C       3.9543630000    -0.2077150000     0.5507150000
   11      C       3.7616770000     1.0974080000     0.0899980000
   12      C       2.4917010000     1.5279680000    -0.2799630000
   13      C       1.4060150000     0.6533000000    -0.1897640000
   14      C       0.0467570000     1.1134230000    -0.5905640000
   15      O      -0.1324270000     2.2528660000    -0.9942060000
   16      H      -4.1373980000     1.8107940000    -0.1039590000
   17      H      -2.5958110000     2.2306630000     0.6500830000
   18      H      -3.3935050000     0.7044720000     1.0600600000
   19      H      -3.0598870000    -0.0779400000    -1.3323090000
   20      H      -2.2674570000     1.4481670000    -1.7017530000
   21      H      -1.9944540000    -2.5189080000     1.1660510000
   22      H      -2.9928480000    -1.7170520000    -0.0613090000
   23      H      -1.8279140000    -2.9798420000    -0.5087810000
   24      H       3.0030820000    -2.0982090000     0.9968980000
   25      H       4.9456870000    -0.5396500000     0.8377390000
   26      H       4.6037600000     1.7766010000     0.0201100000
   27      H       2.3202010000     2.5346490000    -0.6404400000
 ----------------------------------------------------------------
 Nuclear Repulsion Energy =         939.38164612 hartrees
 There are       53 alpha and       53 beta electrons
 Requested basis set is 6-311++G(d,p)
 There are 150 shells and 414 basis functions

 Total QAlloc Memory Limit   8000 MB
 Mega-Array Size       188 MB
 MEM_STATIC part       192 MB
 A cutoff of  1.0D-11 yielded   9179 shell pairs
 There are     72152 function pairs (     77222 Cartesian)
 Smallest overlap matrix eigenvalue = 1.23E-07

 Q-Chem warning in module stvman/mkSTV.C, line 323:

 Overlap eigenvalue is smaller than square root of threshold
 Use THRESH >= 12 to get rid of this warning

 Linear dependence detected in AO basis
 Tighter screening thresholds may be required for diffuse basis sets
 Use S2THRESH > 14 and THRESH = 14 in case of SCF convergence issues
 Number of orthogonalized atomic orbitals = 411
 Maximum deviation from orthogonality = 2.048E-10

 Scale SEOQF with 1.000000e-01/1.000000e-01/1.000000e-01

 Standard Electronic Orientation quadrupole field applied
 Nucleus-field energy     =     0.0000000336 hartrees
 ================ Generating on-the-fly Promolecule Density  ================
Attempting to make child job directory: /expanse/lustre/scratch/selhajj/temp_project/qcscratch/28446750/qchem4011412//Frg1/
Attempting to make child job directory: /expanse/lustre/scratch/selhajj/temp_project/qcscratch/28446750/qchem4011412//Frg2/
Attempting to make child job directory: /expanse/lustre/scratch/selhajj/temp_project/qcscratch/28446750/qchem4011412//Frg3/
Creating input file /expanse/lustre/scratch/selhajj/temp_project/qcscratch/28446750/qchem4011412/Frg1.input
using default PutDataFrgm: nothing
calling putenv with: QCSCRATCH=/expanse/lustre/scratch/selhajj/temp_project/qcscratch/28446750/qchem4011412/ 
Spawning Job For Fragment 0
Done Job For Fragment 0
calling putenv with: QCSCRATCH=/expanse/lustre/scratch/selhajj/temp_project/qcscratch/28446750 
calling putenv with: QCTHREADS=8 
Creating input file /expanse/lustre/scratch/selhajj/temp_project/qcscratch/28446750/qchem4011412/Frg2.input
using default PutDataFrgm: nothing
calling putenv with: QCSCRATCH=/expanse/lustre/scratch/selhajj/temp_project/qcscratch/28446750/qchem4011412/ 
Spawning Job For Fragment 1
Done Job For Fragment 1
calling putenv with: QCSCRATCH=/expanse/lustre/scratch/selhajj/temp_project/qcscratch/28446750 
calling putenv with: QCTHREADS=8 
Creating input file /expanse/lustre/scratch/selhajj/temp_project/qcscratch/28446750/qchem4011412/Frg3.input
using default PutDataFrgm: nothing
calling putenv with: QCSCRATCH=/expanse/lustre/scratch/selhajj/temp_project/qcscratch/28446750/qchem4011412/ 
Spawning Job For Fragment 2
Done Job For Fragment 2
calling putenv with: QCSCRATCH=/expanse/lustre/scratch/selhajj/temp_project/qcscratch/28446750 
calling putenv with: QCTHREADS=8 
 Time for running child jobs:  CPU 0.01 s  wall 3.63 s
 ============= Method Specific Promolecule Density Constructed =============
 Guess from superposition of atomic densities
 Warning:  Energy on first SCF cycle will be non-variational
 SAD guess density has 106.000000 electrons

 -----------------------------------------------------------------------
  General SCF calculation program by
  Eric Jon Sundstrom, Paul Horn, Yuezhi Mao, Dmitri Zuev, Alec White,
  David Stuck, Shaama M.S., Shane Yost, Joonho Lee, David Small,
  Daniel Levine, Susi Lehtola, Hugh Burton, Evgeny Epifanovsky,
  Bang C. Huynh
 -----------------------------------------------------------------------
 Exchange:     0.2000 Hartree-Fock + 0.0800 Slater + 0.7200 B88
 Correlation:  0.1900 VWN1RPA + 0.8100 LYP
 Using SG-1 standard quadrature grid
 using 8 threads for integral computing
 -------------------------------------------------------
 OpenMP Integral computing Module                
 Release: version 1.0, May 2013, Q-Chem Inc. Pittsburgh 
 -------------------------------------------------------
 
 SM12 calculation using CM5 charges
 Citation of the SM12 model:
 Marenich, A.V.; Cramer, C.J.; Truhlar, D.G.
 J. Chem. Theory Comput. 2013, 9, 609-612.
 iSolventCode=          91
 Solvent: dimethylformamide                                               
 
Hirshfeld: reading atomic densities from disk.
warning:  vdwdata pointer should have been initialzed before dftman

 Charges (in A.U.) from CM5PAC (Nov. 11, 2011)
 -----------------------------------------------
 Center     Atomic      CM5         Hirshfeld
 Number     Number      Charge      Charge
 -----------------------------------------------
    1          6       -0.154237   -0.005000
    2          6       -0.110647   -0.005426
    3          6       -0.008886   -0.000966
    4          6       -0.010347   -0.000803
    5          6       -0.147055   -0.003980
    6          6        0.039497    0.006642
    7          8       -0.067416   -0.017404
    8          6       -0.001922   -0.000132
    9          6       -0.052105   -0.000476
   10          6       -0.058252   -0.002849
   11          6       -0.058211   -0.002807
   12          6       -0.052024   -0.000398
   13          6       -0.001781   -0.000002
   14          6        0.039385    0.006599
   15          8       -0.069560   -0.017880
   16          1        0.053492    0.002596
   17          1        0.057292    0.004271
   18          1        0.055008    0.003256
   19          1        0.059266    0.002796
   20          1        0.066320    0.005207
   21          1        0.059254    0.004380
   22          1        0.056077    0.002111
   23          1        0.058062    0.004223
   24          1        0.065887    0.005343
   25          1        0.058836    0.003050
   26          1        0.058842    0.003054
   27          1        0.066012    0.005382
 -----------------------------------------------

 Dipole moment (in Debye)
 -----------------------------------------------
                 X        Y        Z     Total
 -----------------------------------------------
 CM5         -0.1835  -0.0069   0.0297   0.1860
 Hirshfeld   -0.0408   0.0130   0.0250   0.0496
 -----------------------------------------------

 A restricted SCF calculation will be
 performed using DIIS
 SCF converges when DIIS error is below 1.0e-08
 ---------------------------------------
  Cycle       Energy         DIIS error
 ---------------------------------------
Hirshfeld: reading atomic densities from disk.

 Charges (in A.U.) from CM5PAC (Nov. 11, 2011)
 -----------------------------------------------
 Center     Atomic      CM5         Hirshfeld
 Number     Number      Charge      Charge
 -----------------------------------------------
    1          6       -0.431837   -0.282599
    2          6       -0.285743   -0.180522
    3          6       -0.000688    0.007231
    4          6        0.016758    0.026302
    5          6       -0.412564   -0.269489
    6          6        0.401106    0.368251
    7          8       -0.497121   -0.447109
    8          6       -0.027494   -0.025703
    9          6       -0.146901   -0.095273
   10          6       -0.146894   -0.091491
   11          6       -0.146478   -0.091074
   12          6       -0.147646   -0.096020
   13          6       -0.026771   -0.024992
   14          6        0.400524    0.367738
   15          8       -0.495323   -0.443643
   16          1        0.153888    0.102992
   17          1        0.144994    0.091973
   18          1        0.148678    0.096926
   19          1        0.159331    0.102861
   20          1        0.151268    0.090154
   21          1        0.159813    0.104939
   22          1        0.158349    0.104383
   23          1        0.161868    0.108029
   24          1        0.173446    0.112903
   25          1        0.181394    0.125608
   26          1        0.181399    0.125611
   27          1        0.173208    0.112578
 -----------------------------------------------

 Dipole moment (in Debye)
 -----------------------------------------------
                 X        Y        Z     Total
 -----------------------------------------------
 CM5          0.3220  -0.1993   0.2130   0.4345
 Hirshfeld    0.4646  -0.1794   0.2084   0.5399
 -----------------------------------------------

    1    -656.5895599137      3.19e-02  
Hirshfeld: reading atomic densities from disk.

 Charges (in A.U.) from CM5PAC (Nov. 11, 2011)
 -----------------------------------------------
 Center     Atomic      CM5         Hirshfeld
 Number     Number      Charge      Charge
 -----------------------------------------------
    1          6        0.026740    0.175978
    2          6        0.018735    0.123956
    3          6       -0.051952   -0.044033
    4          6       -0.088585   -0.079041
    5          6       -0.003079    0.139995
    6          6       -0.283328   -0.316184
    7          8        0.182932    0.232944
    8          6       -0.086862   -0.085071
    9          6        0.010305    0.061933
   10          6        0.033413    0.088816
   11          6        0.033162    0.088566
   12          6        0.011448    0.063073
   13          6       -0.086238   -0.084460
   14          6       -0.273492   -0.306278
   15          8        0.200004    0.251684
   16          1        0.010728   -0.040168
   17          1        0.008719   -0.044302
   18          1        0.003385   -0.048367
   19          1        0.028303   -0.028166
   20          1        0.026966   -0.034147
   21          1        0.033695   -0.021180
   22          1        0.038701   -0.015265
   23          1        0.033917   -0.019922
   24          1        0.041488   -0.019055
   25          1        0.045124   -0.010663
   26          1        0.045059   -0.010728
   27          1        0.041463   -0.019167
 -----------------------------------------------

 Dipole moment (in Debye)
 -----------------------------------------------
                 X        Y        Z     Total
 -----------------------------------------------
 CM5          0.9221   0.8588   0.1406   1.2679
 Hirshfeld    1.0647   0.8787   0.1359   1.3872
 -----------------------------------------------

    2    -652.9514830525      3.85e-03  
Hirshfeld: reading atomic densities from disk.

 Charges (in A.U.) from CM5PAC (Nov. 11, 2011)
 -----------------------------------------------
 Center     Atomic      CM5         Hirshfeld
 Number     Number      Charge      Charge
 -----------------------------------------------
    1          6       -0.191235   -0.041997
    2          6       -0.133783   -0.028562
    3          6        0.041220    0.049140
    4          6        0.052491    0.062035
    5          6       -0.180634   -0.037559
    6          6        0.248251    0.215396
    7          8       -0.430108   -0.380096
    8          6        0.038119    0.039909
    9          6       -0.063842   -0.012213
   10          6       -0.077973   -0.022570
   11          6       -0.078359   -0.022955
   12          6       -0.063939   -0.012314
   13          6        0.037204    0.038983
   14          6        0.246815    0.214029
   15          8       -0.433810   -0.382129
   16          1        0.073448    0.022552
   17          1        0.070166    0.017145
   18          1        0.067561    0.015809
   19          1        0.078948    0.022479
   20          1        0.080151    0.019038
   21          1        0.081137    0.026263
   22          1        0.077875    0.023908
   23          1        0.082375    0.028536
   24          1        0.091780    0.031237
   25          1        0.097522    0.041736
   26          1        0.097485    0.041697
   27          1        0.091862    0.031232
 -----------------------------------------------

 Dipole moment (in Debye)
 -----------------------------------------------
                 X        Y        Z     Total
 -----------------------------------------------
 CM5          0.1501  -0.1331   0.1736   0.2653
 Hirshfeld    0.2928  -0.1132   0.1689   0.3565
 -----------------------------------------------

    3    -652.6125257550      6.07e-03  
Hirshfeld: reading atomic densities from disk.

 Charges (in A.U.) from CM5PAC (Nov. 11, 2011)
 -----------------------------------------------
 Center     Atomic      CM5         Hirshfeld
 Number     Number      Charge      Charge
 -----------------------------------------------
    1          6       -0.243335   -0.094098
    2          6       -0.161660   -0.056439
    3          6       -0.008459   -0.000539
    4          6       -0.008667    0.000877
    5          6       -0.233381   -0.090307
    6          6        0.172451    0.139596
    7          8       -0.276254   -0.226242
    8          6       -0.035363   -0.033572
    9          6       -0.078152   -0.026524
   10          6       -0.073077   -0.017674
   11          6       -0.072892   -0.017488
   12          6       -0.078139   -0.026514
   13          6       -0.034798   -0.033019
   14          6        0.173392    0.140606
   15          8       -0.270211   -0.218530
   16          1        0.093814    0.042918
   17          1        0.087096    0.034075
   18          1        0.084645    0.032893
   19          1        0.098056    0.041586
   20          1        0.098683    0.037570
   21          1        0.102803    0.047929
   22          1        0.098866    0.044899
   23          1        0.103991    0.050152
   24          1        0.113521    0.052977
   25          1        0.117212    0.061426
   26          1        0.117150    0.061363
   27          1        0.113412    0.052782
 -----------------------------------------------

 Dipole moment (in Debye)
 -----------------------------------------------
                 X        Y        Z     Total
 -----------------------------------------------
 CM5          0.6234   0.1322   0.1771   0.6614
 Hirshfeld    0.7661   0.1521   0.1724   0.7998
 -----------------------------------------------

    4    -653.1984173455      1.46e-03  
Hirshfeld: reading atomic densities from disk.

 Charges (in A.U.) from CM5PAC (Nov. 11, 2011)
 -----------------------------------------------
 Center     Atomic      CM5         Hirshfeld
 Number     Number      Charge      Charge
 -----------------------------------------------
    1          6       -0.223355   -0.074117
    2          6       -0.147271   -0.042050
    3          6        0.001404    0.009323
    4          6        0.000752    0.010296
    5          6       -0.220086   -0.077012
    6          6        0.162962    0.130107
    7          8       -0.297155   -0.247143
    8          6       -0.021299   -0.019508
    9          6       -0.073199   -0.021570
   10          6       -0.072814   -0.017411
   11          6       -0.072973   -0.017569
   12          6       -0.073166   -0.021541
   13          6       -0.021210   -0.019432
   14          6        0.166228    0.133442
   15          8       -0.295518   -0.243837
   16          1        0.087099    0.036203
   17          1        0.082097    0.029076
   18          1        0.080387    0.028635
   19          1        0.094258    0.037788
   20          1        0.093599    0.032486
   21          1        0.099398    0.044523
   22          1        0.097173    0.043206
   23          1        0.100047    0.046208
   24          1        0.111389    0.050845
   25          1        0.115310    0.059524
   26          1        0.115259    0.059471
   27          1        0.111387    0.050757
 -----------------------------------------------

 Dipole moment (in Debye)
 -----------------------------------------------
                 X        Y        Z     Total
 -----------------------------------------------
 CM5          0.5211   0.1185   0.1962   0.5693
 Hirshfeld    0.6638   0.1384   0.1915   0.7046
 -----------------------------------------------

    5    -653.2386901883      3.18e-04  
Hirshfeld: reading atomic densities from disk.

 Charges (in A.U.) from CM5PAC (Nov. 11, 2011)
 -----------------------------------------------
 Center     Atomic      CM5         Hirshfeld
 Number     Number      Charge      Charge
 -----------------------------------------------
    1          6       -0.226856   -0.077619
    2          6       -0.152011   -0.046789
    3          6       -0.001171    0.006748
    4          6        0.001761    0.011305
    5          6       -0.219994   -0.076919
    6          6        0.173162    0.140307
    7          8       -0.297981   -0.247969
    8          6       -0.020183   -0.018392
    9          6       -0.075575   -0.023946
   10          6       -0.074238   -0.018835
   11          6       -0.074190   -0.018786
   12          6       -0.075518   -0.023893
   13          6       -0.020089   -0.018310
   14          6        0.173392    0.140606
   15          8       -0.293060   -0.241380
   16          1        0.087913    0.037017
   17          1        0.082900    0.029879
   18          1        0.080816    0.029064
   19          1        0.094318    0.037848
   20          1        0.094134    0.033021
   21          1        0.098519    0.043645
   22          1        0.095865    0.041898
   23          1        0.099527    0.045688
   24          1        0.110209    0.049665
   25          1        0.114459    0.058673
   26          1        0.114407    0.058619
   27          1        0.110188    0.049558
 -----------------------------------------------

 Dipole moment (in Debye)
 -----------------------------------------------
                 X        Y        Z     Total
 -----------------------------------------------
 CM5          0.4866   0.1004   0.1848   0.5301
 Hirshfeld    0.6292   0.1203   0.1802   0.6655
 -----------------------------------------------

    6    -653.2400587176      9.05e-05  
Hirshfeld: reading atomic densities from disk.

 Charges (in A.U.) from CM5PAC (Nov. 11, 2011)
 -----------------------------------------------
 Center     Atomic      CM5         Hirshfeld
 Number     Number      Charge      Charge
 -----------------------------------------------
    1          6       -0.227082   -0.077844
    2          6       -0.150947   -0.045726
    3          6        0.000993    0.008912
    4          6        0.000555    0.010099
    5          6       -0.220899   -0.077824
    6          6        0.170878    0.138023
    7          8       -0.297311   -0.247299
    8          6       -0.022370   -0.020579
    9          6       -0.074128   -0.022500
   10          6       -0.072821   -0.017418
   11          6       -0.072894   -0.017491
   12          6       -0.074088   -0.022463
   13          6       -0.022094   -0.020315
   14          6        0.173519    0.140733
   15          8       -0.294981   -0.243301
   16          1        0.088039    0.037143
   17          1        0.082871    0.029850
   18          1        0.080795    0.029043
   19          1        0.094283    0.037813
   20          1        0.094130    0.033017
   21          1        0.098838    0.043964
   22          1        0.096209    0.042243
   23          1        0.099816    0.045977
   24          1        0.110328    0.049785
   25          1        0.114405    0.058619
   26          1        0.114348    0.058561
   27          1        0.110313    0.049684
 -----------------------------------------------

 Dipole moment (in Debye)
 -----------------------------------------------
                 X        Y        Z     Total
 -----------------------------------------------
 CM5          0.5243   0.1070   0.1882   0.5672
 Hirshfeld    0.6669   0.1269   0.1835   0.7033
 -----------------------------------------------

    7    -653.2404428128      2.54e-05  
Hirshfeld: reading atomic densities from disk.

 Charges (in A.U.) from CM5PAC (Nov. 11, 2011)
 -----------------------------------------------
 Center     Atomic      CM5         Hirshfeld
 Number     Number      Charge      Charge
 -----------------------------------------------
    1          6       -0.226931   -0.077693
    2          6       -0.151067   -0.045846
    3          6        0.000039    0.007959
    4          6        0.001195    0.010739
    5          6       -0.220758   -0.077683
    6          6        0.171328    0.138472
    7          8       -0.297854   -0.247842
    8          6       -0.021414   -0.019623
    9          6       -0.074510   -0.022881
   10          6       -0.073469   -0.018066
   11          6       -0.073495   -0.018091
   12          6       -0.074482   -0.022856
   13          6       -0.021307   -0.019528
   14          6        0.172736    0.139950
   15          8       -0.294117   -0.242437
   16          1        0.088032    0.037136
   17          1        0.082845    0.029824
   18          1        0.080791    0.029039
   19          1        0.094326    0.037857
   20          1        0.094137    0.033024
   21          1        0.098854    0.043980
   22          1        0.096185    0.042219
   23          1        0.099804    0.045965
   24          1        0.110410    0.049866
   25          1        0.114543    0.058757
   26          1        0.114489    0.058702
   27          1        0.110391    0.049761
 -----------------------------------------------

 Dipole moment (in Debye)
 -----------------------------------------------
                 X        Y        Z     Total
 -----------------------------------------------
 CM5          0.5110   0.1078   0.1864   0.5545
 Hirshfeld    0.6536   0.1277   0.1817   0.6903
 -----------------------------------------------

    8    -653.2403821719      1.09e-05  
Hirshfeld: reading atomic densities from disk.

 Charges (in A.U.) from CM5PAC (Nov. 11, 2011)
 -----------------------------------------------
 Center     Atomic      CM5         Hirshfeld
 Number     Number      Charge      Charge
 -----------------------------------------------
    1          6       -0.226895   -0.077657
    2          6       -0.151108   -0.045887
    3          6        0.000126    0.008046
    4          6        0.001067    0.010611
    5          6       -0.220707   -0.077632
    6          6        0.171221    0.138366
    7          8       -0.297598   -0.247586
    8          6       -0.021430   -0.019640
    9          6       -0.074645   -0.023017
   10          6       -0.073430   -0.018027
   11          6       -0.073466   -0.018063
   12          6       -0.074590   -0.022965
   13          6       -0.021240   -0.019461
   14          6        0.172995    0.140209
   15          8       -0.294403   -0.242723
   16          1        0.088012    0.037117
   17          1        0.082848    0.029827
   18          1        0.080796    0.029044
   19          1        0.094326    0.037856
   20          1        0.094138    0.033025
   21          1        0.098842    0.043968
   22          1        0.096182    0.042216
   23          1        0.099788    0.045949
   24          1        0.110422    0.049879
   25          1        0.114551    0.058765
   26          1        0.114495    0.058708
   27          1        0.110405    0.049775
 -----------------------------------------------

 Dipole moment (in Debye)
 -----------------------------------------------
                 X        Y        Z     Total
 -----------------------------------------------
 CM5          0.5109   0.1046   0.1877   0.5542
 Hirshfeld    0.6535   0.1245   0.1830   0.6900
 -----------------------------------------------

    9    -653.2403984027      2.14e-06  
Hirshfeld: reading atomic densities from disk.

 Charges (in A.U.) from CM5PAC (Nov. 11, 2011)
 -----------------------------------------------
 Center     Atomic      CM5         Hirshfeld
 Number     Number      Charge      Charge
 -----------------------------------------------
    1          6       -0.226913   -0.077676
    2          6       -0.151097   -0.045876
    3          6        0.000158    0.008077
    4          6        0.001074    0.010618
    5          6       -0.220722   -0.077648
    6          6        0.171296    0.138441
    7          8       -0.297760   -0.247748
    8          6       -0.021481   -0.019691
    9          6       -0.074575   -0.022947
   10          6       -0.073402   -0.017999
   11          6       -0.073434   -0.018030
   12          6       -0.074538   -0.022913
   13          6       -0.021324   -0.019545
   14          6        0.172938    0.140152
   15          8       -0.294307   -0.242627
   16          1        0.088014    0.037118
   17          1        0.082852    0.029831
   18          1        0.080799    0.029047
   19          1        0.094326    0.037856
   20          1        0.094138    0.033025
   21          1        0.098843    0.043969
   22          1        0.096187    0.042221
   23          1        0.099791    0.045952
   24          1        0.110417    0.049874
   25          1        0.114542    0.058755
   26          1        0.114486    0.058699
   27          1        0.110399    0.049769
 -----------------------------------------------

 Dipole moment (in Debye)
 -----------------------------------------------
                 X        Y        Z     Total
 -----------------------------------------------
 CM5          0.5116   0.1069   0.1870   0.5551
 Hirshfeld    0.6542   0.1268   0.1823   0.6909
 -----------------------------------------------

   10    -653.2403985982      1.28e-06  
Hirshfeld: reading atomic densities from disk.

 Charges (in A.U.) from CM5PAC (Nov. 11, 2011)
 -----------------------------------------------
 Center     Atomic      CM5         Hirshfeld
 Number     Number      Charge      Charge
 -----------------------------------------------
    1          6       -0.226921   -0.077684
    2          6       -0.151093   -0.045872
    3          6        0.000134    0.008053
    4          6        0.001105    0.010650
    5          6       -0.220733   -0.077658
    6          6        0.171289    0.138433
    7          8       -0.297735   -0.247723
    8          6       -0.021465   -0.019674
    9          6       -0.074564   -0.022935
   10          6       -0.073421   -0.018018
   11          6       -0.073456   -0.018052
   12          6       -0.074522   -0.022897
   13          6       -0.021311   -0.019532
   14          6        0.172939    0.140153
   15          8       -0.294341   -0.242660
   16          1        0.088017    0.037121
   17          1        0.082852    0.029831
   18          1        0.080800    0.029048
   19          1        0.094327    0.037857
   20          1        0.094138    0.033025
   21          1        0.098844    0.043970
   22          1        0.096187    0.042220
   23          1        0.099793    0.045954
   24          1        0.110415    0.049871
   25          1        0.114542    0.058756
   26          1        0.114487    0.058699
   27          1        0.110397    0.049768
 -----------------------------------------------

 Dipole moment (in Debye)
 -----------------------------------------------
                 X        Y        Z     Total
 -----------------------------------------------
 CM5          0.5115   0.1060   0.1872   0.5549
 Hirshfeld    0.6541   0.1259   0.1825   0.6907
 -----------------------------------------------

   11    -653.2403973512      3.05e-07  
Hirshfeld: reading atomic densities from disk.

 Charges (in A.U.) from CM5PAC (Nov. 11, 2011)
 -----------------------------------------------
 Center     Atomic      CM5         Hirshfeld
 Number     Number      Charge      Charge
 -----------------------------------------------
    1          6       -0.226917   -0.077679
    2          6       -0.151091   -0.045870
    3          6        0.000148    0.008068
    4          6        0.001090    0.010634
    5          6       -0.220731   -0.077657
    6          6        0.171288    0.138432
    7          8       -0.297743   -0.247732
    8          6       -0.021465   -0.019675
    9          6       -0.074573   -0.022945
   10          6       -0.073417   -0.018013
   11          6       -0.073450   -0.018046
   12          6       -0.074532   -0.022907
   13          6       -0.021306   -0.019528
   14          6        0.172943    0.140157
   15          8       -0.294335   -0.242654
   16          1        0.088016    0.037120
   17          1        0.082851    0.029830
   18          1        0.080798    0.029046
   19          1        0.094326    0.037856
   20          1        0.094138    0.033025
   21          1        0.098844    0.043969
   22          1        0.096187    0.042221
   23          1        0.099793    0.045953
   24          1        0.110416    0.049873
   25          1        0.114542    0.058756
   26          1        0.114487    0.058699
   27          1        0.110398    0.049768
 -----------------------------------------------

 Dipole moment (in Debye)
 -----------------------------------------------
                 X        Y        Z     Total
 -----------------------------------------------
 CM5          0.5114   0.1064   0.1871   0.5549
 Hirshfeld    0.6541   0.1263   0.1824   0.6907
 -----------------------------------------------

   12    -653.2403977512      1.31e-07  
Hirshfeld: reading atomic densities from disk.

 Charges (in A.U.) from CM5PAC (Nov. 11, 2011)
 -----------------------------------------------
 Center     Atomic      CM5         Hirshfeld
 Number     Number      Charge      Charge
 -----------------------------------------------
    1          6       -0.226916   -0.077679
    2          6       -0.151093   -0.045872
    3          6        0.000144    0.008064
    4          6        0.001094    0.010638
    5          6       -0.220729   -0.077654
    6          6        0.171289    0.138434
    7          8       -0.297743   -0.247731
    8          6       -0.021466   -0.019676
    9          6       -0.074572   -0.022944
   10          6       -0.073415   -0.018012
   11          6       -0.073449   -0.018045
   12          6       -0.074532   -0.022906
   13          6       -0.021309   -0.019531
   14          6        0.172943    0.140157
   15          8       -0.294336   -0.242656
   16          1        0.088016    0.037120
   17          1        0.082851    0.029830
   18          1        0.080798    0.029046
   19          1        0.094326    0.037856
   20          1        0.094138    0.033025
   21          1        0.098843    0.043969
   22          1        0.096187    0.042220
   23          1        0.099792    0.045953
   24          1        0.110416    0.049872
   25          1        0.114542    0.058756
   26          1        0.114487    0.058699
   27          1        0.110398    0.049768
 -----------------------------------------------

 Dipole moment (in Debye)
 -----------------------------------------------
                 X        Y        Z     Total
 -----------------------------------------------
 CM5          0.5115   0.1063   0.1871   0.5549
 Hirshfeld    0.6541   0.1262   0.1825   0.6907
 -----------------------------------------------

   13    -653.2403976861      3.12e-08  
Hirshfeld: reading atomic densities from disk.

 Charges (in A.U.) from CM5PAC (Nov. 11, 2011)
 -----------------------------------------------
 Center     Atomic      CM5         Hirshfeld
 Number     Number      Charge      Charge
 -----------------------------------------------
    1          6       -0.226917   -0.077679
    2          6       -0.151093   -0.045871
    3          6        0.000146    0.008065
    4          6        0.001093    0.010637
    5          6       -0.220729   -0.077655
    6          6        0.171289    0.138434
    7          8       -0.297743   -0.247731
    8          6       -0.021466   -0.019675
    9          6       -0.074572   -0.022943
   10          6       -0.073416   -0.018013
   11          6       -0.073450   -0.018046
   12          6       -0.074531   -0.022906
   13          6       -0.021308   -0.019530
   14          6        0.172943    0.140157
   15          8       -0.294336   -0.242656
   16          1        0.088016    0.037120
   17          1        0.082851    0.029830
   18          1        0.080799    0.029047
   19          1        0.094326    0.037856
   20          1        0.094138    0.033025
   21          1        0.098843    0.043969
   22          1        0.096187    0.042220
   23          1        0.099792    0.045953
   24          1        0.110416    0.049872
   25          1        0.114542    0.058756
   26          1        0.114487    0.058699
   27          1        0.110398    0.049768
 -----------------------------------------------

 Dipole moment (in Debye)
 -----------------------------------------------
                 X        Y        Z     Total
 -----------------------------------------------
 CM5          0.5115   0.1063   0.1871   0.5549
 Hirshfeld    0.6541   0.1262   0.1825   0.6907
 -----------------------------------------------

   14    -653.2403976271      1.33e-08  
   15    -653.2403976620      3.85e-09  Convergence criterion met
 ---------------------------------------
 SCF time:   CPU 3844.43s  wall 485.00s 
(1)  E-EN(liq) elect-nuc energy of solute               -653.240397662 a.u.
(2)  G-P(liq) polarization free energy of solvation            -3.4337 kcal/mol
(3)  G-ENP(liq) elect-nuc-pol free energy of system     -653.245869670 a.u.
(4)  G-CDS(liq) cavity-dispersion-solvent structure 
     free energy                                               -6.9765 kcal/mol
(5)  G-P-CDS(liq) = G-P(liq) + G-CDS(liq) = (2) + (4)         -10.4102 kcal/mol
(6)  G-S(liq) free energy of system = (1) + (5)         -653.256987443 a.u.
 SCF   energy in the final basis set =     -653.2569874428
 Total energy in the final basis set =     -653.2569874428
 
 --------------------------------------------------------------
 
                    Orbital Energies (a.u.)
 --------------------------------------------------------------
 
 Alpha MOs
 -- Occupied --
-19.1293 -19.1290 -10.2781 -10.2773 -10.2123 -10.2094 -10.2052 -10.2047
-10.1963 -10.1960 -10.1956 -10.1954 -10.1776 -10.1712 -10.1642  -1.0634
 -1.0616  -0.8881  -0.8511  -0.7905  -0.7758  -0.7673  -0.7174  -0.6793
 -0.6542  -0.6252  -0.6004  -0.5812  -0.5489  -0.5171  -0.4968  -0.4760
 -0.4622  -0.4553  -0.4543  -0.4494  -0.4360  -0.4312  -0.4237  -0.4077
 -0.4059  -0.3946  -0.3863  -0.3789  -0.3728  -0.3677  -0.3583  -0.3469
 -0.2892  -0.2851  -0.2766  -0.2710  -0.2691
 -- Virtual --
 -0.1205  -0.0545  -0.0285  -0.0033   0.0066   0.0156   0.0194   0.0237
  0.0260   0.0277   0.0430   0.0473   0.0482   0.0513   0.0542   0.0637
  0.0649   0.0719   0.0745   0.0771   0.0837   0.0887   0.0895   0.0938
  0.1050   0.1100   0.1122   0.1168   0.1241   0.1244   0.1252   0.1304
  0.1342   0.1362   0.1393   0.1417   0.1477   0.1486   0.1510   0.1524
  0.1569   0.1606   0.1656   0.1665   0.1698   0.1709   0.1779   0.1815
  0.1842   0.1847   0.1915   0.1951   0.1975   0.2025   0.2050   0.2108
  0.2150   0.2181   0.2261   0.2287   0.2369   0.2380   0.2435   0.2458
  0.2480   0.2535   0.2553   0.2635   0.2669   0.2759   0.2839   0.2845
  0.2913   0.2946   0.3024   0.3042   0.3097   0.3153   0.3199   0.3227
  0.3274   0.3334   0.3364   0.3390   0.3405   0.3460   0.3505   0.3581
  0.3615   0.3696   0.3831   0.3884   0.3953   0.4103   0.4122   0.4170
  0.4309   0.4374   0.4603   0.4869   0.4889   0.4924   0.5130   0.5222
  0.5270   0.5357   0.5446   0.5465   0.5517   0.5570   0.5750   0.5906
  0.5928   0.5950   0.6031   0.6100   0.6204   0.6258   0.6362   0.6400
  0.6463   0.6532   0.6542   0.6593   0.6616   0.6675   0.6858   0.6873
  0.6965   0.7009   0.7077   0.7111   0.7139   0.7241   0.7324   0.7365
  0.7545   0.7610   0.7632   0.7696   0.7869   0.8070   0.8203   0.8263
  0.8525   0.8576   0.8677   0.8734   0.8923   0.9070   0.9234   0.9328
  0.9337   0.9357   0.9465   0.9558   0.9586   0.9755   0.9861   1.0048
  1.0224   1.0347   1.0389   1.0497   1.0613   1.0676   1.0797   1.0904
  1.1158   1.1194   1.1277   1.1452   1.1537   1.1893   1.2171   1.2260
  1.2277   1.2362   1.2638   1.2722   1.3016   1.3236   1.3579   1.3657
  1.3786   1.4158   1.4165   1.4406   1.4712   1.4743   1.4871   1.4920
  1.4996   1.5057   1.5063   1.5241   1.5340   1.5478   1.5610   1.5734
  1.5912   1.5924   1.6024   1.6166   1.6299   1.6374   1.6535   1.6570
  1.6619   1.6758   1.6856   1.6963   1.7268   1.7356   1.7394   1.7507
  1.7549   1.7745   1.7884   1.8004   1.8103   1.8159   1.8469   1.8664
  1.8909   1.8961   1.9028   1.9139   1.9178   1.9274   1.9454   1.9552
  1.9594   1.9660   1.9936   2.0026   2.0211   2.0569   2.0614   2.0909
  2.1129   2.1153   2.1227   2.1350   2.1656   2.2111   2.2189   2.2561
  2.2604   2.2763   2.2788   2.3390   2.3481   2.3622   2.3717   2.4045
  2.4328   2.4583   2.4783   2.4834   2.4968   2.5234   2.5490   2.5530
  2.5799   2.5878   2.5883   2.6127   2.6225   2.6349   2.6418   2.6701
  2.6902   2.6970   2.7047   2.7282   2.7362   2.7415   2.7551   2.7596
  2.7676   2.7734   2.7900   2.7997   2.8183   2.8312   2.8426   2.8579
  2.8671   2.8700   2.8801   2.8908   2.8976   2.9220   2.9296   2.9557
  2.9736   3.0465   3.0573   3.0663   3.0923   3.1166   3.1763   3.2095
  3.2233   3.2453   3.2646   3.3107   3.3298   3.3484   3.3558   3.4072
  3.4415   3.5128   3.5308   3.5452   3.5843   3.5866   3.6514   3.7892
  3.7956   3.8029   3.8167   3.8217   3.8475   3.8966   3.9156   4.0290
  4.0632   4.1838   4.1919   4.2200   4.2378   4.3774   4.3898   4.7523
  4.8380   5.0536   5.0735   5.2447   5.2702   5.7235   5.8031  23.5467
 23.6933  23.8485  23.9069  23.9195  23.9433  23.9525  23.9801  24.0082
 24.0560  24.0823  24.1661  24.1721  50.0223  50.0678
 --------------------------------------------------------------
 
          Ground-State Mulliken Net Atomic Charges

     Atom                 Charge (a.u.)
  ----------------------------------------
      1 C                    -0.589517
      2 C                     0.130008
      3 C                     0.778971
      4 C                     0.935115
      5 C                     0.217181
      6 C                    -1.652779
      7 O                    -0.265934
      8 C                     0.118626
      9 C                    -0.014526
     10 C                     0.259867
     11 C                     0.284696
     12 C                    -0.078002
     13 C                    -0.005677
     14 C                    -2.346357
     15 O                    -0.261491
     16 H                     0.180259
     17 H                     0.132346
     18 H                     0.146773
     19 H                     0.233934
     20 H                     0.159021
     21 H                     0.181376
     22 H                     0.247091
     23 H                     0.192465
     24 H                     0.188313
     25 H                     0.319355
     26 H                     0.319930
     27 H                     0.188955
  ----------------------------------------
  Sum of atomic charges =     0.000000

 -----------------------------------------------------------------
                    Cartesian Multipole Moments
 -----------------------------------------------------------------
    Charge (ESU x 10^10)
                 0.0000
    Dipole Moment (Debye)
         X       0.5828      Y       0.1567      Z       0.1699
       Tot       0.6269
    Quadrupole Moments (Debye-Ang)
        XX     -67.6055     XY       5.4123     YY     -99.6326
        XZ       1.8916     YZ       4.2498     ZZ     -90.9797
    Octopole Moments (Debye-Ang^2)
       XXX     -40.5247    XXY       9.4998    XYY     -31.4811
       YYY      21.5247    XXZ       8.7099    XYZ      -3.2501
       YYZ      -0.6242    XZZ     -39.1348    YZZ      -0.6505
       ZZZ       4.6909
    Hexadecapole Moments (Debye-Ang^3)
      XXXX   -2463.0070   XXXY      25.0951   XXYY    -626.4850
      XYYY      48.3929   YYYY   -1381.1409   XXXZ     -42.9629
      XXYZ      19.1320   XYYZ     -44.2877   YYYZ     186.3961
      XXZZ    -540.2003   XYZZ      -3.2496   YYZZ    -269.6407
      XZZZ    -118.9801   YZZZ     139.2459   ZZZZ    -279.8213
 -----------------------------------------------------------------
 Total job time:  491.44s(wall), 3850.87s(cpu) 
 Sat Feb  3 13:23:30 2024

        *************************************************************
        *                                                           *
        *  Thank you very much for using Q-Chem.  Have a nice day.  *
        *                                                           *
        *************************************************************


