 Entering Gaussian System, Link 0=g16
 Input=344.com
 Output=344.log
 Initial command:
 /sysapps/ubuntu-applications/gaussian/Gaussian/AVX2/g16/l1.exe "/scratch/selhajj1/4265619/Gau-2339071.inp" -scrdir="/scratch/selhajj1/4265619/"
 Entering Link 1 = /sysapps/ubuntu-applications/gaussian/Gaussian/AVX2/g16/l1.exe PID=   2339084.
  
 Copyright (c) 1988,1990,1992,1993,1995,1998,2003,2009,2016,
            Gaussian, Inc.  All Rights Reserved.
  
 This is part of the Gaussian(R) 16 program.  It is based on
 the Gaussian(R) 09 system (copyright 2009, Gaussian, Inc.),
 the Gaussian(R) 03 system (copyright 2003, Gaussian, Inc.),
 the Gaussian(R) 98 system (copyright 1998, Gaussian, Inc.),
 the Gaussian(R) 94 system (copyright 1995, Gaussian, Inc.),
 the Gaussian 92(TM) system (copyright 1992, Gaussian, Inc.),
 the Gaussian 90(TM) system (copyright 1990, Gaussian, Inc.),
 the Gaussian 88(TM) system (copyright 1988, Gaussian, Inc.),
 the Gaussian 86(TM) system (copyright 1986, Carnegie Mellon
 University), and the Gaussian 82(TM) system (copyright 1983,
 Carnegie Mellon University). Gaussian is a federally registered
 trademark of Gaussian, Inc.
  
 This software contains proprietary and confidential information,
 including trade secrets, belonging to Gaussian, Inc.
  
 This software is provided under written license and may be
 used, copied, transmitted, or stored only in accord with that
 written license.
  
 The following legend is applicable only to US Government
 contracts under FAR:
  
                    RESTRICTED RIGHTS LEGEND
  
 Use, reproduction and disclosure by the US Government is
 subject to restrictions as set forth in subparagraphs (a)
 and (c) of the Commercial Computer Software - Restricted
 Rights clause in FAR 52.227-19.
  
 Gaussian, Inc.
 340 Quinnipiac St., Bldg. 40, Wallingford CT 06492
  
  
 ---------------------------------------------------------------
 Warning -- This program may not be used in any manner that
 competes with the business of Gaussian, Inc. or will provide
 assistance to any competitor of Gaussian, Inc.  The licensee
 of this program is prohibited from giving any competitor of
 Gaussian, Inc. access to this program.  By using this program,
 the user acknowledges that Gaussian, Inc. is engaged in the
 business of creating and licensing software in the field of
 computational chemistry and represents and warrants to the
 licensee that it is not a competitor of Gaussian, Inc. and that
 it will not use this program in any manner prohibited above.
 ---------------------------------------------------------------
  

 Cite this work as:
 Gaussian 16, Revision A.03,
 M. J. Frisch, G. W. Trucks, H. B. Schlegel, G. E. Scuseria, 
 M. A. Robb, J. R. Cheeseman, G. Scalmani, V. Barone, 
 G. A. Petersson, H. Nakatsuji, X. Li, M. Caricato, A. V. Marenich, 
 J. Bloino, B. G. Janesko, R. Gomperts, B. Mennucci, H. P. Hratchian, 
 J. V. Ortiz, A. F. Izmaylov, J. L. Sonnenberg, D. Williams-Young, 
 F. Ding, F. Lipparini, F. Egidi, J. Goings, B. Peng, A. Petrone, 
 T. Henderson, D. Ranasinghe, V. G. Zakrzewski, J. Gao, N. Rega, 
 G. Zheng, W. Liang, M. Hada, M. Ehara, K. Toyota, R. Fukuda, 
 J. Hasegawa, M. Ishida, T. Nakajima, Y. Honda, O. Kitao, H. Nakai, 
 T. Vreven, K. Throssell, J. A. Montgomery, Jr., J. E. Peralta, 
 F. Ogliaro, M. J. Bearpark, J. J. Heyd, E. N. Brothers, K. N. Kudin, 
 V. N. Staroverov, T. A. Keith, R. Kobayashi, J. Normand, 
 K. Raghavachari, A. P. Rendell, J. C. Burant, S. S. Iyengar, 
 J. Tomasi, M. Cossi, J. M. Millam, M. Klene, C. Adamo, R. Cammi, 
 J. W. Ochterski, R. L. Martin, K. Morokuma, O. Farkas, 
 J. B. Foresman, and D. J. Fox, Gaussian, Inc., Wallingford CT, 2016.
 
 ******************************************
 Gaussian 16:  ES64L-G16RevA.03 25-Dec-2016
                 9-Jan-2024 
 ******************************************
 %chk=344.chk
 %nproc=8
 Will use up to    8 processors via shared memory.
 %mem=30GB
 --------------------------------------
 #P UB3LYP/6-311++G(d,p) nosym opt freq
 --------------------------------------
 1/18=20,19=15,26=3,38=1/1,3;
 2/9=110,12=2,15=1,17=6,18=5,40=1/2;
 3/5=4,6=6,7=1111,11=2,25=1,30=1,71=1,74=-5,116=2/1,2,3;
 4//1;
 5/5=2,38=5/2;
 6/7=2,8=2,9=2,10=2,28=1/1;
 7/30=1/1,2,3,16;
 1/18=20,19=15,26=3/3(2);
 2/9=110,15=1/2;
 99//99;
 2/9=110,15=1/2;
 3/5=4,6=6,7=1111,11=2,25=1,30=1,71=1,74=-5,116=2/1,2,3;
 4/5=5,16=3,69=1/1;
 5/5=2,38=5/2;
 7/30=1/1,2,3,16;
 1/18=20,19=15,26=3/3(-5);
 2/9=110,15=1/2;
 6/7=2,8=2,9=2,10=2,19=2,28=1/1;
 99/9=1/99;
 Leave Link    1 at Tue Jan  9 20:27:08 2024, MaxMem=  4026531840 cpu:               0.7 elap:               0.1
 (Enter /sysapps/ubuntu-applications/gaussian/Gaussian/AVX2/g16/l101.exe)
 --------
 Oxidized
 --------
 Symbolic Z-matrix:
 Charge =  0 Multiplicity = 1
 O                     0.05118  -2.1164   -1.47417 
 C                     0.02679  -1.11346  -0.77286 
 C                     1.32827  -0.56816  -0.26838 
 C                     2.35743  -1.52141  -0.16561 
 C                     3.6345   -1.17587   0.24331 
 C                     3.92729   0.16103   0.52714 
 C                     2.93387   1.11662   0.41212 
 C                     1.61211   0.78423   0.0393 
 C                     0.67162   1.88822  -0.02217 
 C                    -0.67615   1.88558  -0.06517 
 C                    -1.61433   0.77791  -0.0636 
 C                    -2.9584    1.10509   0.22443 
 C                    -3.95344   0.14566   0.27598 
 C                    -3.63807  -1.19001   0.01116 
 C                    -2.33625  -1.53051  -0.31568 
 C                    -1.30629  -0.5733   -0.35262 
 H                     2.12242  -2.54491  -0.42683 
 H                     4.40217  -1.93631   0.32777 
 H                     4.92637   0.45162   0.83183 
 H                     3.16342   2.15568   0.6218 
 H                     1.13959   2.86704   0.0323 
 H                    -1.1505    2.86254  -0.04081 
 H                    -3.20482   2.1432    0.41918 
 H                    -4.97097   0.43233   0.51658 
 H                    -4.40664  -1.9534    0.04649 
 H                    -2.08116  -2.55301  -0.5615 
 
 ITRead=  0  0  0  0  0  0  0  0  0  0  0  0  0  0  0  0  0  0  0  0
 ITRead=  0  0  0  0  0  0
 MicOpt= -1 -1 -1 -1 -1 -1 -1 -1 -1 -1 -1 -1 -1 -1 -1 -1 -1 -1 -1 -1
 MicOpt= -1 -1 -1 -1 -1 -1
 NAtoms=     26 NQM=       26 NQMF=       0 NMMI=      0 NMMIF=      0
                NMic=       0 NMicF=      0.
                    Isotopes and Nuclear Properties:
 (Nuclear quadrupole moments (NQMom) in fm**2, nuclear magnetic moments (NMagM)
  in nuclear magnetons)

  Atom         1           2           3           4           5           6           7           8           9          10
 IAtWgt=          16          12          12          12          12          12          12          12          12          12
 AtmWgt=  15.9949146  12.0000000  12.0000000  12.0000000  12.0000000  12.0000000  12.0000000  12.0000000  12.0000000  12.0000000
 NucSpn=           0           0           0           0           0           0           0           0           0           0
 AtZEff=  -0.0000000  -0.0000000  -0.0000000  -0.0000000  -0.0000000  -0.0000000  -0.0000000  -0.0000000  -0.0000000  -0.0000000
 NQMom=    0.0000000   0.0000000   0.0000000   0.0000000   0.0000000   0.0000000   0.0000000   0.0000000   0.0000000   0.0000000
 NMagM=    0.0000000   0.0000000   0.0000000   0.0000000   0.0000000   0.0000000   0.0000000   0.0000000   0.0000000   0.0000000
 AtZNuc=   8.0000000   6.0000000   6.0000000   6.0000000   6.0000000   6.0000000   6.0000000   6.0000000   6.0000000   6.0000000

  Atom        11          12          13          14          15          16          17          18          19          20
 IAtWgt=          12          12          12          12          12          12           1           1           1           1
 AtmWgt=  12.0000000  12.0000000  12.0000000  12.0000000  12.0000000  12.0000000   1.0078250   1.0078250   1.0078250   1.0078250
 NucSpn=           0           0           0           0           0           0           1           1           1           1
 AtZEff=  -0.0000000  -0.0000000  -0.0000000  -0.0000000  -0.0000000  -0.0000000  -0.0000000  -0.0000000  -0.0000000  -0.0000000
 NQMom=    0.0000000   0.0000000   0.0000000   0.0000000   0.0000000   0.0000000   0.0000000   0.0000000   0.0000000   0.0000000
 NMagM=    0.0000000   0.0000000   0.0000000   0.0000000   0.0000000   0.0000000   2.7928460   2.7928460   2.7928460   2.7928460
 AtZNuc=   6.0000000   6.0000000   6.0000000   6.0000000   6.0000000   6.0000000   1.0000000   1.0000000   1.0000000   1.0000000

  Atom        21          22          23          24          25          26
 IAtWgt=           1           1           1           1           1           1
 AtmWgt=   1.0078250   1.0078250   1.0078250   1.0078250   1.0078250   1.0078250
 NucSpn=           1           1           1           1           1           1
 AtZEff=  -0.0000000  -0.0000000  -0.0000000  -0.0000000  -0.0000000  -0.0000000
 NQMom=    0.0000000   0.0000000   0.0000000   0.0000000   0.0000000   0.0000000
 NMagM=    2.7928460   2.7928460   2.7928460   2.7928460   2.7928460   2.7928460
 AtZNuc=   1.0000000   1.0000000   1.0000000   1.0000000   1.0000000   1.0000000
 Leave Link  101 at Tue Jan  9 20:27:08 2024, MaxMem=  4026531840 cpu:               3.8 elap:               0.5
 (Enter /sysapps/ubuntu-applications/gaussian/Gaussian/AVX2/g16/l103.exe)

 GradGradGradGradGradGradGradGradGradGradGradGradGradGradGradGradGradGrad
 Berny optimization.
 Initialization pass.
                           ----------------------------
                           !    Initial Parameters    !
                           ! (Angstroms and Degrees)  !
 --------------------------                            --------------------------
 ! Name  Definition              Value          Derivative Info.                !
 --------------------------------------------------------------------------------
 ! R1    R(1,2)                  1.2241         estimate D2E/DX2                !
 ! R2    R(2,3)                  1.4986         estimate D2E/DX2                !
 ! R3    R(2,16)                 1.4985         estimate D2E/DX2                !
 ! R4    R(3,4)                  1.4066         estimate D2E/DX2                !
 ! R5    R(3,8)                  1.4157         estimate D2E/DX2                !
 ! R6    R(4,5)                  1.3847         estimate D2E/DX2                !
 ! R7    R(4,17)                 1.0821         estimate D2E/DX2                !
 ! R8    R(5,6)                  1.3977         estimate D2E/DX2                !
 ! R9    R(5,18)                 1.0838         estimate D2E/DX2                !
 ! R10   R(6,7)                  1.3832         estimate D2E/DX2                !
 ! R11   R(6,19)                 1.0842         estimate D2E/DX2                !
 ! R12   R(7,8)                  1.413          estimate D2E/DX2                !
 ! R13   R(7,20)                 1.0846         estimate D2E/DX2                !
 ! R14   R(8,9)                  1.4516         estimate D2E/DX2                !
 ! R15   R(9,10)                 1.3485         estimate D2E/DX2                !
 ! R16   R(9,21)                 1.0863         estimate D2E/DX2                !
 ! R17   R(10,11)                1.4516         estimate D2E/DX2                !
 ! R18   R(10,22)                1.0863         estimate D2E/DX2                !
 ! R19   R(11,12)                1.413          estimate D2E/DX2                !
 ! R20   R(11,16)                1.4157         estimate D2E/DX2                !
 ! R21   R(12,13)                1.3832         estimate D2E/DX2                !
 ! R22   R(12,23)                1.0846         estimate D2E/DX2                !
 ! R23   R(13,14)                1.3977         estimate D2E/DX2                !
 ! R24   R(13,24)                1.0842         estimate D2E/DX2                !
 ! R25   R(14,15)                1.3847         estimate D2E/DX2                !
 ! R26   R(14,25)                1.0838         estimate D2E/DX2                !
 ! R27   R(15,16)                1.4066         estimate D2E/DX2                !
 ! R28   R(15,26)                1.0821         estimate D2E/DX2                !
 ! A1    A(1,2,3)              118.2761         estimate D2E/DX2                !
 ! A2    A(1,2,16)             118.2781         estimate D2E/DX2                !
 ! A3    A(3,2,16)             123.164          estimate D2E/DX2                !
 ! A4    A(2,3,4)              114.4217         estimate D2E/DX2                !
 ! A5    A(2,3,8)              126.5056         estimate D2E/DX2                !
 ! A6    A(4,3,8)              119.0011         estimate D2E/DX2                !
 ! A7    A(3,4,5)              121.8204         estimate D2E/DX2                !
 ! A8    A(3,4,17)             117.6744         estimate D2E/DX2                !
 ! A9    A(5,4,17)             120.5031         estimate D2E/DX2                !
 ! A10   A(4,5,6)              119.4612         estimate D2E/DX2                !
 ! A11   A(4,5,18)             120.0762         estimate D2E/DX2                !
 ! A12   A(6,5,18)             120.4568         estimate D2E/DX2                !
 ! A13   A(5,6,7)              119.5683         estimate D2E/DX2                !
 ! A14   A(5,6,19)             120.4292         estimate D2E/DX2                !
 ! A15   A(7,6,19)             120.002          estimate D2E/DX2                !
 ! A16   A(6,7,8)              122.09           estimate D2E/DX2                !
 ! A17   A(6,7,20)             119.5887         estimate D2E/DX2                !
 ! A18   A(8,7,20)             118.3186         estimate D2E/DX2                !
 ! A19   A(3,8,7)              118.0099         estimate D2E/DX2                !
 ! A20   A(3,8,9)              125.9747         estimate D2E/DX2                !
 ! A21   A(7,8,9)              115.9975         estimate D2E/DX2                !
 ! A22   A(8,9,10)             130.3486         estimate D2E/DX2                !
 ! A23   A(8,9,21)             113.8317         estimate D2E/DX2                !
 ! A24   A(10,9,21)            115.718          estimate D2E/DX2                !
 ! A25   A(9,10,11)            130.3491         estimate D2E/DX2                !
 ! A26   A(9,10,22)            115.7195         estimate D2E/DX2                !
 ! A27   A(11,10,22)           113.8296         estimate D2E/DX2                !
 ! A28   A(10,11,12)           115.9964         estimate D2E/DX2                !
 ! A29   A(10,11,16)           125.977          estimate D2E/DX2                !
 ! A30   A(12,11,16)           118.0086         estimate D2E/DX2                !
 ! A31   A(11,12,13)           122.091          estimate D2E/DX2                !
 ! A32   A(11,12,23)           118.3175         estimate D2E/DX2                !
 ! A33   A(13,12,23)           119.5888         estimate D2E/DX2                !
 ! A34   A(12,13,14)           119.5683         estimate D2E/DX2                !
 ! A35   A(12,13,24)           120.0013         estimate D2E/DX2                !
 ! A36   A(14,13,24)           120.4299         estimate D2E/DX2                !
 ! A37   A(13,14,15)           119.4605         estimate D2E/DX2                !
 ! A38   A(13,14,25)           120.4572         estimate D2E/DX2                !
 ! A39   A(15,14,25)           120.0764         estimate D2E/DX2                !
 ! A40   A(14,15,16)           121.8208         estimate D2E/DX2                !
 ! A41   A(14,15,26)           120.5029         estimate D2E/DX2                !
 ! A42   A(16,15,26)           117.6743         estimate D2E/DX2                !
 ! A43   A(2,16,11)            126.5036         estimate D2E/DX2                !
 ! A44   A(2,16,15)            114.4236         estimate D2E/DX2                !
 ! A45   A(11,16,15)           119.0017         estimate D2E/DX2                !
 ! D1    D(1,2,3,4)            -25.4829         estimate D2E/DX2                !
 ! D2    D(1,2,3,8)            151.3859         estimate D2E/DX2                !
 ! D3    D(16,2,3,4)           148.3076         estimate D2E/DX2                !
 ! D4    D(16,2,3,8)           -34.8236         estimate D2E/DX2                !
 ! D5    D(1,2,16,11)         -151.4001         estimate D2E/DX2                !
 ! D6    D(1,2,16,15)           25.4814         estimate D2E/DX2                !
 ! D7    D(3,2,16,11)           34.8094         estimate D2E/DX2                !
 ! D8    D(3,2,16,15)         -148.3091         estimate D2E/DX2                !
 ! D9    D(2,3,4,5)            177.9172         estimate D2E/DX2                !
 ! D10   D(2,3,4,17)            -1.5587         estimate D2E/DX2                !
 ! D11   D(8,3,4,5)              0.7946         estimate D2E/DX2                !
 ! D12   D(8,3,4,17)          -178.6813         estimate D2E/DX2                !
 ! D13   D(2,3,8,7)           -175.4969         estimate D2E/DX2                !
 ! D14   D(2,3,8,9)              2.8956         estimate D2E/DX2                !
 ! D15   D(4,3,8,7)              1.2432         estimate D2E/DX2                !
 ! D16   D(4,3,8,9)            179.6357         estimate D2E/DX2                !
 ! D17   D(3,4,5,6)             -1.8567         estimate D2E/DX2                !
 ! D18   D(3,4,5,18)           179.019          estimate D2E/DX2                !
 ! D19   D(17,4,5,6)           177.6046         estimate D2E/DX2                !
 ! D20   D(17,4,5,18)           -1.5198         estimate D2E/DX2                !
 ! D21   D(4,5,6,7)              0.8188         estimate D2E/DX2                !
 ! D22   D(4,5,6,19)          -178.9316         estimate D2E/DX2                !
 ! D23   D(18,5,6,7)           179.9398         estimate D2E/DX2                !
 ! D24   D(18,5,6,19)            0.1894         estimate D2E/DX2                !
 ! D25   D(5,6,7,8)              1.2753         estimate D2E/DX2                !
 ! D26   D(5,6,7,20)          -179.3352         estimate D2E/DX2                !
 ! D27   D(19,6,7,8)          -178.9731         estimate D2E/DX2                !
 ! D28   D(19,6,7,20)            0.4164         estimate D2E/DX2                !
 ! D29   D(6,7,8,3)             -2.2971         estimate D2E/DX2                !
 ! D30   D(6,7,8,9)            179.1502         estimate D2E/DX2                !
 ! D31   D(20,7,8,3)           178.306          estimate D2E/DX2                !
 ! D32   D(20,7,8,9)            -0.2467         estimate D2E/DX2                !
 ! D33   D(3,8,9,10)            17.0942         estimate D2E/DX2                !
 ! D34   D(3,8,9,21)          -166.7885         estimate D2E/DX2                !
 ! D35   D(7,8,9,10)          -164.4847         estimate D2E/DX2                !
 ! D36   D(7,8,9,21)            11.6325         estimate D2E/DX2                !
 ! D37   D(8,9,10,11)            0.0027         estimate D2E/DX2                !
 ! D38   D(8,9,10,22)          176.0594         estimate D2E/DX2                !
 ! D39   D(21,9,10,11)        -176.055          estimate D2E/DX2                !
 ! D40   D(21,9,10,22)           0.0017         estimate D2E/DX2                !
 ! D41   D(9,10,11,12)         164.4716         estimate D2E/DX2                !
 ! D42   D(9,10,11,16)         -17.1097         estimate D2E/DX2                !
 ! D43   D(22,10,11,12)        -11.6447         estimate D2E/DX2                !
 ! D44   D(22,10,11,16)        166.774          estimate D2E/DX2                !
 ! D45   D(10,11,12,13)       -179.1559         estimate D2E/DX2                !
 ! D46   D(10,11,12,23)          0.2394         estimate D2E/DX2                !
 ! D47   D(16,11,12,13)          2.2935         estimate D2E/DX2                !
 ! D48   D(16,11,12,23)       -178.3112         estimate D2E/DX2                !
 ! D49   D(10,11,16,2)          -2.8711         estimate D2E/DX2                !
 ! D50   D(10,11,16,15)       -179.6244         estimate D2E/DX2                !
 ! D51   D(12,11,16,2)         175.5191         estimate D2E/DX2                !
 ! D52   D(12,11,16,15)         -1.2343         estimate D2E/DX2                !
 ! D53   D(11,12,13,14)         -1.2802         estimate D2E/DX2                !
 ! D54   D(11,12,13,24)        178.9701         estimate D2E/DX2                !
 ! D55   D(23,12,13,14)        179.332          estimate D2E/DX2                !
 ! D56   D(23,12,13,24)         -0.4177         estimate D2E/DX2                !
 ! D57   D(12,13,14,15)         -0.811          estimate D2E/DX2                !
 ! D58   D(12,13,14,25)       -179.9348         estimate D2E/DX2                !
 ! D59   D(24,13,14,15)        178.9376         estimate D2E/DX2                !
 ! D60   D(24,13,14,25)         -0.1862         estimate D2E/DX2                !
 ! D61   D(13,14,15,16)          1.8543         estimate D2E/DX2                !
 ! D62   D(13,14,15,26)       -177.6089         estimate D2E/DX2                !
 ! D63   D(25,14,15,16)       -179.0185         estimate D2E/DX2                !
 ! D64   D(25,14,15,26)          1.5183         estimate D2E/DX2                !
 ! D65   D(14,15,16,2)        -177.9348         estimate D2E/DX2                !
 ! D66   D(14,15,16,11)         -0.8007         estimate D2E/DX2                !
 ! D67   D(26,15,16,2)           1.5429         estimate D2E/DX2                !
 ! D68   D(26,15,16,11)        178.677          estimate D2E/DX2                !
 --------------------------------------------------------------------------------
 Trust Radius=3.00D-01 FncErr=1.00D-07 GrdErr=1.00D-06 EigMax=2.50D+02 EigMin=1.00D-04
 Number of steps in this run=    151 maximum allowed number of steps=    156.
 GradGradGradGradGradGradGradGradGradGradGradGradGradGradGradGradGradGrad

 Leave Link  103 at Tue Jan  9 20:27:08 2024, MaxMem=  4026531840 cpu:               0.3 elap:               0.1
 (Enter /sysapps/ubuntu-applications/gaussian/Gaussian/AVX2/g16/l202.exe)
                          Input orientation:                          
 ---------------------------------------------------------------------
 Center     Atomic      Atomic             Coordinates (Angstroms)
 Number     Number       Type             X           Y           Z
 ---------------------------------------------------------------------
      1          8           0        0.051176   -2.116401   -1.474168
      2          6           0        0.026790   -1.113456   -0.772864
      3          6           0        1.328265   -0.568161   -0.268382
      4          6           0        2.357434   -1.521409   -0.165614
      5          6           0        3.634495   -1.175874    0.243310
      6          6           0        3.927288    0.161032    0.527141
      7          6           0        2.933866    1.116624    0.412123
      8          6           0        1.612108    0.784225    0.039297
      9          6           0        0.671616    1.888220   -0.022168
     10          6           0       -0.676146    1.885580   -0.065172
     11          6           0       -1.614334    0.777906   -0.063599
     12          6           0       -2.958400    1.105093    0.224434
     13          6           0       -3.953439    0.145664    0.275980
     14          6           0       -3.638067   -1.190007    0.011157
     15          6           0       -2.336254   -1.530507   -0.315682
     16          6           0       -1.306291   -0.573300   -0.352615
     17          1           0        2.122418   -2.544906   -0.426827
     18          1           0        4.402172   -1.936310    0.327769
     19          1           0        4.926365    0.451620    0.831827
     20          1           0        3.163423    2.155683    0.621802
     21          1           0        1.139592    2.867035    0.032296
     22          1           0       -1.150495    2.862537   -0.040805
     23          1           0       -3.204816    2.143198    0.419184
     24          1           0       -4.970967    0.432330    0.516581
     25          1           0       -4.406641   -1.953403    0.046493
     26          1           0       -2.081157   -2.553012   -0.561497
 ---------------------------------------------------------------------
                    Distance matrix (angstroms):
                    1          2          3          4          5
     1  O    0.000000
     2  C    1.224059   0.000000
     3  C    2.341351   1.498561   0.000000
     4  C    2.717564   2.442761   1.406567   0.000000
     5  C    4.083442   3.748605   2.439230   1.384738   0.000000
     6  C    4.920994   4.304442   2.814161   2.403114   1.397714
     7  C    4.724452   3.850785   2.424777   2.761390   2.403108
     8  C    3.625013   2.602697   1.415691   2.431758   2.823767
     9  C    4.304676   3.160602   2.554529   3.806327   4.270574
    10  C    4.304662   3.160564   3.174870   4.562923   5.296158
    11  C    3.625002   2.602613   3.242333   4.590446   5.609069
    12  C    4.724492   3.850704   4.627974   5.942116   6.976348
    13  C    4.921067   4.304379   5.357450   6.542267   7.702225
    14  C    4.083492   3.748563   5.012912   6.007255   7.276280
    15  C    2.717569   2.442729   3.789069   4.696095   6.007336
    16  C    2.341316   1.498493   2.635907   3.789032   5.012942
    17  H    2.360208   2.561337   2.136189   1.082133   2.147023
    18  H    4.712810   4.586115   3.417036   2.143950   1.083847
    19  H    5.973258   5.387980   3.898299   3.389268   2.159634
    20  H    5.685936   4.740341   3.402875   3.845861   3.385917
    21  H    5.318714   4.210810   3.453488   4.558591   4.755437
    22  H    5.318681   4.210752   4.238600   5.616060   6.267824
    23  H    5.685987   4.740259   5.326635   6.686551   7.604166
    24  H    5.973360   5.387921   6.426311   7.614982   8.758708
    25  H    4.712866   4.586084   5.908231   6.781174   8.081037
    26  H    2.360178   2.561335   3.955971   4.574059   5.934046
                    6          7          8          9         10
     6  C    0.000000
     7  C    1.383211   0.000000
     8  C    2.446716   1.412987   0.000000
     9  C    3.726167   2.429351   1.451588   0.000000
    10  C    4.951414   3.721732   2.541654   1.348450   0.000000
    11  C    5.607056   4.585539   3.228089   2.541669   1.451599
    12  C    6.956693   5.895266   4.585496   3.721709   2.429345
    13  C    7.884743   6.956743   5.607057   4.951417   3.726170
    14  C    7.702347   6.976505   5.609164   5.296221   4.270602
    15  C    6.542447   5.942320   4.590594   4.563017   3.806358
    16  C    5.357571   4.628131   3.242456   3.174963   2.554564
    17  H    3.389648   3.843057   3.400118   4.682006   5.252805
    18  H    2.159654   3.388723   3.907555   5.354114   6.367932
    19  H    1.084172   2.142063   3.423891   4.571216   5.852263
    20  H    2.138009   1.084576   2.150997   2.587535   3.909882
    21  H    3.916449   2.535276   2.135748   1.086300   2.066315
    22  H    5.779669   4.464903   3.458001   2.066332   1.086299
    23  H    7.403212   6.223931   5.019350   3.909799   2.587497
    24  H    8.902396   7.935084   6.609728   5.852231   4.571199
    25  H    8.611401   7.965036   6.612110   6.368004   5.354143
    26  H    6.682259   6.290041   5.013812   5.252921   4.682039
                   11         12         13         14         15
    11  C    0.000000
    12  C    1.412985   0.000000
    13  C    2.446724   1.383208   0.000000
    14  C    2.823786   2.403106   1.397715   0.000000
    15  C    2.431766   2.761373   2.403102   1.384731   0.000000
    16  C    1.415690   2.424758   2.814149   2.439229   1.406568
    17  H    5.013614   6.289781   6.682001   5.933866   4.573960
    18  H    6.611995   7.964850   8.611245   8.081006   6.781231
    19  H    6.609765   7.935079   8.902443   8.758877   7.615198
    20  H    5.019463   6.224015   7.403343   7.604393   6.686802
    21  H    3.458000   4.464851   5.779637   6.267859   5.616135
    22  H    2.135732   2.535248   3.916407   4.755400   4.558554
    23  H    2.150985   1.084578   2.138010   3.385919   3.845847
    24  H    3.423889   2.142052   1.084172   2.159642   3.389263
    25  H    3.907576   3.388726   2.159662   1.083849   2.143948
    26  H    3.400124   3.843042   3.389640   2.147017   1.082135
                   16         17         18         19         20
    16  C    0.000000
    17  H    3.955854   0.000000
    18  H    5.908237   2.477314   0.000000
    19  H    6.426458   4.292493   2.496210   0.000000
    20  H    5.326836   4.927357   4.285483   2.460875   0.000000
    21  H    4.238680   5.519588   5.814108   4.562141   2.224732
    22  H    3.453473   6.332568   7.348258   6.595622   4.421378
    23  H    3.402856   7.146571   8.632323   8.315517   6.371474
    24  H    3.898287   7.750488   9.669635   9.902370   8.315607
    25  H    3.417037   6.572862   8.813319   9.669844   8.632580
    26  H    2.136190   4.205739   6.573026   7.750776   7.146861
                   21         22         23         24         25
    21  H    0.000000
    22  H    2.291258   0.000000
    23  H    4.421256   2.224696   0.000000
    24  H    6.595548   4.562082   2.460863   0.000000
    25  H    7.348301   5.814068   4.285490   2.496231   0.000000
    26  H    6.332671   5.519549   4.927345   4.292496   2.477309
                   26
    26  H    0.000000
 Symmetry turned off by external request.
 Stoichiometry    C15H10O
 Framework group  C1[X(C15H10O)]
 Deg. of freedom    72
 Full point group                 C1      NOp   1
 Rotational constants (GHZ):           1.2382394           0.3888820           0.3075943
 Leave Link  202 at Tue Jan  9 20:27:09 2024, MaxMem=  4026531840 cpu:               0.4 elap:               0.1
 (Enter /sysapps/ubuntu-applications/gaussian/Gaussian/AVX2/g16/l301.exe)
 Standard basis: 6-311++G(d,p) (5D, 7F)
 Ernie: Thresh=  0.10000D-02 Tol=  0.10000D-05 Strict=F.
   422 basis functions,   666 primitive gaussians,   438 cartesian basis functions
    54 alpha electrons       54 beta electrons
       nuclear repulsion energy       966.0790683036 Hartrees.
 IExCor=  402 DFT=T Ex+Corr=B3LYP ExCW=0 ScaHFX=  0.200000
 ScaDFX=  0.800000  0.720000  1.000000  0.810000 ScalE2=  1.000000  1.000000
 IRadAn=      5 IRanWt=     -1 IRanGd=            0 ICorTp=0 IEmpDi=  4
 NAtoms=   26 NActive=   26 NUniq=   26 SFac= 1.00D+00 NAtFMM=   60 NAOKFM=F Big=F
 Integral buffers will be    131072 words long.
 Raffenetti 2 integral format.
 Two-electron integral symmetry is turned off.
 Leave Link  301 at Tue Jan  9 20:27:09 2024, MaxMem=  4026531840 cpu:               0.4 elap:               0.1
 (Enter /sysapps/ubuntu-applications/gaussian/Gaussian/AVX2/g16/l302.exe)
 NPDir=0 NMtPBC=     1 NCelOv=     1 NCel=       1 NClECP=     1 NCelD=      1
         NCelK=      1 NCelE2=     1 NClLst=     1 CellRange=     0.0.
 One-electron integrals computed using PRISM.
 NBasis=   422 RedAO= T EigKep=  1.10D-06  NBF=   422
 NBsUse=   417 1.00D-06 EigRej=  6.96D-07 NBFU=   417
 Precomputing XC quadrature grid using
 IXCGrd= 4 IRadAn=           5 IRanWt=          -1 IRanGd=           0 AccXCQ= 0.00D+00.
 Generated NRdTot=       0 NPtTot=           0 NUsed=           0 NTot=          32
 NSgBfM=   438   438   438   438   438 MxSgAt=    26 MxSgA2=    26.
 Leave Link  302 at Tue Jan  9 20:27:10 2024, MaxMem=  4026531840 cpu:               8.1 elap:               1.3
 (Enter /sysapps/ubuntu-applications/gaussian/Gaussian/AVX2/g16/l303.exe)
 DipDrv:  MaxL=1.
 Leave Link  303 at Tue Jan  9 20:27:10 2024, MaxMem=  4026531840 cpu:               1.4 elap:               0.4
 (Enter /sysapps/ubuntu-applications/gaussian/Gaussian/AVX2/g16/l401.exe)
 ExpMin= 3.60D-02 ExpMax= 8.59D+03 ExpMxC= 1.30D+03 IAcc=3 IRadAn=         5 AccDes= 0.00D+00
 Harris functional with IExCor=  402 and IRadAn=       5 diagonalized for initial guess.
 HarFok:  IExCor=  402 AccDes= 0.00D+00 IRadAn=         5 IDoV= 1 UseB2=F ITyADJ=14
 ICtDFT=  3500011 ScaDFX=  1.000000  1.000000  1.000000  1.000000
 FoFCou: FMM=F IPFlag=           0 FMFlag=      100000 FMFlg1=           0
         NFxFlg=           0 DoJE=T BraDBF=F KetDBF=T FulRan=T
         wScrn=  0.000000 ICntrl=       500 IOpCl=  0 I1Cent=   200000004 NGrid=           0
         NMat0=    1 NMatS0=      1 NMatT0=    0 NMatD0=    1 NMtDS0=    0 NMtDT0=    0
 Symmetry not used in FoFCou.
 Harris En= -653.039622252502    
 JPrj=0 DoOrth=F DoCkMO=F.
 Initial guess <Sx>= 0.0000 <Sy>= 0.0000 <Sz>= 0.0000 <S**2>=-0.0000 S=-0.0000
 Leave Link  401 at Tue Jan  9 20:27:14 2024, MaxMem=  4026531840 cpu:              28.0 elap:               3.7
 (Enter /sysapps/ubuntu-applications/gaussian/Gaussian/AVX2/g16/l502.exe)
 Two-electron integral symmetry not used.
 UHF open shell SCF:
 Using DIIS extrapolation, IDIIS=  1040.
 NGot=  4026531840 LenX=  4026141532 LenY=  4025949247
 Requested convergence on RMS density matrix=1.00D-08 within 128 cycles.
 Requested convergence on MAX density matrix=1.00D-06.
 Requested convergence on             energy=1.00D-06.
 No special actions if energy rises.
 Fock matrices will be formed incrementally for  20 cycles.

 Cycle   1  Pass 1  IDiag  1:
 FoFJK:  IHMeth= 1 ICntrl=       0 DoSepK=F KAlg= 0 I1Cent=           0 FoldK=F
 IRaf= 880000000 NMat=       1 IRICut=       1 DoRegI=T DoRafI=F ISym2E= 0 IDoP0=0 IntGTp=1.
 FoFCou: FMM=F IPFlag=           0 FMFlag=      100000 FMFlg1=           0
         NFxFlg=           0 DoJE=F BraDBF=F KetDBF=F FulRan=T
         wScrn=  0.000000 ICntrl=         0 IOpCl=  1 I1Cent=           0 NGrid=           0
         NMat0=    1 NMatS0=      1 NMatT0=    0 NMatD0=    1 NMtDS0=    0 NMtDT0=    0
 Symmetry not used in FoFCou.
 E= -652.647948868489    
 DIIS: error= 2.36D-02 at cycle   1 NSaved=   1.
 NSaved= 1 IEnMin= 1 EnMin= -652.647948868489     IErMin= 1 ErrMin= 2.36D-02
 ErrMax= 2.36D-02  0.00D+00 EMaxC= 1.00D-01 BMatC= 1.58D+00 BMatP= 1.58D+00
 IDIUse=3 WtCom= 7.64D-01 WtEn= 2.36D-01
 Coeff-Com:  0.100D+01
 Coeff-En:   0.100D+01
 Coeff:      0.100D+01
 Gap=     0.155 Goal=   None    Shift=    0.000
 Gap=     0.155 Goal=   None    Shift=    0.000
 GapD=    0.155 DampG=1.000 DampE=0.500 DampFc=0.5000 IDamp=-1.
 Damping current iteration by 5.00D-01
 RMSDP=3.66D-02 MaxDP=5.19D+00              OVMax= 1.94D-01

 Cycle   2  Pass 1  IDiag  1:
 RMSU=  1.68D-02    CP:  1.13D+00
 E= -652.781956384182     Delta-E=       -0.134007515693 Rises=F Damp=T
 DIIS: error= 1.17D-02 at cycle   2 NSaved=   2.
 NSaved= 2 IEnMin= 2 EnMin= -652.781956384182     IErMin= 2 ErrMin= 1.17D-02
 ErrMax= 1.17D-02  0.00D+00 EMaxC= 1.00D-01 BMatC= 1.91D-01 BMatP= 1.58D+00
 IDIUse=3 WtCom= 8.83D-01 WtEn= 1.17D-01
 Coeff-Com:  0.124D+00 0.876D+00
 Coeff-En:   0.208D+00 0.792D+00
 Coeff:      0.134D+00 0.866D+00
 Gap=     0.274 Goal=   None    Shift=    0.000
 Gap=     0.274 Goal=   None    Shift=    0.000
 RMSDP=1.68D-02 MaxDP=2.50D+00 DE=-1.34D-01 OVMax= 1.69D-01

 Cycle   3  Pass 1  IDiag  1:
 RMSU=  6.75D-03    CP:  1.00D+00  1.86D-01
 E= -652.941289063052     Delta-E=       -0.159332678870 Rises=F Damp=F
 DIIS: error= 1.85D-02 at cycle   3 NSaved=   3.
 NSaved= 3 IEnMin= 3 EnMin= -652.941289063052     IErMin= 2 ErrMin= 1.17D-02
 ErrMax= 1.85D-02  0.00D+00 EMaxC= 1.00D-01 BMatC= 3.07D-01 BMatP= 1.91D-01
 IDIUse=2 WtCom= 0.00D+00 WtEn= 1.00D+00
 Coeff-En:   0.000D+00 0.000D+00 0.100D+01
 Coeff:      0.000D+00 0.000D+00 0.100D+01
 Gap=     0.169 Goal=   None    Shift=    0.000
 Gap=     0.169 Goal=   None    Shift=    0.000
 RMSDP=2.15D-02 MaxDP=2.14D+00 DE=-1.59D-01 OVMax= 2.27D-01

 Cycle   4  Pass 1  IDiag  1:
 RMSU=  1.36D-02    CP:  1.10D+00  9.64D-01 -2.94D-01
 E= -652.552403678812     Delta-E=        0.388885384240 Rises=F Damp=F
 DIIS: error= 4.45D-02 at cycle   4 NSaved=   4.
 NSaved= 4 IEnMin= 3 EnMin= -652.941289063052     IErMin= 2 ErrMin= 1.17D-02
 ErrMax= 4.45D-02  0.00D+00 EMaxC= 1.00D-01 BMatC= 2.19D+00 BMatP= 1.91D-01
 IDIUse=2 WtCom= 0.00D+00 WtEn= 1.00D+00
 Coeff-En:   0.000D+00 0.000D+00 0.819D+00 0.181D+00
 Coeff:      0.000D+00 0.000D+00 0.819D+00 0.181D+00
 Gap=     0.155 Goal=   None    Shift=    0.000
 Gap=     0.155 Goal=   None    Shift=    0.000
 RMSDP=1.20D-02 MaxDP=1.13D+00 DE= 3.89D-01 OVMax= 1.14D-01

 Cycle   5  Pass 1  IDiag  1:
 RMSU=  3.48D-03    CP:  1.02D+00  6.49D-01  3.10D-01  4.02D-01
 E= -652.964860991173     Delta-E=       -0.412457312361 Rises=F Damp=F
 DIIS: error= 1.39D-02 at cycle   5 NSaved=   5.
 NSaved= 5 IEnMin= 5 EnMin= -652.964860991173     IErMin= 2 ErrMin= 1.17D-02
 ErrMax= 1.39D-02  0.00D+00 EMaxC= 1.00D-01 BMatC= 1.96D-01 BMatP= 1.91D-01
 IDIUse=3 WtCom= 8.61D-01 WtEn= 1.39D-01
 Coeff-Com:  0.548D-02 0.197D-01 0.350D+00-0.870D-01 0.712D+00
 Coeff-En:   0.000D+00 0.000D+00 0.417D+00 0.000D+00 0.583D+00
 Coeff:      0.472D-02 0.169D-01 0.359D+00-0.749D-01 0.694D+00
 Gap=     0.158 Goal=   None    Shift=    0.000
 Gap=     0.158 Goal=   None    Shift=    0.000
 RMSDP=5.62D-03 MaxDP=5.33D-01 DE=-4.12D-01 OVMax= 4.63D-02

 Cycle   6  Pass 1  IDiag  1:
 RMSU=  9.17D-04    CP:  9.96D-01  4.52D-01  6.09D-01  1.46D-01  6.09D-01
 E= -653.004302727212     Delta-E=       -0.039441736040 Rises=F Damp=F
 DIIS: error= 1.56D-03 at cycle   6 NSaved=   6.
 NSaved= 6 IEnMin= 6 EnMin= -653.004302727212     IErMin= 6 ErrMin= 1.56D-03
 ErrMax= 1.56D-03  0.00D+00 EMaxC= 1.00D-01 BMatC= 1.25D-03 BMatP= 1.91D-01
 IDIUse=3 WtCom= 9.84D-01 WtEn= 1.56D-02
 Coeff-Com:  0.261D-02 0.872D-02 0.206D+00-0.628D-01 0.459D+00 0.387D+00
 Coeff-En:   0.000D+00 0.000D+00 0.000D+00 0.000D+00 0.000D+00 0.100D+01
 Coeff:      0.257D-02 0.858D-02 0.203D+00-0.618D-01 0.452D+00 0.396D+00
 Gap=     0.155 Goal=   None    Shift=    0.000
 Gap=     0.155 Goal=   None    Shift=    0.000
 RMSDP=5.98D-04 MaxDP=5.33D-02 DE=-3.94D-02 OVMax= 7.31D-03

 Cycle   7  Pass 1  IDiag  1:
 RMSU=  1.89D-04    CP:  9.97D-01  4.64D-01  5.97D-01  1.66D-01  7.04D-01
                    CP:  6.77D-01
 E= -653.004636161759     Delta-E=       -0.000333434547 Rises=F Damp=F
 DIIS: error= 3.14D-04 at cycle   7 NSaved=   7.
 NSaved= 7 IEnMin= 7 EnMin= -653.004636161759     IErMin= 7 ErrMin= 3.14D-04
 ErrMax= 3.14D-04  0.00D+00 EMaxC= 1.00D-01 BMatC= 1.26D-04 BMatP= 1.25D-03
 IDIUse=3 WtCom= 9.97D-01 WtEn= 3.14D-03
 Coeff-Com:  0.136D-02-0.196D-02 0.465D-01-0.163D-01 0.101D+00 0.178D+00
 Coeff-Com:  0.691D+00
 Coeff-En:   0.000D+00 0.000D+00 0.000D+00 0.000D+00 0.000D+00 0.291D-01
 Coeff-En:   0.971D+00
 Coeff:      0.135D-02-0.195D-02 0.463D-01-0.163D-01 0.101D+00 0.178D+00
 Coeff:      0.692D+00
 Gap=     0.155 Goal=   None    Shift=    0.000
 Gap=     0.155 Goal=   None    Shift=    0.000
 RMSDP=1.18D-04 MaxDP=8.03D-03 DE=-3.33D-04 OVMax= 1.64D-03

 Cycle   8  Pass 1  IDiag  1:
 RMSU=  5.74D-05    CP:  9.98D-01  4.60D-01  6.00D-01  1.64D-01  6.92D-01
                    CP:  6.44D-01  7.28D-01
 E= -653.004665283308     Delta-E=       -0.000029121549 Rises=F Damp=F
 DIIS: error= 8.12D-05 at cycle   8 NSaved=   8.
 NSaved= 8 IEnMin= 8 EnMin= -653.004665283308     IErMin= 8 ErrMin= 8.12D-05
 ErrMax= 8.12D-05  0.00D+00 EMaxC= 1.00D-01 BMatC= 1.21D-05 BMatP= 1.26D-04
 IDIUse=1 WtCom= 1.00D+00 WtEn= 0.00D+00
 Coeff-Com:  0.840D-03-0.275D-02 0.105D-01-0.283D-02 0.163D-01 0.617D-01
 Coeff-Com:  0.381D+00 0.535D+00
 Coeff:      0.840D-03-0.275D-02 0.105D-01-0.283D-02 0.163D-01 0.617D-01
 Coeff:      0.381D+00 0.535D+00
 Gap=     0.155 Goal=   None    Shift=    0.000
 Gap=     0.155 Goal=   None    Shift=    0.000
 RMSDP=5.46D-05 MaxDP=6.17D-03 DE=-2.91D-05 OVMax= 3.65D-04

 Cycle   9  Pass 1  IDiag  1:
 RMSU=  2.16D-05    CP:  9.97D-01  4.58D-01  6.02D-01  1.66D-01  6.90D-01
                    CP:  6.37D-01  7.34D-01  7.87D-01
 E= -653.004667908759     Delta-E=       -0.000002625451 Rises=F Damp=F
 DIIS: error= 1.34D-05 at cycle   9 NSaved=   9.
 NSaved= 9 IEnMin= 9 EnMin= -653.004667908759     IErMin= 9 ErrMin= 1.34D-05
 ErrMax= 1.34D-05  0.00D+00 EMaxC= 1.00D-01 BMatC= 2.45D-07 BMatP= 1.21D-05
 IDIUse=1 WtCom= 1.00D+00 WtEn= 0.00D+00
 Coeff-Com:  0.222D-03-0.647D-03 0.470D-03 0.217D-04-0.125D-02 0.102D-01
 Coeff-Com:  0.842D-01 0.193D+00 0.714D+00
 Coeff:      0.222D-03-0.647D-03 0.470D-03 0.217D-04-0.125D-02 0.102D-01
 Coeff:      0.842D-01 0.193D+00 0.714D+00
 Gap=     0.155 Goal=   None    Shift=    0.000
 Gap=     0.155 Goal=   None    Shift=    0.000
 RMSDP=1.53D-05 MaxDP=2.45D-03 DE=-2.63D-06 OVMax= 8.25D-05

 Cycle  10  Pass 1  IDiag  1:
 RMSU=  5.19D-06    CP:  9.97D-01  4.59D-01  6.02D-01  1.65D-01  6.91D-01
                    CP:  6.43D-01  7.51D-01  7.34D-01  7.59D-01
 E= -653.004667959705     Delta-E=       -0.000000050946 Rises=F Damp=F
 DIIS: error= 6.43D-06 at cycle  10 NSaved=  10.
 NSaved=10 IEnMin=10 EnMin= -653.004667959705     IErMin=10 ErrMin= 6.43D-06
 ErrMax= 6.43D-06  0.00D+00 EMaxC= 1.00D-01 BMatC= 3.71D-08 BMatP= 2.45D-07
 IDIUse=1 WtCom= 1.00D+00 WtEn= 0.00D+00
 Coeff-Com:  0.814D-04-0.222D-03-0.305D-03 0.167D-03-0.159D-02 0.297D-02
 Coeff-Com:  0.290D-01 0.821D-01 0.397D+00 0.491D+00
 Coeff:      0.814D-04-0.222D-03-0.305D-03 0.167D-03-0.159D-02 0.297D-02
 Coeff:      0.290D-01 0.821D-01 0.397D+00 0.491D+00
 Gap=     0.155 Goal=   None    Shift=    0.000
 Gap=     0.155 Goal=   None    Shift=    0.000
 RMSDP=2.74D-06 MaxDP=2.25D-04 DE=-5.09D-08 OVMax= 4.40D-05

 Cycle  11  Pass 1  IDiag  1:
 RMSU=  2.13D-06    CP:  9.97D-01  4.59D-01  6.02D-01  1.65D-01  6.91D-01
                    CP:  6.42D-01  7.53D-01  7.48D-01  7.62D-01  1.01D+00
 E= -653.004667968353     Delta-E=       -0.000000008648 Rises=F Damp=F
 DIIS: error= 2.64D-06 at cycle  11 NSaved=  11.
 NSaved=11 IEnMin=11 EnMin= -653.004667968353     IErMin=11 ErrMin= 2.64D-06
 ErrMax= 2.64D-06  0.00D+00 EMaxC= 1.00D-01 BMatC= 5.73D-09 BMatP= 3.71D-08
 IDIUse=1 WtCom= 1.00D+00 WtEn= 0.00D+00
 Coeff-Com:  0.107D-04-0.256D-04-0.225D-03 0.786D-04-0.619D-03 0.481D-03
 Coeff-Com:  0.429D-02 0.184D-01 0.122D+00 0.295D+00 0.560D+00
 Coeff:      0.107D-04-0.256D-04-0.225D-03 0.786D-04-0.619D-03 0.481D-03
 Coeff:      0.429D-02 0.184D-01 0.122D+00 0.295D+00 0.560D+00
 Gap=     0.155 Goal=   None    Shift=    0.000
 Gap=     0.155 Goal=   None    Shift=    0.000
 RMSDP=1.97D-06 MaxDP=3.49D-04 DE=-8.65D-09 OVMax= 1.72D-05

 Cycle  12  Pass 1  IDiag  1:
 RMSU=  7.16D-07    CP:  9.97D-01  4.59D-01  6.02D-01  1.65D-01  6.91D-01
                    CP:  6.42D-01  7.51D-01  7.56D-01  7.90D-01  8.89D-01
                    CP:  7.46D-01
 E= -653.004667969704     Delta-E=       -0.000000001351 Rises=F Damp=F
 DIIS: error= 7.18D-07 at cycle  12 NSaved=  12.
 NSaved=12 IEnMin=12 EnMin= -653.004667969704     IErMin=12 ErrMin= 7.18D-07
 ErrMax= 7.18D-07  0.00D+00 EMaxC= 1.00D-01 BMatC= 7.38D-10 BMatP= 5.73D-09
 IDIUse=1 WtCom= 1.00D+00 WtEn= 0.00D+00
 Coeff-Com: -0.375D-05 0.796D-05-0.117D-03 0.376D-04-0.225D-03-0.255D-04
 Coeff-Com: -0.766D-03 0.184D-02 0.296D-01 0.116D+00 0.307D+00 0.547D+00
 Coeff:     -0.375D-05 0.796D-05-0.117D-03 0.376D-04-0.225D-03-0.255D-04
 Coeff:     -0.766D-03 0.184D-02 0.296D-01 0.116D+00 0.307D+00 0.547D+00
 Gap=     0.155 Goal=   None    Shift=    0.000
 Gap=     0.155 Goal=   None    Shift=    0.000
 RMSDP=4.91D-07 MaxDP=3.07D-05 DE=-1.35D-09 OVMax= 3.52D-06

 Cycle  13  Pass 1  IDiag  1:
 RMSU=  1.77D-07    CP:  9.97D-01  4.59D-01  6.02D-01  1.65D-01  6.91D-01
                    CP:  6.42D-01  7.51D-01  7.55D-01  7.92D-01  9.25D-01
                    CP:  7.52D-01  7.76D-01
 E= -653.004667969871     Delta-E=       -0.000000000167 Rises=F Damp=F
 DIIS: error= 2.72D-07 at cycle  13 NSaved=  13.
 NSaved=13 IEnMin=13 EnMin= -653.004667969871     IErMin=13 ErrMin= 2.72D-07
 ErrMax= 2.72D-07  0.00D+00 EMaxC= 1.00D-01 BMatC= 7.85D-11 BMatP= 7.38D-10
 IDIUse=1 WtCom= 1.00D+00 WtEn= 0.00D+00
 Coeff-Com: -0.398D-05 0.809D-05-0.217D-04 0.517D-05-0.401D-05-0.552D-04
 Coeff-Com: -0.961D-03-0.188D-02-0.444D-02 0.662D-02 0.469D-01 0.225D+00
 Coeff-Com:  0.729D+00
 Coeff:     -0.398D-05 0.809D-05-0.217D-04 0.517D-05-0.401D-05-0.552D-04
 Coeff:     -0.961D-03-0.188D-02-0.444D-02 0.662D-02 0.469D-01 0.225D+00
 Coeff:      0.729D+00
 Gap=     0.155 Goal=   None    Shift=    0.000
 Gap=     0.155 Goal=   None    Shift=    0.000
 RMSDP=1.79D-07 MaxDP=2.04D-05 DE=-1.67D-10 OVMax= 1.33D-06

 Cycle  14  Pass 1  IDiag  1:
 RMSU=  5.15D-08    CP:  9.97D-01  4.59D-01  6.02D-01  1.65D-01  6.91D-01
                    CP:  6.42D-01  7.51D-01  7.55D-01  7.93D-01  9.35D-01
                    CP:  7.59D-01  7.83D-01  1.03D+00
 E= -653.004667969888     Delta-E=       -0.000000000017 Rises=F Damp=F
 DIIS: error= 5.33D-08 at cycle  14 NSaved=  14.
 NSaved=14 IEnMin=14 EnMin= -653.004667969888     IErMin=14 ErrMin= 5.33D-08
 ErrMax= 5.33D-08  0.00D+00 EMaxC= 1.00D-01 BMatC= 5.19D-12 BMatP= 7.85D-11
 IDIUse=1 WtCom= 1.00D+00 WtEn= 0.00D+00
 Coeff-Com: -0.160D-05 0.333D-05-0.275D-05 0.216D-06 0.110D-04-0.275D-04
 Coeff-Com: -0.375D-03-0.987D-03-0.438D-02-0.747D-02-0.797D-02 0.535D-01
 Coeff-Com:  0.359D+00 0.609D+00
 Coeff:     -0.160D-05 0.333D-05-0.275D-05 0.216D-06 0.110D-04-0.275D-04
 Coeff:     -0.375D-03-0.987D-03-0.438D-02-0.747D-02-0.797D-02 0.535D-01
 Coeff:      0.359D+00 0.609D+00
 Gap=     0.155 Goal=   None    Shift=    0.000
 Gap=     0.155 Goal=   None    Shift=    0.000
 RMSDP=5.62D-08 MaxDP=1.02D-05 DE=-1.73D-11 OVMax= 3.55D-07

 Cycle  15  Pass 1  IDiag  1:
 RMSU=  1.75D-08    CP:  9.97D-01  4.59D-01  6.02D-01  1.65D-01  6.91D-01
                    CP:  6.42D-01  7.51D-01  7.55D-01  7.93D-01  9.35D-01
                    CP:  7.68D-01  8.16D-01  1.00D+00  6.72D-01
 E= -653.004667969897     Delta-E=       -0.000000000009 Rises=F Damp=F
 DIIS: error= 1.01D-08 at cycle  15 NSaved=  15.
 NSaved=15 IEnMin=15 EnMin= -653.004667969897     IErMin=15 ErrMin= 1.01D-08
 ErrMax= 1.01D-08  0.00D+00 EMaxC= 1.00D-01 BMatC= 2.45D-13 BMatP= 5.19D-12
 IDIUse=1 WtCom= 1.00D+00 WtEn= 0.00D+00
 Coeff-Com: -0.338D-06 0.746D-06 0.798D-06-0.514D-06 0.564D-05-0.698D-05
 Coeff-Com: -0.807D-04-0.271D-03-0.153D-02-0.380D-02-0.777D-02 0.303D-02
 Coeff-Com:  0.890D-01 0.250D+00 0.671D+00
 Coeff:     -0.338D-06 0.746D-06 0.798D-06-0.514D-06 0.564D-05-0.698D-05
 Coeff:     -0.807D-04-0.271D-03-0.153D-02-0.380D-02-0.777D-02 0.303D-02
 Coeff:      0.890D-01 0.250D+00 0.671D+00
 Gap=     0.155 Goal=   None    Shift=    0.000
 Gap=     0.155 Goal=   None    Shift=    0.000
 RMSDP=1.11D-08 MaxDP=7.05D-07 DE=-8.64D-12 OVMax= 8.96D-08

 Cycle  16  Pass 1  IDiag  1:
 RMSU=  4.05D-09    CP:  9.97D-01  4.59D-01  6.02D-01  1.65D-01  6.91D-01
                    CP:  6.42D-01  7.51D-01  7.55D-01  7.93D-01  9.35D-01
                    CP:  7.67D-01  8.18D-01  1.01D+00  7.37D-01  9.11D-01
 E= -653.004667969906     Delta-E=       -0.000000000009 Rises=F Damp=F
 DIIS: error= 5.24D-09 at cycle  16 NSaved=  16.
 NSaved=16 IEnMin=16 EnMin= -653.004667969906     IErMin=16 ErrMin= 5.24D-09
 ErrMax= 5.24D-09  0.00D+00 EMaxC= 1.00D-01 BMatC= 4.42D-14 BMatP= 2.45D-13
 IDIUse=1 WtCom= 1.00D+00 WtEn= 0.00D+00
 Coeff-Com: -0.439D-07 0.124D-06 0.341D-06-0.158D-06 0.125D-05-0.115D-05
 Coeff-Com: -0.103D-04-0.489D-04-0.345D-03-0.113D-02-0.277D-02-0.137D-02
 Coeff-Com:  0.225D-01 0.866D-01 0.332D+00 0.564D+00
 Coeff:     -0.439D-07 0.124D-06 0.341D-06-0.158D-06 0.125D-05-0.115D-05
 Coeff:     -0.103D-04-0.489D-04-0.345D-03-0.113D-02-0.277D-02-0.137D-02
 Coeff:      0.225D-01 0.866D-01 0.332D+00 0.564D+00
 Gap=     0.155 Goal=   None    Shift=    0.000
 Gap=     0.155 Goal=   None    Shift=    0.000
 RMSDP=3.57D-09 MaxDP=3.57D-07 DE=-9.32D-12 OVMax= 4.73D-08

 SCF Done:  E(UB3LYP) =  -653.004667970     A.U. after   16 cycles
            NFock= 16  Conv=0.36D-08     -V/T= 2.0044
 <Sx>= 0.0000 <Sy>= 0.0000 <Sz>= 0.0000 <S**2>=-0.0000 S=-0.0000
 <L.S>=  0.00000000000    
 KE= 6.501711981610D+02 PE=-3.449984766953D+03 EE= 1.180729832518D+03
 Annihilation of the first spin contaminant:
 S**2 before annihilation    -0.0000,   after     0.0000
 Leave Link  502 at Tue Jan  9 20:32:27 2024, MaxMem=  4026531840 cpu:            2022.6 elap:             313.0
 (Enter /sysapps/ubuntu-applications/gaussian/Gaussian/AVX2/g16/l601.exe)
 Copying SCF densities to generalized density rwf, IOpCl= 1 IROHF=0.

 **********************************************************************

            Population analysis using the SCF density.

 **********************************************************************

 Alpha  occ. eigenvalues --  -19.10856 -10.26752 -10.20840 -10.20839 -10.20018
 Alpha  occ. eigenvalues --  -10.20017 -10.19491 -10.19415 -10.19218 -10.19218
 Alpha  occ. eigenvalues --  -10.19061 -10.19061 -10.18831 -10.18830 -10.18682
 Alpha  occ. eigenvalues --  -10.18682  -1.04603  -0.88618  -0.87580  -0.82116
 Alpha  occ. eigenvalues --   -0.78001  -0.77919  -0.76751  -0.73770  -0.66450
 Alpha  occ. eigenvalues --   -0.66041  -0.61890  -0.61449  -0.58224  -0.57207
 Alpha  occ. eigenvalues --   -0.52017  -0.50925  -0.49906  -0.48416  -0.47117
 Alpha  occ. eigenvalues --   -0.45241  -0.44467  -0.44119  -0.43700  -0.43594
 Alpha  occ. eigenvalues --   -0.41129  -0.40033  -0.38799  -0.38038  -0.36932
 Alpha  occ. eigenvalues --   -0.36870  -0.36079  -0.35239  -0.32982  -0.28353
 Alpha  occ. eigenvalues --   -0.27392  -0.27193  -0.25686  -0.23146
 Alpha virt. eigenvalues --   -0.07640  -0.07403  -0.02247  -0.02179  -0.01242
 Alpha virt. eigenvalues --   -0.00440   0.00211   0.01432   0.01700   0.02894
 Alpha virt. eigenvalues --    0.03313   0.03378   0.04066   0.04151   0.04689
 Alpha virt. eigenvalues --    0.05835   0.05876   0.06171   0.06750   0.06774
 Alpha virt. eigenvalues --    0.08404   0.08464   0.08950   0.09368   0.09675
 Alpha virt. eigenvalues --    0.10396   0.10483   0.11119   0.11190   0.11752
 Alpha virt. eigenvalues --    0.11900   0.12030   0.12214   0.12930   0.13255
 Alpha virt. eigenvalues --    0.13374   0.13793   0.13861   0.14121   0.14431
 Alpha virt. eigenvalues --    0.14746   0.15322   0.15858   0.16048   0.16543
 Alpha virt. eigenvalues --    0.17341   0.17667   0.18038   0.18225   0.18731
 Alpha virt. eigenvalues --    0.19231   0.19251   0.19687   0.20445   0.20680
 Alpha virt. eigenvalues --    0.20741   0.21996   0.22357   0.22691   0.23115
 Alpha virt. eigenvalues --    0.23397   0.23617   0.24326   0.24569   0.25299
 Alpha virt. eigenvalues --    0.25576   0.25758   0.26212   0.26654   0.26818
 Alpha virt. eigenvalues --    0.27484   0.27918   0.28038   0.28659   0.28674
 Alpha virt. eigenvalues --    0.29345   0.29565   0.30098   0.30221   0.30295
 Alpha virt. eigenvalues --    0.31342   0.31440   0.32119   0.32407   0.32620
 Alpha virt. eigenvalues --    0.33449   0.33843   0.35384   0.35629   0.36248
 Alpha virt. eigenvalues --    0.36668   0.37192   0.37420   0.37574   0.38767
 Alpha virt. eigenvalues --    0.40539   0.41101   0.43026   0.44614   0.48119
 Alpha virt. eigenvalues --    0.48701   0.48825   0.51449   0.52249   0.52962
 Alpha virt. eigenvalues --    0.53703   0.54076   0.54269   0.54977   0.55476
 Alpha virt. eigenvalues --    0.55630   0.55940   0.56912   0.57859   0.58596
 Alpha virt. eigenvalues --    0.58704   0.58789   0.60060   0.60667   0.60872
 Alpha virt. eigenvalues --    0.61409   0.62534   0.62983   0.63676   0.64337
 Alpha virt. eigenvalues --    0.65636   0.67558   0.67644   0.68525   0.69105
 Alpha virt. eigenvalues --    0.70082   0.70476   0.71999   0.72026   0.72793
 Alpha virt. eigenvalues --    0.74080   0.74527   0.75708   0.75753   0.76491
 Alpha virt. eigenvalues --    0.76782   0.77782   0.79474   0.80895   0.81884
 Alpha virt. eigenvalues --    0.82014   0.84292   0.84783   0.84982   0.85435
 Alpha virt. eigenvalues --    0.86104   0.86433   0.86937   0.87918   0.89169
 Alpha virt. eigenvalues --    0.89254   0.90237   0.90679   0.91454   0.91887
 Alpha virt. eigenvalues --    0.93547   0.93600   0.94917   0.95494   0.96253
 Alpha virt. eigenvalues --    0.98607   0.99059   1.00009   1.01414   1.02586
 Alpha virt. eigenvalues --    1.03107   1.04696   1.05855   1.07364   1.08454
 Alpha virt. eigenvalues --    1.09760   1.10961   1.12791   1.12857   1.14919
 Alpha virt. eigenvalues --    1.16460   1.17594   1.19424   1.21435   1.23764
 Alpha virt. eigenvalues --    1.27046   1.27934   1.29059   1.32897   1.34244
 Alpha virt. eigenvalues --    1.37159   1.37369   1.45524   1.46967   1.47208
 Alpha virt. eigenvalues --    1.48890   1.49009   1.49213   1.50519   1.50811
 Alpha virt. eigenvalues --    1.52871   1.53535   1.53922   1.55158   1.56250
 Alpha virt. eigenvalues --    1.56427   1.57366   1.58012   1.60732   1.61410
 Alpha virt. eigenvalues --    1.62693   1.63774   1.66024   1.66105   1.69240
 Alpha virt. eigenvalues --    1.70661   1.72392   1.73480   1.73743   1.75103
 Alpha virt. eigenvalues --    1.75894   1.76051   1.79744   1.80082   1.81140
 Alpha virt. eigenvalues --    1.81229   1.84509   1.85444   1.86920   1.88187
 Alpha virt. eigenvalues --    1.88778   1.88894   1.89655   1.91327   1.92875
 Alpha virt. eigenvalues --    1.93201   1.94712   1.96177   1.96662   1.97443
 Alpha virt. eigenvalues --    1.97532   2.00356   2.00842   2.02143   2.03481
 Alpha virt. eigenvalues --    2.05904   2.06777   2.08309   2.09048   2.09882
 Alpha virt. eigenvalues --    2.10553   2.12829   2.17574   2.21128   2.23309
 Alpha virt. eigenvalues --    2.24346   2.26714   2.27822   2.33098   2.35419
 Alpha virt. eigenvalues --    2.38906   2.41502   2.43457   2.45316   2.46441
 Alpha virt. eigenvalues --    2.46595   2.47999   2.50636   2.53982   2.56780
 Alpha virt. eigenvalues --    2.61260   2.62746   2.64912   2.66046   2.66485
 Alpha virt. eigenvalues --    2.66538   2.68253   2.69530   2.70524   2.71062
 Alpha virt. eigenvalues --    2.71895   2.72044   2.73588   2.73850   2.74700
 Alpha virt. eigenvalues --    2.76206   2.77364   2.78155   2.79927   2.80752
 Alpha virt. eigenvalues --    2.80941   2.81288   2.81953   2.82372   2.85651
 Alpha virt. eigenvalues --    2.85963   2.88366   2.90780   2.91164   2.91397
 Alpha virt. eigenvalues --    2.93244   2.95249   2.97236   2.98899   3.01569
 Alpha virt. eigenvalues --    3.04057   3.08488   3.09072   3.11729   3.17320
 Alpha virt. eigenvalues --    3.18428   3.22271   3.22901   3.25942   3.32228
 Alpha virt. eigenvalues --    3.32733   3.36046   3.36170   3.40958   3.42049
 Alpha virt. eigenvalues --    3.49946   3.52540   3.53785   3.54630   3.54957
 Alpha virt. eigenvalues --    3.58440   3.60169   3.64543   3.67067   3.79062
 Alpha virt. eigenvalues --    3.84223   4.03087   4.03418   4.04324   4.05483
 Alpha virt. eigenvalues --    4.07310   4.17662   4.18035   4.23708   4.26884
 Alpha virt. eigenvalues --    4.40822   4.69661   4.83239   4.83305   5.09311
 Alpha virt. eigenvalues --    5.24820   5.75437  23.51366  23.64952  23.81141
 Alpha virt. eigenvalues --   23.85094  23.92689  23.93381  23.94689  23.95221
 Alpha virt. eigenvalues --   24.02700  24.02973  24.09324  24.09394  24.18037
 Alpha virt. eigenvalues --   24.18045  24.23089  50.02032
  Beta  occ. eigenvalues --  -19.10856 -10.26752 -10.20840 -10.20839 -10.20018
  Beta  occ. eigenvalues --  -10.20017 -10.19491 -10.19415 -10.19218 -10.19218
  Beta  occ. eigenvalues --  -10.19061 -10.19061 -10.18831 -10.18830 -10.18682
  Beta  occ. eigenvalues --  -10.18682  -1.04603  -0.88618  -0.87580  -0.82116
  Beta  occ. eigenvalues --   -0.78001  -0.77919  -0.76751  -0.73770  -0.66450
  Beta  occ. eigenvalues --   -0.66041  -0.61890  -0.61449  -0.58224  -0.57207
  Beta  occ. eigenvalues --   -0.52017  -0.50925  -0.49906  -0.48416  -0.47117
  Beta  occ. eigenvalues --   -0.45241  -0.44467  -0.44119  -0.43700  -0.43594
  Beta  occ. eigenvalues --   -0.41129  -0.40033  -0.38799  -0.38038  -0.36932
  Beta  occ. eigenvalues --   -0.36870  -0.36079  -0.35239  -0.32982  -0.28353
  Beta  occ. eigenvalues --   -0.27392  -0.27193  -0.25686  -0.23146
  Beta virt. eigenvalues --   -0.07640  -0.07403  -0.02247  -0.02179  -0.01242
  Beta virt. eigenvalues --   -0.00440   0.00211   0.01432   0.01700   0.02894
  Beta virt. eigenvalues --    0.03313   0.03378   0.04066   0.04151   0.04689
  Beta virt. eigenvalues --    0.05835   0.05876   0.06171   0.06750   0.06774
  Beta virt. eigenvalues --    0.08404   0.08464   0.08950   0.09368   0.09675
  Beta virt. eigenvalues --    0.10396   0.10483   0.11119   0.11190   0.11752
  Beta virt. eigenvalues --    0.11900   0.12030   0.12214   0.12930   0.13255
  Beta virt. eigenvalues --    0.13374   0.13793   0.13861   0.14121   0.14431
  Beta virt. eigenvalues --    0.14746   0.15322   0.15858   0.16048   0.16543
  Beta virt. eigenvalues --    0.17341   0.17667   0.18038   0.18225   0.18731
  Beta virt. eigenvalues --    0.19231   0.19251   0.19687   0.20445   0.20680
  Beta virt. eigenvalues --    0.20741   0.21996   0.22357   0.22691   0.23115
  Beta virt. eigenvalues --    0.23397   0.23617   0.24326   0.24569   0.25299
  Beta virt. eigenvalues --    0.25576   0.25758   0.26212   0.26654   0.26818
  Beta virt. eigenvalues --    0.27484   0.27918   0.28038   0.28659   0.28674
  Beta virt. eigenvalues --    0.29345   0.29565   0.30098   0.30221   0.30295
  Beta virt. eigenvalues --    0.31342   0.31440   0.32119   0.32407   0.32620
  Beta virt. eigenvalues --    0.33449   0.33843   0.35384   0.35629   0.36248
  Beta virt. eigenvalues --    0.36668   0.37192   0.37420   0.37574   0.38767
  Beta virt. eigenvalues --    0.40539   0.41101   0.43026   0.44614   0.48119
  Beta virt. eigenvalues --    0.48701   0.48825   0.51449   0.52249   0.52962
  Beta virt. eigenvalues --    0.53703   0.54076   0.54269   0.54977   0.55476
  Beta virt. eigenvalues --    0.55630   0.55940   0.56912   0.57859   0.58596
  Beta virt. eigenvalues --    0.58704   0.58789   0.60060   0.60667   0.60872
  Beta virt. eigenvalues --    0.61409   0.62534   0.62983   0.63676   0.64337
  Beta virt. eigenvalues --    0.65636   0.67558   0.67644   0.68525   0.69105
  Beta virt. eigenvalues --    0.70082   0.70476   0.71999   0.72026   0.72793
  Beta virt. eigenvalues --    0.74080   0.74527   0.75708   0.75753   0.76491
  Beta virt. eigenvalues --    0.76782   0.77782   0.79474   0.80895   0.81884
  Beta virt. eigenvalues --    0.82014   0.84292   0.84783   0.84982   0.85435
  Beta virt. eigenvalues --    0.86104   0.86433   0.86937   0.87918   0.89169
  Beta virt. eigenvalues --    0.89254   0.90237   0.90679   0.91454   0.91887
  Beta virt. eigenvalues --    0.93547   0.93600   0.94917   0.95494   0.96253
  Beta virt. eigenvalues --    0.98607   0.99059   1.00009   1.01414   1.02586
  Beta virt. eigenvalues --    1.03107   1.04696   1.05855   1.07364   1.08454
  Beta virt. eigenvalues --    1.09760   1.10961   1.12791   1.12857   1.14919
  Beta virt. eigenvalues --    1.16460   1.17594   1.19424   1.21435   1.23764
  Beta virt. eigenvalues --    1.27046   1.27934   1.29059   1.32897   1.34244
  Beta virt. eigenvalues --    1.37159   1.37369   1.45524   1.46967   1.47208
  Beta virt. eigenvalues --    1.48890   1.49009   1.49213   1.50519   1.50811
  Beta virt. eigenvalues --    1.52871   1.53535   1.53922   1.55158   1.56250
  Beta virt. eigenvalues --    1.56427   1.57366   1.58012   1.60732   1.61410
  Beta virt. eigenvalues --    1.62693   1.63774   1.66024   1.66105   1.69240
  Beta virt. eigenvalues --    1.70661   1.72392   1.73480   1.73743   1.75103
  Beta virt. eigenvalues --    1.75894   1.76051   1.79744   1.80082   1.81140
  Beta virt. eigenvalues --    1.81229   1.84509   1.85444   1.86920   1.88187
  Beta virt. eigenvalues --    1.88778   1.88894   1.89655   1.91327   1.92875
  Beta virt. eigenvalues --    1.93201   1.94712   1.96177   1.96662   1.97443
  Beta virt. eigenvalues --    1.97532   2.00356   2.00842   2.02143   2.03481
  Beta virt. eigenvalues --    2.05904   2.06777   2.08309   2.09048   2.09882
  Beta virt. eigenvalues --    2.10553   2.12829   2.17574   2.21128   2.23309
  Beta virt. eigenvalues --    2.24346   2.26714   2.27822   2.33098   2.35419
  Beta virt. eigenvalues --    2.38906   2.41502   2.43457   2.45316   2.46441
  Beta virt. eigenvalues --    2.46595   2.47999   2.50636   2.53982   2.56780
  Beta virt. eigenvalues --    2.61260   2.62746   2.64912   2.66046   2.66485
  Beta virt. eigenvalues --    2.66538   2.68253   2.69530   2.70524   2.71062
  Beta virt. eigenvalues --    2.71895   2.72044   2.73588   2.73850   2.74700
  Beta virt. eigenvalues --    2.76206   2.77364   2.78155   2.79927   2.80752
  Beta virt. eigenvalues --    2.80941   2.81288   2.81953   2.82372   2.85651
  Beta virt. eigenvalues --    2.85963   2.88366   2.90780   2.91164   2.91397
  Beta virt. eigenvalues --    2.93244   2.95249   2.97236   2.98899   3.01569
  Beta virt. eigenvalues --    3.04057   3.08488   3.09072   3.11729   3.17320
  Beta virt. eigenvalues --    3.18428   3.22271   3.22901   3.25942   3.32228
  Beta virt. eigenvalues --    3.32733   3.36046   3.36170   3.40958   3.42049
  Beta virt. eigenvalues --    3.49946   3.52540   3.53785   3.54630   3.54957
  Beta virt. eigenvalues --    3.58440   3.60169   3.64543   3.67067   3.79062
  Beta virt. eigenvalues --    3.84223   4.03087   4.03418   4.04324   4.05483
  Beta virt. eigenvalues --    4.07310   4.17662   4.18035   4.23708   4.26884
  Beta virt. eigenvalues --    4.40822   4.69661   4.83239   4.83305   5.09311
  Beta virt. eigenvalues --    5.24820   5.75437  23.51366  23.64952  23.81141
  Beta virt. eigenvalues --   23.85094  23.92689  23.93381  23.94689  23.95221
  Beta virt. eigenvalues --   24.02700  24.02973  24.09324  24.09394  24.18037
  Beta virt. eigenvalues --   24.18045  24.23089  50.02032
          Condensed to atoms (all electrons):
               1          2          3          4          5          6
     1  O    8.100934   0.338752   0.006264   0.072404   0.048221   0.007006
     2  C    0.338752  27.759832  -8.946978   1.231699  -0.445684   0.880762
     3  C    0.006264  -8.946978  20.332611  -2.671433  -1.049433   0.641940
     4  C    0.072404   1.231699  -2.671433   9.435278  -0.375942  -0.378018
     5  C    0.048221  -0.445684  -1.049433  -0.375942   7.429811  -0.079998
     6  C    0.007006   0.880762   0.641940  -0.378018  -0.079998   7.013763
     7  C   -0.023419  -1.193569  -2.917826   2.068417  -0.417451  -0.156234
     8  C   -0.171353  -1.177688   1.149986  -2.092611   0.435543  -0.662124
     9  C   -0.038525  -1.167864  -1.279685  -0.722497   0.401472  -1.058947
    10  C   -0.038559  -1.165182  -0.841389  -0.039341   0.112135  -0.183790
    11  C   -0.171209  -1.181243  -0.838878  -1.007505  -0.076136   0.071221
    12  C   -0.023398  -1.194464  -0.263490  -0.367992   0.020590  -0.045182
    13  C    0.006991   0.881225  -0.084969  -0.054416  -0.010445   0.022985
    14  C    0.048321  -0.446772   0.130058   0.133834   0.035527  -0.010470
    15  C    0.072250   1.234102   0.269099   0.074250   0.134092  -0.054560
    16  C    0.006320  -8.950629   1.789537   0.270894   0.129967  -0.085000
    17  H   -0.012810   0.101344  -0.066849   0.442584  -0.147425   0.005803
    18  H    0.001312   0.003487   0.018513  -0.023053   0.406996  -0.041120
    19  H   -0.000057  -0.010222   0.016812  -0.025533  -0.053491   0.425913
    20  H    0.000402  -0.024670  -0.010851   0.063463   0.007948  -0.067950
    21  H    0.000049   0.041955   0.016288  -0.048911  -0.007387   0.028751
    22  H    0.000047   0.041949  -0.028829   0.020714  -0.000981   0.010058
    23  H    0.000402  -0.024692   0.009186  -0.001900   0.000909  -0.001970
    24  H   -0.000056  -0.010219  -0.001741  -0.000394  -0.000040   0.000169
    25  H    0.001313   0.003495   0.008304   0.001579   0.000283  -0.000153
    26  H   -0.012800   0.101376  -0.089841  -0.009763   0.002002  -0.000053
               7          8          9         10         11         12
     1  O   -0.023419  -0.171353  -0.038525  -0.038559  -0.171209  -0.023398
     2  C   -1.193569  -1.177688  -1.167864  -1.165182  -1.181243  -1.194464
     3  C   -2.917826   1.149986  -1.279685  -0.841389  -0.838878  -0.263490
     4  C    2.068417  -2.092611  -0.722497  -0.039341  -1.007505  -0.367992
     5  C   -0.417451   0.435543   0.401472   0.112135  -0.076136   0.020590
     6  C   -0.156234  -0.662124  -1.058947  -0.183790   0.071221  -0.045182
     7  C    9.954157  -1.020341   0.614500  -0.051336  -0.361647  -0.068492
     8  C   -1.020341  11.178867  -1.049147  -1.158867   2.732364  -0.361635
     9  C    0.614500  -1.049147   9.661575   2.761594  -1.159239  -0.050727
    10  C   -0.051336  -1.158867   2.761594   9.660224  -1.049396   0.615187
    11  C   -0.361647   2.732364  -1.159239  -1.049396  11.179008  -1.019990
    12  C   -0.068492  -0.361635  -0.050727   0.615187  -1.019990   9.953855
    13  C   -0.045174   0.071403  -0.184118  -1.058814  -0.661853  -0.157031
    14  C    0.020603  -0.076197   0.112459   0.401742   0.436771  -0.416924
    15  C   -0.368131  -1.007451  -0.038917  -0.721462  -2.092774   2.068480
    16  C   -0.263822  -0.841543  -0.841059  -1.281962   1.150181  -2.917980
    17  H    0.041017   0.049374  -0.001105  -0.000465   0.007347  -0.003039
    18  H   -0.015683  -0.025615  -0.006845  -0.001024  -0.002173   0.000065
    19  H   -0.071403   0.030755   0.006751   0.000718   0.003657   0.000106
    20  H    0.504660  -0.151257   0.036843  -0.014732  -0.018709  -0.007263
    21  H   -0.059871  -0.088107   0.332483  -0.009235   0.038412   0.047835
    22  H    0.047913   0.038470  -0.009299   0.332457  -0.088130  -0.059886
    23  H   -0.007272  -0.018726  -0.014690   0.036896  -0.151314   0.504700
    24  H    0.000106   0.003658   0.000713   0.006727   0.030765  -0.071418
    25  H    0.000065  -0.002174  -0.001021  -0.006840  -0.025608  -0.015713
    26  H   -0.003040   0.007335  -0.000473  -0.001093   0.049290   0.041011
              13         14         15         16         17         18
     1  O    0.006991   0.048321   0.072250   0.006320  -0.012810   0.001312
     2  C    0.881225  -0.446772   1.234102  -8.950629   0.101344   0.003487
     3  C   -0.084969   0.130058   0.269099   1.789537  -0.066849   0.018513
     4  C   -0.054416   0.133834   0.074250   0.270894   0.442584  -0.023053
     5  C   -0.010445   0.035527   0.134092   0.129967  -0.147425   0.406996
     6  C    0.022985  -0.010470  -0.054560  -0.085000   0.005803  -0.041120
     7  C   -0.045174   0.020603  -0.368131  -0.263822   0.041017  -0.015683
     8  C    0.071403  -0.076197  -1.007451  -0.841543   0.049374  -0.025615
     9  C   -0.184118   0.112459  -0.038917  -0.841059  -0.001105  -0.006845
    10  C   -1.058814   0.401742  -0.721462  -1.281962  -0.000465  -0.001024
    11  C   -0.661853   0.436771  -2.092774   1.150181   0.007347  -0.002173
    12  C   -0.157031  -0.416924   2.068480  -2.917980  -0.003039   0.000065
    13  C    7.013095  -0.080513  -0.377864   0.642766  -0.000053  -0.000153
    14  C   -0.080513   7.431797  -0.376611  -1.051231   0.002002   0.000284
    15  C   -0.377864  -0.376611   9.437086  -2.674434  -0.009765   0.001581
    16  C    0.642766  -1.051231  -2.674434  20.343269  -0.089924   0.008311
    17  H   -0.000053   0.002002  -0.009765  -0.089924   0.497537  -0.013694
    18  H   -0.000153   0.000284   0.001581   0.008311  -0.013694   0.531773
    19  H    0.000169  -0.000040  -0.000395  -0.001747   0.000372  -0.014402
    20  H   -0.001969   0.000908  -0.001899   0.009187   0.000716   0.000568
    21  H    0.010041  -0.000980   0.020715  -0.028789   0.000160  -0.000546
    22  H    0.028765  -0.007378  -0.048944   0.016250   0.000067  -0.000022
    23  H   -0.067931   0.007948   0.063464  -0.010877  -0.000112   0.000015
    24  H    0.425891  -0.053514  -0.025521   0.016861  -0.000012  -0.000000
    25  H   -0.041057   0.407011  -0.023111   0.018516  -0.000037   0.000011
    26  H    0.005794  -0.147460   0.442714  -0.066946  -0.001070  -0.000037
              19         20         21         22         23         24
     1  O   -0.000057   0.000402   0.000049   0.000047   0.000402  -0.000056
     2  C   -0.010222  -0.024670   0.041955   0.041949  -0.024692  -0.010219
     3  C    0.016812  -0.010851   0.016288  -0.028829   0.009186  -0.001741
     4  C   -0.025533   0.063463  -0.048911   0.020714  -0.001900  -0.000394
     5  C   -0.053491   0.007948  -0.007387  -0.000981   0.000909  -0.000040
     6  C    0.425913  -0.067950   0.028751   0.010058  -0.001970   0.000169
     7  C   -0.071403   0.504660  -0.059871   0.047913  -0.007272   0.000106
     8  C    0.030755  -0.151257  -0.088107   0.038470  -0.018726   0.003658
     9  C    0.006751   0.036843   0.332483  -0.009299  -0.014690   0.000713
    10  C    0.000718  -0.014732  -0.009235   0.332457   0.036896   0.006727
    11  C    0.003657  -0.018709   0.038412  -0.088130  -0.151314   0.030765
    12  C    0.000106  -0.007263   0.047835  -0.059886   0.504700  -0.071418
    13  C    0.000169  -0.001969   0.010041   0.028765  -0.067931   0.425891
    14  C   -0.000040   0.000908  -0.000980  -0.007378   0.007948  -0.053514
    15  C   -0.000395  -0.001899   0.020715  -0.048944   0.063464  -0.025521
    16  C   -0.001747   0.009187  -0.028789   0.016250  -0.010877   0.016861
    17  H    0.000372   0.000716   0.000160   0.000067  -0.000112  -0.000012
    18  H   -0.014402   0.000568  -0.000546  -0.000022   0.000015  -0.000000
    19  H    0.542417  -0.018205   0.001593  -0.000128  -0.000002   0.000001
    20  H   -0.018205   0.553265  -0.000104   0.001494  -0.000127  -0.000002
    21  H    0.001593  -0.000104   0.591469  -0.042746   0.001494  -0.000127
    22  H   -0.000128   0.001494  -0.042746   0.591490  -0.000110   0.001592
    23  H   -0.000002  -0.000127   0.001494  -0.000110   0.553269  -0.018206
    24  H    0.000001  -0.000002  -0.000127   0.001592  -0.018206   0.542421
    25  H   -0.000000   0.000015  -0.000022  -0.000545   0.000566  -0.014399
    26  H   -0.000012  -0.000112   0.000066   0.000160   0.000716   0.000371
              25         26
     1  O    0.001313  -0.012800
     2  C    0.003495   0.101376
     3  C    0.008304  -0.089841
     4  C    0.001579  -0.009763
     5  C    0.000283   0.002002
     6  C   -0.000153  -0.000053
     7  C    0.000065  -0.003040
     8  C   -0.002174   0.007335
     9  C   -0.001021  -0.000473
    10  C   -0.006840  -0.001093
    11  C   -0.025608   0.049290
    12  C   -0.015713   0.041011
    13  C   -0.041057   0.005794
    14  C    0.407011  -0.147460
    15  C   -0.023111   0.442714
    16  C    0.018516  -0.066946
    17  H   -0.000037  -0.001070
    18  H    0.000011  -0.000037
    19  H   -0.000000  -0.000012
    20  H    0.000015  -0.000112
    21  H   -0.000022   0.000066
    22  H   -0.000545   0.000160
    23  H    0.000566   0.000716
    24  H   -0.014399   0.000371
    25  H    0.531760  -0.013696
    26  H   -0.013696   0.497528
          Atomic-Atomic Spin Densities.
               1          2          3          4          5          6
     1  O   -0.000000   0.000000  -0.000000   0.000000  -0.000000   0.000000
     2  C    0.000000   0.000000  -0.000000   0.000000  -0.000000   0.000000
     3  C   -0.000000  -0.000000  -0.000000   0.000000   0.000000  -0.000000
     4  C    0.000000   0.000000   0.000000   0.000000  -0.000000   0.000000
     5  C   -0.000000  -0.000000   0.000000  -0.000000   0.000000  -0.000000
     6  C    0.000000   0.000000  -0.000000   0.000000  -0.000000   0.000000
     7  C   -0.000000   0.000000   0.000000  -0.000000  -0.000000   0.000000
     8  C   -0.000000  -0.000000   0.000000  -0.000000   0.000000  -0.000000
     9  C    0.000000  -0.000000   0.000000  -0.000000   0.000000  -0.000000
    10  C    0.000000   0.000000   0.000000  -0.000000   0.000000  -0.000000
    11  C    0.000000  -0.000000   0.000000  -0.000000   0.000000  -0.000000
    12  C    0.000000  -0.000000   0.000000  -0.000000   0.000000  -0.000000
    13  C   -0.000000  -0.000000  -0.000000   0.000000  -0.000000  -0.000000
    14  C   -0.000000   0.000000   0.000000  -0.000000   0.000000   0.000000
    15  C   -0.000000  -0.000000  -0.000000   0.000000   0.000000  -0.000000
    16  C    0.000000  -0.000000   0.000000  -0.000000  -0.000000   0.000000
    17  H   -0.000000   0.000000   0.000000   0.000000  -0.000000   0.000000
    18  H   -0.000000  -0.000000  -0.000000  -0.000000   0.000000  -0.000000
    19  H    0.000000  -0.000000  -0.000000   0.000000  -0.000000  -0.000000
    20  H   -0.000000   0.000000   0.000000  -0.000000  -0.000000   0.000000
    21  H    0.000000  -0.000000  -0.000000   0.000000   0.000000  -0.000000
    22  H   -0.000000   0.000000  -0.000000   0.000000  -0.000000   0.000000
    23  H    0.000000  -0.000000   0.000000  -0.000000   0.000000  -0.000000
    24  H   -0.000000   0.000000  -0.000000   0.000000  -0.000000   0.000000
    25  H    0.000000  -0.000000   0.000000  -0.000000   0.000000   0.000000
    26  H    0.000000  -0.000000   0.000000   0.000000   0.000000  -0.000000
               7          8          9         10         11         12
     1  O   -0.000000  -0.000000   0.000000   0.000000   0.000000   0.000000
     2  C    0.000000  -0.000000  -0.000000   0.000000  -0.000000  -0.000000
     3  C    0.000000   0.000000   0.000000   0.000000   0.000000   0.000000
     4  C   -0.000000  -0.000000  -0.000000  -0.000000  -0.000000  -0.000000
     5  C   -0.000000   0.000000   0.000000   0.000000   0.000000   0.000000
     6  C    0.000000  -0.000000  -0.000000  -0.000000  -0.000000  -0.000000
     7  C   -0.000000   0.000000  -0.000000  -0.000000   0.000000   0.000000
     8  C    0.000000  -0.000000   0.000000   0.000000  -0.000000  -0.000000
     9  C   -0.000000   0.000000  -0.000000  -0.000000   0.000000   0.000000
    10  C   -0.000000   0.000000  -0.000000  -0.000000   0.000000   0.000000
    11  C    0.000000  -0.000000   0.000000   0.000000  -0.000000  -0.000000
    12  C    0.000000  -0.000000   0.000000   0.000000  -0.000000   0.000000
    13  C    0.000000   0.000000   0.000000   0.000000   0.000000  -0.000000
    14  C   -0.000000   0.000000  -0.000000  -0.000000  -0.000000   0.000000
    15  C    0.000000   0.000000   0.000000   0.000000   0.000000   0.000000
    16  C   -0.000000  -0.000000   0.000000   0.000000   0.000000  -0.000000
    17  H   -0.000000  -0.000000  -0.000000  -0.000000  -0.000000  -0.000000
    18  H    0.000000   0.000000   0.000000   0.000000   0.000000   0.000000
    19  H    0.000000  -0.000000   0.000000  -0.000000  -0.000000  -0.000000
    20  H   -0.000000   0.000000  -0.000000  -0.000000   0.000000   0.000000
    21  H    0.000000  -0.000000   0.000000   0.000000  -0.000000   0.000000
    22  H   -0.000000   0.000000  -0.000000  -0.000000   0.000000  -0.000000
    23  H   -0.000000  -0.000000   0.000000   0.000000  -0.000000   0.000000
    24  H    0.000000  -0.000000   0.000000   0.000000  -0.000000  -0.000000
    25  H   -0.000000   0.000000  -0.000000  -0.000000   0.000000   0.000000
    26  H   -0.000000  -0.000000   0.000000   0.000000  -0.000000   0.000000
              13         14         15         16         17         18
     1  O   -0.000000  -0.000000  -0.000000   0.000000  -0.000000  -0.000000
     2  C   -0.000000   0.000000  -0.000000  -0.000000   0.000000  -0.000000
     3  C   -0.000000   0.000000  -0.000000   0.000000   0.000000  -0.000000
     4  C    0.000000  -0.000000   0.000000  -0.000000   0.000000  -0.000000
     5  C   -0.000000   0.000000   0.000000  -0.000000  -0.000000   0.000000
     6  C   -0.000000   0.000000  -0.000000   0.000000   0.000000  -0.000000
     7  C    0.000000  -0.000000   0.000000  -0.000000  -0.000000   0.000000
     8  C    0.000000   0.000000   0.000000  -0.000000  -0.000000   0.000000
     9  C    0.000000  -0.000000   0.000000   0.000000  -0.000000   0.000000
    10  C    0.000000  -0.000000   0.000000   0.000000  -0.000000   0.000000
    11  C    0.000000  -0.000000   0.000000   0.000000  -0.000000   0.000000
    12  C   -0.000000   0.000000   0.000000  -0.000000  -0.000000   0.000000
    13  C   -0.000000   0.000000  -0.000000  -0.000000   0.000000  -0.000000
    14  C    0.000000   0.000000   0.000000  -0.000000   0.000000  -0.000000
    15  C   -0.000000   0.000000  -0.000000   0.000000   0.000000   0.000000
    16  C   -0.000000  -0.000000   0.000000   0.000000  -0.000000   0.000000
    17  H    0.000000   0.000000   0.000000  -0.000000   0.000000  -0.000000
    18  H   -0.000000  -0.000000   0.000000   0.000000  -0.000000  -0.000000
    19  H   -0.000000   0.000000  -0.000000   0.000000   0.000000  -0.000000
    20  H    0.000000  -0.000000   0.000000  -0.000000  -0.000000   0.000000
    21  H   -0.000000   0.000000  -0.000000   0.000000  -0.000000   0.000000
    22  H    0.000000  -0.000000  -0.000000  -0.000000   0.000000  -0.000000
    23  H   -0.000000   0.000000   0.000000  -0.000000  -0.000000   0.000000
    24  H    0.000000  -0.000000  -0.000000   0.000000   0.000000  -0.000000
    25  H    0.000000   0.000000  -0.000000  -0.000000  -0.000000   0.000000
    26  H    0.000000  -0.000000   0.000000   0.000000  -0.000000   0.000000
              19         20         21         22         23         24
     1  O    0.000000  -0.000000   0.000000  -0.000000   0.000000  -0.000000
     2  C   -0.000000   0.000000  -0.000000   0.000000  -0.000000   0.000000
     3  C   -0.000000   0.000000  -0.000000  -0.000000   0.000000  -0.000000
     4  C    0.000000  -0.000000   0.000000   0.000000  -0.000000   0.000000
     5  C   -0.000000  -0.000000   0.000000  -0.000000   0.000000  -0.000000
     6  C   -0.000000   0.000000  -0.000000   0.000000  -0.000000   0.000000
     7  C    0.000000  -0.000000   0.000000  -0.000000  -0.000000   0.000000
     8  C   -0.000000   0.000000  -0.000000   0.000000  -0.000000  -0.000000
     9  C    0.000000  -0.000000   0.000000  -0.000000   0.000000   0.000000
    10  C   -0.000000  -0.000000   0.000000  -0.000000   0.000000   0.000000
    11  C   -0.000000   0.000000  -0.000000   0.000000  -0.000000  -0.000000
    12  C   -0.000000   0.000000   0.000000  -0.000000   0.000000  -0.000000
    13  C   -0.000000   0.000000  -0.000000   0.000000  -0.000000   0.000000
    14  C    0.000000  -0.000000   0.000000  -0.000000   0.000000  -0.000000
    15  C   -0.000000   0.000000  -0.000000  -0.000000   0.000000  -0.000000
    16  C    0.000000  -0.000000   0.000000  -0.000000  -0.000000   0.000000
    17  H    0.000000  -0.000000  -0.000000   0.000000  -0.000000   0.000000
    18  H   -0.000000   0.000000   0.000000  -0.000000   0.000000  -0.000000
    19  H   -0.000000   0.000000  -0.000000   0.000000  -0.000000  -0.000000
    20  H    0.000000  -0.000000   0.000000  -0.000000  -0.000000   0.000000
    21  H   -0.000000   0.000000  -0.000000  -0.000000   0.000000  -0.000000
    22  H    0.000000  -0.000000  -0.000000   0.000000  -0.000000   0.000000
    23  H   -0.000000  -0.000000   0.000000  -0.000000   0.000000  -0.000000
    24  H   -0.000000   0.000000  -0.000000   0.000000  -0.000000   0.000000
    25  H    0.000000  -0.000000   0.000000  -0.000000   0.000000  -0.000000
    26  H   -0.000000   0.000000   0.000000  -0.000000   0.000000   0.000000
              25         26
     1  O    0.000000   0.000000
     2  C   -0.000000  -0.000000
     3  C    0.000000   0.000000
     4  C   -0.000000   0.000000
     5  C    0.000000   0.000000
     6  C    0.000000  -0.000000
     7  C   -0.000000  -0.000000
     8  C    0.000000  -0.000000
     9  C   -0.000000   0.000000
    10  C   -0.000000   0.000000
    11  C    0.000000  -0.000000
    12  C    0.000000   0.000000
    13  C    0.000000   0.000000
    14  C    0.000000  -0.000000
    15  C   -0.000000   0.000000
    16  C   -0.000000   0.000000
    17  H   -0.000000  -0.000000
    18  H    0.000000   0.000000
    19  H    0.000000  -0.000000
    20  H   -0.000000   0.000000
    21  H    0.000000   0.000000
    22  H   -0.000000  -0.000000
    23  H    0.000000   0.000000
[...]
 09,-0.00650910,-0.00030358,0.00403920,-0.00161087,-0.00072876,-0.00078
 315,-0.00025919,-0.00019846,0.00037051,0.00006225,0.00011220,0.0000799
 4,-0.00001005,-0.00007913,-0.00004741,0.00000706,0.00001727,0.00004712
 ,-0.00000116,0.00001499,-0.00005005,-0.00000931,-0.00005613,0.00000234
 ,0.00001696,0.00003134,0.00000225,-0.00001666,-0.00024316,0.00014804,0
 .00000563,0.00039942,-0.00046589,0.00091754,0.30886806,-0.00017221,0.0
 0030782,0.00000856,-0.00006421,-0.00021916,0.00002564,0.00067298,-0.00
 108832,0.00000529,-0.00028418,-0.00554909,-0.00196720,-0.02885922,-0.0
 0227640,-0.00838925,-0.06771804,-0.07903434,-0.02371924,0.02139987,0.0
 0985797,0.00648356,0.00340869,-0.00250488,-0.00061036,0.00073266,0.000
 66467,0.00026796,0.00022962,-0.00027795,0.00001789,-0.00010194,-0.0001
 0347,-0.00000601,0.00005270,0.00001241,-0.00000459,-0.00001797,-0.0000
 3861,0.00000102,-0.00002766,0.00002931,0.00001248,0.00002083,0.0000298
 5,0.00000811,-0.00012519,0.00000162,0.00001456,-0.00130487,-0.00012255
 ,-0.00034045,0.00036232,0.00091852,0.00076209,0.07229596,0.07869183,-0
 .00022318,-0.00009411,0.00004494,0.00023983,0.00011555,-0.00116470,0.0
 0036809,0.00058674,-0.00042788,-0.00150058,-0.00227775,0.00612295,-0.0
 0581998,-0.00063600,0.00196193,-0.07672825,-0.02343183,-0.06150133,-0.
 00169829,-0.00151430,0.00306889,-0.00157648,-0.00087280,0.00722390,-0.
 00011133,-0.00008467,0.00004057,0.00007358,0.00006419,-0.00025694,-0.0
 0000638,-0.00002234,0.00002267,0.00002139,-0.00000372,-0.00000999,0.00
 000682,-0.00001334,-0.00000506,-0.00001056,-0.00000919,-0.00001701,-0.
 00000061,-0.00000442,0.00001497,0.00000719,-0.00004819,0.00006417,-0.0
 0011108,0.00005075,-0.00011496,0.00105362,0.00053065,-0.00310826,0.084
 86594,0.02687540,0.05185111,-0.00069510,-0.00055314,-0.00056264,0.0013
 8063,-0.00085991,0.00014181,-0.00506679,-0.00037087,-0.00248776,-0.001
 05217,0.00044886,0.00009885,-0.00255144,0.00327824,-0.00205203,0.00847
 046,0.02329832,0.00471598,-0.06876992,-0.05501870,-0.01647520,-0.00327
 402,-0.02707461,-0.00545805,-0.00015037,-0.00284191,0.00080474,0.00019
 675,0.00044389,0.00006679,-0.00004213,-0.00013767,-0.00016676,0.000065
 78,0.00010082,0.00002055,-0.00003616,-0.00004180,0.00002321,-0.0000264
 1,0.00007477,0.00002435,0.00005361,0.00007392,0.00004273,-0.00013140,0
 .00004094,-0.00008602,0.00002308,-0.00009252,0.00017080,0.00025505,0.0
 0112472,0.00020885,0.00057067,-0.00058354,0.00114457,0.07144969,-0.000
 34300,-0.00033629,-0.00025499,0.00089775,0.00005577,0.00012327,-0.0015
 0247,0.00151969,-0.00068203,0.00030895,0.00056144,0.00029908,0.0042636
 0,-0.00074860,-0.00006074,-0.00699117,-0.01669657,-0.00495005,-0.05622
 027,-0.30936112,-0.05401782,0.00013410,-0.00610595,-0.00128450,0.00254
 645,0.00010182,0.00112210,-0.00018737,0.00063005,0.00010585,0.00016071
 ,-0.00011370,-0.00011977,-0.00003258,0.00003935,-0.00000163,-0.0000003
 9,0.00002372,0.00001624,0.00000701,0.00000210,0.00000272,-0.00001457,0
 .00004187,0.00004587,-0.00010268,-0.00001618,-0.00003422,-0.00006686,-
 0.00009044,0.00007248,-0.00039768,-0.00087624,-0.00024155,0.00007447,0
 .00074654,0.00076487,0.05755940,0.32967342,0.00002759,0.00014932,-0.00
 020630,0.00032444,-0.00050088,0.00053788,-0.00286408,-0.00086803,0.004
 77646,-0.00010395,0.00011334,-0.00107317,-0.00195942,-0.00029285,0.006
 93325,0.00041701,0.00285229,0.00410641,-0.01709471,-0.05381621,-0.0477
 6362,-0.00156030,-0.00795976,0.00123256,0.00106907,-0.00056105,-0.0032
 0387,0.00037614,0.00031327,0.00001280,-0.00005518,-0.00011984,0.000213
 31,0.00007261,0.00001625,-0.00001837,-0.00002789,-0.00005751,-0.000043
 00,-0.00004908,0.00003837,0.00001828,0.00004640,0.00004867,-0.00003729
 ,-0.00012371,0.00005803,0.00004861,0.00020954,0.00013507,-0.00066568,-
 0.00003600,0.00015960,0.00018122,0.00128399,0.00060286,-0.00389449,0.0
 2014933,0.05904777,0.03845613,0.00026048,-0.00002405,0.00000783,-0.000
 68033,-0.00003452,-0.00013218,-0.00240847,0.00208152,-0.00083525,0.000
 27388,0.00079116,0.00043652,0.00011063,0.00015398,-0.00002255,0.000179
 66,-0.00026377,-0.00019085,-0.00016821,0.00317722,0.00049772,0.0074135
 5,0.01878007,0.00086716,-0.10271003,-0.10487591,-0.00773071,-0.0161647
 6,-0.03071689,-0.00184710,-0.00391174,0.00206253,-0.00044576,-0.000139
 51,-0.00122103,-0.00009475,-0.00041932,0.00015148,0.00019771,0.0000093
 6,0.00007933,-0.00000460,0.00011869,-0.00016974,-0.00002042,0.00000654
 ,0.00024615,0.00009037,-0.00021502,0.00017302,0.00004090,-0.00002164,-
 0.00004805,0.00002933,0.00000095,-0.00001574,0.00000986,-0.00062731,0.
 00001543,-0.00010844,0.11923122,-0.00025319,-0.00021427,-0.00022905,0.
 00068512,0.00042290,0.00028876,0.00388486,-0.00122306,0.00124665,-0.00
 096166,-0.00090245,-0.00067263,0.00010342,0.00031320,0.00011536,0.0005
 7378,0.00026054,-0.00003863,-0.00262644,0.00044057,-0.00102000,-0.0104
 9328,-0.02252930,-0.00229782,-0.10510558,-0.27748065,-0.01185766,0.001
 44313,0.00085448,-0.00014819,0.00072635,0.00202106,-0.00034238,-0.0001
 5412,-0.00015225,-0.00005478,-0.00008104,0.00006716,0.00009086,-0.0000
 0829,0.00003899,-0.00000569,0.00003896,0.00007188,0.00005617,0.0001514
 2,-0.00008498,-0.00004768,0.00032581,-0.00024145,0.00004581,0.00005160
 ,0.00006744,0.00007639,0.00003874,-0.00004558,0.00002887,0.00106985,0.
 00094475,0.00064649,0.11017599,0.29565610,-0.00001235,0.00019055,-0.00
 006267,0.00024926,-0.00015854,0.00033316,-0.00048557,0.00008969,0.0025
 8378,0.00033601,0.00006751,0.00003953,-0.00001116,0.00011305,0.0000962
 3,0.00016911,-0.00048360,-0.00018092,-0.00050297,0.00100036,-0.0014081
 5,0.00166236,-0.00151895,0.00336215,-0.01039954,-0.01157575,-0.0381057
 0,0.00170272,-0.00167512,0.00504637,-0.00086030,-0.00029601,0.01044366
 ,0.00001179,-0.00064466,-0.00015551,-0.00034019,0.00006960,-0.00056140
 ,-0.00000527,0.00008149,0.00013159,-0.00007808,0.00014198,-0.00059107,
 -0.00019253,0.00050275,-0.00013247,-0.00002497,-0.00000707,-0.00015013
 ,-0.00001032,-0.00001709,0.00004632,-0.00000546,-0.00000217,0.00002800
 ,-0.00028457,0.00005504,0.00028184,0.00896161,0.01373685,0.02581745,0.
 00025780,0.00001367,0.00001361,-0.00066608,0.00004027,0.00006718,0.000
 00106,-0.00027760,-0.00008165,0.00010903,0.00016050,0.00006495,0.00000
 955,-0.00008448,-0.00000316,-0.00042876,-0.00015757,-0.00018942,-0.000
 15030,0.00125970,0.00009533,-0.00392577,-0.00206253,-0.00047116,-0.016
 20166,0.03069379,0.00049709,-0.10442914,0.10607989,0.00354661,0.007588
 23,-0.01853109,-0.00058775,-0.00017306,-0.00323788,-0.00041814,0.00017
 823,0.00029399,0.00021438,0.00010963,-0.00016203,0.00002296,0.00032095
 ,-0.00078881,-0.00041648,-0.00244905,-0.00208705,0.00050935,-0.0000473
 1,0.00004651,-0.00001364,-0.00000820,0.00001429,0.00000162,-0.00011133
 ,0.00010032,-0.00001040,-0.00003783,-0.00010824,0.00000236,0.00006469,
 0.00043568,0.00015574,0.12085978,0.00026919,-0.00021315,-0.00021230,-0
 .00070667,0.00042032,0.00024474,-0.00014767,-0.00008623,-0.00005702,-0
 .00004230,0.00007243,0.00005366,0.00000847,0.00003871,-0.00000514,0.00
 007326,0.00006694,0.00009492,0.00015736,-0.00014674,-0.00004443,-0.000
 72656,0.00200963,-0.00038836,-0.00149823,0.00097030,-0.00023806,0.1063
 2593,-0.27664771,-0.00508330,0.01073408,-0.02256220,-0.00162638,0.0026
 8475,0.00043764,-0.00085141,-0.00057034,0.00025937,-0.00007442,-0.0001
 1133,0.00031195,0.00010872,0.00100725,-0.00090133,-0.00061177,-0.00396
 054,-0.00124688,0.00099959,-0.00002587,0.00001002,-0.00001363,0.000014
 67,-0.00000264,-0.00000071,0.00000653,-0.00001115,-0.00000309,0.000026
 17,-0.00001847,0.00000053,-0.00046712,0.00173746,0.00037089,-0.1115089
 3,0.29478273,0.00003201,0.00019210,-0.00006101,-0.00031200,-0.00015790
 ,0.00032154,0.00019951,0.00048620,-0.00012588,0.00012182,0.00015300,-0
 .00058206,-0.00000248,0.00007646,0.00013181,0.00034832,0.00006037,-0.0
 0055189,-0.00000974,-0.00056489,-0.00014997,-0.00005618,-0.00042602,0.
 01046903,-0.00305368,0.00027589,0.00497290,0.00622107,-0.00480806,-0.0
 3720566,-0.00138797,-0.00272144,0.00322024,0.00057993,0.00080077,-0.00
 140164,-0.00014467,-0.00046674,-0.00017844,0.00001157,0.00010332,0.000
 09856,-0.00031831,0.00001593,-0.00000864,0.00016315,-0.00004133,0.0026
 4659,0.00000998,0.00000745,-0.00002235,-0.00000900,-0.00001149,0.00005
 118,0.00001941,-0.00004297,0.00004309,-0.00000730,0.00000964,0.0000727
 6,0.00029565,0.00040056,-0.00700578,-0.00295716,0.00663760,0.02504477,
 -0.00073074,0.00054092,0.00052989,0.00140679,0.00089560,-0.00008623,-0
 .00014431,-0.00004520,0.00007353,0.00005915,-0.00007679,-0.00003672,-0
 .00002744,-0.00007718,-0.00002728,-0.00003668,0.00004510,-0.00002286,0
 .00007164,-0.00010154,-0.00001484,-0.00005515,0.00014523,0.00015022,0.
 00022507,-0.00046446,-0.00005358,-0.00004584,0.00287198,-0.00060542,-0
 .00380786,0.02753512,0.00514958,-0.07127268,0.05924395,0.01520682,0.00
 884008,-0.02333316,-0.00440417,-0.00273867,-0.00326070,0.00143513,-0.0
 0104965,-0.00046158,-0.00009874,-0.00537406,0.00039895,0.00184318,0.00
 003053,-0.00001247,0.00001908,-0.00001183,-0.00000494,0.00000331,0.000
 00580,-0.00000523,0.00000447,-0.00003063,-0.00001178,0.00000284,-0.000
 03790,-0.00002621,0.00000003,-0.00063995,-0.00111716,0.00022506,0.0743
 4694,0.00035709,-0.00033287,-0.00023042,-0.00089865,0.00005575,0.00006
 527,0.00010414,-0.00001598,-0.00002716,0.00001168,0.00004161,0.0000465
 6,-0.00000731,0.00000179,0.00000217,-0.00000085,0.00002391,0.00001614,
 0.00003272,0.00003910,0.00000040,-0.00015247,-0.00011372,-0.00012930,0
 .00017888,0.00062887,0.00011741,-0.00261307,0.00010222,0.00095553,-0.0
 0004230,-0.00599920,-0.00127051,0.06045420,-0.30889464,-0.05029712,0.0
 0739093,-0.01675679,-0.00451348,-0.00425843,-0.00077849,-0.00032754,-0
 .00033387,0.00055917,0.00027897,0.00151554,0.00152768,-0.00057808,-0.0
 0002397,0.00000588,-0.00001574,0.00001174,-0.00000071,-0.00000354,0.00
 000218,0.00000579,0.00000208,0.00001166,0.00001197,-0.00000025,0.00010
 735,-0.00001815,0.00001655,-0.00002523,0.00094064,0.00005461,-0.062178
 12,0.32918706,-0.00006112,0.00018377,-0.00017461,-0.00026783,-0.000446
 69,0.00051129,0.00011107,0.00005592,0.00006121,-0.00004034,0.00004371,
 -0.00004254,0.00004601,0.00003365,0.00001964,0.00002847,-0.00005464,-0
 .00004266,-0.00006690,0.00000956,-0.00002397,0.00003845,-0.00011079,0.
 00022624,-0.00036449,0.00028326,-0.00001451,-0.00086800,-0.00038267,-0
 .00330422,0.00127028,-0.00621638,0.00166018,0.01582612,-0.05016944,-0.
 04573172,-0.00012677,0.00136253,0.00379776,0.00134275,-0.00049560,0.00
 715017,0.00010633,0.00008614,-0.00107349,0.00222077,-0.00083511,0.0050
 7592,0.00000037,-0.00000292,-0.00000014,-0.00000218,-0.00000291,0.0000
 1752,0.00000083,-0.00000109,0.00000228,-0.00000583,-0.00000100,0.00001
 625,-0.00000935,-0.00000116,0.00007263,0.00004860,0.00057549,0.0002997
 9,-0.01811077,0.05522300,0.03604234,-0.00004274,0.00002700,0.00011556,
 -0.00002298,0.00000608,-0.00026596,0.00003038,0.00000095,0.00001434,-0
 .00005472,-0.00000240,-0.00002142,0.00001331,0.00005047,0.00001119,0.0
 0001763,-0.00004596,0.00000261,-0.00007701,0.00004718,-0.00001132,0.00
 011065,-0.00007755,0.00001572,-0.00018766,-0.00037348,-0.00005796,-0.0
 0074928,0.00078155,0.00020784,-0.00044804,-0.00396745,0.00112429,-0.01
 670992,0.00854338,0.00522807,-0.30177504,0.06782297,0.06145159,-0.0024
 5169,-0.00075012,0.00105475,0.00191511,0.00112233,0.00110080,0.0004255
 9,-0.00037128,-0.00027118,0.00000434,0.00000297,0.00000267,-0.00000588
 ,0.00000523,-0.00000225,-0.00001016,-0.00000092,-0.00000155,0.00000610
 ,-0.00000231,-0.00000057,-0.00010971,-0.00000672,-0.00002902,0.0000014
 9,-0.00004030,0.00000379,0.00070509,-0.00012312,-0.00099265,0.31915876
 ,0.00016996,0.00030857,0.00001993,0.00006320,-0.00021888,0.00002894,0.
 00012407,0.00000211,0.00002261,-0.00002161,0.00002976,0.00000666,0.000
 02675,0.00002960,0.00001424,0.00001808,-0.00003871,0.00000219,-0.00005
 263,0.00001238,-0.00000798,0.00010294,-0.00010335,0.00000054,-0.000229
 89,-0.00028029,0.00000310,-0.00075368,0.00066480,0.00022159,-0.0033548
 4,-0.00253285,-0.00082242,-0.02187143,0.00980608,0.00513153,0.06822764
 ,-0.07850602,-0.01913554,0.02933254,-0.00216533,-0.00653365,0.00043715
 ,-0.00554251,-0.00194225,-0.00066610,-0.00109253,-0.00003889,-0.000008
 57,0.00000331,-0.00000151,0.00000369,0.00000050,-0.00000029,0.00000091
 ,0.00000138,-0.00000056,0.00000529,0.00000580,-0.00000076,-0.00009775,
 -0.00001157,-0.00004941,0.00001611,-0.00004567,-0.00000113,0.00054350,
 0.00074790,0.00063529,-0.07292694,0.07812484,0.00021798,-0.00009142,0.
 00006666,-0.00016680,0.00011513,-0.00119716,-0.00000915,-0.00004817,0.
 00006462,-0.00000382,-0.00000457,0.00001362,0.00001255,-0.00000594,-0.
 00001562,-0.00000531,-0.00001637,-0.00000531,-0.00002569,-0.00000079,-
 0.00001212,0.00001212,-0.00002739,0.00002413,-0.00006956,0.00004028,-0
 .00026537,0.00006109,-0.00003446,0.00006086,0.00108919,-0.00112413,0.0
 0739591,0.00043683,-0.00096344,0.00351347,0.06154577,-0.01887216,-0.05
 271798,0.00555252,-0.00066419,0.00239579,0.00124030,-0.00220965,0.0062
 8709,-0.00031727,0.00056272,-0.00046872,-0.00000543,-0.00000281,0.0000
 0583,0.00000171,0.00000053,-0.00000072,0.00000053,-0.00000061,0.000005
 86,-0.00000423,0.00000192,0.00000195,0.00000064,-0.00000350,0.00004191
 ,-0.00001168,0.00002633,0.00002757,-0.00085371,0.00075500,-0.00402887,
 -0.06797601,0.02196900,0.04213475,0.00004191,0.00042803,0.00027369,-0.
 00013164,-0.00178312,-0.00055845,-0.00028088,0.00041268,0.00004377,-0.
 00010623,-0.00014908,-0.00005363,-0.00001665,0.00003593,0.00000079,-0.
 00001454,-0.00002273,-0.00000601,-0.00003033,-0.00001165,-0.00000335,0
 .00001074,0.00005158,0.00001693,-0.00004234,0.00004744,-0.00000114,0.0
 0013083,-0.00001528,-0.00019104,-0.00033476,0.00089735,0.00002814,0.00
 112632,0.00184975,0.00137334,0.00890698,0.00708727,-0.00008416,-0.1972
 2413,-0.13909056,0.01058783,-0.01655048,-0.02252765,0.00037696,-0.0037
 6849,0.00245585,0.00312225,0.00002207,-0.00000073,0.00002158,-0.000023
 95,0.,-0.00001431,-0.00000586,-0.00000369,-0.00000204,-0.00001162,-0.0
 0001154,0.00000034,-0.00000832,-0.00001462,0.00000525,-0.00002012,-0.0
 0005666,0.00000616,0.00026841,0.00041666,0.00004096,0.00051016,-0.0004
 1177,-0.00082525,0.20676418,-0.00016069,-0.00004589,0.00002440,0.00033
 620,0.00044528,0.00000420,0.00001999,-0.00014621,0.00005784,0.00005294
 ,0.00001946,-0.00000865,-0.00001940,-0.00001857,-0.00001458,-0.0000082
 6,0.00002833,0.00000307,0.00002082,0.00001877,-0.00000130,-0.00003827,
 0.00002366,-0.00000717,0.00002464,-0.00002552,0.00001197,-0.00011783,0
 .00001618,0.00018635,0.00090288,-0.00025954,-0.00008811,0.00266108,-0.
 00436631,-0.00218823,-0.02313522,-0.01556656,0.00168296,-0.13914321,-0
 .19643007,0.00313567,0.00748888,0.00927738,-0.00058369,0.00200792,0.00
 095450,-0.00158799,-0.00000118,-0.00000154,0.00000094,-0.00000058,0.00
 000151,0.00000742,-0.00000528,0.00000046,0.00000019,0.00000507,-0.0000
 0074,-0.00000259,-0.00001355,-0.00000275,-0.00001237,0.00004871,0.0000
 6739,-0.00001400,-0.00112811,-0.00087895,0.00008798,0.00042994,0.00091
 870,0.00055702,0.14994311,0.20541901,0.00010258,-0.00006616,-0.0000806
 5,0.00042931,0.00019391,0.00013077,0.00016275,0.00008131,-0.00030026,-
 0.00005314,-0.00004468,0.00019293,0.00000501,-0.00000045,0.00003104,0.
 00000983,-0.00002653,0.00000179,-0.00003628,-0.00000434,0.00000892,-0.
 00001177,-0.00002178,-0.00000399,-0.00007576,0.00000447,0.00001412,-0.
 00021459,0.00007813,-0.00101345,0.00010821,-0.00026338,-0.00083555,0.0
 0150601,-0.00214945,0.00618102,-0.00482346,-0.00415884,0.00329167,0.01
 028892,0.00300461,-0.03814608,0.00542258,0.00513774,0.00338038,0.00252
 690,-0.00128692,0.00656397,0.00001029,0.00000112,-0.00000393,0.0000155
 4,0.00000749,-0.00004375,0.00000193,-0.00000052,-0.00000071,-0.0000051
 6,-0.00000429,0.00001734,-0.00000543,-0.00000166,0.00005141,-0.0000338
 8,0.00007289,0.00004483,-0.00020292,-0.00021674,0.00017061,-0.00069006
 ,0.00073524,-0.00321915,-0.01311320,-0.00208781,0.02744392,-0.00169989
 ,0.00182666,0.00064162,-0.00062084,-0.00339747,-0.00205835,0.00059787,
 0.00015332,0.00054538,-0.00016188,0.00011337,0.00013701,0.00007341,0.0
 0015176,-0.00002877,0.00007659,-0.00007499,0.00003393,-0.00007950,0.00
 009629,-0.00002404,0.00031452,-0.00032455,-0.00002224,-0.00017586,0.00
 001654,0.00000723,0.00094815,-0.00075328,-0.00007359,-0.00337005,-0.00
 324947,0.00107025,-0.00093430,-0.00047748,-0.00012966,-0.00470391,0.00
 035073,0.00289967,-0.00250011,0.02824810,0.00682400,-0.07071164,0.0621
 6566,0.01661957,0.00800424,-0.02066243,-0.00440231,-0.00011945,0.00000
 858,0.00000109,0.00002396,0.00000121,-0.00000851,0.00000414,0.00000865
 ,0.00000534,0.00003150,0.00002502,0.00000166,-0.00004738,0.00002645,-0
 .00001160,-0.00021187,-0.00032800,0.00002106,0.00004388,0.00006262,-0.
 00016480,-0.00025377,0.00132336,0.00010267,0.00078872,-0.00017061,-0.0
 0132420,0.07468347,0.00272346,0.00244036,0.00035639,0.00122611,-0.0025
 3040,-0.00144728,0.00003929,0.00014588,0.00005379,-0.00005647,0.000007
 77,0.00002840,-0.00001400,0.00009975,0.00002687,0.00005348,-0.00001725
 ,0.00001496,-0.00002588,0.00002642,-0.00000123,0.00016104,-0.00013468,
 -0.00004058,-0.00011158,-0.00006141,0.00004725,0.00086797,-0.00042780,
 -0.00024848,-0.00392583,-0.00082153,-0.00062053,-0.00025274,0.00055587
 ,0.00039858,0.00056768,0.00159863,-0.00158504,-0.00082363,-0.00132971,
 -0.00114729,0.05961384,-0.31156919,-0.06237565,0.00490816,-0.01745713,
 -0.00495989,-0.00000863,0.00004092,-0.00000894,0.00000074,-0.00000154,
 0.00000113,-0.00000278,0.00000333,-0.00000297,0.00001272,0.00000601,-0
 .00000211,-0.00004711,0.00000993,0.00000444,-0.00017202,-0.00024335,-0
 .00001795,0.00008429,-0.00008985,0.00014010,-0.00015153,-0.00011802,0.
 00004165,0.00047343,0.00055201,0.00101666,-0.06514002,0.32931496,0.001
 86388,-0.00013733,-0.00055646,0.00050944,-0.00001412,-0.00364171,-0.00
 064296,-0.00027630,-0.00009441,0.00006985,-0.00016585,-0.00003220,-0.0
 0004085,-0.00007983,-0.00007272,-0.00006991,0.00003391,-0.00000133,0.0
 0003644,-0.00001915,-0.00001799,-0.00022727,0.00025846,0.00003827,0.00
 017283,-0.00000028,-0.00004146,-0.00018511,-0.00008225,0.00043730,0.00
 167746,-0.00040599,0.00560973,0.00001955,0.00049793,-0.00100266,0.0024
 2893,-0.00105392,0.00679171,0.00100330,-0.00625546,0.00319175,0.018301
 97,-0.06324552,-0.05444243,-0.00298425,-0.00002829,0.00469387,-0.00001
 358,-0.00000834,0.00007316,-0.00001980,0.00000094,-0.00000585,-0.00000
 277,-0.00000097,0.00000600,-0.00001700,-0.00001425,-0.00000124,0.00001
 208,-0.00001191,-0.00002222,-0.00004524,0.00002465,-0.00015135,-0.0001
 2590,0.00007617,-0.00068709,-0.00001327,-0.00025649,-0.00010901,-0.001
 04540,0.00083647,-0.00387721,-0.02066242,0.07032771,0.04391554\\-0.000
 00348,0.00000283,-0.00000580,-0.00001942,-0.00000636,0.00000451,0.0000
 0194,0.00000853,0.00000666,0.00000569,0.00000110,-0.00000013,-0.000003
 69,-0.00000335,-0.00000100,0.00000143,0.00000525,0.00000078,-0.0000004
 6,0.00000024,-0.00000021,0.00000400,-0.00000323,-0.00000594,0.00000145
 ,-0.00000090,0.00000653,0.00000297,0.00000884,-0.00000225,-0.00000023,
 -0.00000817,-0.00000543,0.00000072,-0.00000230,0.00000160,-0.00000327,
 0.00000468,0.00000121,0.00000783,-0.00000300,-0.00000102,-0.00000748,0
 .00000283,-0.00000073,0.00001272,-0.00000201,-0.00000093,0.00000062,-0
 .00000011,0.00000013,0.00000018,0.00000055,-0.00000080,0.00000032,-0.0
 0000153,-0.00000064,0.00000026,-0.00000076,0.00000170,-0.00000082,0.00
 000007,0.00000275,-0.00000072,-0.00000133,-0.00000029,0.00000030,0.000
 00078,0.00000121,-0.00000010,-0.00000062,0.00000013,-0.00000079,-0.000
 00032,-0.00000126,0.00000003,-0.00000171,-0.00000076\\\@


 GOOD SENSE ABOUT TRIVIALITIES IS BETTER THAN NONSENSE
 ABOUT THINGS THAT MATTER

                                       -- MAX BEERBOHM
 Job cpu time:       0 days  5 hours  8 minutes 15.9 seconds.
 Elapsed time:       0 days  0 hours 50 minutes  7.1 seconds.
 File lengths (MBytes):  RWF=    833 Int=      0 D2E=      0 Chk=     20 Scr=      1
 Normal termination of Gaussian 16 at Tue Jan  9 21:24:15 2024.
