 Entering Gaussian System, Link 0=g16
 Input=084.com
 Output=084.log
 Initial command:
 /sysapps/ubuntu-applications/gaussian/Gaussian/AVX2/g16/l1.exe "/scratch/selhajj1/4266611/Gau-3471853.inp" -scrdir="/scratch/selhajj1/4266611/"
 Entering Link 1 = /sysapps/ubuntu-applications/gaussian/Gaussian/AVX2/g16/l1.exe PID=   3471862.
  
 Copyright (c) 1988,1990,1992,1993,1995,1998,2003,2009,2016,
            Gaussian, Inc.  All Rights Reserved.
  
 This is part of the Gaussian(R) 16 program.  It is based on
 the Gaussian(R) 09 system (copyright 2009, Gaussian, Inc.),
 the Gaussian(R) 03 system (copyright 2003, Gaussian, Inc.),
 the Gaussian(R) 98 system (copyright 1998, Gaussian, Inc.),
 the Gaussian(R) 94 system (copyright 1995, Gaussian, Inc.),
 the Gaussian 92(TM) system (copyright 1992, Gaussian, Inc.),
 the Gaussian 90(TM) system (copyright 1990, Gaussian, Inc.),
 the Gaussian 88(TM) system (copyright 1988, Gaussian, Inc.),
 the Gaussian 86(TM) system (copyright 1986, Carnegie Mellon
 University), and the Gaussian 82(TM) system (copyright 1983,
 Carnegie Mellon University). Gaussian is a federally registered
 trademark of Gaussian, Inc.
  
 This software contains proprietary and confidential information,
 including trade secrets, belonging to Gaussian, Inc.
  
 This software is provided under written license and may be
 used, copied, transmitted, or stored only in accord with that
 written license.
  
 The following legend is applicable only to US Government
 contracts under FAR:
  
                    RESTRICTED RIGHTS LEGEND
  
 Use, reproduction and disclosure by the US Government is
 subject to restrictions as set forth in subparagraphs (a)
 and (c) of the Commercial Computer Software - Restricted
 Rights clause in FAR 52.227-19.
  
 Gaussian, Inc.
 340 Quinnipiac St., Bldg. 40, Wallingford CT 06492
  
  
 ---------------------------------------------------------------
 Warning -- This program may not be used in any manner that
 competes with the business of Gaussian, Inc. or will provide
 assistance to any competitor of Gaussian, Inc.  The licensee
 of this program is prohibited from giving any competitor of
 Gaussian, Inc. access to this program.  By using this program,
 the user acknowledges that Gaussian, Inc. is engaged in the
 business of creating and licensing software in the field of
 computational chemistry and represents and warrants to the
 licensee that it is not a competitor of Gaussian, Inc. and that
 it will not use this program in any manner prohibited above.
 ---------------------------------------------------------------
  

 Cite this work as:
 Gaussian 16, Revision A.03,
 M. J. Frisch, G. W. Trucks, H. B. Schlegel, G. E. Scuseria, 
 M. A. Robb, J. R. Cheeseman, G. Scalmani, V. Barone, 
 G. A. Petersson, H. Nakatsuji, X. Li, M. Caricato, A. V. Marenich, 
 J. Bloino, B. G. Janesko, R. Gomperts, B. Mennucci, H. P. Hratchian, 
 J. V. Ortiz, A. F. Izmaylov, J. L. Sonnenberg, D. Williams-Young, 
 F. Ding, F. Lipparini, F. Egidi, J. Goings, B. Peng, A. Petrone, 
 T. Henderson, D. Ranasinghe, V. G. Zakrzewski, J. Gao, N. Rega, 
 G. Zheng, W. Liang, M. Hada, M. Ehara, K. Toyota, R. Fukuda, 
 J. Hasegawa, M. Ishida, T. Nakajima, Y. Honda, O. Kitao, H. Nakai, 
 T. Vreven, K. Throssell, J. A. Montgomery, Jr., J. E. Peralta, 
 F. Ogliaro, M. J. Bearpark, J. J. Heyd, E. N. Brothers, K. N. Kudin, 
 V. N. Staroverov, T. A. Keith, R. Kobayashi, J. Normand, 
 K. Raghavachari, A. P. Rendell, J. C. Burant, S. S. Iyengar, 
 J. Tomasi, M. Cossi, J. M. Millam, M. Klene, C. Adamo, R. Cammi, 
 J. W. Ochterski, R. L. Martin, K. Morokuma, O. Farkas, 
 J. B. Foresman, and D. J. Fox, Gaussian, Inc., Wallingford CT, 2016.
 
 ******************************************
 Gaussian 16:  ES64L-G16RevA.03 25-Dec-2016
                10-Jan-2024 
 ******************************************
 %chk=084.chk
 %nproc=8
 Will use up to    8 processors via shared memory.
 %mem=30GB
 --------------------------------------
 #P UB3LYP/6-311++G(d,p) nosym opt freq
 --------------------------------------
 1/18=20,19=15,26=3,38=1/1,3;
 2/9=110,12=2,15=1,17=6,18=5,40=1/2;
 3/5=4,6=6,7=1111,11=2,25=1,30=1,71=1,74=-5,116=2/1,2,3;
 4//1;
 5/5=2,38=5/2;
 6/7=2,8=2,9=2,10=2,28=1/1;
 7/30=1/1,2,3,16;
 1/18=20,19=15,26=3/3(2);
 2/9=110,15=1/2;
 99//99;
 2/9=110,15=1/2;
 3/5=4,6=6,7=1111,11=2,25=1,30=1,71=1,74=-5,116=2/1,2,3;
 4/5=5,16=3,69=1/1;
 5/5=2,38=5/2;
 7/30=1/1,2,3,16;
 1/18=20,19=15,26=3/3(-5);
 2/9=110,15=1/2;
 6/7=2,8=2,9=2,10=2,19=2,28=1/1;
 99/9=1/99;
 Leave Link    1 at Wed Jan 10 04:48:26 2024, MaxMem=  4026531840 cpu:              50.9 elap:               7.3
 (Enter /sysapps/ubuntu-applications/gaussian/Gaussian/AVX2/g16/l101.exe)
 --------
 Oxidized
 --------
 Symbolic Z-matrix:
 Charge =  0 Multiplicity = 1
 C                     2.9642   -0.58443   0.48917 
 O                     1.78037   0.23267   0.58334 
 C                     0.56891  -0.28046   0.30426 
 C                    -0.34894   0.51748  -0.32427 
 O                     0.04273   1.7307   -0.75263 
 C                    -0.85288   2.85829  -0.6865 
 C                    -1.69946  -0.00892  -0.65933 
 O                    -2.48642   0.62683  -1.34466 
 C                    -2.06247  -1.36602  -0.17356 
 C                    -1.18135  -2.12801   0.47613 
 C                     0.17981  -1.62751   0.8017 
 O                     0.93126  -2.30094   1.49088 
 H                     2.92234  -1.22305  -0.39654 
 H                     3.78539   0.12372   0.38756 
 H                     3.09046  -1.19643   1.37961 
 H                    -0.20457   3.73267  -0.72236 
 H                    -1.40818   2.8549    0.25459 
 H                    -1.54678   2.85795  -1.52429 
 H                    -3.06846  -1.69149  -0.41222 
 H                    -1.40595  -3.12794   0.82911 
 
 ITRead=  0  0  0  0  0  0  0  0  0  0  0  0  0  0  0  0  0  0  0  0
 MicOpt= -1 -1 -1 -1 -1 -1 -1 -1 -1 -1 -1 -1 -1 -1 -1 -1 -1 -1 -1 -1
 NAtoms=     20 NQM=       20 NQMF=       0 NMMI=      0 NMMIF=      0
                NMic=       0 NMicF=      0.
                    Isotopes and Nuclear Properties:
 (Nuclear quadrupole moments (NQMom) in fm**2, nuclear magnetic moments (NMagM)
  in nuclear magnetons)

  Atom         1           2           3           4           5           6           7           8           9          10
 IAtWgt=          12          16          12          12          16          12          12          16          12          12
 AtmWgt=  12.0000000  15.9949146  12.0000000  12.0000000  15.9949146  12.0000000  12.0000000  15.9949146  12.0000000  12.0000000
 NucSpn=           0           0           0           0           0           0           0           0           0           0
 AtZEff=  -0.0000000  -0.0000000  -0.0000000  -0.0000000  -0.0000000  -0.0000000  -0.0000000  -0.0000000  -0.0000000  -0.0000000
 NQMom=    0.0000000   0.0000000   0.0000000   0.0000000   0.0000000   0.0000000   0.0000000   0.0000000   0.0000000   0.0000000
 NMagM=    0.0000000   0.0000000   0.0000000   0.0000000   0.0000000   0.0000000   0.0000000   0.0000000   0.0000000   0.0000000
 AtZNuc=   6.0000000   8.0000000   6.0000000   6.0000000   8.0000000   6.0000000   6.0000000   8.0000000   6.0000000   6.0000000

  Atom        11          12          13          14          15          16          17          18          19          20
 IAtWgt=          12          16           1           1           1           1           1           1           1           1
 AtmWgt=  12.0000000  15.9949146   1.0078250   1.0078250   1.0078250   1.0078250   1.0078250   1.0078250   1.0078250   1.0078250
 NucSpn=           0           0           1           1           1           1           1           1           1           1
 AtZEff=  -0.0000000  -0.0000000  -0.0000000  -0.0000000  -0.0000000  -0.0000000  -0.0000000  -0.0000000  -0.0000000  -0.0000000
 NQMom=    0.0000000   0.0000000   0.0000000   0.0000000   0.0000000   0.0000000   0.0000000   0.0000000   0.0000000   0.0000000
 NMagM=    0.0000000   0.0000000   2.7928460   2.7928460   2.7928460   2.7928460   2.7928460   2.7928460   2.7928460   2.7928460
 AtZNuc=   6.0000000   8.0000000   1.0000000   1.0000000   1.0000000   1.0000000   1.0000000   1.0000000   1.0000000   1.0000000
 Leave Link  101 at Wed Jan 10 04:48:27 2024, MaxMem=  4026531840 cpu:               5.2 elap:               0.9
 (Enter /sysapps/ubuntu-applications/gaussian/Gaussian/AVX2/g16/l103.exe)

 GradGradGradGradGradGradGradGradGradGradGradGradGradGradGradGradGradGrad
 Berny optimization.
 Initialization pass.
                           ----------------------------
                           !    Initial Parameters    !
                           ! (Angstroms and Degrees)  !
 --------------------------                            --------------------------
 ! Name  Definition              Value          Derivative Info.                !
 --------------------------------------------------------------------------------
 ! R1    R(1,2)                  1.4415         estimate D2E/DX2                !
 ! R2    R(1,13)                 1.0927         estimate D2E/DX2                !
 ! R3    R(1,14)                 1.0891         estimate D2E/DX2                !
 ! R4    R(1,15)                 1.0878         estimate D2E/DX2                !
 ! R5    R(2,3)                  1.3449         estimate D2E/DX2                !
 ! R6    R(3,4)                  1.369          estimate D2E/DX2                !
 ! R7    R(3,11)                 1.4877         estimate D2E/DX2                !
 ! R8    R(4,5)                  1.3449         estimate D2E/DX2                !
 ! R9    R(4,7)                  1.4877         estimate D2E/DX2                !
 ! R10   R(5,6)                  1.4415         estimate D2E/DX2                !
 ! R11   R(6,16)                 1.0891         estimate D2E/DX2                !
 ! R12   R(6,17)                 1.0927         estimate D2E/DX2                !
 ! R13   R(6,18)                 1.0878         estimate D2E/DX2                !
 ! R14   R(7,8)                  1.2219         estimate D2E/DX2                !
 ! R15   R(7,9)                  1.4864         estimate D2E/DX2                !
 ! R16   R(9,10)                 1.3338         estimate D2E/DX2                !
 ! R17   R(9,19)                 1.0839         estimate D2E/DX2                !
 ! R18   R(10,11)                1.4864         estimate D2E/DX2                !
 ! R19   R(10,20)                1.0839         estimate D2E/DX2                !
 ! R20   R(11,12)                1.2219         estimate D2E/DX2                !
 ! A1    A(2,1,13)             110.6565         estimate D2E/DX2                !
 ! A2    A(2,1,14)             104.8774         estimate D2E/DX2                !
 ! A3    A(2,1,15)             111.1458         estimate D2E/DX2                !
 ! A4    A(13,1,14)            109.4673         estimate D2E/DX2                !
 ! A5    A(13,1,15)            109.823          estimate D2E/DX2                !
 ! A6    A(14,1,15)            110.772          estimate D2E/DX2                !
 ! A7    A(1,2,3)              120.6584         estimate D2E/DX2                !
 ! A8    A(2,3,4)              118.4761         estimate D2E/DX2                !
 ! A9    A(2,3,11)             120.7744         estimate D2E/DX2                !
 ! A10   A(4,3,11)             120.3911         estimate D2E/DX2                !
 ! A11   A(3,4,5)              118.4745         estimate D2E/DX2                !
 ! A12   A(3,4,7)              120.3835         estimate D2E/DX2                !
 ! A13   A(5,4,7)              120.7849         estimate D2E/DX2                !
 ! A14   A(4,5,6)              120.6692         estimate D2E/DX2                !
 ! A15   A(5,6,16)             104.8718         estimate D2E/DX2                !
 ! A16   A(5,6,17)             110.6602         estimate D2E/DX2                !
 ! A17   A(5,6,18)             111.1453         estimate D2E/DX2                !
 ! A18   A(16,6,17)            109.4728         estimate D2E/DX2                !
 ! A19   A(16,6,18)            110.7689         estimate D2E/DX2                !
 ! A20   A(17,6,18)            109.8231         estimate D2E/DX2                !
 ! A21   A(4,7,8)              121.794          estimate D2E/DX2                !
 ! A22   A(4,7,9)              118.1084         estimate D2E/DX2                !
 ! A23   A(8,7,9)              120.0665         estimate D2E/DX2                !
 ! A24   A(7,9,10)             121.2939         estimate D2E/DX2                !
 ! A25   A(7,9,19)             115.394          estimate D2E/DX2                !
 ! A26   A(10,9,19)            123.2852         estimate D2E/DX2                !
 ! A27   A(9,10,11)            121.2837         estimate D2E/DX2                !
 ! A28   A(9,10,20)            123.2812         estimate D2E/DX2                !
 ! A29   A(11,10,20)           115.4079         estimate D2E/DX2                !
 ! A30   A(3,11,10)            118.1094         estimate D2E/DX2                !
 ! A31   A(3,11,12)            121.785          estimate D2E/DX2                !
 ! A32   A(10,11,12)           120.0747         estimate D2E/DX2                !
 ! D1    D(13,1,2,3)            41.2085         estimate D2E/DX2                !
 ! D2    D(14,1,2,3)           159.1568         estimate D2E/DX2                !
 ! D3    D(15,1,2,3)           -81.0946         estimate D2E/DX2                !
 ! D4    D(1,2,3,4)           -143.503          estimate D2E/DX2                !
 ! D5    D(1,2,3,11)            43.3437         estimate D2E/DX2                !
 ! D6    D(2,3,4,5)              6.4924         estimate D2E/DX2                !
 ! D7    D(2,3,4,7)            179.686          estimate D2E/DX2                !
 ! D8    D(11,3,4,5)           179.6728         estimate D2E/DX2                !
 ! D9    D(11,3,4,7)            -7.1336         estimate D2E/DX2                !
 ! D10   D(2,3,11,10)          179.0625         estimate D2E/DX2                !
 ! D11   D(2,3,11,12)            1.0852         estimate D2E/DX2                !
 ! D12   D(4,3,11,10)            6.0402         estimate D2E/DX2                !
 ! D13   D(4,3,11,12)         -171.9371         estimate D2E/DX2                !
 ! D14   D(3,4,5,6)           -143.5569         estimate D2E/DX2                !
 ! D15   D(7,4,5,6)             43.2779         estimate D2E/DX2                !
 ! D16   D(3,4,7,8)           -171.9751         estimate D2E/DX2                !
 ! D17   D(3,4,7,9)              5.999          estimate D2E/DX2                !
 ! D18   D(5,4,7,8)              1.0597         estimate D2E/DX2                !
 ! D19   D(5,4,7,9)            179.0338         estimate D2E/DX2                !
 ! D20   D(4,5,6,16)           159.2052         estimate D2E/DX2                !
 ! D21   D(4,5,6,17)            41.2519         estimate D2E/DX2                !
 ! D22   D(4,5,6,18)           -81.0536         estimate D2E/DX2                !
 ! D23   D(4,7,9,10)            -3.9195         estimate D2E/DX2                !
 ! D24   D(4,7,9,19)           177.907          estimate D2E/DX2                !
 ! D25   D(8,7,9,10)           174.0909         estimate D2E/DX2                !
 ! D26   D(8,7,9,19)            -4.0826         estimate D2E/DX2                !
 ! D27   D(7,9,10,11)            3.0726         estimate D2E/DX2                !
 ! D28   D(7,9,10,20)         -178.91           estimate D2E/DX2                !
 ! D29   D(19,9,10,11)        -178.9013         estimate D2E/DX2                !
 ! D30   D(19,9,10,20)          -0.8839         estimate D2E/DX2                !
 ! D31   D(9,10,11,3)           -3.9602         estimate D2E/DX2                !
 ! D32   D(9,10,11,12)         174.0529         estimate D2E/DX2                !
 ! D33   D(20,10,11,3)         177.8746         estimate D2E/DX2                !
 ! D34   D(20,10,11,12)         -4.1122         estimate D2E/DX2                !
 --------------------------------------------------------------------------------
 Trust Radius=3.00D-01 FncErr=1.00D-07 GrdErr=1.00D-06 EigMax=2.50D+02 EigMin=1.00D-04
 Number of steps in this run=     96 maximum allowed number of steps=    120.
 GradGradGradGradGradGradGradGradGradGradGradGradGradGradGradGradGradGrad

 Leave Link  103 at Wed Jan 10 04:48:27 2024, MaxMem=  4026531840 cpu:               0.3 elap:               0.1
 (Enter /sysapps/ubuntu-applications/gaussian/Gaussian/AVX2/g16/l202.exe)
                          Input orientation:                          
 ---------------------------------------------------------------------
 Center     Atomic      Atomic             Coordinates (Angstroms)
 Number     Number       Type             X           Y           Z
 ---------------------------------------------------------------------
      1          6           0        2.964198   -0.584428    0.489165
      2          8           0        1.780370    0.232673    0.583335
      3          6           0        0.568910   -0.280464    0.304263
      4          6           0       -0.348936    0.517483   -0.324266
      5          8           0        0.042732    1.730700   -0.752628
      6          6           0       -0.852879    2.858286   -0.686495
      7          6           0       -1.699457   -0.008915   -0.659331
      8          8           0       -2.486424    0.626826   -1.344656
      9          6           0       -2.062472   -1.366019   -0.173558
     10          6           0       -1.181351   -2.128011    0.476127
     11          6           0        0.179809   -1.627511    0.801698
     12          8           0        0.931263   -2.300940    1.490880
     13          1           0        2.922338   -1.223052   -0.396535
     14          1           0        3.785387    0.123717    0.387560
     15          1           0        3.090461   -1.196431    1.379605
     16          1           0       -0.204571    3.732666   -0.722356
     17          1           0       -1.408184    2.854897    0.254593
     18          1           0       -1.546782    2.857946   -1.524288
     19          1           0       -3.068463   -1.691486   -0.412223
     20          1           0       -1.405951   -3.127939    0.829110
 ---------------------------------------------------------------------
                    Distance matrix (angstroms):
                    1          2          3          4          5
     1  C    0.000000
     2  O    1.441517   0.000000
     3  C    2.421567   1.344926   0.000000
     4  C    3.585071   2.332124   1.369018   0.000000
     5  O    3.928973   2.654857   2.332094   1.344914   0.000000
     6  C    5.273000   3.929416   3.585364   2.421679   1.441507
     7  C    4.837348   3.702942   2.479464   1.487706   2.463775
     8  O    5.877016   4.698727   3.588478   2.371077   2.822351
     9  C    5.130058   4.230383   2.886332   2.550784   3.789047
    10  C    4.423618   3.788946   2.550761   2.886552   4.230587
    11  C    2.989736   2.463689   1.487742   2.479590   3.703012
    12  O    2.843004   2.822023   2.371009   3.588478   4.698610
    13  H    1.092729   2.093650   2.630250   3.706200   4.140481
    14  H    1.089103   2.017497   3.242842   4.213594   4.229644
    15  H    1.087830   2.095882   2.890255   4.203585   4.733198
    16  H    5.490554   4.230221   4.213957   3.242949   2.017410
    17  H    5.567917   4.141377   3.707001   2.630701   2.093674
    18  H    6.021036   4.733294   4.203495   2.890096   2.095876
    19  H    6.199280   5.310810   3.966714   3.504726   4.637539
    20  H    5.067861   4.637538   3.504804   3.966946   5.311022
                    6          7          8          9         10
     6  C    0.000000
     7  C    2.989695   0.000000
     8  O    2.842720   1.221947   0.000000
     9  C    4.423909   1.486434   2.350029   0.000000
    10  C    5.130569   2.459322   3.550717   1.333828   0.000000
    11  C    4.837720   2.878559   4.098496   2.459131   1.486356
    12  O    5.877222   4.098472   5.319085   3.550617   2.350057
    13  H    5.567195   4.785831   5.794453   4.991842   4.291940
    14  H    5.490444   5.585435   6.526048   6.060662   5.454045
    15  H    6.021580   5.339548   6.468965   5.384589   4.464582
    16  H    1.089096   4.029651   3.903889   5.454316   6.061188
    17  H    1.092713   3.020185   2.946947   4.292731   4.992985
    18  H    1.087841   2.998392   2.427569   4.464559   5.384698
    19  H    5.067984   2.183182   2.565691   1.083932   2.130941
    20  H    6.199826   3.468417   4.471123   2.130898   1.083927
                   11         12         13         14         15
    11  C    0.000000
    12  O    1.221950   0.000000
    13  H    3.020069   2.947636   0.000000
    14  H    4.029703   3.904139   1.781417   0.000000
    15  H    2.998617   2.427851   1.784278   1.791610   0.000000
    16  H    5.585874   6.526326   5.868804   5.493286   6.290586
    17  H    4.786755   5.795177   5.983900   5.869430   6.157655
    18  H    5.339537   6.468852   6.156249   6.289928   6.809889
    19  H    3.468280   4.471134   6.009108   7.135116   6.433356
    20  H    2.183271   2.566016   4.885170   6.141516   4.924580
                   16         17         18         19         20
    16  H    0.000000
    17  H    1.781458   0.000000
    18  H    1.791580   1.784275   0.000000
    19  H    6.141619   4.885772   4.924381   0.000000
    20  H    7.135703   6.010358   6.433439   2.523539   0.000000
 Symmetry turned off by external request.
 Stoichiometry    C8H8O4
 Framework group  C1[X(C8H8O4)]
 Deg. of freedom    54
 Full point group                 C1      NOp   1
 Rotational constants (GHZ):           1.3400592           0.8699500           0.5476377
 Leave Link  202 at Wed Jan 10 04:48:27 2024, MaxMem=  4026531840 cpu:               0.4 elap:               0.1
 (Enter /sysapps/ubuntu-applications/gaussian/Gaussian/AVX2/g16/l301.exe)
 Standard basis: 6-311++G(d,p) (5D, 7F)
 Ernie: Thresh=  0.10000D-02 Tol=  0.10000D-05 Strict=F.
   320 basis functions,   504 primitive gaussians,   332 cartesian basis functions
    44 alpha electrons       44 beta electrons
       nuclear repulsion energy       700.3003442415 Hartrees.
 IExCor=  402 DFT=T Ex+Corr=B3LYP ExCW=0 ScaHFX=  0.200000
 ScaDFX=  0.800000  0.720000  1.000000  0.810000 ScalE2=  1.000000  1.000000
 IRadAn=      5 IRanWt=     -1 IRanGd=            0 ICorTp=0 IEmpDi=  4
 NAtoms=   20 NActive=   20 NUniq=   20 SFac= 1.00D+00 NAtFMM=   60 NAOKFM=F Big=F
 Integral buffers will be    131072 words long.
 Raffenetti 2 integral format.
 Two-electron integral symmetry is turned off.
 Leave Link  301 at Wed Jan 10 04:48:28 2024, MaxMem=  4026531840 cpu:               0.7 elap:               0.2
 (Enter /sysapps/ubuntu-applications/gaussian/Gaussian/AVX2/g16/l302.exe)
 NPDir=0 NMtPBC=     1 NCelOv=     1 NCel=       1 NClECP=     1 NCelD=      1
         NCelK=      1 NCelE2=     1 NClLst=     1 CellRange=     0.0.
 One-electron integrals computed using PRISM.
 NBasis=   320 RedAO= T EigKep=  1.02D-06  NBF=   320
 NBsUse=   320 1.00D-06 EigRej= -1.00D+00 NBFU=   320
 Precomputing XC quadrature grid using
 IXCGrd= 4 IRadAn=           5 IRanWt=          -1 IRanGd=           0 AccXCQ= 0.00D+00.
 Generated NRdTot=       0 NPtTot=           0 NUsed=           0 NTot=          32
 NSgBfM=   332   332   332   332   332 MxSgAt=    20 MxSgA2=    20.
 Leave Link  302 at Wed Jan 10 04:48:29 2024, MaxMem=  4026531840 cpu:               9.6 elap:               1.6
 (Enter /sysapps/ubuntu-applications/gaussian/Gaussian/AVX2/g16/l303.exe)
 DipDrv:  MaxL=1.
 Leave Link  303 at Wed Jan 10 04:48:30 2024, MaxMem=  4026531840 cpu:               1.3 elap:               0.3
 (Enter /sysapps/ubuntu-applications/gaussian/Gaussian/AVX2/g16/l401.exe)
 ExpMin= 3.60D-02 ExpMax= 8.59D+03 ExpMxC= 1.30D+03 IAcc=3 IRadAn=         5 AccDes= 0.00D+00
 Harris functional with IExCor=  402 and IRadAn=       5 diagonalized for initial guess.
 HarFok:  IExCor=  402 AccDes= 0.00D+00 IRadAn=         5 IDoV= 1 UseB2=F ITyADJ=14
 ICtDFT=  3500011 ScaDFX=  1.000000  1.000000  1.000000  1.000000
 FoFCou: FMM=F IPFlag=           0 FMFlag=      100000 FMFlg1=           0
         NFxFlg=           0 DoJE=T BraDBF=F KetDBF=T FulRan=T
         wScrn=  0.000000 ICntrl=       500 IOpCl=  0 I1Cent=   200000004 NGrid=           0
         NMat0=    1 NMatS0=      1 NMatT0=    0 NMatD0=    1 NMtDS0=    0 NMtDT0=    0
 Symmetry not used in FoFCou.
 Harris En= -610.684538965177    
 JPrj=0 DoOrth=F DoCkMO=F.
 Initial guess <Sx>= 0.0000 <Sy>= 0.0000 <Sz>= 0.0000 <S**2>=-0.0000 S=-0.0000
 Leave Link  401 at Wed Jan 10 04:48:35 2024, MaxMem=  4026531840 cpu:              22.9 elap:               5.8
 (Enter /sysapps/ubuntu-applications/gaussian/Gaussian/AVX2/g16/l502.exe)
 Two-electron integral symmetry not used.
 UHF open shell SCF:
 Using DIIS extrapolation, IDIIS=  1040.
 NGot=  4026531840 LenX=  4026306284 LenY=  4026195619
 Requested convergence on RMS density matrix=1.00D-08 within 128 cycles.
 Requested convergence on MAX density matrix=1.00D-06.
 Requested convergence on             energy=1.00D-06.
 No special actions if energy rises.
 Fock matrices will be formed incrementally for  20 cycles.

 Cycle   1  Pass 1  IDiag  1:
 FoFJK:  IHMeth= 1 ICntrl=       0 DoSepK=F KAlg= 0 I1Cent=           0 FoldK=F
 IRaf= 910000000 NMat=       1 IRICut=       1 DoRegI=T DoRafI=F ISym2E= 0 IDoP0=0 IntGTp=1.
 FoFCou: FMM=F IPFlag=           0 FMFlag=      100000 FMFlg1=           0
         NFxFlg=           0 DoJE=F BraDBF=F KetDBF=F FulRan=T
         wScrn=  0.000000 ICntrl=         0 IOpCl=  1 I1Cent=           0 NGrid=           0
         NMat0=    1 NMatS0=      1 NMatT0=    0 NMatD0=    1 NMtDS0=    0 NMtDT0=    0
 Symmetry not used in FoFCou.
 E= -610.410994542418    
 DIIS: error= 3.13D-02 at cycle   1 NSaved=   1.
 NSaved= 1 IEnMin= 1 EnMin= -610.410994542418     IErMin= 1 ErrMin= 3.13D-02
 ErrMax= 3.13D-02  0.00D+00 EMaxC= 1.00D-01 BMatC= 1.40D+00 BMatP= 1.40D+00
 IDIUse=3 WtCom= 6.87D-01 WtEn= 3.13D-01
 Coeff-Com:  0.100D+01
 Coeff-En:   0.100D+01
 Coeff:      0.100D+01
 Gap=     0.121 Goal=   None    Shift=    0.000
 Gap=     0.121 Goal=   None    Shift=    0.000
 GapD=    0.121 DampG=1.000 DampE=0.500 DampFc=0.5000 IDamp=-1.
 Damping current iteration by 5.00D-01
 RMSDP=5.86D-02 MaxDP=4.19D+00              OVMax= 2.81D-01

 Cycle   2  Pass 1  IDiag  1:
 RMSU=  2.24D-02    CP:  1.21D+00
 E= -610.462757424526     Delta-E=       -0.051762882108 Rises=F Damp=T
 DIIS: error= 2.40D-02 at cycle   2 NSaved=   2.
 NSaved= 2 IEnMin= 2 EnMin= -610.462757424526     IErMin= 2 ErrMin= 2.40D-02
 ErrMax= 2.40D-02  0.00D+00 EMaxC= 1.00D-01 BMatC= 2.88D-01 BMatP= 1.40D+00
 IDIUse=3 WtCom= 7.60D-01 WtEn= 2.40D-01
 Coeff-Com:  0.242D+00 0.758D+00
 Coeff-En:   0.394D+00 0.606D+00
 Coeff:      0.278D+00 0.722D+00
 Gap=     0.152 Goal=   None    Shift=    0.000
 Gap=     0.152 Goal=   None    Shift=    0.000
 RMSDP=1.57D-02 MaxDP=1.33D+00 DE=-5.18D-02 OVMax= 2.72D-01

 Cycle   3  Pass 1  IDiag  1:
 RMSU=  7.43D-03    CP:  1.15D+00  4.33D-01
 E= -610.620622494494     Delta-E=       -0.157865069968 Rises=F Damp=F
 DIIS: error= 2.15D-02 at cycle   3 NSaved=   3.
 NSaved= 3 IEnMin= 3 EnMin= -610.620622494494     IErMin= 3 ErrMin= 2.15D-02
 ErrMax= 2.15D-02  0.00D+00 EMaxC= 1.00D-01 BMatC= 2.06D-01 BMatP= 2.88D-01
 IDIUse=3 WtCom= 7.85D-01 WtEn= 2.15D-01
 Coeff-Com:  0.458D-01 0.451D+00 0.503D+00
 Coeff-En:   0.000D+00 0.000D+00 0.100D+01
 Coeff:      0.360D-01 0.354D+00 0.610D+00
 Gap=     0.116 Goal=   None    Shift=    0.000
 Gap=     0.116 Goal=   None    Shift=    0.000
 RMSDP=9.04D-03 MaxDP=8.99D-01 DE=-1.58D-01 OVMax= 1.06D-01

 Cycle   4  Pass 1  IDiag  1:
 RMSU=  4.50D-03    CP:  1.10D+00  6.60D-01  4.61D-01
 E= -610.649041709144     Delta-E=       -0.028419214650 Rises=F Damp=F
 DIIS: error= 1.53D-02 at cycle   4 NSaved=   4.
 NSaved= 4 IEnMin= 4 EnMin= -610.649041709144     IErMin= 4 ErrMin= 1.53D-02
 ErrMax= 1.53D-02  0.00D+00 EMaxC= 1.00D-01 BMatC= 8.34D-02 BMatP= 2.06D-01
 IDIUse=3 WtCom= 8.47D-01 WtEn= 1.53D-01
 Coeff-Com:  0.230D-01 0.636D-01 0.381D+00 0.532D+00
 Coeff-En:   0.000D+00 0.000D+00 0.319D+00 0.681D+00
 Coeff:      0.195D-01 0.538D-01 0.372D+00 0.555D+00
 Gap=     0.106 Goal=   None    Shift=    0.000
 Gap=     0.106 Goal=   None    Shift=    0.000
 RMSDP=3.84D-03 MaxDP=2.45D-01 DE=-2.84D-02 OVMax= 3.84D-02

 Cycle   5  Pass 1  IDiag  1:
 RMSU=  1.17D-03    CP:  1.11D+00  5.46D-01  6.43D-01  5.43D-01
 E= -610.665898013181     Delta-E=       -0.016856304037 Rises=F Damp=F
 DIIS: error= 1.63D-03 at cycle   5 NSaved=   5.
 NSaved= 5 IEnMin= 5 EnMin= -610.665898013181     IErMin= 5 ErrMin= 1.63D-03
 ErrMax= 1.63D-03  0.00D+00 EMaxC= 1.00D-01 BMatC= 2.97D-03 BMatP= 8.34D-02
 IDIUse=3 WtCom= 9.84D-01 WtEn= 1.63D-02
 Coeff-Com:  0.881D-02 0.700D-02 0.186D+00 0.332D+00 0.466D+00
 Coeff-En:   0.000D+00 0.000D+00 0.000D+00 0.000D+00 0.100D+01
 Coeff:      0.866D-02 0.689D-02 0.183D+00 0.326D+00 0.475D+00
 Gap=     0.109 Goal=   None    Shift=    0.000
 Gap=     0.109 Goal=   None    Shift=    0.000
 RMSDP=1.39D-03 MaxDP=1.27D-01 DE=-1.69D-02 OVMax= 7.15D-03

 Cycle   6  Pass 1  IDiag  1:
 RMSU=  3.38D-04    CP:  1.10D+00  5.47D-01  6.12D-01  6.00D-01  5.23D-01
 E= -610.666424565129     Delta-E=       -0.000526551948 Rises=F Damp=F
 DIIS: error= 4.03D-04 at cycle   6 NSaved=   6.
 NSaved= 6 IEnMin= 6 EnMin= -610.666424565129     IErMin= 6 ErrMin= 4.03D-04
 ErrMax= 4.03D-04  0.00D+00 EMaxC= 1.00D-01 BMatC= 2.10D-04 BMatP= 2.97D-03
 IDIUse=3 WtCom= 9.96D-01 WtEn= 4.03D-03
 Coeff-Com:  0.141D-02-0.606D-02 0.462D-01 0.102D+00 0.261D+00 0.596D+00
 Coeff-En:   0.000D+00 0.000D+00 0.000D+00 0.000D+00 0.000D+00 0.100D+01
 Coeff:      0.140D-02-0.603D-02 0.460D-01 0.101D+00 0.260D+00 0.598D+00
 Gap=     0.108 Goal=   None    Shift=    0.000
 Gap=     0.108 Goal=   None    Shift=    0.000
 RMSDP=4.53D-04 MaxDP=5.28D-02 DE=-5.27D-04 OVMax= 1.23D-03

 Cycle   7  Pass 1  IDiag  1:
 RMSU=  7.78D-05    CP:  1.10D+00  5.47D-01  6.30D-01  5.84D-01  5.88D-01
                    CP:  7.98D-01
 E= -610.666457354674     Delta-E=       -0.000032789545 Rises=F Damp=F
 DIIS: error= 7.71D-05 at cycle   7 NSaved=   7.
 NSaved= 7 IEnMin= 7 EnMin= -610.666457354674     IErMin= 7 ErrMin= 7.71D-05
 ErrMax= 7.71D-05  0.00D+00 EMaxC= 1.00D-01 BMatC= 1.11D-05 BMatP= 2.10D-04
 IDIUse=1 WtCom= 1.00D+00 WtEn= 0.00D+00
 Coeff-Com:  0.351D-03-0.287D-02 0.123D-01 0.307D-01 0.104D+00 0.300D+00
 Coeff-Com:  0.555D+00
 Coeff:      0.351D-03-0.287D-02 0.123D-01 0.307D-01 0.104D+00 0.300D+00
 Coeff:      0.555D+00
 Gap=     0.108 Goal=   None    Shift=    0.000
 Gap=     0.108 Goal=   None    Shift=    0.000
 RMSDP=7.22D-05 MaxDP=6.86D-03 DE=-3.28D-05 OVMax= 4.06D-04

 Cycle   8  Pass 1  IDiag  1:
 RMSU=  2.42D-05    CP:  1.10D+00  5.47D-01  6.29D-01  5.93D-01  5.98D-01
                    CP:  7.23D-01  6.56D-01
 E= -610.666459763945     Delta-E=       -0.000002409271 Rises=F Damp=F
 DIIS: error= 1.58D-05 at cycle   8 NSaved=   8.
 NSaved= 8 IEnMin= 8 EnMin= -610.666459763945     IErMin= 8 ErrMin= 1.58D-05
 ErrMax= 1.58D-05  0.00D+00 EMaxC= 1.00D-01 BMatC= 4.40D-07 BMatP= 1.11D-05
 IDIUse=1 WtCom= 1.00D+00 WtEn= 0.00D+00
 Coeff-Com:  0.499D-04-0.541D-03 0.577D-03 0.204D-02 0.160D-01 0.504D-01
 Coeff-Com:  0.192D+00 0.739D+00
 Coeff:      0.499D-04-0.541D-03 0.577D-03 0.204D-02 0.160D-01 0.504D-01
 Coeff:      0.192D+00 0.739D+00
 Gap=     0.108 Goal=   None    Shift=    0.000
 Gap=     0.108 Goal=   None    Shift=    0.000
 RMSDP=2.97D-05 MaxDP=1.93D-03 DE=-2.41D-06 OVMax= 1.27D-04

 Cycle   9  Pass 1  IDiag  1:
 RMSU=  1.69D-05    CP:  1.10D+00  5.47D-01  6.28D-01  5.94D-01  5.93D-01
                    CP:  7.52D-01  7.00D-01  5.92D-01
 E= -610.666459851767     Delta-E=       -0.000000087822 Rises=F Damp=F
 DIIS: error= 1.02D-05 at cycle   9 NSaved=   9.
 NSaved= 9 IEnMin= 9 EnMin= -610.666459851767     IErMin= 9 ErrMin= 1.02D-05
 ErrMax= 1.02D-05  0.00D+00 EMaxC= 1.00D-01 BMatC= 7.78D-08 BMatP= 4.40D-07
 IDIUse=1 WtCom= 1.00D+00 WtEn= 0.00D+00
 Coeff-Com:  0.153D-04-0.184D-03-0.207D-03-0.221D-03 0.435D-02 0.140D-01
 Coeff-Com:  0.798D-01 0.406D+00 0.497D+00
 Coeff:      0.153D-04-0.184D-03-0.207D-03-0.221D-03 0.435D-02 0.140D-01
 Coeff:      0.798D-01 0.406D+00 0.497D+00
 Gap=     0.108 Goal=   None    Shift=    0.000
 Gap=     0.108 Goal=   None    Shift=    0.000
 RMSDP=7.79D-06 MaxDP=5.80D-04 DE=-8.78D-08 OVMax= 7.96D-05

 Cycle  10  Pass 1  IDiag  1:
 RMSU=  1.98D-06    CP:  1.10D+00  5.47D-01  6.28D-01  5.93D-01  5.95D-01
                    CP:  7.49D-01  6.94D-01  6.76D-01  7.74D-01
 E= -610.666459866465     Delta-E=       -0.000000014698 Rises=F Damp=F
 DIIS: error= 8.71D-06 at cycle  10 NSaved=  10.
 NSaved=10 IEnMin=10 EnMin= -610.666459866465     IErMin=10 ErrMin= 8.71D-06
 ErrMax= 8.71D-06  0.00D+00 EMaxC= 1.00D-01 BMatC= 1.64D-08 BMatP= 7.78D-08
 IDIUse=1 WtCom= 1.00D+00 WtEn= 0.00D+00
 Coeff-Com:  0.479D-05-0.665D-04-0.194D-03-0.363D-03 0.130D-02 0.395D-02
 Coeff-Com:  0.335D-01 0.193D+00 0.337D+00 0.431D+00
 Coeff:      0.479D-05-0.665D-04-0.194D-03-0.363D-03 0.130D-02 0.395D-02
 Coeff:      0.335D-01 0.193D+00 0.337D+00 0.431D+00
 Gap=     0.108 Goal=   None    Shift=    0.000
 Gap=     0.108 Goal=   None    Shift=    0.000
 RMSDP=1.72D-06 MaxDP=1.96D-04 DE=-1.47D-08 OVMax= 4.46D-05

 Cycle  11  Pass 1  IDiag  1:
 RMSU=  8.09D-07    CP:  1.10D+00  5.47D-01  6.29D-01  5.93D-01  5.95D-01
                    CP:  7.48D-01  6.97D-01  6.86D-01  7.59D-01  4.67D-01
 E= -610.666459869492     Delta-E=       -0.000000003027 Rises=F Damp=F
 DIIS: error= 3.79D-06 at cycle  11 NSaved=  11.
 NSaved=11 IEnMin=11 EnMin= -610.666459869492     IErMin=11 ErrMin= 3.79D-06
 ErrMax= 3.79D-06  0.00D+00 EMaxC= 1.00D-01 BMatC= 3.75D-09 BMatP= 1.64D-08
 IDIUse=1 WtCom= 1.00D+00 WtEn= 0.00D+00
 Coeff-Com: -0.121D-05 0.525D-06-0.101D-03-0.240D-03-0.188D-03-0.913D-03
 Coeff-Com:  0.460D-02 0.408D-01 0.129D+00 0.335D+00 0.491D+00
 Coeff:     -0.121D-05 0.525D-06-0.101D-03-0.240D-03-0.188D-03-0.913D-03
 Coeff:      0.460D-02 0.408D-01 0.129D+00 0.335D+00 0.491D+00
 Gap=     0.108 Goal=   None    Shift=    0.000
 Gap=     0.108 Goal=   None    Shift=    0.000
 RMSDP=1.22D-06 MaxDP=1.61D-04 DE=-3.03D-09 OVMax= 1.46D-05

 Cycle  12  Pass 1  IDiag  1:
 RMSU=  2.52D-07    CP:  1.10D+00  5.47D-01  6.29D-01  5.93D-01  5.95D-01
                    CP:  7.48D-01  7.00D-01  6.83D-01  7.79D-01  5.91D-01
                    CP:  5.75D-01
 E= -610.666459870413     Delta-E=       -0.000000000921 Rises=F Damp=F
 DIIS: error= 1.82D-07 at cycle  12 NSaved=  12.
 NSaved=12 IEnMin=12 EnMin= -610.666459870413     IErMin=12 ErrMin= 1.82D-07
 ErrMax= 1.82D-07  0.00D+00 EMaxC= 1.00D-01 BMatC= 2.59D-11 BMatP= 3.75D-09
 IDIUse=1 WtCom= 1.00D+00 WtEn= 0.00D+00
 Coeff-Com: -0.135D-05 0.420D-05-0.139D-04-0.347D-04-0.108D-03-0.432D-03
 Coeff-Com: -0.629D-03-0.186D-02 0.108D-01 0.561D-01 0.124D+00 0.813D+00
 Coeff:     -0.135D-05 0.420D-05-0.139D-04-0.347D-04-0.108D-03-0.432D-03
 Coeff:     -0.629D-03-0.186D-02 0.108D-01 0.561D-01 0.124D+00 0.813D+00
 Gap=     0.108 Goal=   None    Shift=    0.000
 Gap=     0.108 Goal=   None    Shift=    0.000
 RMSDP=2.29D-07 MaxDP=2.82D-05 DE=-9.21D-10 OVMax= 1.18D-06

 Cycle  13  Pass 1  IDiag  1:
 RMSU=  5.42D-08    CP:  1.10D+00  5.47D-01  6.29D-01  5.93D-01  5.95D-01
                    CP:  7.48D-01  6.99D-01  6.82D-01  7.83D-01  5.96D-01
                    CP:  5.96D-01  8.47D-01
 E= -610.666459870396     Delta-E=        0.000000000018 Rises=F Damp=F
 DIIS: error= 2.87D-08 at cycle  13 NSaved=  13.
 NSaved=13 IEnMin=12 EnMin= -610.666459870413     IErMin=13 ErrMin= 2.87D-08
 ErrMax= 2.87D-08  0.00D+00 EMaxC= 1.00D-01 BMatC= 3.19D-12 BMatP= 2.59D-11
 IDIUse=1 WtCom= 1.00D+00 WtEn= 0.00D+00
 Coeff-Com: -0.633D-06 0.184D-05-0.921D-06-0.256D-05-0.351D-04-0.156D-03
 Coeff-Com: -0.548D-03-0.319D-02-0.271D-02 0.448D-02 0.226D-01 0.321D+00
 Coeff-Com:  0.659D+00
 Coeff:     -0.633D-06 0.184D-05-0.921D-06-0.256D-05-0.351D-04-0.156D-03
 Coeff:     -0.548D-03-0.319D-02-0.271D-02 0.448D-02 0.226D-01 0.321D+00
 Coeff:      0.659D+00
 Gap=     0.108 Goal=   None    Shift=    0.000
 Gap=     0.108 Goal=   None    Shift=    0.000
 RMSDP=5.56D-08 MaxDP=6.92D-06 DE= 1.77D-11 OVMax= 2.97D-07

 Cycle  14  Pass 1  IDiag  1:
 RMSU=  9.92D-09    CP:  1.10D+00  5.47D-01  6.29D-01  5.93D-01  5.95D-01
                    CP:  7.48D-01  7.00D-01  6.82D-01  7.83D-01  5.97D-01
                    CP:  5.99D-01  8.94D-01  9.80D-01
 E= -610.666459870402     Delta-E=       -0.000000000007 Rises=F Damp=F
 DIIS: error= 2.05D-08 at cycle  14 NSaved=  14.
 NSaved=14 IEnMin=12 EnMin= -610.666459870413     IErMin=14 ErrMin= 2.05D-08
 ErrMax= 2.05D-08  0.00D+00 EMaxC= 1.00D-01 BMatC= 5.83D-13 BMatP= 3.19D-12
 IDIUse=1 WtCom= 1.00D+00 WtEn= 0.00D+00
 Coeff-Com: -0.207D-06 0.607D-06 0.596D-06 0.144D-05-0.734D-05-0.450D-04
 Coeff-Com: -0.223D-03-0.145D-02-0.239D-02-0.332D-02-0.537D-03 0.888D-01
 Coeff-Com:  0.354D+00 0.566D+00
 Coeff:     -0.207D-06 0.607D-06 0.596D-06 0.144D-05-0.734D-05-0.450D-04
 Coeff:     -0.223D-03-0.145D-02-0.239D-02-0.332D-02-0.537D-03 0.888D-01
 Coeff:      0.354D+00 0.566D+00
 Gap=     0.108 Goal=   None    Shift=    0.000
 Gap=     0.108 Goal=   None    Shift=    0.000
 RMSDP=1.89D-08 MaxDP=1.77D-06 DE=-6.82D-12 OVMax= 1.80D-07

 Cycle  15  Pass 1  IDiag  1:
 RMSU=  4.45D-09    CP:  1.10D+00  5.47D-01  6.29D-01  5.93D-01  5.95D-01
                    CP:  7.48D-01  7.00D-01  6.82D-01  7.83D-01  5.97D-01
                    CP:  6.02D-01  8.96D-01  9.53D-01  7.66D-01
 E= -610.666459870405     Delta-E=       -0.000000000003 Rises=F Damp=F
 DIIS: error= 1.25D-08 at cycle  15 NSaved=  15.
 NSaved=15 IEnMin=12 EnMin= -610.666459870413     IErMin=15 ErrMin= 1.25D-08
 ErrMax= 1.25D-08  0.00D+00 EMaxC= 1.00D-01 BMatC= 1.16D-13 BMatP= 5.83D-13
 IDIUse=1 WtCom= 1.00D+00 WtEn= 0.00D+00
 Coeff-Com: -0.525D-07 0.170D-06 0.511D-06 0.124D-05-0.360D-06-0.116D-04
 Coeff-Com: -0.830D-04-0.572D-03-0.125D-02-0.269D-02-0.308D-02 0.217D-01
 Coeff-Com:  0.156D+00 0.363D+00 0.466D+00
 Coeff:     -0.525D-07 0.170D-06 0.511D-06 0.124D-05-0.360D-06-0.116D-04
 Coeff:     -0.830D-04-0.572D-03-0.125D-02-0.269D-02-0.308D-02 0.217D-01
 Coeff:      0.156D+00 0.363D+00 0.466D+00
 Gap=     0.108 Goal=   None    Shift=    0.000
 Gap=     0.108 Goal=   None    Shift=    0.000
 RMSDP=2.69D-09 MaxDP=1.86D-07 DE=-2.96D-12 OVMax= 8.29D-08

 SCF Done:  E(UB3LYP) =  -610.666459870     A.U. after   15 cycles
            NFock= 15  Conv=0.27D-08     -V/T= 2.0037
 <Sx>= 0.0000 <Sy>= 0.0000 <Sz>= 0.0000 <S**2>=-0.0000 S=-0.0000
 <L.S>=  0.00000000000    
 KE= 6.084046628507D+02 PE=-2.829963485044D+03 EE= 9.105920180816D+02
 Annihilation of the first spin contaminant:
 S**2 before annihilation    -0.0000,   after     0.0000
 Leave Link  502 at Wed Jan 10 04:50:47 2024, MaxMem=  4026531840 cpu:             875.3 elap:             131.5
 (Enter /sysapps/ubuntu-applications/gaussian/Gaussian/AVX2/g16/l601.exe)
 Copying SCF densities to generalized density rwf, IOpCl= 1 IROHF=0.

 **********************************************************************

            Population analysis using the SCF density.

 **********************************************************************

 Alpha  occ. eigenvalues --  -19.16780 -19.16777 -19.14150 -19.14148 -10.29048
 Alpha  occ. eigenvalues --  -10.29046 -10.26240 -10.26175 -10.22801 -10.22801
 Alpha  occ. eigenvalues --  -10.21891 -10.21805  -1.10032  -1.08395  -1.06698
 Alpha  occ. eigenvalues --   -1.06005  -0.86468  -0.79990  -0.73755  -0.70820
 Alpha  occ. eigenvalues --   -0.70018  -0.62965  -0.60846  -0.55162  -0.53250
 Alpha  occ. eigenvalues --   -0.52940  -0.49912  -0.49582  -0.47333  -0.47048
 Alpha  occ. eigenvalues --   -0.46102  -0.45075  -0.43903  -0.42746  -0.42220
 Alpha  occ. eigenvalues --   -0.41685  -0.38146  -0.37083  -0.33958  -0.33330
 Alpha  occ. eigenvalues --   -0.31678  -0.28236  -0.28191  -0.24350
 Alpha virt. eigenvalues --   -0.13515  -0.02672  -0.00816  -0.00489   0.00121
 Alpha virt. eigenvalues --    0.00527   0.01676   0.02660   0.02858   0.02865
 Alpha virt. eigenvalues --    0.04253   0.04957   0.05503   0.06531   0.07144
 Alpha virt. eigenvalues --    0.07357   0.08288   0.08674   0.09454   0.10238
 Alpha virt. eigenvalues --    0.10517   0.10897   0.10990   0.11495   0.11829
 Alpha virt. eigenvalues --    0.12562   0.12940   0.13578   0.14074   0.14161
 Alpha virt. eigenvalues --    0.14460   0.14997   0.15381   0.16042   0.16077
 Alpha virt. eigenvalues --    0.16556   0.17340   0.17553   0.17624   0.18596
 Alpha virt. eigenvalues --    0.18879   0.19766   0.21071   0.21397   0.21900
 Alpha virt. eigenvalues --    0.22432   0.23140   0.23655   0.23788   0.24727
 Alpha virt. eigenvalues --    0.24931   0.25163   0.26530   0.27552   0.28162
 Alpha virt. eigenvalues --    0.28905   0.30118   0.30220   0.30687   0.30914
 Alpha virt. eigenvalues --    0.30986   0.31564   0.32374   0.33458   0.34693
 Alpha virt. eigenvalues --    0.35137   0.36019   0.36028   0.36906   0.37268
 Alpha virt. eigenvalues --    0.38806   0.38885   0.39634   0.41247   0.41776
 Alpha virt. eigenvalues --    0.44388   0.45083   0.46015   0.47465   0.50111
 Alpha virt. eigenvalues --    0.50921   0.52299   0.54528   0.54778   0.56037
 Alpha virt. eigenvalues --    0.57111   0.57715   0.58517   0.58963   0.59588
 Alpha virt. eigenvalues --    0.59765   0.61224   0.64419   0.64835   0.65331
 Alpha virt. eigenvalues --    0.66415   0.67169   0.67193   0.68678   0.69979
 Alpha virt. eigenvalues --    0.70549   0.71041   0.74375   0.76271   0.78819
 Alpha virt. eigenvalues --    0.79389   0.82695   0.82949   0.84055   0.85328
 Alpha virt. eigenvalues --    0.86637   0.88850   0.90490   0.90512   0.91174
 Alpha virt. eigenvalues --    0.95403   0.95556   0.97933   0.99141   1.00530
 Alpha virt. eigenvalues --    1.01036   1.06808   1.08544   1.08574   1.09398
 Alpha virt. eigenvalues --    1.10891   1.12452   1.12985   1.15151   1.17096
 Alpha virt. eigenvalues --    1.20724   1.21952   1.22657   1.25574   1.26534
 Alpha virt. eigenvalues --    1.27803   1.29612   1.33485   1.33816   1.35400
 Alpha virt. eigenvalues --    1.35871   1.39810   1.42967   1.45309   1.46641
 Alpha virt. eigenvalues --    1.46824   1.47116   1.53130   1.55382   1.56381
 Alpha virt. eigenvalues --    1.58020   1.58210   1.58759   1.59968   1.61978
 Alpha virt. eigenvalues --    1.63975   1.64582   1.66921   1.67619   1.69226
 Alpha virt. eigenvalues --    1.71541   1.72373   1.74662   1.75193   1.75987
 Alpha virt. eigenvalues --    1.76063   1.78448   1.80706   1.81325   1.81990
 Alpha virt. eigenvalues --    1.83613   1.83862   1.89132   1.92551   1.94036
 Alpha virt. eigenvalues --    1.96905   2.02121   2.04014   2.04538   2.08935
 Alpha virt. eigenvalues --    2.13025   2.14185   2.15885   2.17576   2.18164
 Alpha virt. eigenvalues --    2.20150   2.20894   2.25042   2.30135   2.35591
 Alpha virt. eigenvalues --    2.44672   2.45149   2.48581   2.50431   2.51556
 Alpha virt. eigenvalues --    2.52174   2.54482   2.54877   2.56355   2.58450
 Alpha virt. eigenvalues --    2.62590   2.65399   2.65905   2.68258   2.68783
 Alpha virt. eigenvalues --    2.69429   2.70187   2.73045   2.78879   2.79381
 Alpha virt. eigenvalues --    2.83562   2.87720   2.89413   2.90193   2.91834
 Alpha virt. eigenvalues --    2.93455   2.97060   3.00846   3.02363   3.03317
 Alpha virt. eigenvalues --    3.03750   3.05300   3.06662   3.06957   3.14723
 Alpha virt. eigenvalues --    3.17722   3.20895   3.22610   3.24560   3.28002
 Alpha virt. eigenvalues --    3.32782   3.34736   3.43051   3.46395   3.50026
 Alpha virt. eigenvalues --    3.53360   3.58587   3.60206   3.71480   3.73946
 Alpha virt. eigenvalues --    3.78617   3.78902   3.81830   3.83428   3.99256
 Alpha virt. eigenvalues --    4.01749   4.06061   4.07900   4.16807   4.17486
 Alpha virt. eigenvalues --    4.24954   4.67126   5.03225   5.04002   5.08703
 Alpha virt. eigenvalues --    5.09483   5.19674   5.23656   5.31075   5.42224
 Alpha virt. eigenvalues --    5.60419   5.75616   5.78510   5.87105  23.59346
 Alpha virt. eigenvalues --   23.73157  23.82878  23.87793  23.91439  23.92480
 Alpha virt. eigenvalues --   24.05031  24.23203  49.88514  49.95260  49.99708
 Alpha virt. eigenvalues --   50.03359
  Beta  occ. eigenvalues --  -19.16780 -19.16777 -19.14150 -19.14148 -10.29048
  Beta  occ. eigenvalues --  -10.29046 -10.26240 -10.26175 -10.22801 -10.22801
  Beta  occ. eigenvalues --  -10.21891 -10.21805  -1.10032  -1.08395  -1.06698
  Beta  occ. eigenvalues --   -1.06005  -0.86468  -0.79990  -0.73755  -0.70820
  Beta  occ. eigenvalues --   -0.70018  -0.62965  -0.60846  -0.55162  -0.53250
  Beta  occ. eigenvalues --   -0.52940  -0.49912  -0.49582  -0.47333  -0.47048
  Beta  occ. eigenvalues --   -0.46102  -0.45075  -0.43903  -0.42746  -0.42220
  Beta  occ. eigenvalues --   -0.41685  -0.38146  -0.37083  -0.33958  -0.33330
  Beta  occ. eigenvalues --   -0.31678  -0.28236  -0.28191  -0.24350
  Beta virt. eigenvalues --   -0.13515  -0.02672  -0.00816  -0.00489   0.00121
  Beta virt. eigenvalues --    0.00527   0.01676   0.02660   0.02858   0.02865
  Beta virt. eigenvalues --    0.04253   0.04957   0.05503   0.06531   0.07144
  Beta virt. eigenvalues --    0.07357   0.08288   0.08674   0.09454   0.10238
  Beta virt. eigenvalues --    0.10517   0.10897   0.10990   0.11495   0.11829
  Beta virt. eigenvalues --    0.12562   0.12940   0.13578   0.14074   0.14161
  Beta virt. eigenvalues --    0.14460   0.14997   0.15381   0.16042   0.16077
  Beta virt. eigenvalues --    0.16556   0.17340   0.17553   0.17624   0.18596
  Beta virt. eigenvalues --    0.18879   0.19766   0.21071   0.21397   0.21900
  Beta virt. eigenvalues --    0.22432   0.23140   0.23655   0.23788   0.24727
  Beta virt. eigenvalues --    0.24931   0.25163   0.26530   0.27552   0.28162
  Beta virt. eigenvalues --    0.28905   0.30118   0.30220   0.30687   0.30914
  Beta virt. eigenvalues --    0.30986   0.31564   0.32374   0.33458   0.34693
  Beta virt. eigenvalues --    0.35137   0.36019   0.36028   0.36906   0.37268
  Beta virt. eigenvalues --    0.38806   0.38885   0.39634   0.41247   0.41776
  Beta virt. eigenvalues --    0.44388   0.45083   0.46015   0.47465   0.50111
  Beta virt. eigenvalues --    0.50921   0.52299   0.54528   0.54778   0.56037
  Beta virt. eigenvalues --    0.57111   0.57715   0.58517   0.58963   0.59588
  Beta virt. eigenvalues --    0.59765   0.61224   0.64419   0.64835   0.65331
  Beta virt. eigenvalues --    0.66415   0.67169   0.67193   0.68678   0.69979
  Beta virt. eigenvalues --    0.70549   0.71041   0.74375   0.76271   0.78819
  Beta virt. eigenvalues --    0.79389   0.82695   0.82949   0.84055   0.85328
  Beta virt. eigenvalues --    0.86637   0.88850   0.90490   0.90512   0.91174
  Beta virt. eigenvalues --    0.95403   0.95556   0.97933   0.99141   1.00530
  Beta virt. eigenvalues --    1.01036   1.06808   1.08544   1.08574   1.09398
  Beta virt. eigenvalues --    1.10891   1.12452   1.12985   1.15151   1.17096
  Beta virt. eigenvalues --    1.20724   1.21952   1.22657   1.25574   1.26534
  Beta virt. eigenvalues --    1.27803   1.29612   1.33485   1.33816   1.35400
  Beta virt. eigenvalues --    1.35871   1.39810   1.42967   1.45309   1.46641
  Beta virt. eigenvalues --    1.46824   1.47116   1.53130   1.55382   1.56381
  Beta virt. eigenvalues --    1.58020   1.58210   1.58759   1.59968   1.61978
  Beta virt. eigenvalues --    1.63975   1.64582   1.66921   1.67619   1.69226
  Beta virt. eigenvalues --    1.71541   1.72373   1.74662   1.75193   1.75987
  Beta virt. eigenvalues --    1.76063   1.78448   1.80706   1.81325   1.81990
  Beta virt. eigenvalues --    1.83613   1.83862   1.89132   1.92551   1.94036
  Beta virt. eigenvalues --    1.96905   2.02121   2.04014   2.04538   2.08935
  Beta virt. eigenvalues --    2.13025   2.14185   2.15885   2.17576   2.18164
  Beta virt. eigenvalues --    2.20150   2.20894   2.25042   2.30135   2.35591
  Beta virt. eigenvalues --    2.44672   2.45149   2.48581   2.50431   2.51556
  Beta virt. eigenvalues --    2.52174   2.54482   2.54877   2.56355   2.58450
  Beta virt. eigenvalues --    2.62590   2.65399   2.65905   2.68258   2.68783
  Beta virt. eigenvalues --    2.69429   2.70187   2.73045   2.78879   2.79381
  Beta virt. eigenvalues --    2.83562   2.87720   2.89413   2.90193   2.91834
  Beta virt. eigenvalues --    2.93455   2.97060   3.00846   3.02363   3.03317
  Beta virt. eigenvalues --    3.03750   3.05300   3.06662   3.06957   3.14723
  Beta virt. eigenvalues --    3.17722   3.20895   3.22610   3.24560   3.28002
  Beta virt. eigenvalues --    3.32782   3.34736   3.43051   3.46395   3.50026
  Beta virt. eigenvalues --    3.53360   3.58587   3.60206   3.71480   3.73946
  Beta virt. eigenvalues --    3.78617   3.78902   3.81830   3.83428   3.99256
  Beta virt. eigenvalues --    4.01749   4.06061   4.07900   4.16807   4.17486
  Beta virt. eigenvalues --    4.24954   4.67126   5.03225   5.04002   5.08703
  Beta virt. eigenvalues --    5.09483   5.19674   5.23656   5.31075   5.42224
  Beta virt. eigenvalues --    5.60419   5.75616   5.78510   5.87105  23.59346
  Beta virt. eigenvalues --   23.73157  23.82878  23.87793  23.91439  23.92480
  Beta virt. eigenvalues --   24.05031  24.23203  49.88514  49.95260  49.99708
  Beta virt. eigenvalues --   50.03359
          Condensed to atoms (all electrons):
               1          2          3          4          5          6
     1  C    5.143462   0.156762   0.147396  -0.191440  -0.009056  -0.004335
     2  O    0.156762   8.030400   0.853685  -0.586782   0.015326  -0.009078
     3  C    0.147396   0.853685  36.697585 -22.185442  -0.587190  -0.191117
     4  C   -0.191440  -0.586782 -22.185442  36.682751   0.853657   0.147636
     5  O   -0.009056   0.015326  -0.587190   0.853657   8.030631   0.156782
     6  C   -0.004335  -0.009078  -0.191117   0.147636   0.156782   5.143455
     7  C   -0.059582   0.062476  -3.698025  -1.813990  -0.252809  -0.035219
     8  O    0.000270   0.000759  -0.218370   0.024012   0.016147  -0.024088
     9  C    0.039077  -0.063261  -3.837242   0.782228   0.071300  -0.094870
    10  C   -0.094588   0.071389   0.786126  -3.829191  -0.063468   0.039057
    11  C   -0.034696  -0.253274  -1.827149  -3.704129   0.062702  -0.059463
    12  O   -0.024134   0.016234   0.023670  -0.217786   0.000753   0.000270
    13  H    0.414008  -0.036865   0.071623  -0.037399   0.001377  -0.000171
    14  H    0.392031  -0.057590   0.057977  -0.027562   0.001083   0.000242
    15  H    0.420799  -0.048289  -0.097139   0.002406  -0.001209   0.000252
    16  H    0.000241   0.001084  -0.027372   0.057897  -0.057643   0.392044
    17  H   -0.000168   0.001373  -0.037584   0.071550  -0.036793   0.414027
    18  H    0.000250  -0.001211   0.002335  -0.097057  -0.048307   0.420780
    19  H    0.000368  -0.000792  -0.034043   0.019531   0.001377  -0.001840
    20  H   -0.001835   0.001380   0.019884  -0.034099  -0.000796   0.000368
               7          8          9         10         11         12
     1  C   -0.059582   0.000270   0.039077  -0.094588  -0.034696  -0.024134
     2  O    0.062476   0.000759  -0.063261   0.071389  -0.253274   0.016234
     3  C   -3.698025  -0.218370  -3.837242   0.786126  -1.827149   0.023670
     4  C   -1.813990   0.024012   0.782228  -3.829191  -3.704129  -0.217786
     5  O   -0.252809   0.016147   0.071300  -0.063468   0.062702   0.000753
     6  C   -0.035219  -0.024088  -0.094870   0.039057  -0.059463   0.000270
     7  C   17.844152   0.399260  -6.548868   6.148475  -5.743928   0.036854
     8  O    0.399260   8.125351  -0.039147  -0.060842   0.036701   0.000252
     9  C   -6.548868  -0.039147  16.806784  -7.783011   6.152992  -0.061070
    10  C    6.148475  -0.060842  -7.783011  16.799706  -6.550287  -0.039014
    11  C   -5.743928   0.036701   6.152992  -6.550287  17.860939   0.399044
    12  O    0.036854   0.000252  -0.061070  -0.039014   0.399044   8.125194
    13  H    0.026085   0.000009  -0.014545   0.036948  -0.093583  -0.001320
    14  H   -0.014475  -0.000056  -0.000956  -0.001990   0.005557   0.003689
    15  H   -0.012949   0.000064   0.014659  -0.022514   0.117766  -0.017017
    16  H    0.005471   0.003694  -0.002029  -0.000932  -0.014475  -0.000056
    17  H   -0.093311  -0.001361   0.036943  -0.014551   0.026052   0.000008
    18  H    0.117748  -0.017042  -0.022492   0.014641  -0.012945   0.000064
    19  H   -0.285992  -0.013847   0.729851  -0.299011   0.178906   0.001434
    20  H    0.178945   0.001437  -0.299372   0.730304  -0.286526  -0.013835
              13         14         15         16         17         18
     1  C    0.414008   0.392031   0.420799   0.000241  -0.000168   0.000250
     2  O   -0.036865  -0.057590  -0.048289   0.001084   0.001373  -0.001211
     3  C    0.071623   0.057977  -0.097139  -0.027372  -0.037584   0.002335
     4  C   -0.037399  -0.027562   0.002406   0.057897   0.071550  -0.097057
     5  O    0.001377   0.001083  -0.001209  -0.057643  -0.036793  -0.048307
     6  C   -0.000171   0.000242   0.000252   0.392044   0.414027   0.420780
     7  C    0.026085  -0.014475  -0.012949   0.005471  -0.093311   0.117748
     8  O    0.000009  -0.000056   0.000064   0.003694  -0.001361  -0.017042
     9  C   -0.014545  -0.000956   0.014659  -0.002029   0.036943  -0.022492
    10  C    0.036948  -0.001990  -0.022514  -0.000932  -0.014551   0.014641
    11  C   -0.093583   0.005557   0.117766  -0.014475   0.026052  -0.012945
    12  O   -0.001320   0.003689  -0.017017  -0.000056   0.000008   0.000064
    13  H    0.553484  -0.029624  -0.042219   0.000051   0.000224  -0.000148
    14  H   -0.029624   0.547940  -0.027439  -0.000351   0.000051   0.000062
    15  H   -0.042219  -0.027439   0.515107   0.000062  -0.000148   0.000036
    16  H    0.000051  -0.000351   0.000062   0.547944  -0.029623  -0.027461
    17  H    0.000224   0.000051  -0.000148  -0.029623   0.553440  -0.042225
    18  H   -0.000148   0.000062   0.000036  -0.027461  -0.042225   0.515209
    19  H   -0.000142   0.000011   0.000220   0.000155   0.000131  -0.000797
    20  H    0.000130   0.000156  -0.000800   0.000011  -0.000143   0.000220
              19         20
     1  C    0.000368  -0.001835
     2  O   -0.000792   0.001380
     3  C   -0.034043   0.019884
     4  C    0.019531  -0.034099
     5  O    0.001377  -0.000796
     6  C   -0.001840   0.000368
     7  C   -0.285992   0.178945
     8  O   -0.013847   0.001437
     9  C    0.729851  -0.299372
    10  C   -0.299011   0.730304
    11  C    0.178906  -0.286526
    12  O    0.001434  -0.013835
    13  H   -0.000142   0.000130
    14  H    0.000011   0.000156
    15  H    0.000220  -0.000800
    16  H    0.000155   0.000011
    17  H    0.000131  -0.000143
    18  H   -0.000797   0.000220
    19  H    0.504721  -0.025903
    20  H   -0.025903   0.504820
          Atomic-Atomic Spin Densities.
               1          2          3          4          5          6
     1  C    0.000000   0.000000   0.000000  -0.000000   0.000000  -0.000000
     2  O    0.000000  -0.000000   0.000000  -0.000000   0.000000  -0.000000
     3  C    0.000000   0.000000   0.000000  -0.000000   0.000000  -0.000000
     4  C   -0.000000  -0.000000  -0.000000   0.000000  -0.000000   0.000000
     5  O    0.000000   0.000000   0.000000  -0.000000  -0.000000   0.000000
     6  C   -0.000000  -0.000000  -0.000000   0.000000   0.000000   0.000000
     7  C    0.000000  -0.000000   0.000000  -0.000000   0.000000  -0.000000
     8  O   -0.000000   0.000000  -0.000000   0.000000   0.000000   0.000000
     9  C   -0.000000   0.000000   0.000000   0.000000  -0.000000   0.000000
    10  C    0.000000  -0.000000   0.000000  -0.000000   0.000000  -0.000000
    11  C    0.000000   0.000000  -0.000000   0.000000  -0.000000   0.000000
    12  O    0.000000  -0.000000   0.000000  -0.000000   0.000000  -0.000000
    13  H    0.000000   0.000000   0.000000  -0.000000  -0.000000  -0.000000
    14  H   -0.000000  -0.000000  -0.000000   0.000000   0.000000   0.000000
    15  H   -0.000000  -0.000000  -0.000000   0.000000  -0.000000   0.000000
    16  H   -0.000000  -0.000000  -0.000000   0.000000   0.000000  -0.000000
    17  H   -0.000000   0.000000  -0.000000   0.000000  -0.000000   0.000000
    18  H    0.000000   0.000000   0.000000  -0.000000   0.000000  -0.000000
    19  H    0.000000  -0.000000   0.000000  -0.000000  -0.000000   0.000000
    20  H   -0.000000  -0.000000  -0.000000  -0.000000   0.000000  -0.000000
               7          8          9         10         11         12
     1  C    0.000000  -0.000000  -0.000000   0.000000   0.000000   0.000000
     2  O   -0.000000   0.000000   0.000000  -0.000000   0.000000  -0.000000
     3  C    0.000000  -0.000000   0.000000   0.000000  -0.000000   0.000000
     4  C   -0.000000   0.000000   0.000000  -0.000000   0.000000  -0.000000
     5  O    0.000000   0.000000  -0.000000   0.000000  -0.000000   0.000000
     6  C   -0.000000   0.000000   0.000000  -0.000000   0.000000  -0.000000
     7  C   -0.000000  -0.000000   0.000000  -0.000000   0.000000   0.000000
     8  O   -0.000000   0.000000   0.000000  -0.000000   0.000000  -0.000000
     9  C    0.000000   0.000000  -0.000000   0.000000  -0.000000   0.000000
    10  C   -0.000000  -0.000000   0.000000   0.000000   0.000000   0.000000
    11  C    0.000000   0.000000  -0.000000   0.000000  -0.000000   0.000000
    12  O    0.000000  -0.000000   0.000000   0.000000   0.000000   0.000000
    13  H    0.000000  -0.000000  -0.000000   0.000000  -0.000000   0.000000
    14  H   -0.000000   0.000000   0.000000  -0.000000   0.000000  -0.000000
    15  H   -0.000000   0.000000  -0.000000  -0.000000  -0.000000  -0.000000
    16  H   -0.000000   0.000000   0.000000  -0.000000   0.000000  -0.000000
    17  H   -0.000000   0.000000  -0.000000   0.000000  -0.000000   0.000000
    18  H    0.000000   0.000000   0.000000  -0.000000   0.000000   0.000000
    19  H    0.000000  -0.000000  -0.000000   0.000000  -0.000000   0.000000
    20  H   -0.000000   0.000000   0.000000  -0.000000   0.000000  -0.000000
              13         14         15         16         17         18
     1  C    0.000000  -0.000000  -0.000000  -0.000000  -0.000000   0.000000
     2  O    0.000000  -0.000000  -0.000000  -0.000000   0.000000   0.000000
     3  C    0.000000  -0.000000  -0.000000  -0.000000  -0.000000   0.000000
     4  C   -0.000000   0.000000   0.000000   0.000000   0.000000  -0.000000
     5  O   -0.000000   0.000000  -0.000000   0.000000  -0.000000   0.000000
     6  C   -0.000000   0.000000   0.000000  -0.000000   0.000000  -0.000000
     7  C    0.000000  -0.000000  -0.000000  -0.000000  -0.000000   0.000000
     8  O   -0.000000   0.000000   0.000000   0.000000   0.000000   0.000000
     9  C   -0.000000   0.000000  -0.000000   0.000000  -0.000000   0.000000
    10  C    0.000000  -0.000000  -0.000000  -0.000000   0.000000  -0.000000
    11  C   -0.000000   0.000000  -0.000000   0.000000  -0.000000   0.000000
    12  O    0.000000  -0.000000  -0.000000  -0.000000   0.000000   0.000000
    13  H    0.000000  -0.000000  -0.000000  -0.000000  -0.000000   0.000000
    14  H   -0.000000   0.000000   0.000000   0.000000   0.000000  -0.000000
    15  H   -0.000000   0.000000  -0.000000   0.000000   0.000000  -0.000000
    16  H   -0.000000   0.000000   0.000000  -0.000000   0.000000  -0.000000
    17  H   -0.000000   0.000000   0.000000   0.000000  -0.000000  -0.000000
    18  H    0.000000  -0.000000  -0.000000  -0.000000  -0.000000   0.000000
    19  H   -0.000000   0.000000  -0.000000   0.000000  -0.000000   0.000000
    20  H    0.000000  -0.000000   0.000000  -0.000000   0.000000  -0.000000
              19         20
     1  C    0.000000  -0.000000
     2  O   -0.000000  -0.000000
     3  C    0.000000  -0.000000
     4  C   -0.000000  -0.000000
     5  O   -0.000000   0.000000
     6  C    0.000000  -0.000000
     7  C    0.000000  -0.000000
     8  O   -0.000000   0.000000
     9  C   -0.000000   0.000000
    10  C    0.000000  -0.000000
    11  C   -0.000000   0.000000
    12  O    0.000000  -0.000000
    13  H   -0.000000   0.000000
    14  H    0.000000  -0.000000
    15  H   -0.000000   0.000000
    16  H    0.000000  -0.000000
    17  H   -0.000000   0.000000
    18  H    0.000000  -0.000000
    19  H   -0.000000   0.000000
    20  H    0.000000  -0.000000
 Mulliken charges and spin densities:
               1          2
     1  C   -0.294830   0.000000
     2  O   -0.153728  -0.000000
     3  C    0.080393   0.000000
     4  C    0.083209  -0.000000
     5  O   -0.153865   0.000000
     6  C   -0.294732   0.000000
     7  C   -0.260317  -0.000000
     8  O   -0.233203   0.000000
     9  C    0.133031   0.000000
    10  C    0.132752  -0.000000
    11  C   -0.260203   0.000000
    12  O   -0.233234  -0.000000
    13  H    0.152076   0.000000
    14  H    0.151244  -0.000000
    15  H    0.198353  -0.000000
    16  H    0.151288   0.000000
    17  H    0.152107  -0.000000
    18  H    0.198342   0.000000
    19  H    0.225663   0.000000
    20  H    0.225654   0.000000
 Sum of Mulliken charges =  -0.00000  -0.00000
 Mulliken charges and spin densities with hydrogens summed into heavy atoms:
               1          2
     1  C    0.206843   0.000000
     2  O   -0.153728  -0.000000
     3  C    0.080393   0.000000
     4  C    0.083209  -0.000000
     5  O   -0.153865   0.000000
     6  C    0.207006   0.000000
     7  C   -0.260317  -0.000000
     8  O   -0.233203   0.000000
     9  C    0.358694   0.000000
    10  C    0.358406  -0.000000
    11  C   -0.260203   0.000000
    12  O   -0.233234  -0.000000
 Electronic spatial extent (au):  <R**2>=           2022.9677
 Charge=             -0.0000 electrons
 Dipole moment (field-independent basis, Debye):
    X=             -0.1008    Y=             -0.1085    Z=              0.0063  Tot=              0.1482
 Quadrupole moment (field-independent basis, Debye-Ang):
   XX=            -66.9011   YY=            -65.6022   ZZ=            -75.1986
   XY=              2.9882   XZ=             -5.4114   YZ=              3.9824
 Traceless Quadrupole moment (field-independent basis, Debye-Ang):
   XX=              2.3329   YY=              3.6317   ZZ=             -5.9646
   XY=              2.9882   XZ=             -5.4114   YZ=              3.9824
 Octapole moment (field-independent basis, Debye-Ang**2):
  XXX=             65.5261  YYY=             60.1214  ZZZ=             -4.2186  XYY=            -12.3979
  XXY=             -5.2821  XXZ=             11.2710  XZZ=             13.6194  YZZ=             17.0374
  YYZ=            -13.3751  XYZ=              3.1249
 Hexadecapole moment (field-independent basis, Debye-Ang**3):
 XXXX=          -1130.7457 YYYY=          -1038.6839 ZZZZ=           -343.2068 XXXY=             89.1048
 XXXZ=           -182.9944 YYYX=             85.9297 YYYZ=            184.6030 ZZZX=           -174.9682
 ZZZY=            195.4844 XXYY=           -363.8355 XXZZ=           -275.9382 YYZZ=           -259.0153
 XXYZ=             72.1784 YYXZ=            -69.7283 ZZXY=             26.7037
 N-N= 7.003003442415D+02 E-N=-2.829963485091D+03  KE= 6.084046628507D+02
                          Isotropic Fermi Contact Couplings
        Atom                 a.u.       MegaHertz       Gauss      10(-4) cm-1
     1  C(13)             -0.00000      -0.00000      -0.00000      -0.00000
     2  O(17)             -0.00000       0.00000       0.00000       0.00000
     3  C(13)             -0.00000      -0.00000      -0.00000      -0.00000
     4  C(13)              0.00000       0.00000       0.00000       0.00000
     5  O(17)             -0.00000       0.00000       0.00000       0.00000
     6  C(13)              0.00000       0.00000       0.00000       0.00000
     7  C(13)             -0.00000      -0.00000      -0.00000      -0.00000
     8  O(17)             -0.00000       0.00000       0.00000       0.00000
     9  C(13)             -0.00000      -0.00000      -0.00000      -0.00000
    10  C(13)             -0.00000      -0.00000      -0.00000      -0.00000
    11  C(13)             -0.00000      -0.00000      -0.00000      -0.00000
    12  O(17)              0.00000      -0.00000      -0.00000      -0.00000
    13  H(1)               0.00000       0.00000       0.00000       0.00000
    14  H(1)               0.00000       0.00000       0.00000       0.00000
    15  H(1)               0.00000       0.00000       0.00000       0.00000
    16  H(1)               0.00000       0.00000       0.00000       0.00000
    17  H(1)               0.00000       0.00000       0.00000       0.00000
    18  H(1)               0.00000       0.00000       0.00000       0.00000
    19  H(1)              -0.00000      -0.00000      -0.00000      -0.00000
    20  H(1)               0.00000       0.00000       0.00000       0.00000
 --------------------------------------------------------
       Center         ----  Spin Dipole Couplings  ----
                      3XX-RR        3YY-RR        3ZZ-RR
 --------------------------------------------------------
     1   Atom        0.000000     -0.000000     -0.000000
     2   Atom        0.000000     -0.000000      0.000000
     3   Atom        0.000000     -0.000000      0.000000
     4   Atom       -0.000000     -0.000000      0.000000
     5   Atom        0.000000     -0.000000     -0.000000
     6   Atom       -0.000000      0.000000     -0.000000
     7   Atom       -0.000000      0.000000      0.000000
     8   Atom       -0.000000     -0.000000      0.000000
     9   Atom       -0.000000      0.000000      0.000000
    10   Atom        0.000000      0.000000     -0.000000
    11   Atom        0.000000     -0.000000     -0.000000
    12   Atom       -0.000000     -0.000000      0.000000
    13   Atom        0.000000     -0.000000      0.000000
    14   Atom        0.000000      0.000000     -0.000000
    15   Atom        0.000000     -0.000000     -0.000000
    16   Atom       -0.000000     -0.000000      0.000000
    17   Atom       -0.000000      0.000000     -0.000000
    18   Atom       -0.000000      0.000000     -0.000000
    19   Atom        0.000000     -0.000000      0.000000
    20   Atom        0.000000     -0.000000      0.000000
 --------------------------------------------------------
                        XY            XZ            YZ
 --------------------------------------------------------
     1   Atom       -0.000000     -0.000000     -0.000000
     2   Atom        0.000000      0.000000      0.000000
     3   Atom       -0.000000     -0.000000     -0.000000
     4   Atom       -0.000000      0.000000      0.000000
     5   Atom       -0.000000     -0.000000     -0.000000
     6   Atom        0.000000      0.000000     -0.000000
     7   Atom       -0.000000      0.000000     -0.000000
     8   Atom       -0.000000     -0.000000     -0.000000
     9   Atom        0.000000     -0.000000      0.000000
    10   Atom       -0.000000      0.000000     -0.000000
    11   Atom        0.000000      0.000000      0.000000
    12   Atom        0.000000      0.000000      0.000000
    13   Atom        0.000000     -0.000000      0.000000
    14   Atom        0.000000     -0.000000     -0.000000
    15   Atom        0.000000     -0.000000      0.000000
    16   Atom       -0.000000      0.000000     -0.000000
    17   Atom        0.000000      0.000000      0.000000
    18   Atom       -0.000000     -0.000000     -0.000000
    19   Atom       -0.000000      0.000000     -0.000000
    20   Atom       -0.000000     -0.000000      0.000000
 --------------------------------------------------------


 ---------------------------------------------------------------------------------
              Anisotropic Spin Dipole Couplings in Principal Axis System
 ---------------------------------------------------------------------------------

       Atom             a.u.   MegaHertz   Gauss  10(-4) cm-1        Axes

              Baa    -0.0000    -0.000    -0.000    -0.000  0.2630  0.4582  0.8490
     1 C(13)  Bbb    -0.0000    -0.000    -0.000    -0.000 -0.1676  0.8883 -0.4275
              Bcc     0.0000     0.000     0.000     0.000  0.9501  0.0299 -0.3105
 
              Baa    -0.0000     0.000     0.000     0.000 -0.0595  0.9698 -0.2367
     2 O(17)  Bbb    -0.0000     0.000     0.000     0.000  0.7570 -0.1107 -0.6440
              Bcc     0.0000    -0.000    -0.000    -0.000  0.6507  0.2175  0.7275
 
              Baa    -0.0000    -0.000    -0.000    -0.000  0.1765  0.7623  0.6227
     3 C(13)  Bbb     0.0000     0.000     0.000     0.000  0.9777 -0.2089 -0.0213
              Bcc     0.0000     0.000     0.000     0.000 -0.1139 -0.6126  0.7822
 
              Baa    -0.0000    -0.000    -0.000    -0.000  0.4121  0.6858 -0.5999
     4 C(13)  Bbb     0.0000     0.000     0.000     0.000  0.9068 -0.2440  0.3439
              Bcc     0.0000     0.000     0.000     0.000 -0.0894  0.6856  0.7224
 
              Baa    -0.0000     0.000     0.000     0.000  0.5185  0.4991  0.6944
     5 O(17)  Bbb    -0.0000     0.000     0.000     0.000 -0.3648  0.8635 -0.3483
              Bcc     0.0000    -0.000    -0.000    -0.000  0.7734  0.0727 -0.6297
 
              Baa    -0.0000    -0.000    -0.000    -0.000  0.7969 -0.0569 -0.6015
     6 C(13)  Bbb     0.0000     0.000     0.000     0.000  0.5730  0.3866  0.7226
              Bcc     0.0000     0.000     0.000     0.000 -0.1914  0.9205 -0.3407
 
              Baa    -0.0000    -0.000    -0.000    -0.000  0.9780  0.1855 -0.0955
     7 C(13)  Bbb     0.0000     0.000     0.000     0.000 -0.0608  0.6913  0.7200
              Bcc     0.0000     0.000     0.000     0.000 -0.1996  0.6983 -0.6874
 
              Baa    -0.0000     0.000     0.000     0.000  0.9141  0.3201  0.2489
     8 O(17)  Bbb    -0.0000     0.000     0.000     0.000 -0.3297  0.9441 -0.0029
              Bcc     0.0000    -0.000    -0.000    -0.000 -0.2359 -0.0794  0.9685
 
              Baa    -0.0000    -0.000    -0.000    -0.000  0.6823 -0.5095  0.5242
     9 C(13)  Bbb    -0.0000    -0.000    -0.000    -0.000  0.7306  0.5015 -0.4634
              Bcc     0.0000     0.000     0.000     0.000 -0.0268  0.6992  0.7144
 
              Baa    -0.0000    -0.000    -0.000    -0.000  0.0854  0.3887  0.9174
    10 C(13)  Bbb     0.0000     0.000     0.000     0.000  0.9499  0.2462 -0.1927
              Bcc     0.0000     0.000     0.000     0.000 -0.3007  0.8879 -0.3482
 
              Baa    -0.0000    -0.000    -0.000    -0.000 -0.1758 -0.6247  0.7608
    11 C(13)  Bbb    -0.0000    -0.000    -0.000    -0.000 -0.6054  0.6780  0.4168
              Bcc     0.0000     0.000     0.000     0.000  0.7763  0.3873  0.4974
 
              Baa    -0.0000     0.000     0.000     0.000  0.8438 -0.4751 -0.2495
    12 O(17)  Bbb    -0.0000     0.000     0.000     0.000  0.3801  0.8574 -0.3470
              Bcc     0.0000    -0.000    -0.000    -0.000  0.3788  0.1980  0.9041
 
              Baa    -0.0000    -0.000    -0.000    -0.000 -0.0382  0.9407 -0.3371
    13 H(1)   Bbb     0.0000     0.000     0.000     0.000  0.4431  0.3183  0.8380
              Bcc     0.0000     0.000     0.000     0.000  0.8956 -0.1174 -0.4290
 
              Baa    -0.0000    -0.000    -0.000    -0.000 -0.2747  0.5788  0.7678
    14 H(1)   Bbb    -0.0000    -0.000    -0.000    -0.000  0.8399 -0.2443  0.4846
              Bcc     0.0000     0.000     0.000     0.000  0.4681  0.7780 -0.4190
 
              Baa    -0.0000    -0.000    -0.000    -0.000  0.0356 -0.6426  0.7654
    15 H(1)   Bbb     0.0000     0.000     0.000     0.000 -0.0718  0.7622  0.6433
              Bcc     0.0000     0.000     0.000     0.000  0.9968  0.0779  0.0190
 
              Baa    -0.0000    -0.000    -0.000    -0.000  0.6169  0.7859  0.0414
    16 H(1)   Bbb     0.0000     0.000     0.000     0.000  0.6840 -0.5095 -0.5221
              Bcc     0.0000     0.000     0.000     0.000  0.3892 -0.3504  0.8519
 
              Baa    -0.0000    -0.000    -0.000    -0.000  0.7899 -0.1039 -0.6044
    17 H(1)   Bbb    -0.0000    -0.000    -0.000    -0.000  0.4985 -0.4652  0.7315
              Bcc     0.0000     0.000     0.000     0.000  0.3572  0.8791  0.3156
 
              Baa    -0.0000    -0.000    -0.000    -0.000  0.6679  0.2154  0.7124
    18 H(1)   Bbb     0.0000     0.000     0.000     0.000  0.1006  0.9223 -0.3732
              Bcc     0.0000     0.000     0.000     0.000  0.7374 -0.3209 -0.5944
 
              Baa    -0.0000    -0.000    -0.000    -0.000  0.3845  0.9219  0.0479
    19 H(1)   Bbb     0.0000     0.000     0.000     0.000 -0.5685  0.1955  0.7991
              Bcc     0.0000     0.000     0.000     0.000  0.7273 -0.3345  0.5993
 
              Baa    -0.0000    -0.000    -0.000    -0.000  0.3797  0.9144 -0.1405
    20 H(1)   Bbb     0.0000     0.000     0.000     0.000  0.9015 -0.3316  0.2781
              Bcc     0.0000     0.000     0.000     0.000 -0.2077  0.2323  0.9502
 

 ---------------------------------------------------------------------------------

 No NMR shielding tensors so no spin-rotation constants.
 Leave Link  601 at Wed Jan 10 04:50:49 2024, MaxMem=  4026531840 cpu:               5.7 elap:               1.5
 (Enter /sysapps/ubuntu-applications/gaussian/Gaussian/AVX2/g16/l701.exe)
 ... and contract with generalized density number  0.
 Compute integral first derivatives.
 Leave Link  701 at Wed Jan 10 04:50:49 2024, MaxMem=  4026531840 cpu:               2.4 elap:               0.6
 (Enter /sysapps/ubuntu-applications/gaussian/Gaussian/AVX2/g16/l702.exe)
 L702 exits ... SP integral derivatives will be done elsewhere.
 Leave Link  702 at Wed Jan 10 04:50:49 2024, MaxMem=  4026531840 cpu:               0.3 elap:               0.1
 (Enter /sysapps/ubuntu-applications/gaussian/Gaussian/AVX2/g16/l703.exe)
 Integral derivatives from FoFJK, PRISM(SPDF).
 Compute integral first derivatives, UseDBF=F ICtDFT=           0.
 Calling FoFJK, ICntrl=      2127 FMM=F ISym2X=0 I1Cent= 0 IOpClX= 1 NMat=1 NMatS=1 NMatT=0.
 FoFJK:  IHMeth= 1 ICntrl=    2127 DoSepK=F KAlg= 0 I1Cent=           0 FoldK=F
 IRaf=         0 NMat=       1 IRICut=       1 DoRegI=T DoRafI=F ISym2E= 0 IDoP0=0 IntGTp=1.
 FoFCou: FMM=F IPFlag=           0 FMFlag=      100000 FMFlg1=         800
         NFxFlg=           0 DoJE=F BraDBF=F KetDBF=F FulRan=T
         wScrn=  0.000000 ICntrl=      2127 IOpCl=  1 I1Cent=           0 NGrid=           0
         NMat0=    1 NMatS0=      1 NMatT0=    0 NMatD0=    1 NMtDS0=    0 NMtDT0=    0
 Symmetry not used in FoFCou.
 Leave Link  703 at Wed Jan 10 04:51:16 2024, MaxMem=  4026531840 cpu:             134.3 elap:              27.1
 (Enter /sysapps/ubuntu-applications/gaussian/Gaussian/AVX2/g16/l716.exe)
 Dipole        =-3.96610291D-02-4.26702392D-02 2.47192444D-03
 -------------------------------------------------------------------
 Center     Atomic                   Forces (Hartrees/Bohr)
 Number     Number              X              Y              Z
 -------------------------------------------------------------------
      1        6           0.000029134   -0.000020747   -0.000005551
      2        8          -0.000021249    0.000007060    0.000001887
      3        6          -0.000012632    0.000024527   -0.000010272
      4        6           0.000033664   -0.000008199    0.000016186
      5        8           0.000009137   -0.000028635   -0.000003155
      6        6          -0.000022181    0.000031051   -0.000023709
      7        6          -0.000029181   -0.000014730    0.000002379
      8        8           0.000008122    0.000001037   -0.000002471
      9        6          -0.000000916    0.000013808   -0.000001752
     10        6          -0.000022004    0.000012296   -0.000005149
     11        6           0.000033434   -0.000013905    0.000003294
     12        8          -0.000005267    0.000000116   -0.000003880
     13        1          -0.000002100    0.000003416    0.000002201
     14        1          -0.000002949    0.000002106   -0.000000702
     15        1          -0.000003747   -0.000000429    0.000002636
     16        1           0.000001286    0.000002970    0.000009006
     17        1           0.000002657   -0.000002217    0.000005347
     18        1           0.000001975   -0.000001230    0.000007517
     19        1          -0.000000162   -0.000006203    0.000001424
     20        1           0.000002979   -0.000002091    0.000004764
 -------------------------------------------------------------------
 Cartesian Forces:  Max     0.000033664 RMS     0.000013398
 Leave Link  716 at Wed Jan 10 04:51:17 2024, MaxMem=  4026531840 cpu:               0.4 elap:               0.1
 (Enter /sysapps/ubuntu-applications/gaussian/Gaussian/AVX2/g16/l103.exe)

 GradGradGradGradGradGradGradGradGradGradGradGradGradGradGradGradGradGrad
 Berny optimization.
 FormGI is forming the generalized inverse of G from B-inverse, IUseBI=4.
 GSVD:  received Info=                   1 from GESDD.
 Internal  Forces:  Max     0.000034299 RMS     0.000007146
 Search for a local minimum.
 Step number   1 out of a maximum of   96
 All quantities printed in internal units (Hartrees-Bohrs-Radians)
 RMS Force = .71456D-05 SwitMx=.10000D-02 MixMth= 2
 Mixed Optimization -- En-DIIS/RFO-DIIS
 Second derivative matrix not updated -- first step.
 ITU=  0
     Eigenvalues ---    0.00938   0.00939   0.00952   0.01143   0.01143
     Eigenvalues ---    0.01609   0.01633   0.01928   0.01964   0.02022
     Eigenvalues ---    0.02316   0.02420   0.02420   0.10040   0.10040
     Eigenvalues ---    0.10682   0.10682   0.15989   0.15994   0.16000
     Eigenvalues ---    0.16000   0.16000   0.16000   0.16000   0.16000
     Eigenvalues ---    0.22390   0.24364   0.24776   0.24841   0.24914
     Eigenvalues ---    0.24985   0.24987   0.25000   0.25000   0.32202
     Eigenvalues ---    0.33067   0.33775   0.33782   0.34499   0.34501
     Eigenvalues ---    0.34917   0.34917   0.35063   0.35065   0.35523
     Eigenvalues ---    0.35524   0.39378   0.39379   0.49361   0.56115
     Eigenvalues ---    0.56118   0.57123   0.94525   0.94526
 RFO step:  Lambda=-3.25351518D-08 EMin= 9.37914799D-03
 Linear search not attempted -- first point.
 Iteration  1 RMS(Cart)=  0.00023085 RMS(Int)=  0.00000002
 Iteration  2 RMS(Cart)=  0.00000004 RMS(Int)=  0.00000001
 ITry= 1 IFail=0 DXMaxC= 7.90D-04 DCOld= 1.00D+10 DXMaxT= 3.00D-01 DXLimC= 3.00D+00 Rises=F
 Variable       Old X    -DE/DX   Delta X   Delta X   Delta X     New X
                                 (Linear)    (Quad)   (Total)
    R1        2.72407   0.00002   0.00000   0.00006   0.00006   2.72413
    R2        2.06496  -0.00000   0.00000  -0.00001  -0.00001   2.06495
    R3        2.05811  -0.00000   0.00000  -0.00000  -0.00000   2.05810
    R4        2.05570   0.00000   0.00000   0.00001   0.00001   2.05571
    R5        2.54154  -0.00000   0.00000  -0.00000  -0.00000   2.54154
    R6        2.58707  -0.00001   0.00000  -0.00002  -0.00002   2.58704
    R7        2.81143   0.00000   0.00000   0.00002   0.00002   2.81144
    R8        2.54152   0.00000   0.00000   0.00000   0.00000   2.54152
    R9        2.81136   0.00002   0.00000   0.00006   0.00006   2.81142
   R10        2.72405   0.00003   0.00000   0.00009   0.00009   2.72414
   R11        2.05809   0.00000   0.00000   0.00001   0.00001   2.05810
   R12        2.06493   0.00000   0.00000   0.00001   0.00001   2.06494
   R13        2.05572  -0.00001   0.00000  -0.00002  -0.00002   2.05570
   R14        2.30914  -0.00000   0.00000  -0.00000  -0.00000   2.30914
   R15        2.80895  -0.00001   0.00000  -0.00003  -0.00003   2.80892
[...]
 0234158,0.00076073,-0.01193967,0.00076190,-0.00397501,0.00627686,-0.00
 549008,0.00365602,-0.05723970,0.02734809,-0.04611644,0.00684264,0.0013
 5186,0.00189168,-0.00173057,0.00048950,0.00105105,-0.31614285,0.183254
 49,-0.21265499,0.35741202,-0.00044976,0.00000978,-0.00052639,0.0013673
 2,0.00110902,-0.00016878,-0.00668309,0.00292019,-0.00161184,0.01391169
 ,0.01144434,0.01029440,0.00247801,0.00877547,-0.00540085,0.00070160,-0
 .00892988,0.00253734,0.17732202,-0.24592226,0.17698364,-0.21602962,0.2
 7582454,0.00203371,-0.00093616,-0.00025128,-0.00603585,-0.00132863,-0.
 00384353,0.00386171,-0.00291030,0.00748726,-0.04060331,0.01729333,-0.0
 0970869,0.00271790,-0.00303981,0.00214143,-0.00101451,0.00049025,-0.00
 078556,-0.20887731,0.17899882,-0.24819626,0.26529602,-0.22350475,0.259
 77481,-0.00006281,-0.00032416,-0.00002824,-0.00074557,0.00063674,0.000
 21954,0.00008767,-0.00052125,-0.00117782,0.00256387,-0.02753358,0.0078
 5656,-0.00634872,-0.00418229,-0.00134953,-0.00109768,0.00203331,-0.000
 20020,-0.12081880,-0.05927727,0.00859123,0.01235613,0.03740287,-0.0222
 4639,0.72317143,0.00123878,-0.00102716,0.00028829,-0.00420645,-0.00073
 859,-0.00314972,0.00315890,-0.00383947,0.00608553,-0.01522327,-0.00590
 933,0.00126915,-0.00046800,0.00017808,0.00106535,0.00002967,0.00037970
 ,0.00037690,-0.05399792,-0.16550130,0.02280127,0.01934422,-0.03798976,
 0.03668042,-0.02466075,0.53529267,-0.00051380,0.00060731,-0.00061136,0
 .00207101,-0.00034514,-0.00023357,-0.00345395,0.00291165,0.00232090,0.
 00421009,-0.00358799,0.01224986,-0.00366465,-0.00074294,0.00009803,0.0
 0011009,0.00098923,0.00002297,0.00355249,0.02054385,-0.07759840,-0.012
 36307,0.04460888,-0.00814624,0.24091504,-0.19791772,0.28715571,0.00009
 293,0.00007904,-0.00040836,0.00043264,0.00027525,-0.00122972,-0.002153
 21,-0.01579046,0.00206278,-0.00476427,0.00257440,-0.00581245,-0.000147
 74,-0.00403381,0.00353900,-0.00116827,0.00116656,-0.00035166,0.0047914
 8,0.00719559,-0.00218234,0.00633466,-0.00548062,0.00508714,-0.29178241
 ,0.14029324,-0.15021376,0.57546722,0.00204024,-0.00093886,0.00008287,-
 0.00347470,-0.00612467,0.00215668,-0.02790844,-0.00144269,-0.00427017,
 -0.00101511,0.00064438,0.00099382,0.00070065,-0.00118154,0.00002962,-0
 .00045692,0.00003548,-0.00001252,0.02487800,-0.02110995,0.01678747,-0.
 00326871,-0.00501870,0.00278776,0.14967747,-0.24412393,0.13980661,-0.0
 4004280,0.67345822,-0.00118023,-0.00009463,0.00015080,0.00075703,0.004
 28102,-0.00038457,0.00775418,-0.00130174,0.01249420,-0.00247937,0.0031
 9170,0.00269073,0.00043345,-0.00160908,-0.00039560,-0.00055634,0.00031
 012,-0.00056840,-0.00837176,0.01210635,-0.00949887,0.00331092,0.000648
 14,0.00306877,-0.15419676,0.13636515,-0.15871331,0.19595720,-0.2597594
 8,0.29685142,0.00509142,-0.00631507,0.00227091,-0.02976210,-0.03997776
 ,0.00209579,-0.10758572,-0.03691840,0.00451661,0.00713265,0.01454570,0
 .00154264,-0.00370165,0.01013518,-0.00803383,0.00241077,-0.00221087,-0
 .00068592,0.01630420,0.01345534,0.00230083,-0.00563346,-0.00473763,-0.
 00074055,-0.02587494,0.00396784,-0.01173044,-0.15953365,-0.06368499,-0
 .00733761,0.61394446,-0.00300239,0.00168393,-0.00036969,-0.01398314,-0
 .01685328,0.00420894,-0.04648700,-0.14103164,0.01830967,-0.00493184,-0
 .03985694,0.01679417,0.00116385,0.02649437,-0.01238836,0.00623492,-0.0
 0614234,0.00411228,0.03111816,0.01931981,-0.00209756,-0.00987592,-0.00
 471863,-0.00200017,0.02169136,0.00756013,0.00407759,-0.05818584,-0.129
 95490,0.00489777,-0.07461419,0.54464736,0.00282566,-0.00103080,0.00127
 471,-0.00673414,-0.00909772,0.00348298,0.01047112,0.02348553,-0.069028
 98,0.00195831,0.01655389,-0.01695087,-0.00610352,-0.00613884,0.0117130
 4,-0.00077658,0.00376301,0.00023299,-0.00259220,-0.00572279,-0.0062499
 6,0.00057415,0.00147202,0.00097353,-0.01757201,-0.00093332,-0.00750346
 ,-0.00967963,0.00015819,-0.07457958,0.22902762,-0.21911156,0.39300389,
 -0.00917478,0.00006026,-0.00172727,0.00916698,0.00282321,0.00468544,0.
 00475287,0.02078297,-0.01712381,0.00434925,-0.00692300,0.00281847,0.00
 089133,0.00282408,-0.00081783,0.00038324,-0.00077080,0.00060479,-0.003
 50332,-0.00455976,-0.00061520,0.00104076,0.00195959,-0.00031590,-0.004
 44555,-0.00668929,0.00088342,-0.04898761,0.03059784,-0.04497615,-0.307
 32272,0.17813666,-0.20552484,0.35112985,-0.00014980,-0.00169136,-0.001
 13041,0.00158367,0.00670004,-0.00207545,0.03400360,-0.04582610,0.04590
 162,-0.00560551,0.00476699,-0.00280174,0.00212811,-0.01072739,0.004449
 62,-0.00249231,0.00242924,-0.00076261,-0.00947931,-0.00656758,0.000843
 92,0.00302197,0.00150292,0.00066163,-0.00452175,0.00484526,-0.00313680
 ,0.01245983,0.01854355,0.00565467,0.18419408,-0.25353834,0.18505159,-0
 .21701850,0.28007497,0.00018214,0.00106287,-0.00056526,0.00249630,-0.0
 0318874,0.00188671,-0.02493279,0.04103635,-0.01445615,0.00401926,-0.00
 280711,0.00756742,0.00024758,0.00653705,-0.00483251,0.00127312,-0.0021
 5278,-0.00014357,0.00321625,0.00198094,0.00069669,-0.00110886,-0.00009
 435,-0.00057364,-0.00131937,-0.00488281,0.00398678,-0.03612107,0.01454
 953,-0.00332484,-0.20781121,0.18164903,-0.24937035,0.25709475,-0.23305
 624,0.26177694,-0.05209021,-0.01728699,-0.02092724,-0.01393363,0.02548
 268,0.02424080,0.00693477,0.00214695,0.00367731,-0.00128277,0.00035991
 ,-0.00134999,-0.00010619,-0.00002032,0.00029998,0.00002245,-0.00004506
 ,-0.00000062,0.00101122,0.00017208,-0.00000097,-0.00042713,0.00017205,
 -0.00016573,0.00004400,-0.00007306,0.00010562,-0.00009649,-0.00014547,
 0.00012685,-0.00091358,0.00021592,-0.00012299,0.00020611,-0.00038550,0
 .00050474,0.05788573,-0.01090827,-0.13260738,-0.11851089,0.01089098,-0
 .01493211,-0.01362271,-0.00425800,-0.00010734,-0.00033729,0.00164739,0
 .00071960,0.00015580,-0.00022485,-0.00067618,0.00046216,-0.00018486,0.
 00022177,-0.00007333,-0.00116455,-0.00042573,-0.00025358,0.00046381,-0
 .00009361,0.00026631,0.00005354,0.00020074,-0.00012035,0.00007920,0.00
 018837,0.00012174,0.00039681,0.00022717,-0.00003168,-0.00006035,0.0000
 9625,-0.00016361,0.00439931,0.14505094,-0.01568258,-0.12092162,-0.2262
 1442,0.00508833,-0.00079452,0.00344904,-0.00161442,-0.00048219,0.00118
 466,0.00187035,0.00040947,-0.00012845,-0.00019589,-0.00019476,0.000165
 70,-0.00011177,0.00012984,-0.00003680,-0.00101909,-0.00071353,-0.00033
 143,0.00036413,0.00007090,0.00023146,0.00001692,0.00028546,-0.00005026
 ,0.00017206,0.00004951,-0.00015340,0.00129936,-0.00073470,0.00043444,-
 0.00113266,0.00079810,0.00046822,0.01475931,0.13506878,0.23648113,-0.1
 8653568,-0.13115880,0.01844209,-0.03719025,-0.01022019,-0.00029011,-0.
 00087245,0.00354067,0.00303277,-0.00179332,-0.00188083,0.00029319,0.00
 022425,0.00107527,-0.00025310,0.00021893,-0.00025804,0.00005042,0.0013
 2912,0.00045290,-0.00019946,-0.00066454,0.00014002,-0.00026399,-0.0000
 3594,-0.00016989,0.00013313,-0.00004322,-0.00023662,-0.00003181,-0.000
 67682,0.00050379,-0.00059350,0.00071793,-0.00009853,0.00021948,0.00116
 055,-0.00152331,-0.00055204,0.21951058,-0.14329641,-0.17448649,0.01664
 927,0.02518659,0.01244026,-0.00159259,0.00332382,-0.00086192,-0.000866
 31,0.00082206,0.00067194,0.00022618,-0.00009321,-0.00003851,-0.0002155
 8,0.00000760,-0.00007441,0.00000112,-0.00036119,-0.00040337,0.00031007
 ,0.00019277,0.00008147,-0.00003013,-0.00002091,0.00009080,-0.00008093,
 -0.00003288,0.00024436,-0.00025865,0.00157610,-0.00126745,0.00110141,-
 0.00221677,0.00004149,0.00009143,-0.01217395,-0.01014115,0.00325975,0.
 13898084,0.18283050,0.01752757,0.01708496,-0.05529477,0.00255457,-0.00
 005199,0.00161152,-0.00077541,0.00014076,-0.00035189,0.00007330,-0.000
 10650,0.00027726,0.00007928,-0.00001349,-0.00014787,-0.00001262,0.0000
 4955,0.00002170,-0.00007528,0.00005293,-0.00003686,0.00006780,-0.00006
 625,0.00003873,0.00000945,-0.00000850,0.00002302,0.00017470,-0.0000391
 8,0.00006990,-0.00016037,0.00044076,-0.00034617,0.00139289,0.00057041,
 0.00016429,-0.02011712,-0.01723951,0.00415628,-0.02040986,-0.01801282,
 0.04933115,-0.04742858,0.00694605,-0.01445716,-0.01732578,0.02324377,-
 0.02192457,0.00395908,0.00259292,-0.00111247,-0.00177461,0.00013044,-0
 .00019706,-0.00024499,-0.00030133,0.00001032,0.00006103,-0.00019295,-0
 .00004313,0.00034530,0.00090676,0.00029218,-0.00027528,-0.00021124,-0.
 00022412,0.00002814,-0.00026077,0.00000631,-0.00006582,-0.00039158,0.0
 0017968,-0.00183215,0.00227711,-0.00223393,-0.00012930,-0.00236632,0.0
 0225791,0.00159579,0.00029368,-0.00331627,0.00482225,-0.01193715,0.019
 64119,0.05833856,0.01306231,-0.13052538,0.12253620,0.01378866,-0.01286
 874,0.01131778,-0.00294108,-0.00167952,0.00054199,0.00120093,0.0004105
 8,-0.00008550,0.00012397,-0.00046601,0.00031854,-0.00019088,0.00031514
 ,0.00000110,-0.00065668,-0.00032777,-0.00032684,0.00039637,-0.00008667
 ,0.00031947,-0.00000996,-0.00000382,-0.00005825,-0.00006025,0.00013934
 ,-0.00007462,0.00005761,0.00070388,-0.00011187,-0.00222517,-0.00146302
 ,0.00019300,-0.00278434,0.01229853,-0.01626434,0.00081746,-0.00919636,
 0.01721152,-0.02070992,0.14277450,-0.02205002,0.12316939,-0.24176271,-
 0.00194128,-0.00307528,0.00905297,0.00073314,0.00031520,0.00103016,0.0
 0011076,0.00000645,-0.00024662,-0.00003927,-0.00007375,0.00010464,0.00
 000599,-0.00002610,0.00000296,0.00016828,0.00015851,-0.00009959,-0.000
 02682,-0.00008288,0.00008166,0.00003006,-0.00008758,0.00004742,0.00013
 842,-0.00012471,0.00034292,-0.00107696,0.00093765,-0.00090167,0.003506
 93,0.00073051,-0.00040080,-0.00099991,0.01434527,-0.01961510,0.0004020
 8,-0.00062023,0.00047000,0.02107603,-0.13552535,0.25193305,-0.00005675
 ,-0.00001184,0.00001065,-0.00009459,-0.00010752,0.00020142,0.00072875,
 0.00098299,-0.00033412,-0.00131253,0.00343485,0.00086339,0.01106141,0.
 02857880,-0.00192986,-0.15513935,-0.14178517,0.00673676,-0.00155760,0.
 00142098,-0.00117799,0.00017894,-0.00236979,0.00014665,0.00028895,-0.0
 0000069,0.00023742,0.00011291,-0.00000303,0.00008377,-0.00043023,-0.00
 051297,-0.00024392,0.00005802,0.00024203,-0.00001490,0.00000610,-0.000
 00192,-0.00000222,-0.00001796,0.00001833,-0.00000678,0.00000784,-0.000
 00909,-0.00000028,0.16342055,-0.00028533,0.00019472,-0.00004168,0.0010
 6396,0.00030461,0.00013385,-0.00168823,-0.00187131,0.00003674,0.003210
 42,-0.00059587,-0.00322388,-0.00641936,-0.03578408,0.00446727,-0.12986
 026,-0.20786782,0.00594210,0.00045191,-0.00047192,0.00048852,-0.000198
 76,0.00039552,-0.00023012,-0.00020309,-0.00007040,0.00008073,-0.000167
 86,-0.00006054,-0.00010492,0.00032754,0.00133713,0.00002112,0.00022371
 ,-0.00061297,0.00030814,0.00000904,-0.00004068,-0.00001668,0.00008752,
 -0.00000938,-0.00000204,0.00000949,-0.00004342,-0.00000654,0.13582673,
 0.24109770,-0.00001713,-0.00000598,0.00002822,-0.00008432,-0.00011139,
 -0.00017205,0.00023189,0.00005079,0.00029945,-0.00041981,0.00049072,-0
 .00017478,0.00004001,-0.00150335,0.00157452,0.00511073,0.00785507,-0.0
 5331333,-0.00039392,0.00002077,-0.00026517,-0.00044580,-0.00125332,0.0
 0035108,0.00005387,-0.00015843,0.00005204,0.00001737,-0.00000098,0.000
 02566,-0.00005557,-0.00001269,-0.00001921,0.00004905,-0.00002305,0.000
 01076,0.00000335,-0.00001601,-0.00000068,-0.00000392,0.00000755,0.0000
 1398,0.00000420,-0.00000027,-0.00000219,-0.00619402,-0.00807383,0.0471
 6270,0.00023105,-0.00015354,0.00006438,-0.00066914,-0.00028209,-0.0003
 4100,0.00050230,0.00158549,-0.00046378,0.00018902,-0.00454468,0.001137
 19,-0.01617994,0.01168857,0.01613381,-0.11053041,-0.00474175,0.1075270
 6,0.00024749,0.00037722,0.00000326,0.00007692,0.00004608,0.00023217,0.
 00017639,0.00007343,-0.00014816,0.00018654,0.00007235,0.00010167,-0.00
 026373,-0.00114537,0.00035401,-0.00016964,0.00042762,-0.00028453,0.000
 00034,0.00001581,0.00000924,-0.00003783,-0.00000347,0.00001983,-0.0000
 0615,0.00004108,-0.00000324,-0.00785718,-0.00071510,0.01678877,0.12175
 690,-0.00004291,0.00001729,0.00000426,-0.00006637,-0.00013378,-0.00029
 812,0.00058031,-0.00117862,0.00138847,0.00132515,0.00652496,-0.0042657
 3,0.02328099,-0.01388826,-0.02369440,-0.01037248,-0.05098955,0.0136905
 9,0.00039290,-0.00095634,0.00022258,-0.00050693,0.00022481,-0.00043501
 ,-0.00013999,-0.00012911,-0.00012494,-0.00009687,0.00002999,-0.0000967
 2,0.00012660,0.00102690,-0.00011875,0.00020452,-0.00039745,0.00018874,
 0.00000380,0.00000169,0.00000976,0.00000705,0.00000643,-0.00000350,-0.
 00000069,-0.00001141,0.00000354,-0.01125220,0.00219255,0.02250792,-0.0
 0270388,0.05596227,-0.00015777,0.00011105,-0.00004019,0.00025814,0.000
 26140,0.00018786,-0.00037193,-0.00193812,-0.00001966,0.00031425,0.0015
 3936,0.00130304,0.00069474,-0.00441509,0.00465998,0.11087799,0.0081227
 7,-0.24941985,0.00082114,-0.00115051,0.00046049,-0.00080588,0.00109512
 ,0.00046198,-0.00005184,-0.00018489,-0.00010986,-0.00029590,-0.0000507
 0,-0.00002182,0.00061622,0.00104223,-0.00050503,-0.00002709,-0.0003473
 0,0.00027615,-0.00001062,-0.00001267,-0.00001292,0.00001908,0.00000301
 ,-0.00000382,0.00000395,-0.00002109,0.00000551,-0.00121243,0.00056998,
 0.00084575,-0.12396720,-0.00705072,0.26171374,0.00034280,-0.00017106,-
 0.00001823,-0.00046770,0.00008638,-0.00027657,0.00029679,0.00134213,-0
 .00010158,-0.00167163,-0.00345325,-0.00007178,-0.01645735,0.01296711,-
 0.01207113,-0.15348920,-0.00476906,-0.13097940,0.00040087,0.00031013,-
 0.00020567,-0.00113449,-0.00258462,0.00029119,0.00019410,-0.00004086,0
 .00010372,0.00003074,-0.00000704,0.00006107,-0.00032348,-0.00068509,0.
 00043323,-0.00012247,0.00037917,-0.00035482,-0.00001280,0.00004251,0.0
 0001907,-0.00004223,-0.00001252,0.00000525,-0.00003257,0.00005544,0.00
 000330,-0.00946043,-0.00161829,-0.01468735,0.01232532,-0.00069396,0.01
 333563,0.16956622,-0.00016613,0.00003884,0.00005424,-0.00030648,-0.000
 25420,0.00002756,0.00030389,-0.00165272,0.00030824,0.00222565,0.003917
 52,0.00061569,0.02545809,-0.01234824,0.02097821,-0.01160841,-0.0463564
 2,-0.01152538,0.00252689,-0.00135013,0.00206708,-0.00265892,-0.0010002
 2,-0.00198891,-0.00037081,-0.00012104,-0.00009873,-0.00025129,0.000007
 35,0.00002355,0.00081154,0.00031516,-0.00038031,-0.00016967,-0.0002370
 1,0.00024728,-0.00000176,-0.00000325,-0.00000150,0.00000603,0.00000725
 ,-0.00000559,0.00003356,-0.00002581,0.00000663,-0.01449751,0.00198083,
 -0.01976574,-0.00008287,0.00170301,0.00246359,-0.00119800,0.05542292,0
 .00001266,0.00000737,-0.00000258,0.00014970,0.00007091,0.00011582,-0.0
 0007269,-0.00009688,-0.00025660,-0.00023435,-0.00073333,0.00107377,0.0
 0273692,0.00305688,0.00766661,-0.13156477,-0.00455023,-0.21984102,-0.0
 0137968,0.00103285,-0.00108709,-0.00014501,-0.00328918,0.00014215,0.00
 018510,-0.00008120,0.00034141,0.00011551,-0.00001975,0.00003489,-0.000
 20259,-0.00015868,-0.00007262,0.00011486,0.00002955,0.00007941,-0.0000
 0203,0.00000009,0.00000405,0.00000946,0.00000094,-0.00000275,-0.000007
 61,-0.00000709,-0.00000981,0.00287240,-0.00036292,0.00357412,-0.017191
 71,-0.00195266,-0.01975153,0.14455857,0.00701561,0.22802445,0.00006131
 ,-0.00006669,-0.00003419,-0.00027937,-0.00007031,-0.00005128,0.0000973
 2,0.00064489,0.00048744,0.00110001,-0.00063617,0.00043166,-0.00018440,
 -0.00039605,-0.00028835,-0.00009603,0.00011907,0.00003901,-0.00584900,
 0.00058381,-0.00373433,0.00195509,0.00064364,0.00110220,-0.29798135,-0
 .08415915,-0.06152865,-0.01238245,-0.00842372,-0.00415036,0.00306625,0
 .00069636,-0.00408090,-0.00200254,0.00053361,-0.00016666,-0.00000397,0
 .00001669,0.00000271,-0.00002100,-0.00001662,0.00001930,0.00000839,0.0
 0000942,0.00002291,0.00002826,-0.00003957,-0.00001188,0.00000821,-0.00
 002198,-0.00000324,0.00003412,-0.00002058,0.00001145,0.31242765,0.0001
 9627,-0.00013583,0.00009904,-0.00051143,0.00008829,-0.00027465,0.00097
 852,0.00053774,-0.00054949,0.00124447,-0.00437967,0.00308346,-0.001845
 91,-0.00083114,-0.00028755,-0.00025459,0.00054280,0.00010828,-0.028820
 79,-0.00671879,-0.00746463,0.00298717,0.00323183,-0.00112821,-0.083679
 67,-0.07956457,-0.01293655,0.01943625,0.01162642,0.00579908,-0.0019680
 1,-0.00169032,0.00566151,0.00226690,-0.00005440,-0.00016119,-0.0000205
 7,0.00001499,0.00003792,-0.00001883,0.00003125,-0.00001428,-0.00003446
 ,0.00001957,-0.00003170,0.00006097,-0.00004857,0.00000645,0.00002582,-
 0.00000017,-0.00003048,0.00004316,-0.00004526,0.00006012,0.08935855,0.
 07766551,-0.00005043,0.00009307,-0.00004885,0.00022430,-0.00009097,0.0
 0022412,0.00026186,-0.00087790,-0.00165439,-0.00082292,0.00143742,-0.0
 0028114,0.00043746,0.00070261,0.00083855,0.00010004,-0.00005830,-0.000
 00283,0.00989492,0.00393683,0.00476779,-0.00011353,-0.00171723,-0.0005
 5323,-0.06249630,-0.01349433,-0.05576830,-0.01601276,-0.00399020,0.003
 95039,-0.00336277,0.00690614,0.00984089,-0.00021086,-0.00107671,-0.002
 59542,0.00000669,-0.00001976,-0.00000493,0.00001500,0.00000040,0.00000
 435,0.00003369,0.00000987,-0.00000955,-0.00003548,0.00002511,0.0000031
 7,0.00001127,0.00002807,-0.00002751,-0.00003384,-0.00000885,-0.0000264
 2,0.06976543,0.01072508,0.04638291,0.00054143,-0.00022450,-0.00013236,
 -0.00067679,-0.00187250,0.00057157,-0.00474850,0.00062051,-0.00272456,
 0.00051980,0.00101564,0.00030574,0.00016419,-0.00046849,0.00031995,-0.
 00016076,0.00017369,-0.00010848,-0.00259648,-0.00252631,-0.00467924,-0
 .00020007,0.00240150,-0.00028103,0.01028309,0.02184400,-0.00871185,-0.
 06632398,-0.05890742,0.01451455,-0.00409552,-0.02861438,0.01061406,0.0
 0316160,0.00314383,0.00060268,-0.00000029,0.00002638,0.00002546,-0.000
 05239,0.00005696,-0.00000770,-0.00005113,0.00003413,-0.00006013,0.0000
 3488,-0.00001445,0.00001449,0.00001353,-0.00002308,-0.00003723,0.00002
 339,-0.00003324,0.00003381,0.00001349,0.00055616,0.00238824,0.06415051
 ,0.00016591,-0.00011484,-0.00005093,-0.00045330,-0.00035046,0.00045886
 ,-0.00121688,0.00111182,-0.00067428,0.00068998,0.00013704,-0.00067457,
 -0.00002118,-0.00032752,0.00012391,-0.00008809,0.00007500,0.00002320,0
 .00007470,0.00361385,0.00426039,0.00075837,-0.00176016,0.00003418,-0.0
 0604980,-0.00952889,0.00552447,-0.05941669,-0.29496170,0.08990054,0.00
 083258,-0.00826199,0.00540938,0.00075357,0.00211491,-0.00133752,-0.000
 02471,0.00000738,0.00000435,-0.00004652,0.00003329,0.00001275,-0.00002
 738,0.00003636,-0.00001902,-0.00001394,-0.00002609,-0.00001423,0.00001
 930,-0.00000521,-0.00000694,0.00000770,0.00000143,-0.00002242,0.001244
 79,-0.00028968,-0.00253036,0.06281157,0.30849544,0.00000367,-0.0000664
 3,0.00001649,-0.00049674,-0.00021505,0.00085002,-0.00100453,0.00053920
 ,0.00007668,0.00064583,-0.00045319,-0.00167640,0.00011595,-0.00012730,
 0.00019599,-0.00007962,0.00001787,-0.00003776,-0.00611061,0.00367496,0
 .01020123,0.00078291,0.00000537,-0.00269441,0.00276070,0.01568097,0.00
 243664,0.01504349,0.09086563,-0.07203928,-0.00247215,-0.00650280,0.004
 57144,0.00132101,-0.00028133,-0.00065083,-0.00002743,-0.00001876,-0.00
 002658,-0.00001890,0.00002611,0.00000194,0.00001084,0.00002575,-0.0000
 2328,-0.00000046,-0.00001097,0.00000593,0.00001695,-0.00000338,-0.0000
 0230,-0.00001068,-0.00003268,-0.00000629,0.00216775,-0.00270220,-0.005
 03961,-0.01264798,-0.10042176,0.06384037\\-0.00002914,0.00002075,0.000
 00555,0.00002123,-0.00000707,-0.00000189,0.00001270,-0.00002451,0.0000
 1030,-0.00003370,0.00000817,-0.00001618,-0.00000913,0.00002865,0.00000
 315,0.00002218,-0.00003105,0.00002371,0.00002918,0.00001475,-0.0000023
 9,-0.00000813,-0.00000104,0.00000247,0.00000091,-0.00001380,0.00000174
 ,0.00002202,-0.00001231,0.00000517,-0.00003343,0.00001391,-0.00000330,
 0.00000526,-0.00000011,0.00000387,0.00000210,-0.00000341,-0.00000220,0
 .00000294,-0.00000211,0.00000070,0.00000375,0.00000043,-0.00000264,-0.
 00000129,-0.00000297,-0.00000901,-0.00000266,0.00000222,-0.00000535,-0
 .00000197,0.00000123,-0.00000752,0.00000015,0.00000620,-0.00000143,-0.
 00000298,0.00000209,-0.00000476\\\@


 NATURE REVEALS EVERY SECRET ONCE.
                    - RALPH WALDO EMERSON
 Job cpu time:       0 days  1 hours 57 minutes 31.2 seconds.
 Elapsed time:       0 days  0 hours 16 minutes 43.2 seconds.
 File lengths (MBytes):  RWF=    419 Int=      0 D2E=      0 Chk=     12 Scr=      1
 Normal termination of Gaussian 16 at Wed Jan 10 05:08:13 2024.
