
Running Job 1 of 1 338-SM12.in
qchem 338-SM12.in_1781896.0 /expanse/lustre/scratch/selhajj/temp_project/qcscratch/28683888/qchem1781896/ 0
/cm/shared/apps/spack/cpu/opt/spack/linux-centos8-zen2/gcc-10.2.0/qchem-5.4-akfmr7b3t57bfs6qan3padb2wnb2i7cl/exe/qcprog.exe_s 338-SM12.in_1781896.0 /expanse/lustre/scratch/selhajj/temp_project/qcscratch/28683888/qchem1781896/
                  Welcome to Q-Chem
     A Quantum Leap Into The Future Of Chemistry


 Q-Chem 5.4, Q-Chem, Inc., Pleasanton, CA (2021)

 License issued to: University of California, San Diego (site)

 E. Epifanovsky,  A. T. B. Gilbert,  Xintian Feng,  Joonho Lee,  Yuezhi Mao,  
 N. Mardirossian,  P. Pokhilko,  A. White,  M. Wormit,  M. P. Coons,  
 A. L. Dempwolff,  Zhengting Gan,  D. Hait,  P. R. Horn,  L. D. Jacobson,  
 I. Kaliman,  J. Kussmann,  A. W. Lange,  Ka Un Lao,  D. S. Levine,  Jie Liu,  
 S. C. McKenzie,  A. F. Morrison,  K. Nanda,  F. Plasser,  D. R. Rehn,  
 M. L. Vidal,  Zhi-Qiang You,  Ying Zhu,  B. Alam,  B. Albrecht,  
 A. Aldossary,  E. Alguire,  J. H. Andersen,  D. Barton,  K. Begam,  A. Behn,  
 Y. A. Bernard,  E. J. Berquist,  H. Burton,  A. Carreras,  K. Carter-Fenk,  
 R. Chakraborty,  A. D. Chien,  K. D. Closser,  V. Cofer-Shabica,  
 S. Dasgupta,  Jia Deng,  M. de Wergifosse,  M. Diedenhofen,  Hainam Do,  
 S. Ehlert,  Po-Tung Fang,  S. Fatehi,  Qingguo Feng,  J. Gayvert,  
 Qinghui Ge,  G. Gidofalvi,  M. Goldey,  J. Gomes,  C. Gonzalez-Espinoza,  
 S. Gulania,  A. Gunina,  M. W. D. Hanson-Heine,  P. H. P. Harbach,  
 A. W. Hauser,  M. F. Herbst,  M. Hernandez Vera,  M. Hodecker,  
 Z. C. Holden,  S. Houck,  Xunkun Huang,  Kerwin Hui,  B. C. Huynh,  
 M. Ivanov,  Hyunjun Ji,  Hanjie Jiang,  B. Kaduk,  S. Kaehler,  
 K. Khistyaev,  Jaehoon Kim,  P. Klunzinger,  Z. Koczor-Benda,  
 Joong Hoon Koh,  D. Kosenkov,  L. Koulias,  T. Kowalczyk,  C. M. Krauter,  
 K. Kue,  A. Kunitsa,  T. Kus,  A. Landau,  K. V. Lawler,  D. Lefrancois,  
 S. Lehtola,  Rain Li,  Yi-Pei Li,  Jiashu Liang,  M. Liebenthal,  
 Hung-Hsuan Lin,  You-Sheng Lin,  Fenglai Liu,  Kuan-Yu Liu,  
 M. Loipersberger,  A. Luenser,  A. Manjanath,  P. Manohar,  E. Mansoor,  
 S. F. Manzer,  Shan-Ping Mao,  A. V. Marenich,  T. Markovich,  S. Mason,  
 S. A. Maurer,  P. F. McLaughlin,  M. F. S. J. Menger,  J.-M. Mewes,  
 S. A. Mewes,  P. Morgante,  J. W. Mullinax,  T. S. Nguyen-Beck,  
 K. J. Oosterbaan,  G. Paran,  Alexander C. Paul,  Suranjan K. Paul,  
 F. Pavosevic,  Zheng Pei,  S. Prager,  E. I. Proynov,  E. Ramos,  B. Rana,  
 A. E. Rask,  A. Rettig,  R. M. Richard,  F. Rob,  E. Rossomme,  T. Scheele,  
 M. Scheurer,  M. Schneider,  N. Sergueev,  S. M. Sharada,  W. Skomorowski,  
 D. W. Small,  C. J. Stein,  Yu-Chuan Su,  E. J. Sundstrom,  Zhen Tao,  
 J. Thirman,  T. Tsuchimochi,  N. M. Tubman,  S. P. Veccham,  O. Vydrov,  
 J. Wenzel,  J. Witte,  A. Yamada,  Kun Yao,  S. Yeganeh,  S. R. Yost,  
 A. Zech,  Igor Ying Zhang,  Xing Zhang,  Yu Zhang,  D. Zuev,  
 A. Aspuru-Guzik,  A. T. Bell,  N. A. Besley,  K. B. Bravaya,  B. R. Brooks,  
 D. Casanova,  Jeng-Da Chai,  S. Coriani,  C. J. Cramer,  
 A. E. DePrince, III,  R. A. DiStasio Jr.,  A. Dreuw,  B. D. Dunietz,  
 T. R. Furlani,  W. A. Goddard III,  S. Grimme,  S. Hammes-Schiffer,  
 T. Head-Gordon,  W. J. Hehre,  Chao-Ping Hsu,  T.-C. Jagau,  Yousung Jung,  
 A. Klamt,  Jing Kong,  D. S. Lambrecht,  WanZhen Liang,  N. J. Mayhall,  
 C. W. McCurdy,  J. B. Neaton,  C. Ochsenfeld,  J. A. Parkhill,  R. Peverati,  
 V. A. Rassolov,  Yihan Shao,  L. V. Slipchenko,  T. Stauch,  R. P. Steele,  
 J. E. Subotnik,  A. J. W. Thom,  A. Tkatchenko,  D. G. Truhlar,  
 T. Van Voorhis,  T. A. Wesolowski,  K. B. Whaley,  H. L. Woodcock III,  
 P. M. Zimmerman,  S. Faraji,  P. M. W. Gill,  M. Head-Gordon,  
 J. M. Herbert,  A. I. Krylov

 Contributors to earlier versions of Q-Chem not listed above: 
 R. D. Adamson,  B. Austin,  R. Baer,  J. Baker,  G. J. O. Beran,  
 K. Brandhorst,  S. T. Brown,  E. F. C. Byrd,  A. K. Chakraborty,  
 G. K. L. Chan,  Chun-Min Chang,  Yunqing Chen,  C.-L. Cheng,  
 Siu Hung Chien,  D. M. Chipman,  D. L. Crittenden,  H. Dachsel,  
 R. J. Doerksen,  A. D. Dutoi,  R. G. Edgar,  J. Fosso-Tande,  
 L. Fusti-Molnar,  D. Ghosh,  A. Ghysels,  A. Golubeva-Zadorozhnaya,  
 J. Gonthier,  M. S. Gordon,  S. R. Gwaltney,  G. Hawkins,  J. E. Herr,  
 A. Heyden,  S. Hirata,  E. G. Hohenstein,  G. Kedziora,  F. J. Keil,  
 C. Kelley,  Jihan Kim,  R. A. King,  R. Z. Khaliullin,  P. P. Korambath,  
 W. Kurlancheek,  A. Laurent,  A. M. Lee,  M. S. Lee,  S. V. Levchenko,  
 Ching Yeh Lin,  D. Liotard,  E. Livshits,  R. C. Lochan,  I. Lotan,  
 L. A. Martinez-Martinez,  P. E. Maslen,  N. Nair,  D. P. O'Neill,  
 D. Neuhauser,  E. Neuscamman,  C. M. Oana,  R. Olivares-Amaya,  R. Olson,  
 T. M. Perrine,  B. Peters,  P. A. Pieniazek,  A. Prociuk,  Y. M. Rhee,  
 J. Ritchie,  M. A. Rohrdanz,  E. Rosta,  N. J. Russ,  H. F. Schaefer III,  
 M. W. Schmidt,  N. E. Schultz,  S. Sharma,  N. Shenvi,  C. D. Sherrill,  
 A. C. Simmonett,  A. Sodt,  T. Stein,  D. Stuck,  K. S. Thanthiriwatte,  
 V. Vanovschi,  L. Vogt,  Tao Wang,  A. Warshel,  M. A. Watson,  
 C. F. Williams,  Q. Wu,  X. Xu,  Jun Yang,  W. Zhang,  Yan Zhao

 Please cite Q-Chem as follows:
 Y. Shao et al., Mol. Phys. 113, 184-215 (2015)
 DOI: 10.1080/00268976.2014.952696

 Q-Chem 5.4.0 for Intel X86 EM64T Linux

 Parts of Q-Chem use Armadillo 9.800.1 (Horizon Scraper).
 http://arma.sourceforge.net/

 Q-Chem begins on Wed Feb 14 16:31:00 2024  

 Host: 
0

     Scratch files written to /expanse/lustre/scratch/selhajj/temp_project/qcscratch/28683888/qchem1781896//
 May1621 |scratch|qcdevops|jenkins|workspace|build_RNUM    
 Processing $rem in /cm/shared/apps/spack/cpu/opt/spack/linux-centos8-zen2/gcc-10.2.0/qchem-5.4-akfmr7b3t57bfs6qan3padb2wnb2i7cl/config/preferences:
 Processing $rem in /home/selhajj/.qchemrc:
 Symmetry turned off for PCM/SM12/SMD calculation
 Method-specific promolecule density matrix will be built for SM12 calculation

 Checking the input file for inconsistencies... 	...done.

--------------------------------------------------------------
User input:
--------------------------------------------------------------
$molecule
0 1
O                 -0.0157950000     -2.6924770000      0.8126190000
C                 -0.0085060000     -1.4774200000      0.7188590000
C                  1.2758040000     -0.7211770000      0.5920860000
C                  2.4238650000     -1.4202060000      0.1957420000
C                  3.6141720000     -0.7451850000     -0.0454200000
C                  3.6758050000      0.6418150000      0.1031290000
C                  2.5535140000      1.3531310000      0.5207610000
C                  1.3672190000      0.6672200000      0.7587660000
S                  0.0116560000      1.6187190000      1.5040640000
O                  0.0193920000      3.0248580000      0.9515400000
C                 -1.3577330000      0.6838910000      0.7629710000
C                 -2.5362740000      1.3842760000      0.5286020000
C                 -3.6684580000      0.6867540000      0.1144380000
C                 -3.6242750000     -0.7009010000     -0.0342800000
C                 -2.4415820000     -1.3904390000      0.2032290000
C                 -1.2838440000     -0.7055220000      0.5960300000
H                  2.3495910000     -2.4930620000      0.0668290000
H                  4.4929820000     -1.2964520000     -0.3588450000
H                  4.5990190000      1.1708790000     -0.1039250000
H                  2.5829350000      2.4291270000      0.6470240000
H                 -2.5521210000      2.4605480000      0.6549390000
H                 -4.5857670000      1.2270720000     -0.0897890000
H                 -4.5107440000     -1.2413310000     -0.3449940000
H                 -2.3808560000     -2.4641190000      0.0740780000
$end

$rem
BASIS  =  6-311++G(d,p)
GUI  =  2
JOB_TYPE  =  SP
METHOD  =  B3LYP
SCF_CONVERGENCE  = 8
SOLVENT_METHOD = sm12
$end

$smx
solvent dimethylformamide
charges CM5
$end





--------------------------------------------------------------
 ----------------------------------------------------------------
             Standard Nuclear Orientation (Angstroms)
    I     Atom           X                Y                Z
 ----------------------------------------------------------------
    1      O      -0.0157950000    -2.6924770000     0.8126190000
    2      C      -0.0085060000    -1.4774200000     0.7188590000
    3      C       1.2758040000    -0.7211770000     0.5920860000
    4      C       2.4238650000    -1.4202060000     0.1957420000
    5      C       3.6141720000    -0.7451850000    -0.0454200000
    6      C       3.6758050000     0.6418150000     0.1031290000
    7      C       2.5535140000     1.3531310000     0.5207610000
    8      C       1.3672190000     0.6672200000     0.7587660000
    9      S       0.0116560000     1.6187190000     1.5040640000
   10      O       0.0193920000     3.0248580000     0.9515400000
   11      C      -1.3577330000     0.6838910000     0.7629710000
   12      C      -2.5362740000     1.3842760000     0.5286020000
   13      C      -3.6684580000     0.6867540000     0.1144380000
   14      C      -3.6242750000    -0.7009010000    -0.0342800000
   15      C      -2.4415820000    -1.3904390000     0.2032290000
   16      C      -1.2838440000    -0.7055220000     0.5960300000
   17      H       2.3495910000    -2.4930620000     0.0668290000
   18      H       4.4929820000    -1.2964520000    -0.3588450000
   19      H       4.5990190000     1.1708790000    -0.1039250000
   20      H       2.5829350000     2.4291270000     0.6470240000
   21      H      -2.5521210000     2.4605480000     0.6549390000
   22      H      -4.5857670000     1.2270720000    -0.0897890000
   23      H      -4.5107440000    -1.2413310000    -0.3449940000
   24      H      -2.3808560000    -2.4641190000     0.0740780000
 ----------------------------------------------------------------
 Nuclear Repulsion Energy =        1136.27352618 hartrees
 There are       59 alpha and       59 beta electrons
 Requested basis set is 6-311++G(d,p)
 There are 143 shells and 416 basis functions

 Total QAlloc Memory Limit   8000 MB
 Mega-Array Size       188 MB
 MEM_STATIC part       192 MB
 A cutoff of  1.0D-11 yielded   8107 shell pairs
 There are     71610 function pairs (     76849 Cartesian)
 Smallest overlap matrix eigenvalue = 2.33E-07

 Q-Chem warning in module stvman/mkSTV.C, line 323:

 Overlap eigenvalue is smaller than square root of threshold
 Use THRESH >= 12 to get rid of this warning

 Linear dependence detected in AO basis
 Tighter screening thresholds may be required for diffuse basis sets
 Use S2THRESH > 14 and THRESH = 14 in case of SCF convergence issues
 Number of orthogonalized atomic orbitals = 413
 Maximum deviation from orthogonality = 2.094E-10

 Scale SEOQF with 1.000000e-01/1.000000e-01/1.000000e-01

 Standard Electronic Orientation quadrupole field applied
 Nucleus-field energy     =     0.0000000352 hartrees
 ================ Generating on-the-fly Promolecule Density  ================
Attempting to make child job directory: /expanse/lustre/scratch/selhajj/temp_project/qcscratch/28683888/qchem1781896//Frg1/
Attempting to make child job directory: /expanse/lustre/scratch/selhajj/temp_project/qcscratch/28683888/qchem1781896//Frg2/
Attempting to make child job directory: /expanse/lustre/scratch/selhajj/temp_project/qcscratch/28683888/qchem1781896//Frg3/
Attempting to make child job directory: /expanse/lustre/scratch/selhajj/temp_project/qcscratch/28683888/qchem1781896//Frg4/
Creating input file /expanse/lustre/scratch/selhajj/temp_project/qcscratch/28683888/qchem1781896/Frg1.input
using default PutDataFrgm: nothing
calling putenv with: QCSCRATCH=/expanse/lustre/scratch/selhajj/temp_project/qcscratch/28683888/qchem1781896/ 
Spawning Job For Fragment 0
Done Job For Fragment 0
calling putenv with: QCSCRATCH=/expanse/lustre/scratch/selhajj/temp_project/qcscratch/28683888 
calling putenv with: QCTHREADS=8 
Creating input file /expanse/lustre/scratch/selhajj/temp_project/qcscratch/28683888/qchem1781896/Frg2.input
using default PutDataFrgm: nothing
calling putenv with: QCSCRATCH=/expanse/lustre/scratch/selhajj/temp_project/qcscratch/28683888/qchem1781896/ 
Spawning Job For Fragment 1
Done Job For Fragment 1
calling putenv with: QCSCRATCH=/expanse/lustre/scratch/selhajj/temp_project/qcscratch/28683888 
calling putenv with: QCTHREADS=8 
Creating input file /expanse/lustre/scratch/selhajj/temp_project/qcscratch/28683888/qchem1781896/Frg3.input
using default PutDataFrgm: nothing
calling putenv with: QCSCRATCH=/expanse/lustre/scratch/selhajj/temp_project/qcscratch/28683888/qchem1781896/ 
Spawning Job For Fragment 2
Done Job For Fragment 2
calling putenv with: QCSCRATCH=/expanse/lustre/scratch/selhajj/temp_project/qcscratch/28683888 
calling putenv with: QCTHREADS=8 
Creating input file /expanse/lustre/scratch/selhajj/temp_project/qcscratch/28683888/qchem1781896/Frg4.input
using default PutDataFrgm: nothing
calling putenv with: QCSCRATCH=/expanse/lustre/scratch/selhajj/temp_project/qcscratch/28683888/qchem1781896/ 
Spawning Job For Fragment 3
Done Job For Fragment 3
calling putenv with: QCSCRATCH=/expanse/lustre/scratch/selhajj/temp_project/qcscratch/28683888 
calling putenv with: QCTHREADS=8 
 Time for running child jobs:  CPU 0.01 s  wall 29.88 s
 ============= Method Specific Promolecule Density Constructed =============
 Guess from superposition of atomic densities
 Warning:  Energy on first SCF cycle will be non-variational
 SAD guess density has 118.000000 electrons

 -----------------------------------------------------------------------
  General SCF calculation program by
  Eric Jon Sundstrom, Paul Horn, Yuezhi Mao, Dmitri Zuev, Alec White,
  David Stuck, Shaama M.S., Shane Yost, Joonho Lee, David Small,
  Daniel Levine, Susi Lehtola, Hugh Burton, Evgeny Epifanovsky,
  Bang C. Huynh
 -----------------------------------------------------------------------
 Exchange:     0.2000 Hartree-Fock + 0.0800 Slater + 0.7200 B88
 Correlation:  0.1900 VWN1RPA + 0.8100 LYP
 Using SG-1 standard quadrature grid
 using 8 threads for integral computing
 -------------------------------------------------------
 OpenMP Integral computing Module                
 Release: version 1.0, May 2013, Q-Chem Inc. Pittsburgh 
 -------------------------------------------------------
 
 SM12 calculation using CM5 charges
 Citation of the SM12 model:
 Marenich, A.V.; Cramer, C.J.; Truhlar, D.G.
 J. Chem. Theory Comput. 2013, 9, 609-612.
 iSolventCode=          91
 Solvent: dimethylformamide                                               
 
Hirshfeld: reading atomic densities from disk.
warning:  vdwdata pointer should have been initialzed before dftman

 Charges (in A.U.) from CM5PAC (Nov. 11, 2011)
 -----------------------------------------------
 Center     Atomic      CM5         Hirshfeld
 Number     Number      Charge      Charge
 -----------------------------------------------
    1          8       -0.066721   -0.017517
    2          6        0.038988    0.004908
    3          6       -0.003333   -0.002441
    4          6       -0.052391   -0.000800
    5          6       -0.058397   -0.002944
    6          6       -0.058626   -0.003255
    7          6       -0.054766   -0.004055
    8          6        0.005654   -0.002531
    9         16        0.042772    0.037096
   10          8       -0.064110   -0.020367
   11          6        0.005630   -0.002555
   12          6       -0.054757   -0.004046
   13          6       -0.058637   -0.003266
   14          6       -0.058411   -0.002958
   15          6       -0.052384   -0.000793
   16          6       -0.003353   -0.002461
   17          1        0.066176    0.005381
   18          1        0.058919    0.003064
   19          1        0.058813    0.003009
   20          1        0.062745    0.002771
   21          1        0.062745    0.002771
   22          1        0.058812    0.003008
   23          1        0.058919    0.003063
   24          1        0.066176    0.005382
 -----------------------------------------------

 Dipole moment (in Debye)
 -----------------------------------------------
                 X        Y        Z     Total
 -----------------------------------------------
 CM5         -0.0004  -0.0773  -0.3197   0.3289
 Hirshfeld    0.0011   0.0760   0.0745   0.1064
 -----------------------------------------------

 A restricted SCF calculation will be
 performed using DIIS
 SCF converges when DIIS error is below 1.0e-08
 ---------------------------------------
  Cycle       Energy         DIIS error
 ---------------------------------------
Hirshfeld: reading atomic densities from disk.

 Charges (in A.U.) from CM5PAC (Nov. 11, 2011)
 -----------------------------------------------
 Center     Atomic      CM5         Hirshfeld
 Number     Number      Charge      Charge
 -----------------------------------------------
    1          8       -0.520767   -0.471563
    2          6        0.403499    0.369419
    3          6       -0.042688   -0.041796
    4          6       -0.152803   -0.101212
    5          6       -0.181105   -0.125652
    6          6       -0.148973   -0.093602
    7          6       -0.182915   -0.132204
    8          6        0.006635   -0.001550
    9         16        0.842928    0.837252
   10          8       -0.730101   -0.686359
   11          6        0.006634   -0.001551
   12          6       -0.182907   -0.132196
   13          6       -0.148984   -0.093613
   14          6       -0.181115   -0.125662
   15          6       -0.152800   -0.101209
   16          6       -0.042698   -0.041806
   17          1        0.172147    0.111352
   18          1        0.178830    0.122974
   19          1        0.180786    0.124983
   20          1        0.172410    0.112436
   21          1        0.172410    0.112435
   22          1        0.180784    0.124981
   23          1        0.178830    0.122974
   24          1        0.172147    0.111353
 -----------------------------------------------

 Dipole moment (in Debye)
 -----------------------------------------------
                 X        Y        Z     Total
 -----------------------------------------------
 CM5          0.0018  -0.0289   1.0389   1.0393
 Hirshfeld    0.0034   0.1244   1.4332   1.4386
 -----------------------------------------------

    1   -1053.0044923800      3.29e-02  
Hirshfeld: reading atomic densities from disk.

 Charges (in A.U.) from CM5PAC (Nov. 11, 2011)
 -----------------------------------------------
 Center     Atomic      CM5         Hirshfeld
 Number     Number      Charge      Charge
 -----------------------------------------------
    1          8        0.236540    0.285744
    2          6       -0.314430   -0.348510
    3          6       -0.094751   -0.093860
    4          6        0.050682    0.102273
    5          6        0.099407    0.154859
    6          6        0.074550    0.129921
    7          6        0.054760    0.105471
    8          6       -0.249644   -0.257830
    9         16       -0.719051   -0.724727
   10          8        0.548340    0.592082
   11          6       -0.249663   -0.257848
   12          6        0.054775    0.105486
   13          6        0.074547    0.129918
   14          6        0.099403    0.154856
   15          6        0.050693    0.102284
   16          6       -0.094760   -0.093868
   17          1        0.047011   -0.013783
   18          1        0.045284   -0.010572
   19          1        0.048949   -0.006855
   20          1        0.048054   -0.011920
   21          1        0.048054   -0.011920
   22          1        0.048945   -0.006859
   23          1        0.045282   -0.010574
   24          1        0.047010   -0.013784
 -----------------------------------------------

 Dipole moment (in Debye)
 -----------------------------------------------
                 X        Y        Z     Total
 -----------------------------------------------
 CM5         -0.0046   0.4197  -4.6697   4.6886
 Hirshfeld   -0.0030   0.5730  -4.2755   4.3138
 -----------------------------------------------

    2   -1048.6334804962      4.26e-03  
Hirshfeld: reading atomic densities from disk.

 Charges (in A.U.) from CM5PAC (Nov. 11, 2011)
 -----------------------------------------------
 Center     Atomic      CM5         Hirshfeld
 Number     Number      Charge      Charge
 -----------------------------------------------
    1          8       -0.382336   -0.333132
    2          6        0.193127    0.159047
    3          6        0.043412    0.044304
    4          6       -0.055295   -0.003704
    5          6       -0.076280   -0.020827
    6          6       -0.067153   -0.011781
    7          6       -0.065529   -0.014818
    8          6        0.101214    0.093029
    9         16        0.329453    0.323776
   10          8       -0.611860   -0.568118
   11          6        0.101206    0.093021
   12          6       -0.065517   -0.014806
   13          6       -0.067158   -0.011787
   14          6       -0.076286   -0.020833
   15          6       -0.055289   -0.003698
   16          6        0.043400    0.044292
   17          1        0.086268    0.025474
   18          1        0.090491    0.034636
   19          1        0.093427    0.037623
   20          1        0.085321    0.025348
   21          1        0.085322    0.025348
   22          1        0.093424    0.037621
   23          1        0.090491    0.034635
   24          1        0.086268    0.025474
 -----------------------------------------------

 Dipole moment (in Debye)
 -----------------------------------------------
                 X        Y        Z     Total
 -----------------------------------------------
 CM5         -0.0158  -2.4857  -0.5325   2.5422
 Hirshfeld   -0.0143  -2.3325  -0.1383   2.3366
 -----------------------------------------------

    3   -1047.7423167211      8.39e-03  
Hirshfeld: reading atomic densities from disk.

 Charges (in A.U.) from CM5PAC (Nov. 11, 2011)
 -----------------------------------------------
 Center     Atomic      CM5         Hirshfeld
 Number     Number      Charge      Charge
 -----------------------------------------------
    1          8       -0.293633   -0.244429
    2          6        0.187328    0.153248
    3          6       -0.045328   -0.044437
    4          6       -0.071445   -0.019853
    5          6       -0.073539   -0.018086
    6          6       -0.062375   -0.007004
    7          6       -0.087618   -0.036907
    8          6       -0.056317   -0.064502
    9         16        0.348987    0.343311
   10          8       -0.399554   -0.355811
   11          6       -0.056321   -0.064506
   12          6       -0.087606   -0.036895
   13          6       -0.062383   -0.007012
   14          6       -0.073546   -0.018093
   15          6       -0.071439   -0.019849
   16          6       -0.045338   -0.044446
   17          1        0.117294    0.056500
   18          1        0.119405    0.063549
   19          1        0.121786    0.065982
   20          1        0.116660    0.056686
   21          1        0.116661    0.056686
   22          1        0.121784    0.065981
   23          1        0.119405    0.063549
   24          1        0.117294    0.056500
 -----------------------------------------------

 Dipole moment (in Debye)
 -----------------------------------------------
                 X        Y        Z     Total
 -----------------------------------------------
 CM5         -0.0063  -0.8589  -0.7982   1.1726
 Hirshfeld   -0.0047  -0.7057  -0.4040   0.8132
 -----------------------------------------------

    4   -1048.9174804570      1.74e-03  
Hirshfeld: reading atomic densities from disk.

 Charges (in A.U.) from CM5PAC (Nov. 11, 2011)
 -----------------------------------------------
 Center     Atomic      CM5         Hirshfeld
 Number     Number      Charge      Charge
 -----------------------------------------------
    1          8       -0.297419   -0.248215
    2          6        0.160662    0.126582
    3          6       -0.022251   -0.021359
    4          6       -0.070937   -0.019346
    5          6       -0.080923   -0.025470
    6          6       -0.068716   -0.013345
    7          6       -0.084714   -0.034003
    8          6       -0.008753   -0.016939
    9         16        0.306020    0.300344
   10          8       -0.428312   -0.384570
   11          6       -0.008762   -0.016948
   12          6       -0.084703   -0.033992
   13          6       -0.068722   -0.013350
   14          6       -0.080930   -0.025477
   15          6       -0.070930   -0.019340
   16          6       -0.022261   -0.021369
   17          1        0.114575    0.053780
   18          1        0.117609    0.061753
   19          1        0.119869    0.064066
   20          1        0.113848    0.053874
   21          1        0.113849    0.053874
   22          1        0.119868    0.064064
   23          1        0.117609    0.061753
   24          1        0.114575    0.053781
 -----------------------------------------------

 Dipole moment (in Debye)
 -----------------------------------------------
                 X        Y        Z     Total
 -----------------------------------------------
 CM5         -0.0084  -1.1815  -0.8673   1.4657
 Hirshfeld   -0.0068  -1.0282  -0.4731   1.1319
 -----------------------------------------------

    5   -1048.9788811270      4.84e-04  
Hirshfeld: reading atomic densities from disk.

 Charges (in A.U.) from CM5PAC (Nov. 11, 2011)
 -----------------------------------------------
 Center     Atomic      CM5         Hirshfeld
 Number     Number      Charge      Charge
 -----------------------------------------------
    1          8       -0.306116   -0.256912
    2          6        0.176062    0.141982
    3          6       -0.025058   -0.024166
    4          6       -0.068190   -0.016599
    5          6       -0.073693   -0.018241
    6          6       -0.063596   -0.008225
    7          6       -0.083483   -0.032772
    8          6       -0.023430   -0.031615
    9         16        0.319915    0.314238
   10          8       -0.431437   -0.387695
   11          6       -0.023435   -0.031621
   12          6       -0.083471   -0.032760
   13          6       -0.063603   -0.008232
   14          6       -0.073701   -0.018248
   15          6       -0.068184   -0.016593
   16          6       -0.025068   -0.024176
   17          1        0.112700    0.051906
   18          1        0.115391    0.059535
   19          1        0.117802    0.061998
   20          1        0.112430    0.052457
   21          1        0.112431    0.052457
   22          1        0.117800    0.061997
   23          1        0.115391    0.059535
   24          1        0.112700    0.051906
 -----------------------------------------------

 Dipole moment (in Debye)
 -----------------------------------------------
                 X        Y        Z     Total
 -----------------------------------------------
 CM5         -0.0086  -1.2155  -0.8719   1.4959
 Hirshfeld   -0.0071  -1.0623  -0.4777   1.1648
 -----------------------------------------------

    6   -1048.9832668265      1.39e-04  
Hirshfeld: reading atomic densities from disk.

 Charges (in A.U.) from CM5PAC (Nov. 11, 2011)
 -----------------------------------------------
 Center     Atomic      CM5         Hirshfeld
 Number     Number      Charge      Charge
 -----------------------------------------------
    1          8       -0.302128   -0.252924
    2          6        0.173170    0.139090
    3          6       -0.024998   -0.024106
    4          6       -0.069856   -0.018265
    5          6       -0.077365   -0.021913
    6          6       -0.066150   -0.010779
    7          6       -0.083766   -0.033055
    8          6       -0.017484   -0.025669
    9         16        0.321531    0.315855
   10          8       -0.432219   -0.388477
   11          6       -0.017491   -0.025676
   12          6       -0.083754   -0.033043
   13          6       -0.066156   -0.010785
   14          6       -0.077372   -0.021919
   15          6       -0.069850   -0.018259
   16          6       -0.025008   -0.024117
   17          1        0.112953    0.052159
   18          1        0.115940    0.060084
   19          1        0.118208    0.062405
   20          1        0.112425    0.052451
   21          1        0.112425    0.052451
   22          1        0.118207    0.062403
   23          1        0.115940    0.060085
   24          1        0.112953    0.052159
 -----------------------------------------------

 Dipole moment (in Debye)
 -----------------------------------------------
                 X        Y        Z     Total
 -----------------------------------------------
 CM5         -0.0084  -1.1874  -0.8224   1.4444
 Hirshfeld   -0.0068  -1.0342  -0.4282   1.1193
 -----------------------------------------------

    7   -1048.9834035563      5.03e-05  
Hirshfeld: reading atomic densities from disk.

 Charges (in A.U.) from CM5PAC (Nov. 11, 2011)
 -----------------------------------------------
 Center     Atomic      CM5         Hirshfeld
 Number     Number      Charge      Charge
 -----------------------------------------------
    1          8       -0.304001   -0.254797
    2          6        0.173482    0.139402
    3          6       -0.024749   -0.023857
    4          6       -0.069306   -0.017715
    5          6       -0.076726   -0.021273
    6          6       -0.065633   -0.010262
    7          6       -0.083954   -0.033242
    8          6       -0.018273   -0.026458
    9         16        0.320670    0.314993
   10          8       -0.432168   -0.388426
   11          6       -0.018280   -0.026465
   12          6       -0.083942   -0.033230
   13          6       -0.065639   -0.010268
   14          6       -0.076733   -0.021280
   15          6       -0.069300   -0.017710
   16          6       -0.024759   -0.023867
   17          1        0.113022    0.052228
   18          1        0.115929    0.060073
   19          1        0.118240    0.062436
   20          1        0.112543    0.052569
   21          1        0.112543    0.052569
   22          1        0.118238    0.062434
   23          1        0.115929    0.060073
   24          1        0.113022    0.052228
 -----------------------------------------------

 Dipole moment (in Debye)
 -----------------------------------------------
                 X        Y        Z     Total
 -----------------------------------------------
 CM5         -0.0084  -1.1875  -0.8378   1.4534
 Hirshfeld   -0.0068  -1.0343  -0.4436   1.1254
 -----------------------------------------------

    8   -1048.9836113824      1.67e-05  
Hirshfeld: reading atomic densities from disk.

 Charges (in A.U.) from CM5PAC (Nov. 11, 2011)
 -----------------------------------------------
 Center     Atomic      CM5         Hirshfeld
 Number     Number      Charge      Charge
 -----------------------------------------------
    1          8       -0.303380   -0.254176
    2          6        0.173353    0.139273
    3          6       -0.024754   -0.023862
    4          6       -0.069468   -0.017877
    5          6       -0.076624   -0.021171
    6          6       -0.065638   -0.010267
    7          6       -0.083879   -0.033168
    8          6       -0.018441   -0.026627
    9         16        0.320910    0.315233
   10          8       -0.432670   -0.388928
   11          6       -0.018448   -0.026633
   12          6       -0.083867   -0.033156
   13          6       -0.065645   -0.010273
   14          6       -0.076631   -0.021178
   15          6       -0.069462   -0.017872
   16          6       -0.024764   -0.023872
   17          1        0.113035    0.052241
   18          1        0.115938    0.060082
   19          1        0.118245    0.062441
   20          1        0.112565    0.052591
   21          1        0.112566    0.052591
   22          1        0.118243    0.062440
   23          1        0.115938    0.060082
   24          1        0.113035    0.052241
 -----------------------------------------------

 Dipole moment (in Debye)
 -----------------------------------------------
                 X        Y        Z     Total
 -----------------------------------------------
 CM5         -0.0085  -1.1986  -0.8375   1.4622
 Hirshfeld   -0.0069  -1.0453  -0.4433   1.1355
 -----------------------------------------------

    9   -1048.9835648323      3.53e-06  
Hirshfeld: reading atomic densities from disk.

 Charges (in A.U.) from CM5PAC (Nov. 11, 2011)
 -----------------------------------------------
 Center     Atomic      CM5         Hirshfeld
 Number     Number      Charge      Charge
 -----------------------------------------------
    1          8       -0.303673   -0.254469
    2          6        0.173527    0.139447
    3          6       -0.024714   -0.023822
    4          6       -0.069458   -0.017867
    5          6       -0.076701   -0.021249
    6          6       -0.065677   -0.010306
    7          6       -0.083889   -0.033178
    8          6       -0.018297   -0.026482
    9         16        0.320825    0.315148
   10          8       -0.432532   -0.388790
   11          6       -0.018304   -0.026489
   12          6       -0.083877   -0.033166
   13          6       -0.065684   -0.010313
   14          6       -0.076708   -0.021255
   15          6       -0.069452   -0.017861
   16          6       -0.024724   -0.023832
   17          1        0.113026    0.052231
   18          1        0.115934    0.060078
   19          1        0.118239    0.062435
   20          1        0.112548    0.052574
   21          1        0.112549    0.052574
   22          1        0.118237    0.062434
   23          1        0.115934    0.060078
   24          1        0.113026    0.052232
 -----------------------------------------------

 Dipole moment (in Debye)
 -----------------------------------------------
                 X        Y        Z     Total
 -----------------------------------------------
 CM5         -0.0084  -1.1942  -0.8369   1.4583
 Hirshfeld   -0.0069  -1.0410  -0.4427   1.1312
 -----------------------------------------------

   10   -1048.9835603198      2.68e-06  
Hirshfeld: reading atomic densities from disk.

 Charges (in A.U.) from CM5PAC (Nov. 11, 2011)
 -----------------------------------------------
 Center     Atomic      CM5         Hirshfeld
 Number     Number      Charge      Charge
 -----------------------------------------------
    1          8       -0.303658   -0.254454
    2          6        0.173467    0.139387
    3          6       -0.024743   -0.023851
    4          6       -0.069417   -0.017826
    5          6       -0.076695   -0.021243
    6          6       -0.065661   -0.010290
    7          6       -0.083904   -0.033193
    8          6       -0.018296   -0.026481
    9         16        0.320853    0.315176
   10          8       -0.432543   -0.388800
   11          6       -0.018303   -0.026488
   12          6       -0.083892   -0.033181
   13          6       -0.065667   -0.010296
   14          6       -0.076702   -0.021249
   15          6       -0.069412   -0.017821
   16          6       -0.024753   -0.023861
   17          1        0.113024    0.052229
   18          1        0.115932    0.060076
   19          1        0.118238    0.062434
   20          1        0.112548    0.052575
   21          1        0.112549    0.052575
   22          1        0.118236    0.062433
   23          1        0.115932    0.060076
   24          1        0.113024    0.052230
 -----------------------------------------------

 Dipole moment (in Debye)
 -----------------------------------------------
                 X        Y        Z     Total
 -----------------------------------------------
 CM5         -0.0084  -1.1943  -0.8370   1.4584
 Hirshfeld   -0.0069  -1.0411  -0.4428   1.1314
 -----------------------------------------------

   11   -1048.9835644947      3.74e-07  
Hirshfeld: reading atomic densities from disk.

 Charges (in A.U.) from CM5PAC (Nov. 11, 2011)
 -----------------------------------------------
 Center     Atomic      CM5         Hirshfeld
 Number     Number      Charge      Charge
 -----------------------------------------------
    1          8       -0.303663   -0.254459
    2          6        0.173481    0.139401
    3          6       -0.024727   -0.023835
    4          6       -0.069431   -0.017840
    5          6       -0.076697   -0.021244
    6          6       -0.065667   -0.010295
    7          6       -0.083899   -0.033188
    8          6       -0.018302   -0.026488
    9         16        0.320835    0.315159
   10          8       -0.432529   -0.388787
   11          6       -0.018309   -0.026494
   12          6       -0.083887   -0.033176
   13          6       -0.065673   -0.010302
   14          6       -0.076704   -0.021251
   15          6       -0.069425   -0.017834
   16          6       -0.024737   -0.023845
   17          1        0.113024    0.052230
   18          1        0.115933    0.060077
   19          1        0.118238    0.062434
   20          1        0.112548    0.052575
   21          1        0.112549    0.052575
   22          1        0.118237    0.062433
   23          1        0.115933    0.060077
   24          1        0.113024    0.052230
 -----------------------------------------------

 Dipole moment (in Debye)
 -----------------------------------------------
                 X        Y        Z     Total
 -----------------------------------------------
 CM5         -0.0084  -1.1942  -0.8370   1.4584
 Hirshfeld   -0.0069  -1.0410  -0.4428   1.1313
 -----------------------------------------------

   12   -1048.9835635672      1.90e-07  
Hirshfeld: reading atomic densities from disk.

 Charges (in A.U.) from CM5PAC (Nov. 11, 2011)
 -----------------------------------------------
 Center     Atomic      CM5         Hirshfeld
 Number     Number      Charge      Charge
 -----------------------------------------------
    1          8       -0.303663   -0.254459
    2          6        0.173483    0.139403
    3          6       -0.024733   -0.023841
    4          6       -0.069430   -0.017839
    5          6       -0.076696   -0.021244
    6          6       -0.065665   -0.010294
    7          6       -0.083898   -0.033187
    8          6       -0.018300   -0.026485
    9         16        0.320833    0.315156
   10          8       -0.432527   -0.388785
   11          6       -0.018307   -0.026492
   12          6       -0.083886   -0.033175
   13          6       -0.065672   -0.010301
   14          6       -0.076703   -0.021250
   15          6       -0.069424   -0.017833
   16          6       -0.024743   -0.023851
   17          1        0.113024    0.052230
   18          1        0.115933    0.060077
   19          1        0.118238    0.062434
   20          1        0.112548    0.052575
   21          1        0.112549    0.052575
   22          1        0.118236    0.062433
   23          1        0.115933    0.060077
   24          1        0.113024    0.052230
 -----------------------------------------------

 Dipole moment (in Debye)
 -----------------------------------------------
                 X        Y        Z     Total
 -----------------------------------------------
 CM5         -0.0084  -1.1942  -0.8370   1.4583
 Hirshfeld   -0.0069  -1.0409  -0.4428   1.1312
 -----------------------------------------------

   13   -1048.9835639046      3.90e-08  
Hirshfeld: reading atomic densities from disk.

 Charges (in A.U.) from CM5PAC (Nov. 11, 2011)
 -----------------------------------------------
 Center     Atomic      CM5         Hirshfeld
 Number     Number      Charge      Charge
 -----------------------------------------------
    1          8       -0.303663   -0.254459
    2          6        0.173482    0.139402
    3          6       -0.024731   -0.023839
    4          6       -0.069429   -0.017838
    5          6       -0.076697   -0.021244
    6          6       -0.065666   -0.010295
    7          6       -0.083899   -0.033188
    8          6       -0.018301   -0.026486
    9         16        0.320834    0.315157
   10          8       -0.432527   -0.388785
   11          6       -0.018308   -0.026493
   12          6       -0.083887   -0.033176
   13          6       -0.065673   -0.010302
   14          6       -0.076704   -0.021251
   15          6       -0.069423   -0.017832
   16          6       -0.024741   -0.023849
   17          1        0.113024    0.052230
   18          1        0.115933    0.060077
   19          1        0.118238    0.062434
   20          1        0.112548    0.052575
   21          1        0.112549    0.052575
   22          1        0.118237    0.062433
   23          1        0.115933    0.060077
   24          1        0.113024    0.052230
 -----------------------------------------------

 Dipole moment (in Debye)
 -----------------------------------------------
                 X        Y        Z     Total
 -----------------------------------------------
 CM5         -0.0084  -1.1942  -0.8370   1.4583
 Hirshfeld   -0.0069  -1.0410  -0.4428   1.1313
 -----------------------------------------------

   14   -1048.9835638461      1.51e-08  
   15   -1048.9835638857      6.08e-09  Convergence criterion met
 ---------------------------------------
 SCF time:   CPU 3288.97s  wall 442.00s 
(1)  E-EN(liq) elect-nuc energy of solute              -1048.983563886 a.u.
(2)  G-P(liq) polarization free energy of solvation            -5.5803 kcal/mol
(3)  G-ENP(liq) elect-nuc-pol free energy of system    -1048.992456704 a.u.
(4)  G-CDS(liq) cavity-dispersion-solvent structure 
     free energy                                               -8.6901 kcal/mol
(5)  G-P-CDS(liq) = G-P(liq) + G-CDS(liq) = (2) + (4)         -14.2704 kcal/mol
(6)  G-S(liq) free energy of system = (1) + (5)        -1049.006305186 a.u.
 SCF   energy in the final basis set =    -1049.0063051864
 Total energy in the final basis set =    -1049.0063051864
 
 --------------------------------------------------------------
 
                    Orbital Energies (a.u.)
 --------------------------------------------------------------
 
 Alpha MOs
 -- Occupied --
-88.9762 -19.1303 -19.1082 -10.2863 -10.2308 -10.2308 -10.2151 -10.2151
-10.2028 -10.2028 -10.2018 -10.2018 -10.2013 -10.2013 -10.1966 -10.1966
 -8.0528  -6.0154  -6.0142  -6.0087  -1.0665  -1.0395  -0.9001  -0.8876
 -0.8181  -0.7907  -0.7812  -0.7745  -0.7180  -0.6759  -0.6431  -0.6241
 -0.6104  -0.5725  -0.5600  -0.5138  -0.4925  -0.4923  -0.4858  -0.4629
 -0.4576  -0.4574  -0.4504  -0.4481  -0.4387  -0.4178  -0.3971  -0.3966
 -0.3807  -0.3767  -0.3753  -0.3734  -0.3097  -0.2959  -0.2853  -0.2827
 -0.2820  -0.2743  -0.2518
 -- Virtual --
 -0.1001  -0.0523  -0.0493  -0.0322   0.0017   0.0067   0.0115   0.0169
  0.0197   0.0253   0.0256   0.0301   0.0387   0.0421   0.0464   0.0575
  0.0597   0.0616   0.0702   0.0725   0.0756   0.0803   0.0914   0.0934
  0.1020   0.1050   0.1123   0.1123   0.1162   0.1168   0.1176   0.1191
  0.1239   0.1273   0.1293   0.1312   0.1362   0.1381   0.1415   0.1457
  0.1493   0.1526   0.1571   0.1596   0.1701   0.1707   0.1765   0.1783
  0.1825   0.1856   0.1898   0.1991   0.2007   0.2050   0.2065   0.2092
  0.2177   0.2183   0.2281   0.2300   0.2351   0.2359   0.2404   0.2476
  0.2498   0.2574   0.2623   0.2678   0.2708   0.2734   0.2749   0.2776
  0.2830   0.2837   0.2846   0.2927   0.2959   0.2988   0.3004   0.3103
  0.3157   0.3194   0.3253   0.3312   0.3342   0.3404   0.3412   0.3465
  0.3495   0.3595   0.3641   0.3704   0.3763   0.3922   0.4004   0.4011
  0.4285   0.4303   0.4362   0.4382   0.4768   0.5007   0.5084   0.5197
  0.5305   0.5354   0.5402   0.5460   0.5502   0.5523   0.5525   0.5598
  0.5737   0.5845   0.5933   0.5965   0.6040   0.6126   0.6190   0.6219
  0.6320   0.6330   0.6485   0.6517   0.6640   0.6682   0.6810   0.6828
  0.6922   0.6945   0.7060   0.7239   0.7243   0.7282   0.7380   0.7509
  0.7690   0.7717   0.7994   0.8118   0.8163   0.8292   0.8314   0.8411
  0.8452   0.8559   0.8579   0.8595   0.8658   0.8671   0.8776   0.8873
  0.9009   0.9042   0.9104   0.9113   0.9308   0.9357   0.9422   0.9489
  0.9523   0.9804   0.9988   1.0136   1.0222   1.0230   1.0299   1.0396
  1.0453   1.0746   1.0762   1.0892   1.1069   1.1115   1.1263   1.1524
  1.1628   1.1660   1.1813   1.2038   1.2305   1.2317   1.2661   1.2748
  1.2770   1.2873   1.2940   1.3667   1.3674   1.3793   1.4549   1.4778
  1.4857   1.4907   1.4988   1.5093   1.5181   1.5199   1.5557   1.5575
  1.5605   1.5684   1.5738   1.5898   1.6007   1.6048   1.6471   1.6480
  1.6518   1.6785   1.7178   1.7224   1.7375   1.7388   1.7430   1.7533
  1.7676   1.7890   1.7924   1.8379   1.8400   1.8721   1.8790   1.8880
  1.9027   1.9030   1.9119   1.9257   1.9289   1.9403   1.9423   1.9489
  1.9627   1.9664   1.9957   1.9972   2.0034   2.0263   2.0439   2.0589
  2.0684   2.0751   2.0948   2.1111   2.1395   2.2181   2.2609   2.2648
  2.2684   2.3220   2.3363   2.3464   2.3717   2.3729   2.4449   2.4594
  2.4630   2.4827   2.5584   2.5588   2.5888   2.5992   2.6334   2.6539
  2.6912   2.6988   2.7051   2.7118   2.7275   2.7297   2.7359   2.7413
  2.7463   2.7694   2.7763   2.7799   2.7860   2.8050   2.8112   2.8184
  2.8368   2.8464   2.8523   2.8711   2.8728   2.8904   2.8932   2.8950
  2.9008   2.9483   2.9566   2.9731   2.9774   3.0179   3.0749   3.0773
  3.1043   3.1730   3.1879   3.2171   3.2295   3.2365   3.3288   3.3292
  3.3433   3.3844   3.3858   3.5041   3.5152   3.5158   3.5406   3.5474
  3.5643   3.5732   3.6577   3.7674   3.8385   3.8499   4.0223   4.0231
  4.0668   4.0718   4.1431   4.1530   4.2216   4.4601   4.8181   4.8287
  5.0465   5.0652   5.1385   5.1913   5.2319   5.7478   8.0570  17.4082
 17.4731  17.5249  23.4988  23.5838  23.8532  23.9124  23.9178  23.9388
 23.9443  24.0308  24.0409  24.0746  24.0758  24.1648  24.1651  49.9069
 50.0224 189.2066
 --------------------------------------------------------------
 
          Ground-State Mulliken Net Atomic Charges

     Atom                 Charge (a.u.)
  ----------------------------------------
      1 O                    -0.259722
      2 C                    -1.016196
      3 C                     0.745113
      4 C                     0.266600
      5 C                     0.028614
      6 C                     0.497154
      7 C                    -0.044144
      8 C                    -1.662328
      9 S                    -0.051905
     10 O                    -0.505939
     11 C                    -1.662329
     12 C                    -0.044020
     13 C                     0.497185
     14 C                     0.028628
     15 C                     0.266809
     16 C                     0.744492
     17 H                     0.214767
     18 H                     0.319853
     19 H                     0.329765
     20 H                     0.221621
     21 H                     0.221607
     22 H                     0.329760
     23 H                     0.319844
     24 H                     0.214771
  ----------------------------------------
  Sum of atomic charges =     0.000000

 -----------------------------------------------------------------
                    Cartesian Multipole Moments
 -----------------------------------------------------------------
    Charge (ESU x 10^10)
                 0.0000
    Dipole Moment (Debye)
         X      -0.0086      Y      -1.0714      Z      -1.3311
       Tot       1.7088
    Quadrupole Moments (Debye-Ang)
        XX     -67.3990     XY      -0.2915     YY    -115.6716
        XZ      -0.0416     YZ       1.9846     ZZ    -102.8802
    Octopole Moments (Debye-Ang^2)
       XXX      -0.3393    XXY      -6.9169    XYY      -0.3639
       YYY     -64.4166    XXZ     -70.6219    XYZ      -0.0557
       YYZ     -78.0663    XZZ      -0.0651    YZZ     -12.6371
       ZZZ    -171.2222
    Hexadecapole Moments (Debye-Ang^3)
      XXXX   -2575.6154   XXXY       3.6422   XXYY    -656.6602
      XYYY       1.6819   YYYY   -1670.6750   XXXZ       0.7527
      XXYZ     -16.9552   XYYZ       0.0056   YYYZ    -121.1096
      XXZZ    -654.4224   XYZZ       1.8291   YYZZ    -335.6928
      XZZZ       1.7081   YZZZ    -117.1261   ZZZZ    -451.4828
 -----------------------------------------------------------------
 Total job time:  483.12s(wall), 3296.31s(cpu) 
 Wed Feb 14 16:39:03 2024

        *************************************************************
        *                                                           *
        *  Thank you very much for using Q-Chem.  Have a nice day.  *
        *                                                           *
        *************************************************************


