
Running Job 1 of 1 230-an-COSMO.in
qchem 230-an-COSMO.in_779459.0 /expanse/lustre/scratch/selhajj/temp_project/qcscratch/28872210/qchem779459/ 0
/cm/shared/apps/spack/cpu/opt/spack/linux-centos8-zen2/gcc-10.2.0/qchem-5.4-akfmr7b3t57bfs6qan3padb2wnb2i7cl/exe/qcprog.exe_s 230-an-COSMO.in_779459.0 /expanse/lustre/scratch/selhajj/temp_project/qcscratch/28872210/qchem779459/
                  Welcome to Q-Chem
     A Quantum Leap Into The Future Of Chemistry


 Q-Chem 5.4, Q-Chem, Inc., Pleasanton, CA (2021)

 License issued to: University of California, San Diego (site)

 E. Epifanovsky,  A. T. B. Gilbert,  Xintian Feng,  Joonho Lee,  Yuezhi Mao,  
 N. Mardirossian,  P. Pokhilko,  A. White,  M. Wormit,  M. P. Coons,  
 A. L. Dempwolff,  Zhengting Gan,  D. Hait,  P. R. Horn,  L. D. Jacobson,  
 I. Kaliman,  J. Kussmann,  A. W. Lange,  Ka Un Lao,  D. S. Levine,  Jie Liu,  
 S. C. McKenzie,  A. F. Morrison,  K. Nanda,  F. Plasser,  D. R. Rehn,  
 M. L. Vidal,  Zhi-Qiang You,  Ying Zhu,  B. Alam,  B. Albrecht,  
 A. Aldossary,  E. Alguire,  J. H. Andersen,  D. Barton,  K. Begam,  A. Behn,  
 Y. A. Bernard,  E. J. Berquist,  H. Burton,  A. Carreras,  K. Carter-Fenk,  
 R. Chakraborty,  A. D. Chien,  K. D. Closser,  V. Cofer-Shabica,  
 S. Dasgupta,  Jia Deng,  M. de Wergifosse,  M. Diedenhofen,  Hainam Do,  
 S. Ehlert,  Po-Tung Fang,  S. Fatehi,  Qingguo Feng,  J. Gayvert,  
 Qinghui Ge,  G. Gidofalvi,  M. Goldey,  J. Gomes,  C. Gonzalez-Espinoza,  
 S. Gulania,  A. Gunina,  M. W. D. Hanson-Heine,  P. H. P. Harbach,  
 A. W. Hauser,  M. F. Herbst,  M. Hernandez Vera,  M. Hodecker,  
 Z. C. Holden,  S. Houck,  Xunkun Huang,  Kerwin Hui,  B. C. Huynh,  
 M. Ivanov,  Hyunjun Ji,  Hanjie Jiang,  B. Kaduk,  S. Kaehler,  
 K. Khistyaev,  Jaehoon Kim,  P. Klunzinger,  Z. Koczor-Benda,  
 Joong Hoon Koh,  D. Kosenkov,  L. Koulias,  T. Kowalczyk,  C. M. Krauter,  
 K. Kue,  A. Kunitsa,  T. Kus,  A. Landau,  K. V. Lawler,  D. Lefrancois,  
 S. Lehtola,  Rain Li,  Yi-Pei Li,  Jiashu Liang,  M. Liebenthal,  
 Hung-Hsuan Lin,  You-Sheng Lin,  Fenglai Liu,  Kuan-Yu Liu,  
 M. Loipersberger,  A. Luenser,  A. Manjanath,  P. Manohar,  E. Mansoor,  
 S. F. Manzer,  Shan-Ping Mao,  A. V. Marenich,  T. Markovich,  S. Mason,  
 S. A. Maurer,  P. F. McLaughlin,  M. F. S. J. Menger,  J.-M. Mewes,  
 S. A. Mewes,  P. Morgante,  J. W. Mullinax,  T. S. Nguyen-Beck,  
 K. J. Oosterbaan,  G. Paran,  Alexander C. Paul,  Suranjan K. Paul,  
 F. Pavosevic,  Zheng Pei,  S. Prager,  E. I. Proynov,  E. Ramos,  B. Rana,  
 A. E. Rask,  A. Rettig,  R. M. Richard,  F. Rob,  E. Rossomme,  T. Scheele,  
 M. Scheurer,  M. Schneider,  N. Sergueev,  S. M. Sharada,  W. Skomorowski,  
 D. W. Small,  C. J. Stein,  Yu-Chuan Su,  E. J. Sundstrom,  Zhen Tao,  
 J. Thirman,  T. Tsuchimochi,  N. M. Tubman,  S. P. Veccham,  O. Vydrov,  
 J. Wenzel,  J. Witte,  A. Yamada,  Kun Yao,  S. Yeganeh,  S. R. Yost,  
 A. Zech,  Igor Ying Zhang,  Xing Zhang,  Yu Zhang,  D. Zuev,  
 A. Aspuru-Guzik,  A. T. Bell,  N. A. Besley,  K. B. Bravaya,  B. R. Brooks,  
 D. Casanova,  Jeng-Da Chai,  S. Coriani,  C. J. Cramer,  
 A. E. DePrince, III,  R. A. DiStasio Jr.,  A. Dreuw,  B. D. Dunietz,  
 T. R. Furlani,  W. A. Goddard III,  S. Grimme,  S. Hammes-Schiffer,  
 T. Head-Gordon,  W. J. Hehre,  Chao-Ping Hsu,  T.-C. Jagau,  Yousung Jung,  
 A. Klamt,  Jing Kong,  D. S. Lambrecht,  WanZhen Liang,  N. J. Mayhall,  
 C. W. McCurdy,  J. B. Neaton,  C. Ochsenfeld,  J. A. Parkhill,  R. Peverati,  
 V. A. Rassolov,  Yihan Shao,  L. V. Slipchenko,  T. Stauch,  R. P. Steele,  
 J. E. Subotnik,  A. J. W. Thom,  A. Tkatchenko,  D. G. Truhlar,  
 T. Van Voorhis,  T. A. Wesolowski,  K. B. Whaley,  H. L. Woodcock III,  
 P. M. Zimmerman,  S. Faraji,  P. M. W. Gill,  M. Head-Gordon,  
 J. M. Herbert,  A. I. Krylov

 Contributors to earlier versions of Q-Chem not listed above: 
 R. D. Adamson,  B. Austin,  R. Baer,  J. Baker,  G. J. O. Beran,  
 K. Brandhorst,  S. T. Brown,  E. F. C. Byrd,  A. K. Chakraborty,  
 G. K. L. Chan,  Chun-Min Chang,  Yunqing Chen,  C.-L. Cheng,  
 Siu Hung Chien,  D. M. Chipman,  D. L. Crittenden,  H. Dachsel,  
 R. J. Doerksen,  A. D. Dutoi,  R. G. Edgar,  J. Fosso-Tande,  
 L. Fusti-Molnar,  D. Ghosh,  A. Ghysels,  A. Golubeva-Zadorozhnaya,  
 J. Gonthier,  M. S. Gordon,  S. R. Gwaltney,  G. Hawkins,  J. E. Herr,  
 A. Heyden,  S. Hirata,  E. G. Hohenstein,  G. Kedziora,  F. J. Keil,  
 C. Kelley,  Jihan Kim,  R. A. King,  R. Z. Khaliullin,  P. P. Korambath,  
 W. Kurlancheek,  A. Laurent,  A. M. Lee,  M. S. Lee,  S. V. Levchenko,  
 Ching Yeh Lin,  D. Liotard,  E. Livshits,  R. C. Lochan,  I. Lotan,  
 L. A. Martinez-Martinez,  P. E. Maslen,  N. Nair,  D. P. O'Neill,  
 D. Neuhauser,  E. Neuscamman,  C. M. Oana,  R. Olivares-Amaya,  R. Olson,  
 T. M. Perrine,  B. Peters,  P. A. Pieniazek,  A. Prociuk,  Y. M. Rhee,  
 J. Ritchie,  M. A. Rohrdanz,  E. Rosta,  N. J. Russ,  H. F. Schaefer III,  
 M. W. Schmidt,  N. E. Schultz,  S. Sharma,  N. Shenvi,  C. D. Sherrill,  
 A. C. Simmonett,  A. Sodt,  T. Stein,  D. Stuck,  K. S. Thanthiriwatte,  
 V. Vanovschi,  L. Vogt,  Tao Wang,  A. Warshel,  M. A. Watson,  
 C. F. Williams,  Q. Wu,  X. Xu,  Jun Yang,  W. Zhang,  Yan Zhao

 Please cite Q-Chem as follows:
 Y. Shao et al., Mol. Phys. 113, 184-215 (2015)
 DOI: 10.1080/00268976.2014.952696

 Q-Chem 5.4.0 for Intel X86 EM64T Linux

 Parts of Q-Chem use Armadillo 9.800.1 (Horizon Scraper).
 http://arma.sourceforge.net/

 Q-Chem begins on Thu Feb 22 07:56:11 2024  

 Host: 
0

     Scratch files written to /expanse/lustre/scratch/selhajj/temp_project/qcscratch/28872210/qchem779459//
 May1621 |scratch|qcdevops|jenkins|workspace|build_RNUM    
 Processing $rem in /cm/shared/apps/spack/cpu/opt/spack/linux-centos8-zen2/gcc-10.2.0/qchem-5.4-akfmr7b3t57bfs6qan3padb2wnb2i7cl/config/preferences:
 Processing $rem in /home/selhajj/.qchemrc:

 Checking the input file for inconsistencies... 
 Q-Chem warning in module libgen/CheckREMs.C, line 172:

 Found a $solvent section, which is only used for PCM and Kirkwood-Onsager solvation models

	...done.

--------------------------------------------------------------
User input:
--------------------------------------------------------------
$molecule
-2 1
C                  5.7661030000     -5.2179980000      1.1162420000
C                  6.5328580000     -5.2666440000     -0.0358560000
C                  6.2869560000     -4.3363450000     -1.0777040000
C                  4.7376840000     -4.2683890000      1.2921590000
C                  4.4887470000     -3.3219390000      0.2350180000
C                  5.2881720000     -3.3928610000     -0.9334540000
C                  3.9769360000     -4.2711790000      2.5454700000
C                  2.9718240000     -3.2587340000      2.5842160000
C                  2.6770530000     -2.3504400000      1.5498280000
C                  3.4429530000     -2.3328630000      0.3344390000
O                  4.2247900000     -5.0941340000      3.4869110000
O                  3.1891050000     -1.4651700000     -0.5921970000
H                  5.9282130000     -5.9127910000      1.9344260000
H                  7.3180440000     -6.0127370000     -0.1420280000
H                  5.0773280000     -2.6680570000     -1.7134660000
Cl                 2.0749860000     -3.1242600000      4.1338180000
H                  6.8844080000     -4.3656600000     -1.9873910000
N                  1.6841950000     -1.3382410000      1.6292580000
C                  0.2767390000     -1.7597800000      1.6559200000
C                 -0.6547900000     -0.5478390000      1.7308130000
C                 -2.1403080000     -0.9231850000      1.7566940000
H                  1.8451280000     -0.8012780000      0.7714450000
H                  0.1155820000     -2.3987200000      2.5258850000
H                  0.0180020000     -2.3584200000      0.7622100000
H                 -0.4591950000      0.1080530000      0.8720990000
H                 -0.3981110000      0.0317740000      2.6246690000
H                 -2.4261020000     -1.4880110000      0.8623230000
H                 -2.7876380000     -0.0382920000      1.8029630000
H                 -2.3770010000     -1.5468370000      2.6263400000
$end
$rem
MAX_SCF_CYCLES=200
BASIS  =  6-311++G(d,p)
GUI  =  2
JOB_TYPE  =  SP
METHOD  =  B3LYP
SOLVENT_METHOD = COSMO
$end
$solvent
dielectric 37.219
opticaldielectric 1.43
$end





--------------------------------------------------------------
 ----------------------------------------------------------------
             Standard Nuclear Orientation (Angstroms)
    I     Atom           X                Y                Z
 ----------------------------------------------------------------
    1      C       3.4854895926    -0.7312548032    -0.3875361080
    2      C       4.4518078310     0.2591782410    -0.4412102358
    3      C       4.0785721102     1.6107189488    -0.2281278807
    4      C       2.1293882803    -0.4415365192    -0.1279167136
    5      C       1.7500196040     0.9309243851     0.0905204626
    6      C       2.7585207417     1.9253060573     0.0307909003
    7      C       1.1662392898    -1.5456171445    -0.0742160499
    8      C      -0.1642063569    -1.1058110280     0.1964890001
    9      C      -0.5708819566     0.2307678293     0.3697471376
   10      C       0.3803137399     1.3071689574     0.3438716559
   11      O       1.5172557340    -2.7598653695    -0.2397044117
   12      O      -0.0000538090     2.5279870190     0.5461289530
   13      H       3.7357730801    -1.7760016435    -0.5434342750
   14      H       5.4897403841     0.0034524166    -0.6455252640
   15      H       2.4433207239     2.9504084620     0.1982088195
   16      Cl     -1.3809886297    -2.4114863919     0.3922458848
   17      H       4.8306062741     2.3969894786    -0.2676496444
   18      N      -1.9010338747     0.6335953626     0.6613784151
   19      C      -2.9139393696     0.4649663905    -0.3897757652
   20      C      -4.2822484992     0.9579735767     0.0864912471
   21      C      -5.3826565613     0.8126314042    -0.9700578166
   22      H      -1.7936747594     1.6351088048     0.8498371173
   23      H      -2.9778062410    -0.5923161411    -0.6527009914
   24      H      -2.6345824781     1.0112039471    -1.3104366734
   25      H      -4.1996428415     2.0116189623     0.3845670096
   26      H      -4.5546736772     0.4032929355     0.9914375417
   27      H      -5.1416916941     1.3751238398    -1.8789826204
   28      H      -6.3516285830     1.1791991079    -0.6082099059
   29      H      -5.5178224370    -0.2354500157    -1.2607553946
 ----------------------------------------------------------------
 Molecular Point Group                 C1    NOp =  1
 Largest Abelian Subgroup              C1    NOp =  1
 Nuclear Repulsion Energy =        1256.28540945 hartrees
 There are       66 alpha and       66 beta electrons
 Requested basis set is 6-311++G(d,p)
 There are 169 shells and 466 basis functions

 Total QAlloc Memory Limit   8000 MB
 Mega-Array Size       188 MB
 MEM_STATIC part       192 MB
 A cutoff of  1.0D-08 yielded   9604 shell pairs
 There are     76235 function pairs (     81282 Cartesian)
 Smallest overlap matrix eigenvalue = 1.58E-07

 Q-Chem warning in module stvman/mkSTV.C, line 323:

 Overlap eigenvalue is smaller than square root of threshold
 Use THRESH >= 12 to get rid of this warning

 Linear dependence detected in AO basis
 Tighter screening thresholds may be required for diffuse basis sets
 Use S2THRESH > 14 and THRESH = 14 in case of SCF convergence issues
 Number of orthogonalized atomic orbitals = 462
 Maximum deviation from orthogonality = 1.394E-10

 Scale SEOQF with 1.000000e-02/1.000000e-01/1.000000e-01

 Standard Electronic Orientation quadrupole field applied
 Nucleus-field energy     =     0.0000000243 hartrees
 Guess from superposition of atomic densities
 Warning:  Energy on first SCF cycle will be non-variational
 SAD guess density has 130.000000 electrons

 -----------------------------------------------------------------------
  General SCF calculation program by
  Eric Jon Sundstrom, Paul Horn, Yuezhi Mao, Dmitri Zuev, Alec White,
  David Stuck, Shaama M.S., Shane Yost, Joonho Lee, David Small,
  Daniel Levine, Susi Lehtola, Hugh Burton, Evgeny Epifanovsky,
  Bang C. Huynh
 -----------------------------------------------------------------------
 Exchange:     0.2000 Hartree-Fock + 0.0800 Slater + 0.7200 B88
 Correlation:  0.1900 VWN1RPA + 0.8100 LYP
 Using SG-1 standard quadrature grid
 using 8 threads for integral computing
 -------------------------------------------------------
 OpenMP Integral computing Module                
 Release: version 1.0, May 2013, Q-Chem Inc. Pittsburgh 
 -------------------------------------------------------
 A restricted SCF calculation will be
 performed using DIIS
 SCF converges when DIIS error is below 1.0e-05
 ---------------------------------------
  Cycle       Energy         DIIS error
 ---------------------------------------
    1   -1171.8175171295      2.93e-02  
    2   -1167.7376997017      4.13e-03  
    3   -1157.6633216535      1.26e-02  
    4   -1167.7906545367      3.76e-03  
    5   -1168.1557915208      1.26e-03  
    6   -1168.1820123632      1.01e-03  
    7   -1167.8668932676      2.00e-03  
    8   -1168.2077175818      4.02e-04  
    9   -1168.2117148670      2.47e-04  
   10   -1168.2142259754      1.56e-04  
   11   -1168.1842931514      7.40e-04  
   12   -1168.1468861385      1.05e-03  
   13   -1168.1986791703      5.57e-04  
   14   -1168.2144975220      2.50e-04  
   15   -1168.2171344268      1.30e-04  
   16   -1168.2174920092      1.02e-04  
   17   -1168.2179602954      4.89e-05  
   18   -1168.2180847536      1.63e-05  
   19   -1168.2180986342      3.93e-06  Convergence criterion met
 ---------------------------------------
 SCF time:   CPU 550.19s  wall 69.00s 
 SCF   energy in the final basis set =    -1168.2180986342
 Total energy in the final basis set =    -1168.2180986342
 Exchange:     0.2000 Hartree-Fock + 0.0800 Slater + 0.7200 B88
 Correlation:  0.1900 VWN1RPA + 0.8100 LYP
 Using SG-1 standard quadrature grid
 in get_qchem_info
 IBasis=      401111
 IBasis=      401111
 USING 1082 GRID
 MICHARGE=          -2
 Set epsilon to    37.2190017700195     
==== cosmo data ====
outfile: 230-an-COSMO.out.cosmo.0
phsran:    0.00000D+00
ampran:    0.10000D-04
volume:   1918.0740939
area:    942.7359427
routf:      0.8500000
rsolv [a.u]:      2.4566438
disex:     10.0000000
disex2:   4506.5596523
fepsi:      0.9731320
eps :    37.2190018
lcavity:     1
nppa:  1082
nspa:    92
nsph:    32
maxnps:  1948
natoms:    29
Atom   Radius [a.u.] nuc. charge
    1      3.7794520    6
    2      3.7794520    6
    3      3.7794520    6
    4      3.7794520    6
    5      3.7794520    6
    6      3.7794520    6
    7      3.7794520    6
    8      3.7794520    6
    9      3.7794520    6
   10      3.7794520    6
   11      3.2503287    8
   12      3.2503287    8
   13      2.4566438    1
   14      2.4566438    1
   15      2.4566438    1
   16      3.8739383   17
   17      2.4566438    1
   18      3.4581986    7
   19      3.7794520    6
   20      3.7794520    6
   21      3.7794520    6
   22      2.4566438    1
   23      2.4566438    1
   24      2.4566438    1
   25      2.4566438    1
   26      2.4566438    1
   27      2.4566438    1
   28      2.4566438    1
   29      2.4566438    1
=== end cosmo data ===
 number of segments:         1108
 f_epsilon=  0.973132003749614     
Ediel:   -0.2324430
 A restricted SCF calculation will be
 performed using Roothaan-Hall, DIIS
 SCF converges when DIIS error is below 1.0e-05
 ---------------------------------------
  Cycle       Energy         DIIS error
 ---------------------------------------
 number of segments:         1108
 f_epsilon=  0.973132003749614     
Ediel:   -0.3046086
    1   -1168.4505447913      4.17e-04  Roothaan Step
 ---------------------------------------
  Cycle       Energy         DIIS error
 ---------------------------------------
 number of segments:         1108
 f_epsilon=  0.973132003749614     
Ediel:   -0.2838741
    1   -1168.4841706883      4.98e-04  
 number of segments:         1108
 f_epsilon=  0.973132003749614     
Ediel:   -0.2956526
    2   -1168.4733341038      8.59e-04  
 number of segments:         1108
 f_epsilon=  0.973132003749614     
Ediel:   -0.2963968
    3   -1168.4918225715      9.28e-05  
 number of segments:         1108
 f_epsilon=  0.973132003749614     
Ediel:   -0.2965031
    4   -1168.4920463614      2.72e-05  
 number of segments:         1108
 f_epsilon=  0.973132003749614     
Ediel:   -0.2966947
    5   -1168.4920597538      1.65e-05  
    6   -1168.4920670743      3.58e-06  Convergence criterion met
 ---------------------------------------
 SCF time:   CPU 212.27s  wall 28.00s 
before final oc correction, ETot:     -1168.4920670743
 number of outlayer segments:          472
SCF energy after oc correction:     -1168.5062069157
 SCF   energy in the final basis set =    -1168.5062069157
 Total energy in the final basis set =    -1168.4920670743
 
 --------------------------------------------------------------
 
                    Orbital Energies (a.u.)
 --------------------------------------------------------------
 
 Alpha MOs
 -- Occupied --
******** -19.0304 -19.0283 -14.2848 -10.1882 -10.1830 -10.1756 -10.1750
-10.1672 -10.1547 -10.1525 -10.1505 -10.1502 -10.1495 -10.1485 -10.1441
-10.1436  -9.4401  -7.2040  -7.1956  -7.1948  -0.9556  -0.9492  -0.8910
 -0.8328  -0.8261  -0.7700  -0.7527  -0.7270  -0.6975  -0.6604  -0.6343
 -0.5860  -0.5815  -0.5683  -0.5347  -0.4977  -0.4774  -0.4598  -0.4476
 -0.4393  -0.4271  -0.4100  -0.4037  -0.3938  -0.3894  -0.3877  -0.3783
 -0.3746  -0.3599  -0.3506  -0.3449  -0.3380  -0.3292  -0.3250  -0.3210
 -0.3123  -0.3049  -0.2860  -0.2562  -0.2342  -0.2312  -0.2160  -0.2090
 -0.1957  -0.1181
 -- Virtual --
 -0.0101   0.0000   0.0066   0.0092   0.0158   0.0186   0.0243   0.0270
  0.0395   0.0448   0.0481   0.0505   0.0553   0.0601   0.0635   0.0692
  0.0708   0.0750   0.0811   0.0843   0.0854   0.0973   0.0987   0.1001
  0.1046   0.1065   0.1127   0.1177   0.1204   0.1271   0.1287   0.1304
  0.1336   0.1352   0.1393   0.1417   0.1439   0.1474   0.1504   0.1525
  0.1569   0.1610   0.1635   0.1673   0.1694   0.1707   0.1786   0.1830
  0.1859   0.1880   0.1896   0.1943   0.1989   0.2026   0.2052   0.2116
  0.2143   0.2191   0.2217   0.2301   0.2315   0.2339   0.2443   0.2494
  0.2536   0.2555   0.2594   0.2630   0.2666   0.2695   0.2725   0.2759
  0.2822   0.2833   0.2864   0.2890   0.2909   0.2973   0.3043   0.3078
  0.3109   0.3121   0.3181   0.3200   0.3246   0.3270   0.3313   0.3399
  0.3418   0.3473   0.3498   0.3580   0.3610   0.3652   0.3693   0.3756
  0.3805   0.3855   0.3998   0.4092   0.4166   0.4213   0.4330   0.4466
  0.4560   0.4616   0.4752   0.4815   0.4906   0.4977   0.5006   0.5205
  0.5272   0.5459   0.5560   0.5567   0.5620   0.5644   0.5685   0.5837
  0.5906   0.6038   0.6096   0.6158   0.6296   0.6329   0.6434   0.6568
  0.6611   0.6622   0.6676   0.6700   0.6745   0.6778   0.6829   0.6899
  0.7003   0.7045   0.7133   0.7145   0.7238   0.7350   0.7472   0.7527
  0.7594   0.7609   0.7659   0.7752   0.7801   0.7816   0.7907   0.7913
  0.8152   0.8270   0.8518   0.8656   0.8751   0.8822   0.8949   0.8999
  0.9074   0.9256   0.9330   0.9356   0.9441   0.9510   0.9583   0.9612
  0.9633   0.9686   0.9779   0.9836   0.9969   1.0058   1.0183   1.0276
  1.0341   1.0355   1.0532   1.0643   1.0652   1.0951   1.1089   1.1149
  1.1211   1.1331   1.1468   1.1547   1.1689   1.1849   1.2013   1.2162
  1.2330   1.2503   1.2590   1.2618   1.2762   1.2852   1.2904   1.3242
  1.3262   1.3365   1.3488   1.3587   1.3927   1.4033   1.4224   1.4341
  1.4756   1.4817   1.5168   1.5205   1.5269   1.5397   1.5446   1.5575
  1.5719   1.5833   1.5855   1.5941   1.6030   1.6268   1.6387   1.6389
  1.6605   1.6702   1.6784   1.6946   1.7012   1.7103   1.7169   1.7361
  1.7461   1.7541   1.7662   1.7698   1.7793   1.7910   1.8003   1.8110
  1.8246   1.8349   1.8506   1.8776   1.8859   1.8909   1.9094   1.9141
  1.9186   1.9373   1.9508   1.9679   1.9779   1.9900   1.9970   2.0079
  2.0167   2.0427   2.0482   2.0716   2.0984   2.1018   2.1178   2.1403
  2.1693   2.1889   2.1958   2.1987   2.2145   2.2445   2.2702   2.2860
  2.3190   2.3305   2.3324   2.3493   2.3620   2.3809   2.3957   2.4082
  2.4561   2.4714   2.4780   2.4970   2.5047   2.5115   2.5315   2.5453
  2.5602   2.5697   2.5949   2.6063   2.6278   2.6393   2.6545   2.6690
  2.6815   2.6946   2.7057   2.7212   2.7290   2.7420   2.7489   2.7610
  2.7804   2.7856   2.7995   2.8049   2.8060   2.8255   2.8380   2.8553
  2.8665   2.8728   2.8975   2.9096   2.9182   2.9282   2.9408   2.9442
  2.9671   2.9832   2.9939   3.0039   3.0259   3.0479   3.1049   3.1120
  3.1386   3.1651   3.1875   3.2052   3.2433   3.2495   3.2901   3.3195
  3.3477   3.3577   3.3629   3.3754   3.4012   3.4523   3.5170   3.5283
  3.5531   3.5695   3.5880   3.6142   3.6497   3.7605   3.7887   3.8117
  3.8335   3.8352   3.8664   3.8984   4.0548   4.0634   4.1168   4.1511
  4.2156   4.2382   4.3267   4.3472   4.3920   4.8148   4.8553   4.8603
  5.0052   5.1331   5.1526   5.3071   5.3615   5.7785   5.8512   9.8308
 23.5571  23.7827  23.8803  23.9149  23.9410  23.9676  23.9784  23.9875
 24.0003  24.0290  24.0739  24.1361  24.2023  25.9593  26.3267  26.6944
 35.6481  50.0842  50.1350 215.8309
 --------------------------------------------------------------
 
          Ground-State Mulliken Net Atomic Charges

     Atom                 Charge (a.u.)
  ----------------------------------------
      1 C                     0.071827
      2 C                    -0.484996
      3 C                    -0.444166
      4 C                     0.165492
      5 C                     0.119978
      6 C                    -0.019908
      7 C                    -0.658789
      8 C                     0.903780
      9 C                    -0.515563
     10 C                    -0.789281
     11 O                    -0.660807
     12 O                    -0.714973
     13 H                     0.163091
     14 H                     0.177716
     15 H                     0.164800
     16 Cl                    0.251445
     17 H                     0.179014
     18 N                     0.019387
     19 C                    -0.486190
     20 C                    -0.026372
     21 C                    -0.640614
     22 H                     0.269843
     23 H                     0.100839
     24 H                     0.149918
     25 H                     0.131807
     26 H                     0.132771
     27 H                     0.140164
     28 H                     0.152604
     29 H                     0.147184
  ----------------------------------------
  Sum of atomic charges =    -2.000001

 -----------------------------------------------------------------
                    Cartesian Multipole Moments
 -----------------------------------------------------------------
    Charge (ESU x 10^10)
                -9.6064
    Dipole Moment (Debye)
         X      -6.9874      Y       3.5219      Z      -2.5819
       Tot       8.2398
    Quadrupole Moments (Debye-Ang)
        XX    -136.2993     XY       7.5086     YY    -171.7507
        XZ       4.6769     YZ      -5.5373     ZZ    -122.6968
    Octopole Moments (Debye-Ang^2)
       XXX     -69.5669    XXY      21.4119    XYY     -46.5533
       YYY      35.1516    XXZ      -6.2834    XYZ      -3.7315
       YYZ      -7.3986    XZZ     -15.0902    YZZ      -6.4517
       ZZZ      -1.1597
    Hexadecapole Moments (Debye-Ang^3)
      XXXX   -5557.4634   XXXY      11.8933   XXYY   -1263.5117
      XYYY     120.2721   YYYY   -2293.5742   XXXZ     -34.2429
      XXYZ       1.2758   XYYZ      11.6810   YYYZ     -50.3376
      XXZZ   -1039.8563   XYZZ      -9.6146   YYZZ    -381.7830
      XZZZ      19.7259   YZZZ      -8.1480   ZZZZ    -313.3701
 -----------------------------------------------------------------
 Total job time:  130.77s(wall), 769.77s(cpu) 
 Thu Feb 22 07:58:22 2024

        *************************************************************
        *                                                           *
        *  Thank you very much for using Q-Chem.  Have a nice day.  *
        *                                                           *
        *************************************************************


