
Running Job 1 of 1 084-CPCM.in
qchem 084-CPCM.in_1763138.0 /expanse/lustre/scratch/selhajj/temp_project/qcscratch/31246309/qchem1763138/ 0
/cm/shared/apps/spack/cpu/opt/spack/linux-centos8-zen2/gcc-10.2.0/qchem-5.4-akfmr7b3t57bfs6qan3padb2wnb2i7cl/exe/qcprog.exe_s 084-CPCM.in_1763138.0 /expanse/lustre/scratch/selhajj/temp_project/qcscratch/31246309/qchem1763138/
                  Welcome to Q-Chem
     A Quantum Leap Into The Future Of Chemistry


 Q-Chem 5.4, Q-Chem, Inc., Pleasanton, CA (2021)

 License issued to: University of California, San Diego (site)

 E. Epifanovsky,  A. T. B. Gilbert,  Xintian Feng,  Joonho Lee,  Yuezhi Mao,  
 N. Mardirossian,  P. Pokhilko,  A. White,  M. Wormit,  M. P. Coons,  
 A. L. Dempwolff,  Zhengting Gan,  D. Hait,  P. R. Horn,  L. D. Jacobson,  
 I. Kaliman,  J. Kussmann,  A. W. Lange,  Ka Un Lao,  D. S. Levine,  Jie Liu,  
 S. C. McKenzie,  A. F. Morrison,  K. Nanda,  F. Plasser,  D. R. Rehn,  
 M. L. Vidal,  Zhi-Qiang You,  Ying Zhu,  B. Alam,  B. Albrecht,  
 A. Aldossary,  E. Alguire,  J. H. Andersen,  D. Barton,  K. Begam,  A. Behn,  
 Y. A. Bernard,  E. J. Berquist,  H. Burton,  A. Carreras,  K. Carter-Fenk,  
 R. Chakraborty,  A. D. Chien,  K. D. Closser,  V. Cofer-Shabica,  
 S. Dasgupta,  Jia Deng,  M. de Wergifosse,  M. Diedenhofen,  Hainam Do,  
 S. Ehlert,  Po-Tung Fang,  S. Fatehi,  Qingguo Feng,  J. Gayvert,  
 Qinghui Ge,  G. Gidofalvi,  M. Goldey,  J. Gomes,  C. Gonzalez-Espinoza,  
 S. Gulania,  A. Gunina,  M. W. D. Hanson-Heine,  P. H. P. Harbach,  
 A. W. Hauser,  M. F. Herbst,  M. Hernandez Vera,  M. Hodecker,  
 Z. C. Holden,  S. Houck,  Xunkun Huang,  Kerwin Hui,  B. C. Huynh,  
 M. Ivanov,  Hyunjun Ji,  Hanjie Jiang,  B. Kaduk,  S. Kaehler,  
 K. Khistyaev,  Jaehoon Kim,  P. Klunzinger,  Z. Koczor-Benda,  
 Joong Hoon Koh,  D. Kosenkov,  L. Koulias,  T. Kowalczyk,  C. M. Krauter,  
 K. Kue,  A. Kunitsa,  T. Kus,  A. Landau,  K. V. Lawler,  D. Lefrancois,  
 S. Lehtola,  Rain Li,  Yi-Pei Li,  Jiashu Liang,  M. Liebenthal,  
 Hung-Hsuan Lin,  You-Sheng Lin,  Fenglai Liu,  Kuan-Yu Liu,  
 M. Loipersberger,  A. Luenser,  A. Manjanath,  P. Manohar,  E. Mansoor,  
 S. F. Manzer,  Shan-Ping Mao,  A. V. Marenich,  T. Markovich,  S. Mason,  
 S. A. Maurer,  P. F. McLaughlin,  M. F. S. J. Menger,  J.-M. Mewes,  
 S. A. Mewes,  P. Morgante,  J. W. Mullinax,  T. S. Nguyen-Beck,  
 K. J. Oosterbaan,  G. Paran,  Alexander C. Paul,  Suranjan K. Paul,  
 F. Pavosevic,  Zheng Pei,  S. Prager,  E. I. Proynov,  E. Ramos,  B. Rana,  
 A. E. Rask,  A. Rettig,  R. M. Richard,  F. Rob,  E. Rossomme,  T. Scheele,  
 M. Scheurer,  M. Schneider,  N. Sergueev,  S. M. Sharada,  W. Skomorowski,  
 D. W. Small,  C. J. Stein,  Yu-Chuan Su,  E. J. Sundstrom,  Zhen Tao,  
 J. Thirman,  T. Tsuchimochi,  N. M. Tubman,  S. P. Veccham,  O. Vydrov,  
 J. Wenzel,  J. Witte,  A. Yamada,  Kun Yao,  S. Yeganeh,  S. R. Yost,  
 A. Zech,  Igor Ying Zhang,  Xing Zhang,  Yu Zhang,  D. Zuev,  
 A. Aspuru-Guzik,  A. T. Bell,  N. A. Besley,  K. B. Bravaya,  B. R. Brooks,  
 D. Casanova,  Jeng-Da Chai,  S. Coriani,  C. J. Cramer,  
 A. E. DePrince, III,  R. A. DiStasio Jr.,  A. Dreuw,  B. D. Dunietz,  
 T. R. Furlani,  W. A. Goddard III,  S. Grimme,  S. Hammes-Schiffer,  
 T. Head-Gordon,  W. J. Hehre,  Chao-Ping Hsu,  T.-C. Jagau,  Yousung Jung,  
 A. Klamt,  Jing Kong,  D. S. Lambrecht,  WanZhen Liang,  N. J. Mayhall,  
 C. W. McCurdy,  J. B. Neaton,  C. Ochsenfeld,  J. A. Parkhill,  R. Peverati,  
 V. A. Rassolov,  Yihan Shao,  L. V. Slipchenko,  T. Stauch,  R. P. Steele,  
 J. E. Subotnik,  A. J. W. Thom,  A. Tkatchenko,  D. G. Truhlar,  
 T. Van Voorhis,  T. A. Wesolowski,  K. B. Whaley,  H. L. Woodcock III,  
 P. M. Zimmerman,  S. Faraji,  P. M. W. Gill,  M. Head-Gordon,  
 J. M. Herbert,  A. I. Krylov

 Contributors to earlier versions of Q-Chem not listed above: 
 R. D. Adamson,  B. Austin,  R. Baer,  J. Baker,  G. J. O. Beran,  
 K. Brandhorst,  S. T. Brown,  E. F. C. Byrd,  A. K. Chakraborty,  
 G. K. L. Chan,  Chun-Min Chang,  Yunqing Chen,  C.-L. Cheng,  
 Siu Hung Chien,  D. M. Chipman,  D. L. Crittenden,  H. Dachsel,  
 R. J. Doerksen,  A. D. Dutoi,  R. G. Edgar,  J. Fosso-Tande,  
 L. Fusti-Molnar,  D. Ghosh,  A. Ghysels,  A. Golubeva-Zadorozhnaya,  
 J. Gonthier,  M. S. Gordon,  S. R. Gwaltney,  G. Hawkins,  J. E. Herr,  
 A. Heyden,  S. Hirata,  E. G. Hohenstein,  G. Kedziora,  F. J. Keil,  
 C. Kelley,  Jihan Kim,  R. A. King,  R. Z. Khaliullin,  P. P. Korambath,  
 W. Kurlancheek,  A. Laurent,  A. M. Lee,  M. S. Lee,  S. V. Levchenko,  
 Ching Yeh Lin,  D. Liotard,  E. Livshits,  R. C. Lochan,  I. Lotan,  
 L. A. Martinez-Martinez,  P. E. Maslen,  N. Nair,  D. P. O'Neill,  
 D. Neuhauser,  E. Neuscamman,  C. M. Oana,  R. Olivares-Amaya,  R. Olson,  
 T. M. Perrine,  B. Peters,  P. A. Pieniazek,  A. Prociuk,  Y. M. Rhee,  
 J. Ritchie,  M. A. Rohrdanz,  E. Rosta,  N. J. Russ,  H. F. Schaefer III,  
 M. W. Schmidt,  N. E. Schultz,  S. Sharma,  N. Shenvi,  C. D. Sherrill,  
 A. C. Simmonett,  A. Sodt,  T. Stein,  D. Stuck,  K. S. Thanthiriwatte,  
 V. Vanovschi,  L. Vogt,  Tao Wang,  A. Warshel,  M. A. Watson,  
 C. F. Williams,  Q. Wu,  X. Xu,  Jun Yang,  W. Zhang,  Yan Zhao

 Please cite Q-Chem as follows:
 Y. Shao et al., Mol. Phys. 113, 184-215 (2015)
 DOI: 10.1080/00268976.2014.952696

 Q-Chem 5.4.0 for Intel X86 EM64T Linux

 Parts of Q-Chem use Armadillo 9.800.1 (Horizon Scraper).
 http://arma.sourceforge.net/

 Q-Chem begins on Tue Jun 11 17:37:26 2024  

 Host: 
0

     Scratch files written to /expanse/lustre/scratch/selhajj/temp_project/qcscratch/31246309/qchem1763138//
 May1621 |scratch|qcdevops|jenkins|workspace|build_RNUM    
 Processing $rem in /cm/shared/apps/spack/cpu/opt/spack/linux-centos8-zen2/gcc-10.2.0/qchem-5.4-akfmr7b3t57bfs6qan3padb2wnb2i7cl/config/preferences:
 Processing $rem in /home/selhajj/.qchemrc:
 Symmetry turned off for PCM/SM12/SMD calculation

 Checking the input file for inconsistencies... 	...done.

--------------------------------------------------------------
User input:
--------------------------------------------------------------
$molecule
0 1
C                  2.9641980000     -0.5844280000      0.4891650000
O                  1.7803700000      0.2326730000      0.5833350000
C                  0.5689100000     -0.2804640000      0.3042630000
C                 -0.3489360000      0.5174830000     -0.3242660000
O                  0.0427320000      1.7307000000     -0.7526280000
C                 -0.8528790000      2.8582860000     -0.6864950000
C                 -1.6994570000     -0.0089150000     -0.6593310000
O                 -2.4864240000      0.6268260000     -1.3446560000
C                 -2.0624720000     -1.3660190000     -0.1735580000
C                 -1.1813510000     -2.1280110000      0.4761270000
C                  0.1798090000     -1.6275110000      0.8016980000
O                  0.9312630000     -2.3009400000      1.4908800000
H                  2.9223380000     -1.2230520000     -0.3965350000
H                  3.7853870000      0.1237170000      0.3875600000
H                  3.0904610000     -1.1964310000      1.3796050000
H                 -0.2045710000      3.7326660000     -0.7223560000
H                 -1.4081840000      2.8548970000      0.2545930000
H                 -1.5467820000      2.8579460000     -1.5242880000
H                 -3.0684630000     -1.6914860000     -0.4122230000
H                 -1.4059510000     -3.1279390000      0.8291100000
$end
$rem
MAX_SCF_CYCLES=200
BASIS  =  6-311++G(d,p)
GUI  =  2
JOB_TYPE  =  SP
METHOD  =  B3LYP
SOLVENT_METHOD = PCM
$end
$pcm
theory = CPCM
$end
$solvent
dielectric 37.219
opticaldielectric 1.43
$end





--------------------------------------------------------------
 ----------------------------------------------------------------
             Standard Nuclear Orientation (Angstroms)
    I     Atom           X                Y                Z
 ----------------------------------------------------------------
    1      C       2.9641980000    -0.5844280000     0.4891650000
    2      O       1.7803700000     0.2326730000     0.5833350000
    3      C       0.5689100000    -0.2804640000     0.3042630000
    4      C      -0.3489360000     0.5174830000    -0.3242660000
    5      O       0.0427320000     1.7307000000    -0.7526280000
    6      C      -0.8528790000     2.8582860000    -0.6864950000
    7      C      -1.6994570000    -0.0089150000    -0.6593310000
    8      O      -2.4864240000     0.6268260000    -1.3446560000
    9      C      -2.0624720000    -1.3660190000    -0.1735580000
   10      C      -1.1813510000    -2.1280110000     0.4761270000
   11      C       0.1798090000    -1.6275110000     0.8016980000
   12      O       0.9312630000    -2.3009400000     1.4908800000
   13      H       2.9223380000    -1.2230520000    -0.3965350000
   14      H       3.7853870000     0.1237170000     0.3875600000
   15      H       3.0904610000    -1.1964310000     1.3796050000
   16      H      -0.2045710000     3.7326660000    -0.7223560000
   17      H      -1.4081840000     2.8548970000     0.2545930000
   18      H      -1.5467820000     2.8579460000    -1.5242880000
   19      H      -3.0684630000    -1.6914860000    -0.4122230000
   20      H      -1.4059510000    -3.1279390000     0.8291100000
 ----------------------------------------------------------------
 Nuclear Repulsion Energy =         700.30034408 hartrees
 There are       44 alpha and       44 beta electrons
 Requested basis set is 6-311++G(d,p)
 There are 112 shells and 320 basis functions

 Total QAlloc Memory Limit   8000 MB
 Mega-Array Size       188 MB
 MEM_STATIC part       192 MB
 Discretize the solute cavity surface with Lebedev spheres
	Using 110 Lebedev grid points for each H atom
	Using 194 Lebedev grid points for other atoms
	Atomic van der Waals radii will be scaled by 1.20
 Remove points where switching function is < 1.0e-08
 Keep 1416 surface tesserae and discard 1792 interior tesserae
 Molecular Surface Area = 200.766 Angst**2
 A cutoff of  1.0D-08 yielded   4905 shell pairs
 There are     41699 function pairs (     44667 Cartesian)
 Smallest overlap matrix eigenvalue = 1.02E-06

 Q-Chem warning in module stvman/mkSTV.C, line 323:

 Overlap eigenvalue is smaller than square root of threshold
 Use THRESH >= 12 to get rid of this warning


 Scale SEOQF with 1.000000e-01/1.000000e-01/1.000000e-01

 Standard Electronic Orientation quadrupole field applied
 Nucleus-field energy     =     0.0000000182 hartrees
 Guess from superposition of atomic densities
 Warning:  Energy on first SCF cycle will be non-variational
 SAD guess density has 88.000000 electrons

 -----------------------------------------------------------------------
  General SCF calculation program by
  Eric Jon Sundstrom, Paul Horn, Yuezhi Mao, Dmitri Zuev, Alec White,
  David Stuck, Shaama M.S., Shane Yost, Joonho Lee, David Small,
  Daniel Levine, Susi Lehtola, Hugh Burton, Evgeny Epifanovsky,
  Bang C. Huynh
 -----------------------------------------------------------------------
 Exchange:     0.2000 Hartree-Fock + 0.0800 Slater + 0.7200 B88
 Correlation:  0.1900 VWN1RPA + 0.8100 LYP
 Using SG-1 standard quadrature grid
 using 8 threads for integral computing
 -------------------------------------------------------
 OpenMP Integral computing Module                
 Release: version 1.0, May 2013, Q-Chem Inc. Pittsburgh 
 -------------------------------------------------------
 A restricted SCF calculation will be
 performed using DIIS
 SCF converges when DIIS error is below 1.0e-05
 ---------------------------------------
  Cycle       Energy         DIIS error
 ---------------------------------------
    1    -613.1215536091      3.59e-02  
    2    -610.5009525996      4.22e-03  
    3    -610.1788878509      7.29e-03  
    4    -610.6594220831      1.36e-03  
    5    -610.6796108945      3.14e-04  
    6    -610.6805176456      1.34e-04  
    7    -610.6806843891      3.97e-05  
    8    -610.6806966548      9.62e-06  Convergence criterion met
 ---------------------------------------
 SCF time:   CPU 126.63s  wall 17.00s 

************** Final PCM Free Energy Summary **************
 G_electrostatic  =      -0.01634639 hartree =     -10.25751284 kcal/mol
 G_cavitation     =       0.00000000 hartree =       0.00000000 kcal/mol
 G_dispersion     =       0.00000000 hartree =       0.00000000 kcal/mol
 G_repulsion      =       0.00000000 hartree =       0.00000000 kcal/mol
 --------------------------------------------------
 Non-electrostatic Free Energy =       0.00000000 hartree =       0.00000000 kcal/mol
 Total                         =      -0.01634639 hartree =     -10.25751284 kcal/mol
 --------------------------------------------------
 SCF Energy (H0 + V/2)                       =    -610.68069665 
 Solute Internal Energy (H0)                 =    -610.66435027 
 Total Free Energy (H0 + V/2 + non-elec)     =    -610.68069665 hartree
                                             = -383207.92090777 kcal/mol
***********************************************************

 SCF   energy in the final basis set =     -610.6806966548
 Total energy in the final basis set =     -610.6806966548
 
 --------------------------------------------------------------
 
                    Orbital Energies (a.u.)
 --------------------------------------------------------------
 
 Alpha MOs
 -- Occupied --
-19.1700 -19.1700 -19.1439 -19.1439 -10.2919 -10.2919 -10.2625 -10.2619
-10.2212 -10.2212 -10.2117 -10.2108  -1.1022  -1.0861  -1.0697  -1.0624
 -0.8611  -0.7964  -0.7350  -0.7044  -0.6969  -0.6270  -0.6059  -0.5509
 -0.5305  -0.5288  -0.4949  -0.4935  -0.4753  -0.4681  -0.4605  -0.4507
 -0.4373  -0.4227  -0.4209  -0.4161  -0.3787  -0.3701  -0.3417  -0.3348
 -0.3128  -0.2844  -0.2842  -0.2437
 -- Virtual --
 -0.1348  -0.0216  -0.0043  -0.0035   0.0091   0.0092   0.0223   0.0281
  0.0317   0.0332   0.0425   0.0534   0.0596   0.0708   0.0730   0.0779
  0.0827   0.0902   0.0953   0.1053   0.1098   0.1121   0.1162   0.1188
  0.1236   0.1288   0.1345   0.1396   0.1419   0.1424   0.1503   0.1540
  0.1578   0.1643   0.1654   0.1701   0.1756   0.1777   0.1786   0.1893
  0.1915   0.1958   0.2136   0.2141   0.2227   0.2266   0.2350   0.2399
  0.2410   0.2498   0.2502   0.2544   0.2659   0.2761   0.2807   0.2891
  0.2932   0.2988   0.3029   0.3046   0.3103   0.3147   0.3277   0.3285
  0.3461   0.3513   0.3532   0.3557   0.3653   0.3705   0.3843   0.3916
  0.3942   0.4116   0.4154   0.4453   0.4511   0.4550   0.4778   0.5082
  0.5136   0.5290   0.5490   0.5491   0.5661   0.5694   0.5827   0.5913
  0.5956   0.6014   0.6034   0.6163   0.6473   0.6547   0.6595   0.6697
  0.6760   0.6770   0.6906   0.7031   0.7088   0.7138   0.7497   0.7681
  0.7905   0.7985   0.8342   0.8362   0.8455   0.8557   0.8686   0.8925
  0.9063   0.9067   0.9106   0.9576   0.9587   0.9819   0.9930   1.0112
  1.0120   1.0721   1.0849   1.0866   1.0938   1.1097   1.1245   1.1275
  1.1494   1.1638   1.1971   1.2172   1.2270   1.2520   1.2636   1.2749
  1.2915   1.3351   1.3356   1.3530   1.3548   1.3993   1.4315   1.4553
  1.4733   1.4754   1.4776   1.5394   1.5582   1.5679   1.5827   1.5882
  1.5936   1.6036   1.6235   1.6449   1.6501   1.6730   1.6814   1.6977
  1.7191   1.7270   1.7521   1.7544   1.7627   1.7639   1.7877   1.8120
  1.8146   1.8225   1.8394   1.8427   1.8950   1.9301   1.9482   1.9756
  2.0277   2.0457   2.0482   2.0966   2.1349   2.1473   2.1622   2.1815
  2.1839   2.2066   2.2136   2.2518   2.3045   2.3628   2.4552   2.4601
  2.4917   2.5104   2.5218   2.5291   2.5515   2.5556   2.5704   2.5879
  2.6329   2.6617   2.6656   2.6923   2.6943   2.6961   2.7084   2.7407
  2.7921   2.7972   2.8390   2.8783   2.8925   2.9014   2.9182   2.9344
  2.9719   3.0113   3.0255   3.0354   3.0359   3.0572   3.0654   3.0687
  3.1479   3.1796   3.2081   3.2274   3.2442   3.2803   3.3239   3.3436
  3.4292   3.4670   3.5017   3.5327   3.5869   3.5988   3.7137   3.7398
  3.7928   3.7955   3.8242   3.8381   3.9917   4.0247   4.0598   4.0803
  4.1674   4.1732   4.2477   4.6736   5.0284   5.0360   5.0833   5.0914
  5.1926   5.2323   5.3071   5.4185   5.6016   5.7523   5.7821   5.8690
 23.5946  23.7369  23.8281  23.8767  23.9211  23.9315  24.0503  24.2391
 49.8828  49.9503  49.9946  50.0311
 --------------------------------------------------------------
 
          Ground-State Mulliken Net Atomic Charges

     Atom                 Charge (a.u.)
  ----------------------------------------
      1 C                    -0.312934
      2 O                    -0.206506
      3 C                     0.103877
      4 C                     0.095770
      5 O                    -0.205639
      6 C                    -0.313114
      7 C                    -0.183879
      8 O                    -0.295208
      9 C                     0.091248
     10 C                     0.090658
     11 C                    -0.188657
     12 O                    -0.294796
     13 H                     0.182208
     14 H                     0.168625
     15 H                     0.195638
     16 H                     0.168630
     17 H                     0.182596
     18 H                     0.195687
     19 H                     0.262953
     20 H                     0.262842
  ----------------------------------------
  Sum of atomic charges =     0.000000

 -----------------------------------------------------------------
                    Cartesian Multipole Moments
 -----------------------------------------------------------------
    Charge (ESU x 10^10)
                -0.0000
    Dipole Moment (Debye)
         X      -0.3866      Y      -0.4142      Z       0.0308
       Tot       0.5674
    Quadrupole Moments (Debye-Ang)
        XX     -66.1845     XY       3.8155     YY     -64.5394
        XZ      -6.8211     YZ       5.0494     ZZ     -76.2958
    Octopole Moments (Debye-Ang^2)
       XXX      69.1918    XXY      -8.8118    XYY     -16.8778
       YYY      62.5217    XXZ      12.6893    XYZ       3.6210
       YYZ     -14.6493    XZZ      13.8265    YZZ      17.5221
       ZZZ      -4.3231
    Hexadecapole Moments (Debye-Ang^3)
      XXXX   -1114.2654   XXXY      95.3792   XXYY    -357.5413
      XYYY      91.8164   YYYY   -1018.0245   XXXZ    -191.6198
      XXYZ      75.4237   XYYZ     -73.8673   YYYZ     189.1642
      XXZZ    -280.1514   XYZZ      29.5219   YYZZ    -262.4200
      XZZZ    -180.4415   YZZZ     200.2951   ZZZZ    -349.6863
 -----------------------------------------------------------------
 Total job time:  18.35s(wall), 133.42s(cpu) 
 Tue Jun 11 17:37:44 2024

        *************************************************************
        *                                                           *
        *  Thank you very much for using Q-Chem.  Have a nice day.  *
        *                                                           *
        *************************************************************


