
Running Job 1 of 1 167-an-COSMO.in
qchem 167-an-COSMO.in_2787559.0 /expanse/lustre/scratch/selhajj/temp_project/qcscratch/28869733/qchem2787559/ 0
/cm/shared/apps/spack/cpu/opt/spack/linux-centos8-zen2/gcc-10.2.0/qchem-5.4-akfmr7b3t57bfs6qan3padb2wnb2i7cl/exe/qcprog.exe_s 167-an-COSMO.in_2787559.0 /expanse/lustre/scratch/selhajj/temp_project/qcscratch/28869733/qchem2787559/
                  Welcome to Q-Chem
     A Quantum Leap Into The Future Of Chemistry


 Q-Chem 5.4, Q-Chem, Inc., Pleasanton, CA (2021)

 License issued to: University of California, San Diego (site)

 E. Epifanovsky,  A. T. B. Gilbert,  Xintian Feng,  Joonho Lee,  Yuezhi Mao,  
 N. Mardirossian,  P. Pokhilko,  A. White,  M. Wormit,  M. P. Coons,  
 A. L. Dempwolff,  Zhengting Gan,  D. Hait,  P. R. Horn,  L. D. Jacobson,  
 I. Kaliman,  J. Kussmann,  A. W. Lange,  Ka Un Lao,  D. S. Levine,  Jie Liu,  
 S. C. McKenzie,  A. F. Morrison,  K. Nanda,  F. Plasser,  D. R. Rehn,  
 M. L. Vidal,  Zhi-Qiang You,  Ying Zhu,  B. Alam,  B. Albrecht,  
 A. Aldossary,  E. Alguire,  J. H. Andersen,  D. Barton,  K. Begam,  A. Behn,  
 Y. A. Bernard,  E. J. Berquist,  H. Burton,  A. Carreras,  K. Carter-Fenk,  
 R. Chakraborty,  A. D. Chien,  K. D. Closser,  V. Cofer-Shabica,  
 S. Dasgupta,  Jia Deng,  M. de Wergifosse,  M. Diedenhofen,  Hainam Do,  
 S. Ehlert,  Po-Tung Fang,  S. Fatehi,  Qingguo Feng,  J. Gayvert,  
 Qinghui Ge,  G. Gidofalvi,  M. Goldey,  J. Gomes,  C. Gonzalez-Espinoza,  
 S. Gulania,  A. Gunina,  M. W. D. Hanson-Heine,  P. H. P. Harbach,  
 A. W. Hauser,  M. F. Herbst,  M. Hernandez Vera,  M. Hodecker,  
 Z. C. Holden,  S. Houck,  Xunkun Huang,  Kerwin Hui,  B. C. Huynh,  
 M. Ivanov,  Hyunjun Ji,  Hanjie Jiang,  B. Kaduk,  S. Kaehler,  
 K. Khistyaev,  Jaehoon Kim,  P. Klunzinger,  Z. Koczor-Benda,  
 Joong Hoon Koh,  D. Kosenkov,  L. Koulias,  T. Kowalczyk,  C. M. Krauter,  
 K. Kue,  A. Kunitsa,  T. Kus,  A. Landau,  K. V. Lawler,  D. Lefrancois,  
 S. Lehtola,  Rain Li,  Yi-Pei Li,  Jiashu Liang,  M. Liebenthal,  
 Hung-Hsuan Lin,  You-Sheng Lin,  Fenglai Liu,  Kuan-Yu Liu,  
 M. Loipersberger,  A. Luenser,  A. Manjanath,  P. Manohar,  E. Mansoor,  
 S. F. Manzer,  Shan-Ping Mao,  A. V. Marenich,  T. Markovich,  S. Mason,  
 S. A. Maurer,  P. F. McLaughlin,  M. F. S. J. Menger,  J.-M. Mewes,  
 S. A. Mewes,  P. Morgante,  J. W. Mullinax,  T. S. Nguyen-Beck,  
 K. J. Oosterbaan,  G. Paran,  Alexander C. Paul,  Suranjan K. Paul,  
 F. Pavosevic,  Zheng Pei,  S. Prager,  E. I. Proynov,  E. Ramos,  B. Rana,  
 A. E. Rask,  A. Rettig,  R. M. Richard,  F. Rob,  E. Rossomme,  T. Scheele,  
 M. Scheurer,  M. Schneider,  N. Sergueev,  S. M. Sharada,  W. Skomorowski,  
 D. W. Small,  C. J. Stein,  Yu-Chuan Su,  E. J. Sundstrom,  Zhen Tao,  
 J. Thirman,  T. Tsuchimochi,  N. M. Tubman,  S. P. Veccham,  O. Vydrov,  
 J. Wenzel,  J. Witte,  A. Yamada,  Kun Yao,  S. Yeganeh,  S. R. Yost,  
 A. Zech,  Igor Ying Zhang,  Xing Zhang,  Yu Zhang,  D. Zuev,  
 A. Aspuru-Guzik,  A. T. Bell,  N. A. Besley,  K. B. Bravaya,  B. R. Brooks,  
 D. Casanova,  Jeng-Da Chai,  S. Coriani,  C. J. Cramer,  
 A. E. DePrince, III,  R. A. DiStasio Jr.,  A. Dreuw,  B. D. Dunietz,  
 T. R. Furlani,  W. A. Goddard III,  S. Grimme,  S. Hammes-Schiffer,  
 T. Head-Gordon,  W. J. Hehre,  Chao-Ping Hsu,  T.-C. Jagau,  Yousung Jung,  
 A. Klamt,  Jing Kong,  D. S. Lambrecht,  WanZhen Liang,  N. J. Mayhall,  
 C. W. McCurdy,  J. B. Neaton,  C. Ochsenfeld,  J. A. Parkhill,  R. Peverati,  
 V. A. Rassolov,  Yihan Shao,  L. V. Slipchenko,  T. Stauch,  R. P. Steele,  
 J. E. Subotnik,  A. J. W. Thom,  A. Tkatchenko,  D. G. Truhlar,  
 T. Van Voorhis,  T. A. Wesolowski,  K. B. Whaley,  H. L. Woodcock III,  
 P. M. Zimmerman,  S. Faraji,  P. M. W. Gill,  M. Head-Gordon,  
 J. M. Herbert,  A. I. Krylov

 Contributors to earlier versions of Q-Chem not listed above: 
 R. D. Adamson,  B. Austin,  R. Baer,  J. Baker,  G. J. O. Beran,  
 K. Brandhorst,  S. T. Brown,  E. F. C. Byrd,  A. K. Chakraborty,  
 G. K. L. Chan,  Chun-Min Chang,  Yunqing Chen,  C.-L. Cheng,  
 Siu Hung Chien,  D. M. Chipman,  D. L. Crittenden,  H. Dachsel,  
 R. J. Doerksen,  A. D. Dutoi,  R. G. Edgar,  J. Fosso-Tande,  
 L. Fusti-Molnar,  D. Ghosh,  A. Ghysels,  A. Golubeva-Zadorozhnaya,  
 J. Gonthier,  M. S. Gordon,  S. R. Gwaltney,  G. Hawkins,  J. E. Herr,  
 A. Heyden,  S. Hirata,  E. G. Hohenstein,  G. Kedziora,  F. J. Keil,  
 C. Kelley,  Jihan Kim,  R. A. King,  R. Z. Khaliullin,  P. P. Korambath,  
 W. Kurlancheek,  A. Laurent,  A. M. Lee,  M. S. Lee,  S. V. Levchenko,  
 Ching Yeh Lin,  D. Liotard,  E. Livshits,  R. C. Lochan,  I. Lotan,  
 L. A. Martinez-Martinez,  P. E. Maslen,  N. Nair,  D. P. O'Neill,  
 D. Neuhauser,  E. Neuscamman,  C. M. Oana,  R. Olivares-Amaya,  R. Olson,  
 T. M. Perrine,  B. Peters,  P. A. Pieniazek,  A. Prociuk,  Y. M. Rhee,  
 J. Ritchie,  M. A. Rohrdanz,  E. Rosta,  N. J. Russ,  H. F. Schaefer III,  
 M. W. Schmidt,  N. E. Schultz,  S. Sharma,  N. Shenvi,  C. D. Sherrill,  
 A. C. Simmonett,  A. Sodt,  T. Stein,  D. Stuck,  K. S. Thanthiriwatte,  
 V. Vanovschi,  L. Vogt,  Tao Wang,  A. Warshel,  M. A. Watson,  
 C. F. Williams,  Q. Wu,  X. Xu,  Jun Yang,  W. Zhang,  Yan Zhao

 Please cite Q-Chem as follows:
 Y. Shao et al., Mol. Phys. 113, 184-215 (2015)
 DOI: 10.1080/00268976.2014.952696

 Q-Chem 5.4.0 for Intel X86 EM64T Linux

 Parts of Q-Chem use Armadillo 9.800.1 (Horizon Scraper).
 http://arma.sourceforge.net/

 Q-Chem begins on Thu Feb 22 04:37:59 2024  

 Host: 
0

     Scratch files written to /expanse/lustre/scratch/selhajj/temp_project/qcscratch/28869733/qchem2787559//
 May1621 |scratch|qcdevops|jenkins|workspace|build_RNUM    
 Processing $rem in /cm/shared/apps/spack/cpu/opt/spack/linux-centos8-zen2/gcc-10.2.0/qchem-5.4-akfmr7b3t57bfs6qan3padb2wnb2i7cl/config/preferences:
 Processing $rem in /home/selhajj/.qchemrc:

 Checking the input file for inconsistencies... 
 Q-Chem warning in module libgen/CheckREMs.C, line 172:

 Found a $solvent section, which is only used for PCM and Kirkwood-Onsager solvation models

	...done.

--------------------------------------------------------------
User input:
--------------------------------------------------------------
$molecule
-2 1
N                  3.5689980000     -1.2731360000      0.1794480000
C                  2.8734700000     -0.0750900000     -0.0634140000
C                  3.5709850000      1.0962260000     -0.3306590000
C                  2.8801310000      2.3248670000     -0.5056500000
C                  1.5106320000      2.3680390000     -0.4024270000
C                  0.7464550000      1.1923590000     -0.1459980000
C                 -0.6859860000      1.3175880000     -0.0801630000
O                 -1.2606510000      2.4827610000     -0.2427330000
C                 -1.4215200000      0.0984470000      0.1462620000
C                 -2.8641390000      0.0963340000      0.2318540000
N                 -3.5455630000      1.3266360000      0.2447210000
C                 -3.5704590000     -1.0950210000      0.3399570000
C                 -2.8859260000     -2.3380990000      0.4006150000
C                 -1.5128550000     -2.3731250000      0.3621630000
C                 -0.7414810000     -1.1811330000      0.2353100000
C                  0.6912230000     -1.3057440000      0.1743610000
O                  1.2607970000     -2.4826220000      0.2440970000
C                  1.4302460000     -0.0786210000      0.0111350000
H                  2.8878790000     -2.0605290000      0.1632260000
H                  4.3823800000     -1.3848800000     -0.4114530000
H                  4.6597640000      1.0654670000     -0.3569590000
H                  3.4461040000      3.2336760000     -0.7079870000
H                  0.9552060000      3.2916480000     -0.5183050000
H                 -4.4197720000      1.2997400000     -0.2635120000
H                 -2.8811820000      2.0761560000     -0.0399430000
H                 -4.6559800000     -1.0568490000      0.4251330000
H                 -3.4580320000     -3.2608880000      0.4920100000
H                 -0.9607260000     -3.3042090000      0.4189160000
$end
$rem
MAX_SCF_CYCLES=200
BASIS  =  6-311++G(d,p)
GUI  =  2
JOB_TYPE  =  SP
METHOD  =  B3LYP
SOLVENT_METHOD = COSMO
$end
$solvent
dielectric 37.219
opticaldielectric 1.43
$end





--------------------------------------------------------------
 ----------------------------------------------------------------
             Standard Nuclear Orientation (Angstroms)
    I     Atom           X                Y                Z
 ----------------------------------------------------------------
    1      N       3.2688209481    -1.9130437258     0.1780530102
    2      C       2.8129140501    -0.5888250915     0.0490209329
    3      C       3.7218967361     0.4586619231    -0.0312888925
    4      C       3.2707335390     1.8042399282    -0.0890072437
    5      C       1.9258161092     2.0838336220    -0.0562842594
    6      C       0.9514493144     1.0454321465     0.0091183903
    7      C      -0.4381387643     1.4208553073     0.0116063695
    8      O      -0.7872176757     2.6818999312    -0.0353761504
    9      C      -1.3896613285     0.3381846635     0.0434247691
   10      C      -2.8129046842     0.5888378421     0.0490255541
   11      N      -3.2688272063     1.9130783112     0.1781343164
   12      C      -3.7218991762    -0.4586243223    -0.0313047928
   13      C      -3.2707467516    -1.8042247179    -0.0890005494
   14      C      -1.9258376735    -2.0838360766    -0.0563446491
   15      C      -0.9514346563    -1.0454638802     0.0090495504
   16      C       0.4381470662    -1.4208837745     0.0114935118
   17      O       0.7872608943    -2.6819372228    -0.0352313616
   18      C       1.3896709717    -0.3381981163     0.0434716546
   19      H       2.4643276162    -2.5564420414     0.0263853859
   20      H       4.0929533262    -2.1033152381    -0.3767835119
   21      H       4.7875061378     0.2335539042    -0.0016156782
   22      H       3.9999485681     2.6118972446    -0.1449947197
   23      H       1.5500371174     3.1001401660    -0.0861254250
   24      H      -4.0930964798     2.1032914027    -0.3765409917
   25      H      -2.4644426608     2.5565540193     0.0260802063
   26      H      -4.7875038132    -0.2335261825    -0.0015477926
   27      H      -3.9999667039    -2.6118757116    -0.1450004896
   28      H      -1.5500935616    -3.1001580498    -0.0861902492
 ----------------------------------------------------------------
 Molecular Point Group                 C1    NOp =  1
 Largest Abelian Subgroup              C1    NOp =  1
 Nuclear Repulsion Energy =        1229.62299580 hartrees
 There are       63 alpha and       63 beta electrons
 Requested basis set is 6-311++G(d,p)
 There are 158 shells and 466 basis functions

 Total QAlloc Memory Limit   8000 MB
 Mega-Array Size       188 MB
 MEM_STATIC part       192 MB
 A cutoff of  1.0D-08 yielded   8810 shell pairs
 There are     80182 function pairs (     85847 Cartesian)
 Smallest overlap matrix eigenvalue = 5.97E-08

 Q-Chem warning in module stvman/mkSTV.C, line 323:

 Overlap eigenvalue is smaller than square root of threshold
 Use THRESH >= 12 to get rid of this warning

 Linear dependence detected in AO basis
 Tighter screening thresholds may be required for diffuse basis sets
 Use S2THRESH > 14 and THRESH = 14 in case of SCF convergence issues
 Number of orthogonalized atomic orbitals = 458
 Maximum deviation from orthogonality = 1.087E-10

 Scale SEOQF with 1.000000e-01/1.000000e-01/1.000000e-01

 Standard Electronic Orientation quadrupole field applied
 Nucleus-field energy     =     0.0000000525 hartrees
 Guess from superposition of atomic densities
 Warning:  Energy on first SCF cycle will be non-variational
 SAD guess density has 124.000000 electrons

 -----------------------------------------------------------------------
  General SCF calculation program by
  Eric Jon Sundstrom, Paul Horn, Yuezhi Mao, Dmitri Zuev, Alec White,
  David Stuck, Shaama M.S., Shane Yost, Joonho Lee, David Small,
  Daniel Levine, Susi Lehtola, Hugh Burton, Evgeny Epifanovsky,
  Bang C. Huynh
 -----------------------------------------------------------------------
 Exchange:     0.2000 Hartree-Fock + 0.0800 Slater + 0.7200 B88
 Correlation:  0.1900 VWN1RPA + 0.8100 LYP
 Using SG-1 standard quadrature grid
 using 8 threads for integral computing
 -------------------------------------------------------
 OpenMP Integral computing Module                
 Release: version 1.0, May 2013, Q-Chem Inc. Pittsburgh 
 -------------------------------------------------------
 A restricted SCF calculation will be
 performed using DIIS
 SCF converges when DIIS error is below 1.0e-05
 ---------------------------------------
  Cycle       Energy         DIIS error
 ---------------------------------------
    1    -803.9449300679      3.10e-02  
    2    -799.2044106880      4.23e-03  
    3    -790.5793572693      1.29e-02  
    4    -799.1542923358      4.31e-03  
    5    -799.6328743795      1.30e-03  
    6    -799.6659965774      9.24e-04  
    7    -799.6857966942      3.89e-04  
    8    -799.6891568330      9.80e-05  
    9    -799.6893465309      3.61e-05  
   10    -799.6893809534      1.08e-05  
   11    -799.6893873537      4.93e-06  Convergence criterion met
 ---------------------------------------
 SCF time:   CPU 365.78s  wall 54.00s 
 SCF   energy in the final basis set =     -799.6893873537
 Total energy in the final basis set =     -799.6893873537

 Q-Chem warning in module 0, line  198:

 OriOrb: Failure to resolve orbital degeneracies.


 Q-Chem warning in module 0, line  198:

 OriOrb: Failure to resolve orbital degeneracies.

 Exchange:     0.2000 Hartree-Fock + 0.0800 Slater + 0.7200 B88
 Correlation:  0.1900 VWN1RPA + 0.8100 LYP
 Using SG-1 standard quadrature grid
 in get_qchem_info
 IBasis=      401111
 IBasis=      401111
 USING 1082 GRID
 MICHARGE=          -2
 Set epsilon to    37.2190017700195     
==== cosmo data ====
outfile: 167-an-COSMO.out.cosmo.0
phsran:    0.00000D+00
ampran:    0.10000D-04
volume:   1790.6181770
area:    872.0310100
routf:      0.8500000
rsolv [a.u]:      2.4566438
disex:     10.0000000
disex2:   4595.6550863
fepsi:      0.9731320
eps :    37.2190018
lcavity:     1
nppa:  1082
nspa:    92
nsph:    32
maxnps:  1976
natoms:    28
Atom   Radius [a.u.] nuc. charge
    1      3.4581986    7
    2      3.7794520    6
    3      3.7794520    6
    4      3.7794520    6
    5      3.7794520    6
    6      3.7794520    6
    7      3.7794520    6
    8      3.2503287    8
    9      3.7794520    6
   10      3.7794520    6
   11      3.4581986    7
   12      3.7794520    6
   13      3.7794520    6
   14      3.7794520    6
   15      3.7794520    6
   16      3.7794520    6
   17      3.2503287    8
   18      3.7794520    6
   19      2.4566438    1
   20      2.4566438    1
   21      2.4566438    1
   22      2.4566438    1
   23      2.4566438    1
   24      2.4566438    1
   25      2.4566438    1
   26      2.4566438    1
   27      2.4566438    1
   28      2.4566438    1
=== end cosmo data ===
 number of segments:         1072
 f_epsilon=  0.973132003749614     
Ediel:   -0.2585173
 A restricted SCF calculation will be
 performed using Roothaan-Hall, DIIS
 SCF converges when DIIS error is below 1.0e-05
 ---------------------------------------
  Cycle       Energy         DIIS error
 ---------------------------------------
 number of segments:         1072
 f_epsilon=  0.973132003749614     
Ediel:   -0.2981935
    1    -799.9479015389      3.84e-04  Roothaan Step
 ---------------------------------------
  Cycle       Energy         DIIS error
 ---------------------------------------
 number of segments:         1072
 f_epsilon=  0.973132003749614     
Ediel:   -0.2794256
    1    -799.9580231957      3.73e-04  
 number of segments:         1072
 f_epsilon=  0.973132003749614     
Ediel:   -0.2903642
    2    -799.9518709022      6.13e-04  
 number of segments:         1072
 f_epsilon=  0.973132003749614     
Ediel:   -0.2908989
    3    -799.9622579284      7.32e-05  
 number of segments:         1072
 f_epsilon=  0.973132003749614     
Ediel:   -0.2910630
    4    -799.9623973117      1.45e-05  
    5    -799.9624054771      9.70e-06  Convergence criterion met
 ---------------------------------------
 SCF time:   CPU 214.90s  wall 33.00s 
before final oc correction, ETot:      -799.9624054771
 number of outlayer segments:          462
SCF energy after oc correction:      -799.9769283733
 SCF   energy in the final basis set =     -799.9769283733
 Total energy in the final basis set =     -799.9624054771

 Q-Chem warning in module 0, line  198:

 OriOrb: Failure to resolve orbital degeneracies.


 Q-Chem warning in module 0, line  198:

 OriOrb: Failure to resolve orbital degeneracies.

 
 --------------------------------------------------------------
 
                    Orbital Energies (a.u.)
 --------------------------------------------------------------
 
 Alpha MOs
 -- Occupied --
-19.0324 -19.0323 -14.2788 -14.2788 -10.1904 -10.1904 -10.1829 -10.1829
-10.1485 -10.1485 -10.1457 -10.1457 -10.1401 -10.1401 -10.1379 -10.1378
-10.1360 -10.1360  -0.9511  -0.9476  -0.8834  -0.8817  -0.8169  -0.8018
 -0.7539  -0.7092  -0.7069  -0.6981  -0.6397  -0.6062  -0.5990  -0.5512
 -0.5272  -0.5258  -0.4980  -0.4761  -0.4661  -0.4498  -0.4439  -0.4275
 -0.4266  -0.4042  -0.4037  -0.3905  -0.3812  -0.3701  -0.3622  -0.3586
 -0.3494  -0.3351  -0.3306  -0.3270  -0.3196  -0.3101  -0.2871  -0.2786
 -0.2339  -0.2189  -0.2159  -0.2081  -0.1956  -0.1889  -0.1129
 -- Virtual --
 -0.0188  -0.0008   0.0028   0.0100   0.0144   0.0252   0.0264   0.0281
  0.0447   0.0457   0.0480   0.0495   0.0600   0.0696   0.0703   0.0717
  0.0758   0.0788   0.0879   0.0912   0.0970   0.1042   0.1048   0.1143
  0.1149   0.1224   0.1258   0.1259   0.1300   0.1330   0.1372   0.1387
  0.1405   0.1424   0.1496   0.1503   0.1591   0.1636   0.1665   0.1688
  0.1766   0.1786   0.1792   0.1794   0.1832   0.1939   0.1941   0.1981
  0.2037   0.2059   0.2117   0.2169   0.2172   0.2243   0.2319   0.2358
  0.2378   0.2424   0.2446   0.2495   0.2564   0.2569   0.2572   0.2597
  0.2637   0.2654   0.2716   0.2747   0.2827   0.2835   0.2882   0.2896
  0.2970   0.3005   0.3042   0.3055   0.3125   0.3148   0.3181   0.3212
  0.3244   0.3320   0.3360   0.3417   0.3442   0.3460   0.3472   0.3537
  0.3570   0.3635   0.3678   0.3758   0.3791   0.3895   0.3973   0.3988
  0.4129   0.4256   0.4299   0.4426   0.4584   0.4779   0.4849   0.4950
  0.5106   0.5260   0.5332   0.5509   0.5626   0.5644   0.5688   0.5774
  0.5785   0.5861   0.5915   0.5960   0.6143   0.6153   0.6207   0.6227
  0.6298   0.6346   0.6440   0.6489   0.6545   0.6637   0.6641   0.6701
  0.6714   0.6806   0.6884   0.6927   0.6957   0.7027   0.7051   0.7252
  0.7463   0.7535   0.7678   0.7806   0.7816   0.7927   0.7936   0.8016
  0.8092   0.8132   0.8316   0.8397   0.8435   0.8538   0.8681   0.8688
  0.8738   0.8761   0.8916   0.8950   0.9015   0.9183   0.9221   0.9253
  0.9328   0.9428   0.9517   0.9668   0.9678   0.9719   0.9802   0.9819
  1.0023   1.0052   1.0099   1.0238   1.0311   1.0446   1.0585   1.0643
  1.0760   1.0831   1.0867   1.0933   1.1267   1.1366   1.1377   1.1452
  1.1732   1.1799   1.1926   1.2033   1.2165   1.2434   1.2473   1.2604
  1.2708   1.2952   1.2963   1.3224   1.3254   1.3448   1.3742   1.3910
  1.3910   1.4315   1.4653   1.4907   1.4913   1.5082   1.5150   1.5227
  1.5307   1.5370   1.5412   1.5471   1.5711   1.5743   1.5870   1.5957
  1.5958   1.6223   1.6315   1.6339   1.6466   1.6595   1.6642   1.6780
  1.6963   1.7079   1.7207   1.7361   1.7506   1.7645   1.7664   1.7670
  1.7740   1.7835   1.8093   1.8448   1.8675   1.8688   1.8835   1.9071
  1.9137   1.9188   1.9309   1.9431   1.9436   1.9580   1.9675   1.9761
  1.9776   1.9929   2.0005   2.0063   2.0153   2.0204   2.0350   2.0356
  2.0450   2.0469   2.0683   2.1058   2.1095   2.1328   2.1369   2.1716
  2.1942   2.2050   2.2183   2.2370   2.2823   2.2873   2.3322   2.3340
  2.3532   2.3843   2.4075   2.4086   2.4283   2.4407   2.4761   2.5016
  2.5234   2.5525   2.5859   2.5869   2.6083   2.6174   2.6563   2.6594
  2.6829   2.6913   2.6935   2.7181   2.7371   2.7477   2.7485   2.7540
  2.7566   2.7707   2.7843   2.8037   2.8052   2.8100   2.8188   2.8239
  2.8317   2.8362   2.8549   2.8601   2.8685   2.8805   2.8929   2.9143
  2.9301   2.9335   2.9356   2.9641   2.9683   3.0002   3.0153   3.0595
  3.0694   3.0733   3.1072   3.1160   3.1298   3.1338   3.1462   3.2026
  3.2272   3.2384   3.2410   3.2614   3.2858   3.3203   3.3274   3.3411
  3.3647   3.4146   3.4166   3.4360   3.4563   3.4638   3.5041   3.5087
  3.5206   3.5549   3.5767   3.5982   3.6071   3.6759   3.7837   3.8307
  3.8602   3.9382   4.0062   4.0724   4.0791   4.0904   4.1009   4.1730
  4.1877   4.3274   4.3447   4.5206   4.8102   4.8289   4.8556   4.8747
  4.8768   5.0243   5.0269   5.1286   5.1447   5.3801   5.3841   5.7931
  5.8594  23.5460  23.7377  23.8895  23.8897  23.9390  23.9535  23.9850
 23.9962  24.0064  24.0538  24.1133  24.1172  24.2095  24.2113  35.6798
 35.6873  50.0928  50.1484
 --------------------------------------------------------------
 
          Ground-State Mulliken Net Atomic Charges

     Atom                 Charge (a.u.)
  ----------------------------------------
      1 N                    -0.497032
      2 C                     0.022174
      3 C                    -0.285327
      4 C                    -0.457290
      5 C                    -0.339479
      6 C                     0.443593
      7 C                    -0.591833
      8 O                    -0.673415
      9 C                     0.295854
     10 C                     0.021914
     11 N                    -0.496221
     12 C                    -0.284655
     13 C                    -0.456920
     14 C                    -0.339278
     15 C                     0.444261
     16 C                    -0.593288
     17 O                    -0.672592
     18 C                     0.298628
     19 H                     0.322005
     20 H                     0.263306
     21 H                     0.162713
     22 H                     0.180184
     23 H                     0.152392
     24 H                     0.263229
     25 H                     0.321845
     26 H                     0.162678
     27 H                     0.180192
     28 H                     0.152361
  ----------------------------------------
  Sum of atomic charges =    -2.000000

 -----------------------------------------------------------------
                    Cartesian Multipole Moments
 -----------------------------------------------------------------
    Charge (ESU x 10^10)
                -9.6064
    Dipole Moment (Debye)
         X       0.0006      Y      -0.0020      Z      -2.5161
       Tot       2.5161
    Quadrupole Moments (Debye-Ang)
        XX    -132.5986     XY       6.0143     YY    -161.2195
        XZ      -0.0082     YZ       0.0014     ZZ    -120.5075
    Octopole Moments (Debye-Ang^2)
       XXX      -0.0055    XXY       0.0151    XYY       0.0056
       YYY      -0.0181    XXZ     -42.6018    XYZ      23.2128
       YYZ     -13.3703    XZZ       0.0013    YZZ      -0.0010
       ZZZ      -2.6527
    Hexadecapole Moments (Debye-Ang^3)
      XXXX   -3972.2000   XXXY     -96.3543   XXYY   -1016.8638
      XYYY      47.6590   YYYY   -2329.9766   XXXZ      -0.1203
      XXYZ       0.0496   XYYZ      -0.0211   YYYZ      -0.0106
      XXZZ    -801.1714   XYZZ     -20.4313   YYZZ    -393.7807
      XZZZ      -0.0168   YZZZ       0.0007   ZZZZ    -160.0318
 -----------------------------------------------------------------
 Total job time:  113.66s(wall), 698.93s(cpu) 
 Thu Feb 22 04:39:53 2024

        *************************************************************
        *                                                           *
        *  Thank you very much for using Q-Chem.  Have a nice day.  *
        *                                                           *
        *************************************************************


