
Running Job 1 of 1 034-an-COSMO.in
qchem 034-an-COSMO.in_3863788.0 /expanse/lustre/scratch/selhajj/temp_project/qcscratch/28868510/qchem3863788/ 0
/cm/shared/apps/spack/cpu/opt/spack/linux-centos8-zen2/gcc-10.2.0/qchem-5.4-akfmr7b3t57bfs6qan3padb2wnb2i7cl/exe/qcprog.exe_s 034-an-COSMO.in_3863788.0 /expanse/lustre/scratch/selhajj/temp_project/qcscratch/28868510/qchem3863788/
                  Welcome to Q-Chem
     A Quantum Leap Into The Future Of Chemistry


 Q-Chem 5.4, Q-Chem, Inc., Pleasanton, CA (2021)

 License issued to: University of California, San Diego (site)

 E. Epifanovsky,  A. T. B. Gilbert,  Xintian Feng,  Joonho Lee,  Yuezhi Mao,  
 N. Mardirossian,  P. Pokhilko,  A. White,  M. Wormit,  M. P. Coons,  
 A. L. Dempwolff,  Zhengting Gan,  D. Hait,  P. R. Horn,  L. D. Jacobson,  
 I. Kaliman,  J. Kussmann,  A. W. Lange,  Ka Un Lao,  D. S. Levine,  Jie Liu,  
 S. C. McKenzie,  A. F. Morrison,  K. Nanda,  F. Plasser,  D. R. Rehn,  
 M. L. Vidal,  Zhi-Qiang You,  Ying Zhu,  B. Alam,  B. Albrecht,  
 A. Aldossary,  E. Alguire,  J. H. Andersen,  D. Barton,  K. Begam,  A. Behn,  
 Y. A. Bernard,  E. J. Berquist,  H. Burton,  A. Carreras,  K. Carter-Fenk,  
 R. Chakraborty,  A. D. Chien,  K. D. Closser,  V. Cofer-Shabica,  
 S. Dasgupta,  Jia Deng,  M. de Wergifosse,  M. Diedenhofen,  Hainam Do,  
 S. Ehlert,  Po-Tung Fang,  S. Fatehi,  Qingguo Feng,  J. Gayvert,  
 Qinghui Ge,  G. Gidofalvi,  M. Goldey,  J. Gomes,  C. Gonzalez-Espinoza,  
 S. Gulania,  A. Gunina,  M. W. D. Hanson-Heine,  P. H. P. Harbach,  
 A. W. Hauser,  M. F. Herbst,  M. Hernandez Vera,  M. Hodecker,  
 Z. C. Holden,  S. Houck,  Xunkun Huang,  Kerwin Hui,  B. C. Huynh,  
 M. Ivanov,  Hyunjun Ji,  Hanjie Jiang,  B. Kaduk,  S. Kaehler,  
 K. Khistyaev,  Jaehoon Kim,  P. Klunzinger,  Z. Koczor-Benda,  
 Joong Hoon Koh,  D. Kosenkov,  L. Koulias,  T. Kowalczyk,  C. M. Krauter,  
 K. Kue,  A. Kunitsa,  T. Kus,  A. Landau,  K. V. Lawler,  D. Lefrancois,  
 S. Lehtola,  Rain Li,  Yi-Pei Li,  Jiashu Liang,  M. Liebenthal,  
 Hung-Hsuan Lin,  You-Sheng Lin,  Fenglai Liu,  Kuan-Yu Liu,  
 M. Loipersberger,  A. Luenser,  A. Manjanath,  P. Manohar,  E. Mansoor,  
 S. F. Manzer,  Shan-Ping Mao,  A. V. Marenich,  T. Markovich,  S. Mason,  
 S. A. Maurer,  P. F. McLaughlin,  M. F. S. J. Menger,  J.-M. Mewes,  
 S. A. Mewes,  P. Morgante,  J. W. Mullinax,  T. S. Nguyen-Beck,  
 K. J. Oosterbaan,  G. Paran,  Alexander C. Paul,  Suranjan K. Paul,  
 F. Pavosevic,  Zheng Pei,  S. Prager,  E. I. Proynov,  E. Ramos,  B. Rana,  
 A. E. Rask,  A. Rettig,  R. M. Richard,  F. Rob,  E. Rossomme,  T. Scheele,  
 M. Scheurer,  M. Schneider,  N. Sergueev,  S. M. Sharada,  W. Skomorowski,  
 D. W. Small,  C. J. Stein,  Yu-Chuan Su,  E. J. Sundstrom,  Zhen Tao,  
 J. Thirman,  T. Tsuchimochi,  N. M. Tubman,  S. P. Veccham,  O. Vydrov,  
 J. Wenzel,  J. Witte,  A. Yamada,  Kun Yao,  S. Yeganeh,  S. R. Yost,  
 A. Zech,  Igor Ying Zhang,  Xing Zhang,  Yu Zhang,  D. Zuev,  
 A. Aspuru-Guzik,  A. T. Bell,  N. A. Besley,  K. B. Bravaya,  B. R. Brooks,  
 D. Casanova,  Jeng-Da Chai,  S. Coriani,  C. J. Cramer,  
 A. E. DePrince, III,  R. A. DiStasio Jr.,  A. Dreuw,  B. D. Dunietz,  
 T. R. Furlani,  W. A. Goddard III,  S. Grimme,  S. Hammes-Schiffer,  
 T. Head-Gordon,  W. J. Hehre,  Chao-Ping Hsu,  T.-C. Jagau,  Yousung Jung,  
 A. Klamt,  Jing Kong,  D. S. Lambrecht,  WanZhen Liang,  N. J. Mayhall,  
 C. W. McCurdy,  J. B. Neaton,  C. Ochsenfeld,  J. A. Parkhill,  R. Peverati,  
 V. A. Rassolov,  Yihan Shao,  L. V. Slipchenko,  T. Stauch,  R. P. Steele,  
 J. E. Subotnik,  A. J. W. Thom,  A. Tkatchenko,  D. G. Truhlar,  
 T. Van Voorhis,  T. A. Wesolowski,  K. B. Whaley,  H. L. Woodcock III,  
 P. M. Zimmerman,  S. Faraji,  P. M. W. Gill,  M. Head-Gordon,  
 J. M. Herbert,  A. I. Krylov

 Contributors to earlier versions of Q-Chem not listed above: 
 R. D. Adamson,  B. Austin,  R. Baer,  J. Baker,  G. J. O. Beran,  
 K. Brandhorst,  S. T. Brown,  E. F. C. Byrd,  A. K. Chakraborty,  
 G. K. L. Chan,  Chun-Min Chang,  Yunqing Chen,  C.-L. Cheng,  
 Siu Hung Chien,  D. M. Chipman,  D. L. Crittenden,  H. Dachsel,  
 R. J. Doerksen,  A. D. Dutoi,  R. G. Edgar,  J. Fosso-Tande,  
 L. Fusti-Molnar,  D. Ghosh,  A. Ghysels,  A. Golubeva-Zadorozhnaya,  
 J. Gonthier,  M. S. Gordon,  S. R. Gwaltney,  G. Hawkins,  J. E. Herr,  
 A. Heyden,  S. Hirata,  E. G. Hohenstein,  G. Kedziora,  F. J. Keil,  
 C. Kelley,  Jihan Kim,  R. A. King,  R. Z. Khaliullin,  P. P. Korambath,  
 W. Kurlancheek,  A. Laurent,  A. M. Lee,  M. S. Lee,  S. V. Levchenko,  
 Ching Yeh Lin,  D. Liotard,  E. Livshits,  R. C. Lochan,  I. Lotan,  
 L. A. Martinez-Martinez,  P. E. Maslen,  N. Nair,  D. P. O'Neill,  
 D. Neuhauser,  E. Neuscamman,  C. M. Oana,  R. Olivares-Amaya,  R. Olson,  
 T. M. Perrine,  B. Peters,  P. A. Pieniazek,  A. Prociuk,  Y. M. Rhee,  
 J. Ritchie,  M. A. Rohrdanz,  E. Rosta,  N. J. Russ,  H. F. Schaefer III,  
 M. W. Schmidt,  N. E. Schultz,  S. Sharma,  N. Shenvi,  C. D. Sherrill,  
 A. C. Simmonett,  A. Sodt,  T. Stein,  D. Stuck,  K. S. Thanthiriwatte,  
 V. Vanovschi,  L. Vogt,  Tao Wang,  A. Warshel,  M. A. Watson,  
 C. F. Williams,  Q. Wu,  X. Xu,  Jun Yang,  W. Zhang,  Yan Zhao

 Please cite Q-Chem as follows:
 Y. Shao et al., Mol. Phys. 113, 184-215 (2015)
 DOI: 10.1080/00268976.2014.952696

 Q-Chem 5.4.0 for Intel X86 EM64T Linux

 Parts of Q-Chem use Armadillo 9.800.1 (Horizon Scraper).
 http://arma.sourceforge.net/

 Q-Chem begins on Thu Feb 22 02:56:57 2024  

 Host: 
0

     Scratch files written to /expanse/lustre/scratch/selhajj/temp_project/qcscratch/28868510/qchem3863788//
 May1621 |scratch|qcdevops|jenkins|workspace|build_RNUM    
 Processing $rem in /cm/shared/apps/spack/cpu/opt/spack/linux-centos8-zen2/gcc-10.2.0/qchem-5.4-akfmr7b3t57bfs6qan3padb2wnb2i7cl/config/preferences:
 Processing $rem in /home/selhajj/.qchemrc:

 Checking the input file for inconsistencies... 
 Q-Chem warning in module libgen/CheckREMs.C, line 172:

 Found a $solvent section, which is only used for PCM and Kirkwood-Onsager solvation models

	...done.

--------------------------------------------------------------
User input:
--------------------------------------------------------------
$molecule
-2 1
C                 -2.4751200000      1.4057120000      0.3137840000
C                 -1.9653920000     -0.0451810000      0.4353040000
C                 -2.7594190000     -0.9744620000     -0.5073690000
C                 -0.4618800000     -0.1564750000      0.2137230000
C                  0.3392710000     -0.6780360000      1.2342850000
C                  1.7614640000     -0.8283270000      1.1693350000
O                  2.4782020000     -1.3135050000      2.1363310000
C                  2.3422310000     -0.3814380000     -0.0713940000
C                  1.5495990000      0.1360770000     -1.0947750000
C                  0.1240320000      0.2758140000     -1.0361150000
O                 -0.5699040000      0.7493980000     -2.0270350000
C                  3.8364970000     -0.5037340000     -0.2272340000
H                 -2.2404190000      1.7836750000     -0.6846720000
H                 -3.5584340000      1.4683640000      0.4834740000
H                 -1.9771640000      2.0461780000      1.0518430000
H                 -2.1618850000     -0.3790440000      1.4647780000
H                 -2.5783860000     -0.6765680000     -1.5432030000
H                 -2.4292640000     -2.0119570000     -0.3854090000
H                 -3.8410410000     -0.9349290000     -0.2987110000
H                 -0.1328400000     -1.0008870000      2.1639060000
H                  2.0199860000      0.4665590000     -2.0230060000
H                  4.3665040000      0.0173050000      0.5827470000
H                  4.1685360000     -0.0934350000     -1.1896440000
H                  4.1648250000     -1.5519950000     -0.1609440000
$end
$rem
MAX_SCF_CYCLES=200
BASIS  =  6-311++G(d,p)
GUI  =  2
JOB_TYPE  =  SP
METHOD  =  B3LYP
SOLVENT_METHOD = COSMO
$end
$solvent
dielectric 37.219
opticaldielectric 1.43
$end





--------------------------------------------------------------
 ----------------------------------------------------------------
             Standard Nuclear Orientation (Angstroms)
    I     Atom           X                Y                Z
 ----------------------------------------------------------------
    1      C      -2.9245861311    -0.2361197412     1.2599063621
    2      C      -2.1523187828    -0.7726026498     0.0370124692
    3      C      -2.8970535434    -0.4166555372    -1.2673441645
    4      C      -0.7017604383    -0.3064700434     0.0118388564
    5      C       0.3197743661    -1.2613444168     0.0216964253
    6      C       1.7210166971    -0.9682755798     0.0133655699
    7      O       2.6461055459    -1.8783495742     0.0263371865
    8      C       2.0253976315     0.4401131057    -0.0008504573
    9      C       1.0124620367     1.3978024163    -0.0145835856
   10      C      -0.3911014992     1.1059104084    -0.0187251788
   11      O      -1.2954287360     2.0381207955    -0.0491795126
   12      C       3.4785170130     0.8406216919    -0.0113495799
   13      H      -2.9093125470     0.8566857266     1.2399589300
   14      H      -3.9651558895    -0.5874988551     1.2659469018
   15      H      -2.4463760790    -0.5717374776     2.1881109966
   16      H      -2.1337405005    -1.8697297897     0.1135474608
   17      H      -2.9251960583     0.6699793945    -1.3809152085
   18      H      -2.3731208513    -0.8391139379    -2.1318069308
   19      H      -3.9261683799    -0.8115348859    -1.2669931223
   20      H       0.0536059748    -2.3197214154     0.0392829133
   21      H       1.2757961175     2.4573518664    -0.0248401024
   22      H       4.0196950101     0.4025747493     0.8393557342
   23      H       3.5880124279     1.9322552792     0.0229292783
   24      H       3.9944621991     0.4644416505    -0.9076385429
 ----------------------------------------------------------------
 Molecular Point Group                 C1    NOp =  1
 Largest Abelian Subgroup              C1    NOp =  1
 Nuclear Repulsion Energy =         676.89412806 hartrees
 There are       45 alpha and       45 beta electrons
 Requested basis set is 6-311++G(d,p)
 There are 132 shells and 348 basis functions

 Total QAlloc Memory Limit   8000 MB
 Mega-Array Size       188 MB
 MEM_STATIC part       192 MB
 A cutoff of  1.0D-08 yielded   6820 shell pairs
 There are     48587 function pairs (     51828 Cartesian)
 Smallest overlap matrix eigenvalue = 8.49E-07

 Q-Chem warning in module stvman/mkSTV.C, line 323:

 Overlap eigenvalue is smaller than square root of threshold
 Use THRESH >= 12 to get rid of this warning

 Linear dependence detected in AO basis
 Tighter screening thresholds may be required for diffuse basis sets
 Use S2THRESH > 14 and THRESH = 14 in case of SCF convergence issues
 Number of orthogonalized atomic orbitals = 347
 Maximum deviation from orthogonality = 1.642E-10

 Scale SEOQF with 1.000000e-01/1.000000e-01/1.000000e-01

 Standard Electronic Orientation quadrupole field applied
 Nucleus-field energy     =     0.0000000208 hartrees
 Guess from superposition of atomic densities
 Warning:  Energy on first SCF cycle will be non-variational
 SAD guess density has 88.000000 electrons

 -----------------------------------------------------------------------
  General SCF calculation program by
  Eric Jon Sundstrom, Paul Horn, Yuezhi Mao, Dmitri Zuev, Alec White,
  David Stuck, Shaama M.S., Shane Yost, Joonho Lee, David Small,
  Daniel Levine, Susi Lehtola, Hugh Burton, Evgeny Epifanovsky,
  Bang C. Huynh
 -----------------------------------------------------------------------
 Exchange:     0.2000 Hartree-Fock + 0.0800 Slater + 0.7200 B88
 Correlation:  0.1900 VWN1RPA + 0.8100 LYP
 Using SG-1 standard quadrature grid
 using 8 threads for integral computing
 -------------------------------------------------------
 OpenMP Integral computing Module                
 Release: version 1.0, May 2013, Q-Chem Inc. Pittsburgh 
 -------------------------------------------------------
 A restricted SCF calculation will be
 performed using DIIS
 SCF converges when DIIS error is below 1.0e-05
 ---------------------------------------
  Cycle       Energy         DIIS error
 ---------------------------------------
    1    -541.0500281813      3.27e-02  
    2    -538.3467208502      5.52e-03  
    3    -529.0936591061      1.69e-02  
    4    -538.5183344363      4.55e-03  
    5    -538.7884306298      1.41e-03  
    6    -538.8223194750      9.93e-04  
    7    -538.8314680764      6.15e-04  
    8    -538.8375051697      1.94e-04  
    9    -538.8362435337      3.35e-04  
   10    -538.8388248928      1.11e-04  
   11    -538.8384798611      1.43e-04  
   12    -538.8390702499      2.83e-05  
   13    -538.8390898770      1.12e-05  
   14    -538.8390935545      4.95e-06  Convergence criterion met
 ---------------------------------------
 SCF time:   CPU 200.40s  wall 25.00s 
 SCF   energy in the final basis set =     -538.8390935545
 Total energy in the final basis set =     -538.8390935545
 Exchange:     0.2000 Hartree-Fock + 0.0800 Slater + 0.7200 B88
 Correlation:  0.1900 VWN1RPA + 0.8100 LYP
 Using SG-1 standard quadrature grid
 in get_qchem_info
 IBasis=      401111
 IBasis=      401111
 USING 1082 GRID
 MICHARGE=          -2
 Set epsilon to    37.2190017700195     
==== cosmo data ====
outfile: 034-an-COSMO.out.cosmo.0
phsran:    0.00000D+00
ampran:    0.10000D-04
volume:   1438.3149316
area:    729.4561668
routf:      0.8500000
rsolv [a.u]:      2.4566438
disex:     10.0000000
disex2:   4088.6818460
fepsi:      0.9731320
eps :    37.2190018
lcavity:     1
nppa:  1082
nspa:    92
nsph:    32
maxnps:  1488
natoms:    24
Atom   Radius [a.u.] nuc. charge
    1      3.7794520    6
    2      3.7794520    6
    3      3.7794520    6
    4      3.7794520    6
    5      3.7794520    6
    6      3.7794520    6
    7      3.2503287    8
    8      3.7794520    6
    9      3.7794520    6
   10      3.7794520    6
   11      3.2503287    8
   12      3.7794520    6
   13      2.4566438    1
   14      2.4566438    1
   15      2.4566438    1
   16      2.4566438    1
   17      2.4566438    1
   18      2.4566438    1
   19      2.4566438    1
   20      2.4566438    1
   21      2.4566438    1
   22      2.4566438    1
   23      2.4566438    1
   24      2.4566438    1
=== end cosmo data ===
 number of segments:          915
 f_epsilon=  0.973132003749614     
Ediel:   -0.2515534
 A restricted SCF calculation will be
 performed using Roothaan-Hall, DIIS
 SCF converges when DIIS error is below 1.0e-05
 ---------------------------------------
  Cycle       Energy         DIIS error
 ---------------------------------------
 number of segments:          915
 f_epsilon=  0.973132003749614     
Ediel:   -0.3190834
    1    -539.0906455197      5.56e-04  Roothaan Step
 ---------------------------------------
  Cycle       Energy         DIIS error
 ---------------------------------------
 number of segments:          915
 f_epsilon=  0.973132003749614     
Ediel:   -0.3034511
    1    -539.1251152863      6.87e-04  
 number of segments:          915
 f_epsilon=  0.973132003749614     
Ediel:   -0.3121076
    2    -539.1153197634      1.21e-03  
 number of segments:          915
 f_epsilon=  0.973132003749614     
Ediel:   -0.3129702
    3    -539.1325827087      1.77e-04  
 number of segments:          915
 f_epsilon=  0.973132003749614     
Ediel:   -0.3132521
    4    -539.1330381235      3.08e-05  
    5    -539.1330508505      8.73e-06  Convergence criterion met
 ---------------------------------------
 SCF time:   CPU 97.29s  wall 13.00s 
before final oc correction, ETot:      -539.1330508505
 number of outlayer segments:          383
SCF energy after oc correction:      -539.1493700844
 SCF   energy in the final basis set =     -539.1493700844
 Total energy in the final basis set =     -539.1330508505
 
 --------------------------------------------------------------
 
                    Orbital Energies (a.u.)
 --------------------------------------------------------------
 
 Alpha MOs
 -- Occupied --
-19.0151 -19.0093 -10.1612 -10.1602 -10.1485 -10.1368 -10.1338 -10.1320
-10.1235 -10.1207 -10.1139 -10.1136  -0.9271  -0.9219  -0.7868  -0.7622
 -0.7115  -0.6587  -0.6561  -0.6250  -0.5587  -0.5470  -0.4897  -0.4478
 -0.4239  -0.4073  -0.4028  -0.3916  -0.3841  -0.3838  -0.3660  -0.3543
 -0.3532  -0.3350  -0.3339  -0.3150  -0.3102  -0.3042  -0.3025  -0.2983
 -0.2205  -0.2005  -0.1946  -0.1870  -0.1129
 -- Virtual --
  0.0030   0.0113   0.0191   0.0219   0.0284   0.0329   0.0369   0.0486
  0.0510   0.0582   0.0589   0.0608   0.0688   0.0723   0.0755   0.0890
  0.0942   0.0969   0.0982   0.1105   0.1134   0.1212   0.1253   0.1284
  0.1295   0.1358   0.1412   0.1450   0.1469   0.1513   0.1556   0.1572
  0.1588   0.1614   0.1640   0.1719   0.1738   0.1761   0.1829   0.1852
  0.1915   0.1959   0.1992   0.2080   0.2086   0.2134   0.2201   0.2261
  0.2277   0.2328   0.2376   0.2544   0.2560   0.2580   0.2668   0.2682
  0.2766   0.2871   0.2879   0.2945   0.2981   0.3058   0.3163   0.3183
  0.3233   0.3279   0.3315   0.3332   0.3407   0.3433   0.3539   0.3603
  0.3652   0.3780   0.3892   0.3929   0.4057   0.4085   0.4258   0.4342
  0.4506   0.4638   0.4689   0.4840   0.4852   0.5033   0.5172   0.5540
  0.5599   0.5671   0.5766   0.5835   0.5963   0.6054   0.6136   0.6157
  0.6254   0.6312   0.6515   0.6590   0.6613   0.6700   0.6790   0.6885
  0.6917   0.6960   0.6997   0.7176   0.7234   0.7281   0.7397   0.7447
  0.7641   0.7680   0.7726   0.7820   0.7982   0.8039   0.8046   0.8348
  0.8423   0.8635   0.9055   0.9151   0.9307   0.9393   0.9617   0.9698
  0.9883   0.9948   1.0045   1.0121   1.0220   1.0321   1.0463   1.0860
  1.1046   1.1091   1.1138   1.1604   1.1687   1.1913   1.2012   1.2464
  1.2553   1.2600   1.2754   1.2798   1.3085   1.3248   1.3273   1.3586
  1.3872   1.4123   1.4482   1.4809   1.4838   1.4888   1.5182   1.5209
  1.5349   1.5634   1.5720   1.5910   1.5960   1.6021   1.6066   1.6191
  1.6225   1.6333   1.6482   1.6627   1.6718   1.6815   1.6867   1.7014
  1.7339   1.7439   1.7656   1.7686   1.7813   1.7849   1.8045   1.8350
  1.8414   1.8742   1.8832   1.8964   1.9134   1.9255   1.9326   1.9657
  1.9861   1.9923   2.0320   2.0385   2.0614   2.0739   2.0800   2.0922
  2.1424   2.1484   2.1635   2.1678   2.1912   2.2198   2.2418   2.2718
  2.2949   2.3469   2.3532   2.3591   2.3817   2.3872   2.4145   2.4795
  2.4995   2.5282   2.5315   2.5472   2.5539   2.5722   2.5763   2.5860
  2.5923   2.6183   2.6304   2.6623   2.6749   2.7009   2.7271   2.7383
  2.7442   2.7560   2.7600   2.7916   2.8042   2.8288   2.8381   2.8746
  2.8959   2.9262   2.9435   2.9479   2.9581   2.9673   2.9773   2.9822
  3.0234   3.0377   3.0503   3.0676   3.1369   3.1660   3.1738   3.2044
  3.2165   3.2557   3.3216   3.3519   3.3731   3.3945   3.4657   3.4831
  3.5443   3.5698   3.6091   3.7031   3.7884   3.7947   3.7975   3.8233
  3.8382   3.8507   3.8960   3.9040   4.1298   4.2011   4.2164   4.3000
  4.3212   4.3442   4.4371   4.8532   5.1506   5.1641   5.2965   5.3404
  5.7718   5.8633  23.6699  23.8788  23.9223  23.9745  23.9901  23.9967
 24.0148  24.0244  24.1285  24.1767  50.0870  50.1199
 --------------------------------------------------------------
 
          Ground-State Mulliken Net Atomic Charges

     Atom                 Charge (a.u.)
  ----------------------------------------
      1 C                    -0.690794
      2 C                     0.196284
      3 C                    -0.711533
      4 C                     0.996157
      5 C                    -0.226126
      6 C                    -0.812134
      7 O                    -0.790655
      8 C                     0.939047
      9 C                    -0.708824
     10 C                    -0.717688
     11 O                    -0.742782
     12 C                    -0.408511
     13 H                     0.177179
     14 H                     0.133125
     15 H                     0.121132
     16 H                     0.156462
     17 H                     0.173876
     18 H                     0.126023
     19 H                     0.135443
     20 H                     0.121994
     21 H                     0.107101
     22 H                     0.145091
     23 H                     0.133485
     24 H                     0.146648
  ----------------------------------------
  Sum of atomic charges =    -2.000000

 -----------------------------------------------------------------
                    Cartesian Multipole Moments
 -----------------------------------------------------------------
    Charge (ESU x 10^10)
                -9.6064
    Dipole Moment (Debye)
         X      -6.2860      Y      -0.4944      Z       0.0558
       Tot       6.3057
    Quadrupole Moments (Debye-Ang)
        XX    -122.5939     XY      30.8886     YY    -116.0619
        XZ      -0.5351     YZ       0.5832     ZZ     -84.5141
    Octopole Moments (Debye-Ang^2)
       XXX     -77.7004    XXY      40.8014    XYY     -23.5580
       YYY      -8.5594    XXZ      -0.5928    XYZ       0.2837
       YYZ       0.6159    XZZ       1.3771    YZZ      -0.8593
       ZZZ      -0.0375
    Hexadecapole Moments (Debye-Ang^3)
      XXXX   -2750.1668   XXXY     178.4928   XXYY    -693.3171
      XYYY     156.2661   YYYY    -970.2273   XXXZ      -1.9856
      XXYZ       1.1842   XYYZ      -2.4143   YYYZ       3.2766
      XXZZ    -478.1568   XYZZ       0.6311   YYZZ    -193.4400
      XZZZ      -0.7074   YZZZ       0.1162   ZZZZ    -304.0531
 -----------------------------------------------------------------
 Total job time:  40.73s(wall), 304.12s(cpu) 
 Thu Feb 22 02:57:38 2024

        *************************************************************
        *                                                           *
        *  Thank you very much for using Q-Chem.  Have a nice day.  *
        *                                                           *
        *************************************************************


