 Entering Gaussian System, Link 0=g16
 Input=022-rad.com
 Output=022-rad.log
 Initial command:
 /sysapps/ubuntu-applications/gaussian/Gaussian/AVX2/g16/l1.exe "/scratch/selhajj1/4406360/Gau-560175.inp" -scrdir="/scratch/selhajj1/4406360/"
 Entering Link 1 = /sysapps/ubuntu-applications/gaussian/Gaussian/AVX2/g16/l1.exe PID=    560186.
  
 Copyright (c) 1988,1990,1992,1993,1995,1998,2003,2009,2016,
            Gaussian, Inc.  All Rights Reserved.
  
 This is part of the Gaussian(R) 16 program.  It is based on
 the Gaussian(R) 09 system (copyright 2009, Gaussian, Inc.),
 the Gaussian(R) 03 system (copyright 2003, Gaussian, Inc.),
 the Gaussian(R) 98 system (copyright 1998, Gaussian, Inc.),
 the Gaussian(R) 94 system (copyright 1995, Gaussian, Inc.),
 the Gaussian 92(TM) system (copyright 1992, Gaussian, Inc.),
 the Gaussian 90(TM) system (copyright 1990, Gaussian, Inc.),
 the Gaussian 88(TM) system (copyright 1988, Gaussian, Inc.),
 the Gaussian 86(TM) system (copyright 1986, Carnegie Mellon
 University), and the Gaussian 82(TM) system (copyright 1983,
 Carnegie Mellon University). Gaussian is a federally registered
 trademark of Gaussian, Inc.
  
 This software contains proprietary and confidential information,
 including trade secrets, belonging to Gaussian, Inc.
  
 This software is provided under written license and may be
 used, copied, transmitted, or stored only in accord with that
 written license.
  
 The following legend is applicable only to US Government
 contracts under FAR:
  
                    RESTRICTED RIGHTS LEGEND
  
 Use, reproduction and disclosure by the US Government is
 subject to restrictions as set forth in subparagraphs (a)
 and (c) of the Commercial Computer Software - Restricted
 Rights clause in FAR 52.227-19.
  
 Gaussian, Inc.
 340 Quinnipiac St., Bldg. 40, Wallingford CT 06492
  
  
 ---------------------------------------------------------------
 Warning -- This program may not be used in any manner that
 competes with the business of Gaussian, Inc. or will provide
 assistance to any competitor of Gaussian, Inc.  The licensee
 of this program is prohibited from giving any competitor of
 Gaussian, Inc. access to this program.  By using this program,
 the user acknowledges that Gaussian, Inc. is engaged in the
 business of creating and licensing software in the field of
 computational chemistry and represents and warrants to the
 licensee that it is not a competitor of Gaussian, Inc. and that
 it will not use this program in any manner prohibited above.
 ---------------------------------------------------------------
  

 Cite this work as:
 Gaussian 16, Revision A.03,
 M. J. Frisch, G. W. Trucks, H. B. Schlegel, G. E. Scuseria, 
 M. A. Robb, J. R. Cheeseman, G. Scalmani, V. Barone, 
 G. A. Petersson, H. Nakatsuji, X. Li, M. Caricato, A. V. Marenich, 
 J. Bloino, B. G. Janesko, R. Gomperts, B. Mennucci, H. P. Hratchian, 
 J. V. Ortiz, A. F. Izmaylov, J. L. Sonnenberg, D. Williams-Young, 
 F. Ding, F. Lipparini, F. Egidi, J. Goings, B. Peng, A. Petrone, 
 T. Henderson, D. Ranasinghe, V. G. Zakrzewski, J. Gao, N. Rega, 
 G. Zheng, W. Liang, M. Hada, M. Ehara, K. Toyota, R. Fukuda, 
 J. Hasegawa, M. Ishida, T. Nakajima, Y. Honda, O. Kitao, H. Nakai, 
 T. Vreven, K. Throssell, J. A. Montgomery, Jr., J. E. Peralta, 
 F. Ogliaro, M. J. Bearpark, J. J. Heyd, E. N. Brothers, K. N. Kudin, 
 V. N. Staroverov, T. A. Keith, R. Kobayashi, J. Normand, 
 K. Raghavachari, A. P. Rendell, J. C. Burant, S. S. Iyengar, 
 J. Tomasi, M. Cossi, J. M. Millam, M. Klene, C. Adamo, R. Cammi, 
 J. W. Ochterski, R. L. Martin, K. Morokuma, O. Farkas, 
 J. B. Foresman, and D. J. Fox, Gaussian, Inc., Wallingford CT, 2016.
 
 ******************************************
 Gaussian 16:  ES64L-G16RevA.03 25-Dec-2016
                10-Feb-2024 
 ******************************************
 %chk=022-rad.chk
 %nproc=8
 Will use up to    8 processors via shared memory.
 %mem=30GB
 ----------------------------------------------------------------------
 #P UB3LYP/6-311++G(d,p) nosym opt freq SCRF=(PCM,Solvent=n,n-DiMethylF
 ormamide)
 ----------------------------------------------------------------------
 1/18=20,19=15,26=3,38=1/1,3;
 2/9=110,12=2,15=1,17=6,18=5,40=1/2;
 3/5=4,6=6,7=1111,11=2,25=1,30=1,70=2201,71=1,72=148,74=-5,116=2/1,2,3;
 4//1;
 5/5=2,38=5,53=148/2;
 6/7=2,8=2,9=2,10=2,28=1/1;
 7/30=1/1,2,3,16;
 1/18=20,19=15,26=3/3(2);
 2/9=110,15=1/2;
 99//99;
 2/9=110,15=1/2;
 3/5=4,6=6,7=1111,11=2,25=1,30=1,70=2205,71=1,72=148,74=-5,116=2/1,2,3;
 4/5=5,16=3,69=1/1;
 5/5=2,38=5,53=148/2;
 7/30=1/1,2,3,16;
 1/18=20,19=15,26=3/3(-5);
 2/9=110,15=1/2;
 6/7=2,8=2,9=2,10=2,19=2,28=1/1;
 99/9=1/99;
 Leave Link    1 at Sat Feb 10 10:01:34 2024, MaxMem=  4026531840 cpu:               0.6 elap:               0.2
 (Enter /sysapps/ubuntu-applications/gaussian/Gaussian/AVX2/g16/l101.exe)
 -------
 Radical
 -------
 Symbolic Z-matrix:
 Charge = -1 Multiplicity = 2
 C                    -3.54722   0.16285   0.35832 
 O                    -2.68416   0.64799  -0.67296 
 C                    -1.35808   0.32743  -0.55305 
 C                    -0.41978   1.32958  -0.49899 
 Cl                   -0.93945   3.01093  -0.49138 
 C                     1.01222   1.09415  -0.46889 
 O                     1.86704   2.01171  -0.4642 
 C                     1.39953  -0.31717  -0.43726 
 C                     0.46119  -1.31933  -0.48964 
 Cl                    0.97978  -3.00095  -0.47378 
 C                    -0.96811  -1.08322  -0.58175 
 O                    -1.81901  -1.99977  -0.67374 
 O                     2.73129  -0.63629  -0.44588 
 C                     3.4991   -0.17474   0.66834 
 H                    -3.25744   0.58817   1.32756 
 H                    -4.54776   0.51379   0.09907 
 H                    -3.52728  -0.92676   0.40118 
 H                     3.47587   0.91377   0.73205 
 H                     3.12374  -0.61937   1.59877 
 H                     4.51854  -0.52278   0.49213 
 
 ITRead=  0  0  0  0  0  0  0  0  0  0  0  0  0  0  0  0  0  0  0  0
 MicOpt= -1 -1 -1 -1 -1 -1 -1 -1 -1 -1 -1 -1 -1 -1 -1 -1 -1 -1 -1 -1
 NAtoms=     20 NQM=       20 NQMF=       0 NMMI=      0 NMMIF=      0
                NMic=       0 NMicF=      0.
                    Isotopes and Nuclear Properties:
 (Nuclear quadrupole moments (NQMom) in fm**2, nuclear magnetic moments (NMagM)
  in nuclear magnetons)

  Atom         1           2           3           4           5           6           7           8           9          10
 IAtWgt=          12          16          12          12          35          12          16          12          12          35
 AtmWgt=  12.0000000  15.9949146  12.0000000  12.0000000  34.9688527  12.0000000  15.9949146  12.0000000  12.0000000  34.9688527
 NucSpn=           0           0           0           0           3           0           0           0           0           3
 AtZEff=  -0.0000000  -0.0000000  -0.0000000  -0.0000000  -0.0000000  -0.0000000  -0.0000000  -0.0000000  -0.0000000  -0.0000000
 NQMom=    0.0000000   0.0000000   0.0000000   0.0000000  -8.1650000   0.0000000   0.0000000   0.0000000   0.0000000  -8.1650000
 NMagM=    0.0000000   0.0000000   0.0000000   0.0000000   0.8218740   0.0000000   0.0000000   0.0000000   0.0000000   0.8218740
 AtZNuc=   6.0000000   8.0000000   6.0000000   6.0000000  17.0000000   6.0000000   8.0000000   6.0000000   6.0000000  17.0000000

  Atom        11          12          13          14          15          16          17          18          19          20
 IAtWgt=          12          16          16          12           1           1           1           1           1           1
 AtmWgt=  12.0000000  15.9949146  15.9949146  12.0000000   1.0078250   1.0078250   1.0078250   1.0078250   1.0078250   1.0078250
 NucSpn=           0           0           0           0           1           1           1           1           1           1
 AtZEff=  -0.0000000  -0.0000000  -0.0000000  -0.0000000  -0.0000000  -0.0000000  -0.0000000  -0.0000000  -0.0000000  -0.0000000
 NQMom=    0.0000000   0.0000000   0.0000000   0.0000000   0.0000000   0.0000000   0.0000000   0.0000000   0.0000000   0.0000000
 NMagM=    0.0000000   0.0000000   0.0000000   0.0000000   2.7928460   2.7928460   2.7928460   2.7928460   2.7928460   2.7928460
 AtZNuc=   6.0000000   8.0000000   8.0000000   6.0000000   1.0000000   1.0000000   1.0000000   1.0000000   1.0000000   1.0000000
 Leave Link  101 at Sat Feb 10 10:01:35 2024, MaxMem=  4026531840 cpu:               4.2 elap:               1.3
 (Enter /sysapps/ubuntu-applications/gaussian/Gaussian/AVX2/g16/l103.exe)

 GradGradGradGradGradGradGradGradGradGradGradGradGradGradGradGradGradGrad
 Berny optimization.
 Initialization pass.
                           ----------------------------
                           !    Initial Parameters    !
                           ! (Angstroms and Degrees)  !
 --------------------------                            --------------------------
 ! Name  Definition              Value          Derivative Info.                !
 --------------------------------------------------------------------------------
 ! R1    R(1,2)                  1.4296         estimate D2E/DX2                !
 ! R2    R(1,15)                 1.0974         estimate D2E/DX2                !
 ! R3    R(1,16)                 1.0915         estimate D2E/DX2                !
 ! R4    R(1,17)                 1.0906         estimate D2E/DX2                !
 ! R5    R(2,3)                  1.3695         estimate D2E/DX2                !
 ! R6    R(3,4)                  1.3739         estimate D2E/DX2                !
 ! R7    R(3,11)                 1.4638         estimate D2E/DX2                !
 ! R8    R(4,5)                  1.7598         estimate D2E/DX2                !
 ! R9    R(4,6)                  1.4515         estimate D2E/DX2                !
 ! R10   R(6,7)                  1.2541         estimate D2E/DX2                !
 ! R11   R(6,8)                  1.4638         estimate D2E/DX2                !
 ! R12   R(8,9)                  1.3739         estimate D2E/DX2                !
 ! R13   R(8,13)                 1.3695         estimate D2E/DX2                !
 ! R14   R(9,10)                 1.7598         estimate D2E/DX2                !
 ! R15   R(9,11)                 1.4516         estimate D2E/DX2                !
 ! R16   R(11,12)                1.254          estimate D2E/DX2                !
 ! R17   R(13,14)                1.4297         estimate D2E/DX2                !
 ! R18   R(14,18)                1.0906         estimate D2E/DX2                !
 ! R19   R(14,19)                1.0974         estimate D2E/DX2                !
 ! R20   R(14,20)                1.0915         estimate D2E/DX2                !
 ! A1    A(2,1,15)             110.254          estimate D2E/DX2                !
 ! A2    A(2,1,16)             105.839          estimate D2E/DX2                !
 ! A3    A(2,1,17)             110.8762         estimate D2E/DX2                !
 ! A4    A(15,1,16)            109.0992         estimate D2E/DX2                !
 ! A5    A(15,1,17)            110.3452         estimate D2E/DX2                !
 ! A6    A(16,1,17)            110.3225         estimate D2E/DX2                !
 ! A7    A(1,2,3)              116.2289         estimate D2E/DX2                !
 ! A8    A(2,3,4)              119.6031         estimate D2E/DX2                !
 ! A9    A(2,3,11)             118.8026         estimate D2E/DX2                !
 ! A10   A(4,3,11)             121.449          estimate D2E/DX2                !
 ! A11   A(3,4,5)              119.6947         estimate D2E/DX2                !
 ! A12   A(3,4,6)              123.7976         estimate D2E/DX2                !
 ! A13   A(5,4,6)              116.4995         estimate D2E/DX2                !
 ! A14   A(4,6,7)              123.6334         estimate D2E/DX2                !
 ! A15   A(4,6,8)              114.6987         estimate D2E/DX2                !
 ! A16   A(7,6,8)              121.6673         estimate D2E/DX2                !
 ! A17   A(6,8,9)              121.4484         estimate D2E/DX2                !
 ! A18   A(6,8,13)             118.804          estimate D2E/DX2                !
 ! A19   A(9,8,13)             119.6015         estimate D2E/DX2                !
 ! A20   A(8,9,10)             119.6962         estimate D2E/DX2                !
 ! A21   A(8,9,11)             123.798          estimate D2E/DX2                !
 ! A22   A(10,9,11)            116.4976         estimate D2E/DX2                !
 ! A23   A(3,11,9)             114.6969         estimate D2E/DX2                !
 ! A24   A(3,11,12)            121.6686         estimate D2E/DX2                !
 ! A25   A(9,11,12)            123.6339         estimate D2E/DX2                !
 ! A26   A(8,13,14)            116.2394         estimate D2E/DX2                !
 ! A27   A(13,14,18)           110.8722         estimate D2E/DX2                !
 ! A28   A(13,14,19)           110.2589         estimate D2E/DX2                !
 ! A29   A(13,14,20)           105.8327         estimate D2E/DX2                !
 ! A30   A(18,14,19)           110.3386         estimate D2E/DX2                !
 ! A31   A(18,14,20)           110.3388         estimate D2E/DX2                !
 ! A32   A(19,14,20)           109.0951         estimate D2E/DX2                !
 ! D1    D(15,1,2,3)            61.9848         estimate D2E/DX2                !
 ! D2    D(16,1,2,3)           179.8389         estimate D2E/DX2                !
 ! D3    D(17,1,2,3)           -60.5192         estimate D2E/DX2                !
 ! D4    D(1,2,3,4)           -121.9838         estimate D2E/DX2                !
 ! D5    D(1,2,3,11)            62.3338         estimate D2E/DX2                !
 ! D6    D(2,3,4,5)              3.4954         estimate D2E/DX2                !
 ! D7    D(2,3,4,6)           -175.4236         estimate D2E/DX2                !
 ! D8    D(11,3,4,5)           179.0603         estimate D2E/DX2                !
 ! D9    D(11,3,4,6)             0.1412         estimate D2E/DX2                !
 ! D10   D(2,3,11,9)           178.1672         estimate D2E/DX2                !
 ! D11   D(2,3,11,12)           -2.1073         estimate D2E/DX2                !
 ! D12   D(4,3,11,9)             2.5678         estimate D2E/DX2                !
 ! D13   D(4,3,11,12)         -177.7067         estimate D2E/DX2                !
 ! D14   D(3,4,6,7)            177.5485         estimate D2E/DX2                !
 ! D15   D(3,4,6,8)             -2.7348         estimate D2E/DX2                !
 ! D16   D(5,4,6,7)             -1.4022         estimate D2E/DX2                !
 ! D17   D(5,4,6,8)            178.3145         estimate D2E/DX2                !
 ! D18   D(4,6,8,9)              2.5818         estimate D2E/DX2                !
 ! D19   D(4,6,8,13)           178.1691         estimate D2E/DX2                !
 ! D20   D(7,6,8,9)           -177.6954         estimate D2E/DX2                !
 ! D21   D(7,6,8,13)            -2.1081         estimate D2E/DX2                !
 ! D22   D(6,8,9,10)           179.0519         estimate D2E/DX2                !
 ! D23   D(6,8,9,11)             0.1261         estimate D2E/DX2                !
 ! D24   D(13,8,9,10)            3.4991         estimate D2E/DX2                !
 ! D25   D(13,8,9,11)         -175.4267         estimate D2E/DX2                !
 ! D26   D(6,8,13,14)           62.3016         estimate D2E/DX2                !
 ! D27   D(9,8,13,14)         -122.0278         estimate D2E/DX2                !
 ! D28   D(8,9,11,3)            -2.7205         estimate D2E/DX2                !
 ! D29   D(8,9,11,12)          177.5602         estimate D2E/DX2                !
 ! D30   D(10,9,11,3)          178.3221         estimate D2E/DX2                !
 ! D31   D(10,9,11,12)          -1.3972         estimate D2E/DX2                !
 ! D32   D(8,13,14,18)         -60.6196         estimate D2E/DX2                !
 ! D33   D(8,13,14,19)          61.8767         estimate D2E/DX2                !
 ! D34   D(8,13,14,20)         179.7249         estimate D2E/DX2                !
 --------------------------------------------------------------------------------
 Trust Radius=3.00D-01 FncErr=1.00D-07 GrdErr=1.00D-06 EigMax=2.50D+02 EigMin=1.00D-04
 Number of steps in this run=     96 maximum allowed number of steps=    120.
 GradGradGradGradGradGradGradGradGradGradGradGradGradGradGradGradGradGrad

 Leave Link  103 at Sat Feb 10 10:01:35 2024, MaxMem=  4026531840 cpu:               0.2 elap:               0.1
 (Enter /sysapps/ubuntu-applications/gaussian/Gaussian/AVX2/g16/l202.exe)
                          Input orientation:                          
 ---------------------------------------------------------------------
 Center     Atomic      Atomic             Coordinates (Angstroms)
 Number     Number       Type             X           Y           Z
 ---------------------------------------------------------------------
      1          6           0       -3.547223    0.162846    0.358319
      2          8           0       -2.684163    0.647994   -0.672956
      3          6           0       -1.358080    0.327434   -0.553046
      4          6           0       -0.419779    1.329580   -0.498985
      5         17           0       -0.939452    3.010931   -0.491379
      6          6           0        1.012221    1.094150   -0.468887
      7          8           0        1.867042    2.011705   -0.464195
      8          6           0        1.399532   -0.317174   -0.437261
      9          6           0        0.461185   -1.319331   -0.489643
     10         17           0        0.979783   -3.000950   -0.473781
     11          6           0       -0.968105   -1.083216   -0.581754
     12          8           0       -1.819007   -1.999769   -0.673737
     13          8           0        2.731293   -0.636286   -0.445878
     14          6           0        3.499104   -0.174740    0.668337
     15          1           0       -3.257444    0.588174    1.327561
     16          1           0       -4.547764    0.513791    0.099068
     17          1           0       -3.527283   -0.926757    0.401177
     18          1           0        3.475866    0.913771    0.732045
     19          1           0        3.123736   -0.619371    1.598769
     20          1           0        4.518537   -0.522781    0.492131
 ---------------------------------------------------------------------
                    Distance matrix (angstroms):
                    1          2          3          4          5
     1  C    0.000000
     2  O    1.429605   0.000000
     3  C    2.376978   1.369538   0.000000
     4  C    3.446323   2.371131   1.373910   0.000000
     5  Cl   3.953991   2.942866   2.716654   1.759846   0.000000
     6  C    4.726534   3.728801   2.492642   1.451536   2.735614
     7  O    5.780058   4.755708   3.639516   2.386641   2.979195
     8  C    5.033265   4.202816   2.834316   2.454690   4.068176
     9  C    4.356974   3.714456   2.454706   2.791579   4.551149
    10  Cl   5.585318   5.174839   4.068172   4.551143   6.310823
    11  C    3.014674   2.439316   1.463844   2.475701   4.095245
    12  O    2.954450   2.785524   2.375478   3.615652   5.090578
    13  O    6.380055   5.570288   4.202763   3.714392   5.174807
    14  C    7.061218   6.380341   5.033507   4.356979   5.585179
    15  H    1.097409   2.081898   2.685564   3.455184   3.814627
    16  H    1.091538   2.021643   3.260992   4.250110   4.427669
    17  H    1.090628   2.084335   2.681227   3.944354   4.795718
    18  H    7.073001   6.323814   5.036098   4.106627   5.038837
    19  H    6.830247   6.363854   5.060970   4.555818   5.835864
    20  H    8.095954   7.389657   6.029087   5.366611   6.576021
                    6          7          8          9         10
     6  C    0.000000
     7  O    1.254053   0.000000
     8  C    1.463846   2.375493   0.000000
     9  C    2.475674   3.615644   1.373884   0.000000
    10  Cl   4.095231   5.090583   2.716648   1.759840   0.000000
    11  C    2.945395   4.198859   2.492670   1.451587   2.735622
    12  O    4.198827   5.451861   3.639511   2.386663   2.979190
    13  O    2.439292   2.785520   1.369487   2.371045   2.942822
    14  C    3.014622   2.954115   2.377149   3.446732   3.954602
    15  H    4.659751   5.612235   5.061786   4.557303   5.837871
    16  H    5.618970   6.611410   6.028970   5.366236   6.575358
    17  H    5.044618   6.203400   5.034687   4.105551   5.038003
    18  H    2.746693   2.285774   2.682101   3.945576   4.796821
    19  H    3.416116   3.571787   2.685074   3.455515   3.816270
    20  H    3.978979   3.790594   3.261018   4.249762   4.426860
                   11         12         13         14         15
    11  C    0.000000
    12  O    1.254019   0.000000
    13  O    3.728774   4.755653   0.000000
    14  C    4.726945   5.780502   1.429697   0.000000
    15  H    3.417616   3.573758   6.364696   6.831366   0.000000
    16  H    3.978430   3.789634   7.389473   8.096309   1.783158
    17  H    2.745911   2.285826   6.322314   7.071564   1.796111
    18  H    5.046078   6.204887   2.084363   1.090621   6.767431
    19  H    4.659721   5.612530   2.082037   1.097407   6.500091
    20  H    5.618768   6.610991   2.021629   1.091524   7.899243
                   16         17         18         19         20
    16  H    0.000000
    17  H    1.791042   0.000000
    18  H    8.058491   7.248525   0.000000
    19  H    7.898422   6.764966   1.796032   0.000000
    20  H    9.133827   8.056469   1.791202   1.783100   0.000000
 Symmetry turned off by external request.
 Stoichiometry    C8H6Cl2O4(1-,2)
 Framework group  C1[X(C8H6Cl2O4)]
 Deg. of freedom    54
 Full point group                 C1      NOp   1
 Rotational constants (GHZ):           0.6851071           0.4830637           0.2941367
 Leave Link  202 at Sat Feb 10 10:01:35 2024, MaxMem=  4026531840 cpu:               0.4 elap:               0.1
 (Enter /sysapps/ubuntu-applications/gaussian/Gaussian/AVX2/g16/l301.exe)
 Standard basis: 6-311++G(d,p) (5D, 7F)
 Ernie: Thresh=  0.10000D-02 Tol=  0.10000D-05 Strict=F.
   366 basis functions,   592 primitive gaussians,   380 cartesian basis functions
    61 alpha electrons       60 beta electrons
       nuclear repulsion energy      1118.4921740534 Hartrees.
 IExCor=  402 DFT=T Ex+Corr=B3LYP ExCW=0 ScaHFX=  0.200000
 ScaDFX=  0.800000  0.720000  1.000000  0.810000 ScalE2=  1.000000  1.000000
 IRadAn=      5 IRanWt=     -1 IRanGd=            0 ICorTp=0 IEmpDi=  4
 NAtoms=   20 NActive=   20 NUniq=   20 SFac= 1.00D+00 NAtFMM=   60 NAOKFM=F Big=F
 Integral buffers will be    131072 words long.
 Raffenetti 2 integral format.
 Two-electron integral symmetry is turned off.
 ------------------------------------------------------------------------------
 Polarizable Continuum Model (PCM)
 =================================
 Model                : PCM.
 Atomic radii         : UFF (Universal Force Field).
 Polarization charges : Total charges.
 Charge compensation  : None.
 Solution method      : On-the-fly selection.
 Cavity type          : Scaled VdW (van der Waals Surface) (Alpha=1.100).
 Cavity algorithm     : GePol (No added spheres)
                        Default sphere list used, NSphG=   20.
                        Lebedev-Laikov grids with approx.  5.0 points / Ang**2.
                        Smoothing algorithm: York/Karplus (Gamma=1.0000).
                        Polarization charges: spherical gaussians, with
                                              point-specific exponents (IZeta= 3).
                        Self-potential: point-specific (ISelfS= 7).
                        Self-field    : sphere-specific E.n sum rule (ISelfD= 2).
 1st derivatives      : Analytical E(r).r(x)/FMM algorithm (CHGder, D1EAlg=3).
                        Cavity 1st derivative terms included.
 Solvent              : n,n-DiMethylFormamide, Eps=  37.219000 Eps(inf)=   2.046330
 ------------------------------------------------------------------------------
 Spheres list:
 ISph  on   Nord     Re0    Alpha      Xe            Ye            Ze
    1   C      1    1.9255  1.100     -3.547223      0.162846      0.358319
    2   O      2    1.7500  1.100     -2.684163      0.647994     -0.672956
    3   C      3    1.9255  1.100     -1.358080      0.327434     -0.553046
    4   C      4    1.9255  1.100     -0.419779      1.329580     -0.498985
    5  Cl      5    1.9735  1.100     -0.939452      3.010931     -0.491379
    6   C      6    1.9255  1.100      1.012221      1.094150     -0.468887
    7   O      7    1.7500  1.100      1.867042      2.011705     -0.464195
    8   C      8    1.9255  1.100      1.399532     -0.317174     -0.437261
    9   C      9    1.9255  1.100      0.461185     -1.319331     -0.489643
   10  Cl     10    1.9735  1.100      0.979783     -3.000950     -0.473781
   11   C     11    1.9255  1.100     -0.968105     -1.083216     -0.581754
   12   O     12    1.7500  1.100     -1.819007     -1.999769     -0.673737
   13   O     13    1.7500  1.100      2.731293     -0.636286     -0.445878
   14   C     14    1.9255  1.100      3.499104     -0.174740      0.668337
   15   H     15    1.4430  1.100     -3.257444      0.588174      1.327561
   16   H     16    1.4430  1.100     -4.547764      0.513791      0.099068
   17   H     17    1.4430  1.100     -3.527283     -0.926757      0.401177
   18   H     18    1.4430  1.100      3.475866      0.913771      0.732045
   19   H     19    1.4430  1.100      3.123736     -0.619371      1.598769
   20   H     20    1.4430  1.100      4.518537     -0.522781      0.492131
 ------------------------------------------------------------------------------
 GePol: Number of generator spheres                  =      20
 GePol: Total number of spheres                      =      20
 GePol: Number of exposed spheres                    =      20 (100.00%)
 GePol: Number of points                             =    1852
 GePol: Average weight of points                     =       0.14
 GePol: Minimum weight of points                     =   0.20D-10
 GePol: Maximum weight of points                     =    0.21616
 GePol: Number of points with low weight             =      82
 GePol: Fraction of low-weight points (<1% of avg)   =       4.43%
 GePol: Cavity surface area                          =    258.471 Ang**2
 GePol: Cavity volume                                =    269.290 Ang**3
 Leave Link  301 at Sat Feb 10 10:01:36 2024, MaxMem=  4026531840 cpu:               0.7 elap:               0.2
 (Enter /sysapps/ubuntu-applications/gaussian/Gaussian/AVX2/g16/l302.exe)
 NPDir=0 NMtPBC=     1 NCelOv=     1 NCel=       1 NClECP=     1 NCelD=      1
         NCelK=      1 NCelE2=     1 NClLst=     1 CellRange=     0.0.
 One-electron integrals computed using PRISM.
 NBasis=   366 RedAO= T EigKep=  1.25D-06  NBF=   366
 NBsUse=   365 1.00D-06 EigRej=  7.78D-07 NBFU=   365
 Precomputing XC quadrature grid using
 IXCGrd= 4 IRadAn=           5 IRanWt=          -1 IRanGd=           0 AccXCQ= 0.00D+00.
 Generated NRdTot=       0 NPtTot=           0 NUsed=           0 NTot=          32
 NSgBfM=   377   377   377   377   377 MxSgAt=    20 MxSgA2=    20.
 Leave Link  302 at Sat Feb 10 10:01:37 2024, MaxMem=  4026531840 cpu:               7.4 elap:               1.6
 (Enter /sysapps/ubuntu-applications/gaussian/Gaussian/AVX2/g16/l303.exe)
 DipDrv:  MaxL=1.
 Leave Link  303 at Sat Feb 10 10:01:38 2024, MaxMem=  4026531840 cpu:               1.5 elap:               0.4
 (Enter /sysapps/ubuntu-applications/gaussian/Gaussian/AVX2/g16/l401.exe)
 ExpMin= 3.60D-02 ExpMax= 1.06D+05 ExpMxC= 3.62D+03 IAcc=3 IRadAn=         5 AccDes= 0.00D+00
 Harris functional with IExCor=  402 and IRadAn=       5 diagonalized for initial guess.
 HarFok:  IExCor=  402 AccDes= 0.00D+00 IRadAn=         5 IDoV= 1 UseB2=F ITyADJ=14
 ICtDFT=  3500011 ScaDFX=  1.000000  1.000000  1.000000  1.000000
 FoFCou: FMM=F IPFlag=           0 FMFlag=      100000 FMFlg1=           0
         NFxFlg=           0 DoJE=T BraDBF=F KetDBF=T FulRan=T
         wScrn=  0.000000 ICntrl=       500 IOpCl=  0 I1Cent=   200000004 NGrid=           0
         NMat0=    1 NMatS0=      1 NMatT0=    0 NMatD0=    1 NMtDS0=    0 NMtDT0=    0
 Symmetry not used in FoFCou.
 Harris En= -1529.99965072679    
 JPrj=0 DoOrth=F DoCkMO=F.
 Initial guess <Sx>= 0.0000 <Sy>= 0.0000 <Sz>= 0.5000 <S**2>= 0.7500 S= 0.5000
 Leave Link  401 at Sat Feb 10 10:01:40 2024, MaxMem=  4026531840 cpu:              14.9 elap:               2.8
 (Enter /sysapps/ubuntu-applications/gaussian/Gaussian/AVX2/g16/l502.exe)
 Two-electron integral symmetry not used.
 UHF open shell SCF:
 Using DIIS extrapolation, IDIIS=  1040.
 NGot=  4026531840 LenX=  4026237308 LenY=  4026092467
 Requested convergence on RMS density matrix=1.00D-08 within 128 cycles.
 Requested convergence on MAX density matrix=1.00D-06.
 Requested convergence on             energy=1.00D-06.
 No special actions if energy rises.
 Fock matrices will be formed incrementally for  20 cycles.

 Cycle   1  Pass 1  IDiag  1:
 FoFJK:  IHMeth= 1 ICntrl=       0 DoSepK=F KAlg= 0 I1Cent=           0 FoldK=F
 IRaf= 860000000 NMat=       1 IRICut=       1 DoRegI=T DoRafI=F ISym2E= 0 IDoP0=0 IntGTp=1.
 FoFCou: FMM=F IPFlag=           0 FMFlag=      100000 FMFlg1=           0
         NFxFlg=           0 DoJE=F BraDBF=F KetDBF=F FulRan=T
         wScrn=  0.000000 ICntrl=         0 IOpCl=  1 I1Cent=           0 NGrid=           0
         NMat0=    1 NMatS0=      1 NMatT0=    0 NMatD0=    1 NMtDS0=    0 NMtDT0=    0
 Symmetry not used in FoFCou.
 Inv3:  Mode=1 IEnd=    10289712.
 Iteration    1 A*A^-1 deviation from unit magnitude is 3.66D-15 for   1625.
 Iteration    1 A*A^-1 deviation from orthogonality  is 2.02D-15 for    400    349.
 Iteration    1 A^-1*A deviation from unit magnitude is 4.00D-15 for   1625.
 Iteration    1 A^-1*A deviation from orthogonality  is 2.12D-15 for    912    176.
 E= -1529.69229467768    
 DIIS: error= 3.30D-02 at cycle   1 NSaved=   1.
 NSaved= 1 IEnMin= 1 EnMin= -1529.69229467768     IErMin= 1 ErrMin= 3.30D-02
 ErrMax= 3.30D-02  0.00D+00 EMaxC= 1.00D-01 BMatC= 2.03D+00 BMatP= 2.03D+00
 IDIUse=3 WtCom= 6.70D-01 WtEn= 3.30D-01
 Coeff-Com:  0.100D+01
 Coeff-En:   0.100D+01
 Coeff:      0.100D+01
 Gap=     0.176 Goal=   None    Shift=    0.000
 Gap=     0.144 Goal=   None    Shift=    0.000
 GapD=    0.144 DampG=1.000 DampE=0.500 DampFc=0.5000 IDamp=-1.
 Damping current iteration by 5.00D-01
 RMSDP=1.11D-01 MaxDP=1.27D+01              OVMax= 4.20D-01

 Cycle   2  Pass 1  IDiag  1:
 RMSU=  5.03D-02    CP:  1.15D+00
 E= -1529.76215222276     Delta-E=       -0.069857545082 Rises=F Damp=T
 DIIS: error= 1.76D-02 at cycle   2 NSaved=   2.
 NSaved= 2 IEnMin= 2 EnMin= -1529.76215222276     IErMin= 2 ErrMin= 1.76D-02
 ErrMax= 1.76D-02  0.00D+00 EMaxC= 1.00D-01 BMatC= 3.82D-01 BMatP= 2.03D+00
 IDIUse=3 WtCom= 8.24D-01 WtEn= 1.76D-01
 Coeff-Com:  0.228D+00 0.772D+00
 Coeff-En:   0.408D+00 0.592D+00
 Coeff:      0.260D+00 0.740D+00
 Gap=     0.166 Goal=   None    Shift=    0.000
 Gap=     0.244 Goal=   None    Shift=    0.000
 RMSDP=4.87D-02 MaxDP=5.39D+00 DE=-6.99D-02 OVMax= 2.51D-01

 Cycle   3  Pass 1  IDiag  1:
 RMSU=  9.23D-03    CP:  1.07D+00  8.64D-02
 E= -1530.02208662112     Delta-E=       -0.259934398360 Rises=F Damp=F
 DIIS: error= 1.93D-02 at cycle   3 NSaved=   3.
 NSaved= 3 IEnMin= 3 EnMin= -1530.02208662112     IErMin= 2 ErrMin= 1.76D-02
 ErrMax= 1.93D-02  0.00D+00 EMaxC= 1.00D-01 BMatC= 2.48D-01 BMatP= 3.82D-01
 IDIUse=3 WtCom= 8.07D-01 WtEn= 1.93D-01
 Coeff-Com:  0.405D-01 0.438D+00 0.522D+00
 Coeff-En:   0.000D+00 0.000D+00 0.100D+01
 Coeff:      0.327D-01 0.353D+00 0.614D+00
 Gap=     0.167 Goal=   None    Shift=    0.000
 Gap=     0.128 Goal=   None    Shift=    0.000
 RMSDP=1.16D-02 MaxDP=6.27D-01 DE=-2.60D-01 OVMax= 9.44D-02

 Cycle   4  Pass 1  IDiag  1:
 RMSU=  4.75D-03    CP:  1.01D+00  1.47D-01  6.05D-01
 E= -1530.05120663220     Delta-E=       -0.029120011083 Rises=F Damp=F
 DIIS: error= 1.27D-02 at cycle   4 NSaved=   4.
 NSaved= 4 IEnMin= 4 EnMin= -1530.05120663220     IErMin= 4 ErrMin= 1.27D-02
 ErrMax= 1.27D-02  0.00D+00 EMaxC= 1.00D-01 BMatC= 1.09D-01 BMatP= 2.48D-01
 IDIUse=3 WtCom= 8.73D-01 WtEn= 1.27D-01
 Coeff-Com: -0.632D-02 0.645D-01 0.409D+00 0.533D+00
 Coeff-En:   0.000D+00 0.000D+00 0.346D+00 0.654D+00
 Coeff:     -0.552D-02 0.563D-01 0.401D+00 0.549D+00
 Gap=     0.158 Goal=   None    Shift=    0.000
 Gap=     0.129 Goal=   None    Shift=    0.000
 RMSDP=6.49D-03 MaxDP=3.26D-01 DE=-2.91D-02 OVMax= 4.04D-02

 Cycle   5  Pass 1  IDiag  1:
 RMSU=  3.15D-03    CP:  1.02D+00  1.06D-01  9.23D-01  3.44D-01
 E= -1530.07462899065     Delta-E=       -0.023422358447 Rises=F Damp=F
 DIIS: error= 1.20D-03 at cycle   5 NSaved=   5.
 NSaved= 5 IEnMin= 5 EnMin= -1530.07462899065     IErMin= 5 ErrMin= 1.20D-03
 ErrMax= 1.20D-03  0.00D+00 EMaxC= 1.00D-01 BMatC= 1.85D-03 BMatP= 1.09D-01
 IDIUse=3 WtCom= 9.88D-01 WtEn= 1.20D-02
 Coeff-Com: -0.308D-02 0.628D-02 0.154D+00 0.253D+00 0.589D+00
 Coeff-En:   0.000D+00 0.000D+00 0.000D+00 0.000D+00 0.100D+01
 Coeff:     -0.304D-02 0.620D-02 0.152D+00 0.250D+00 0.594D+00
 Gap=     0.156 Goal=   None    Shift=    0.000
 Gap=     0.126 Goal=   None    Shift=    0.000
 RMSDP=9.07D-04 MaxDP=5.35D-02 DE=-2.34D-02 OVMax= 5.77D-03

 Cycle   6  Pass 1  IDiag  1:
 RMSU=  2.39D-04    CP:  1.02D+00  1.05D-01  8.88D-01  4.39D-01  8.51D-01
 E= -1530.07508628512     Delta-E=       -0.000457294468 Rises=F Damp=F
 DIIS: error= 4.58D-04 at cycle   6 NSaved=   6.
 NSaved= 6 IEnMin= 6 EnMin= -1530.07508628512     IErMin= 6 ErrMin= 4.58D-04
 ErrMax= 4.58D-04  0.00D+00 EMaxC= 1.00D-01 BMatC= 2.08D-04 BMatP= 1.85D-03
 IDIUse=3 WtCom= 9.95D-01 WtEn= 4.58D-03
 Coeff-Com:  0.219D-03-0.671D-02 0.221D-01 0.483D-01 0.254D+00 0.682D+00
 Coeff-En:   0.000D+00 0.000D+00 0.000D+00 0.000D+00 0.000D+00 0.100D+01
 Coeff:      0.218D-03-0.667D-02 0.220D-01 0.480D-01 0.253D+00 0.684D+00
 Gap=     0.156 Goal=   None    Shift=    0.000
 Gap=     0.126 Goal=   None    Shift=    0.000
 RMSDP=5.05D-04 MaxDP=3.56D-02 DE=-4.57D-04 OVMax= 9.06D-03

 Cycle   7  Pass 1  IDiag  1:
 RMSU=  1.80D-04    CP:  1.02D+00  1.05D-01  8.88D-01  4.71D-01  7.50D-01
                    CP:  1.47D+00
 E= -1530.07516110122     Delta-E=       -0.000074816106 Rises=F Damp=F
 DIIS: error= 3.06D-04 at cycle   7 NSaved=   7.
 NSaved= 7 IEnMin= 7 EnMin= -1530.07516110122     IErMin= 7 ErrMin= 3.06D-04
 ErrMax= 3.06D-04  0.00D+00 EMaxC= 1.00D-01 BMatC= 5.80D-05 BMatP= 2.08D-04
 IDIUse=3 WtCom= 9.97D-01 WtEn= 3.06D-03
 Coeff-Com:  0.126D-02-0.472D-02-0.170D-01-0.271D-01-0.792D-02 0.315D+00
 Coeff-Com:  0.740D+00
 Coeff-En:   0.000D+00 0.000D+00 0.000D+00 0.000D+00 0.000D+00 0.000D+00
 Coeff-En:   0.100D+01
 Coeff:      0.126D-02-0.470D-02-0.170D-01-0.270D-01-0.790D-02 0.314D+00
 Coeff:      0.741D+00
 Gap=     0.157 Goal=   None    Shift=    0.000
 Gap=     0.127 Goal=   None    Shift=    0.000
 RMSDP=1.99D-04 MaxDP=9.48D-03 DE=-7.48D-05 OVMax= 3.26D-03

 Cycle   8  Pass 1  IDiag  1:
 RMSU=  6.37D-05    CP:  1.02D+00  1.04D-01  8.90D-01  4.57D-01  7.82D-01
                    CP:  1.41D+00  6.74D-01
 E= -1530.07518615824     Delta-E=       -0.000025057020 Rises=F Damp=F
 DIIS: error= 1.63D-04 at cycle   8 NSaved=   8.
 NSaved= 8 IEnMin= 8 EnMin= -1530.07518615824     IErMin= 8 ErrMin= 1.63D-04
 ErrMax= 1.63D-04  0.00D+00 EMaxC= 1.00D-01 BMatC= 1.69D-05 BMatP= 5.80D-05
 IDIUse=3 WtCom= 9.98D-01 WtEn= 1.63D-03
 Coeff-Com:  0.816D-03-0.701D-03-0.144D-01-0.292D-01-0.791D-01-0.197D-01
 Coeff-Com:  0.413D+00 0.729D+00
 Coeff-En:   0.000D+00 0.000D+00 0.000D+00 0.000D+00 0.000D+00 0.000D+00
 Coeff-En:   0.000D+00 0.100D+01
 Coeff:      0.815D-03-0.700D-03-0.143D-01-0.292D-01-0.789D-01-0.197D-01
 Coeff:      0.412D+00 0.730D+00
 Gap=     0.157 Goal=   None    Shift=    0.000
 Gap=     0.127 Goal=   None    Shift=    0.000
 RMSDP=1.23D-04 MaxDP=1.07D-02 DE=-2.51D-05 OVMax= 3.75D-03

 Cycle   9  Pass 1  IDiag  1:
 RMSU=  3.26D-05    CP:  1.02D+00  1.03D-01  8.88D-01  4.60D-01  7.76D-01
                    CP:  1.44D+00  7.60D-01  9.64D-01
 E= -1530.07519529683     Delta-E=       -0.000009138586 Rises=F Damp=F
 DIIS: error= 7.40D-05 at cycle   9 NSaved=   9.
 NSaved= 9 IEnMin= 9 EnMin= -1530.07519529683     IErMin= 9 ErrMin= 7.40D-05
 ErrMax= 7.40D-05  0.00D+00 EMaxC= 1.00D-01 BMatC= 3.14D-06 BMatP= 1.69D-05
 IDIUse=1 WtCom= 1.00D+00 WtEn= 0.00D+00
 Coeff-Com:  0.114D-05 0.730D-03-0.805D-03-0.400D-02-0.252D-01-0.834D-01
 Coeff-Com: -0.618D-01 0.315D+00 0.859D+00
 Coeff:      0.114D-05 0.730D-03-0.805D-03-0.400D-02-0.252D-01-0.834D-01
 Coeff:     -0.618D-01 0.315D+00 0.859D+00
 Gap=     0.157 Goal=   None    Shift=    0.000
 Gap=     0.127 Goal=   None    Shift=    0.000
 RMSDP=2.15D-05 MaxDP=1.27D-03 DE=-9.14D-06 OVMax= 1.47D-03

 Cycle  10  Pass 1  IDiag  1:
 RMSU=  1.52D-05    CP:  1.02D+00  1.03D-01  8.88D-01  4.59D-01  7.74D-01
                    CP:  1.44D+00  7.46D-01  1.11D+00  1.10D+00
 E= -1530.07519722962     Delta-E=       -0.000001932787 Rises=F Damp=F
 DIIS: error= 1.75D-05 at cycle  10 NSaved=  10.
 NSaved=10 IEnMin=10 EnMin= -1530.07519722962     IErMin=10 ErrMin= 1.75D-05
 ErrMax= 1.75D-05  0.00D+00 EMaxC= 1.00D-01 BMatC= 3.37D-07 BMatP= 3.14D-06
 IDIUse=1 WtCom= 1.00D+00 WtEn= 0.00D+00
 Coeff-Com: -0.158D-03 0.382D-03 0.186D-02 0.327D-02 0.275D-02-0.220D-01
 Coeff-Com: -0.845D-01 0.554D-02 0.268D+00 0.825D+00
 Coeff:     -0.158D-03 0.382D-03 0.186D-02 0.327D-02 0.275D-02-0.220D-01
 Coeff:     -0.845D-01 0.554D-02 0.268D+00 0.825D+00
 Gap=     0.157 Goal=   None    Shift=    0.000
 Gap=     0.127 Goal=   None    Shift=    0.000
 RMSDP=1.51D-05 MaxDP=1.41D-03 DE=-1.93D-06 OVMax= 4.10D-04

 Cycle  11  Pass 1  IDiag  1:
 RMSU=  5.52D-06    CP:  1.02D+00  1.03D-01  8.87D-01  4.59D-01  7.71D-01
                    CP:  1.43D+00  7.38D-01  1.18D+00  1.17D+00  1.01D+00
 E= -1530.07519742271     Delta-E=       -0.000000193089 Rises=F Damp=F
 DIIS: error= 7.90D-06 at cycle  11 NSaved=  11.
 NSaved=11 IEnMin=11 EnMin= -1530.07519742271     IErMin=11 ErrMin= 7.90D-06
 ErrMax= 7.90D-06  0.00D+00 EMaxC= 1.00D-01 BMatC= 1.17D-07 BMatP= 3.37D-07
 IDIUse=1 WtCom= 1.00D+00 WtEn= 0.00D+00
 Coeff-Com: -0.678D-04 0.632D-04 0.110D-02 0.244D-02 0.588D-02 0.594D-02
 Coeff-Com: -0.305D-01-0.478D-01-0.106D-01 0.428D+00 0.646D+00
 Coeff:     -0.678D-04 0.632D-04 0.110D-02 0.244D-02 0.588D-02 0.594D-02
 Coeff:     -0.305D-01-0.478D-01-0.106D-01 0.428D+00 0.646D+00
 Gap=     0.157 Goal=   None    Shift=    0.000
 Gap=     0.127 Goal=   None    Shift=    0.000
 RMSDP=6.98D-06 MaxDP=6.78D-04 DE=-1.93D-07 OVMax= 1.63D-04

 Cycle  12  Pass 1  IDiag  1:
 RMSU=  2.95D-06    CP:  1.02D+00  1.03D-01  8.87D-01  4.59D-01  7.72D-01
                    CP:  1.42D+00  7.30D-01  1.19D+00  1.20D+00  1.11D+00
                    CP:  8.14D-01
 E= -1530.07519746251     Delta-E=       -0.000000039800 Rises=F Damp=F
 DIIS: error= 4.67D-06 at cycle  12 NSaved=  12.
 NSaved=12 IEnMin=12 EnMin= -1530.07519746251     IErMin=12 ErrMin= 4.67D-06
 ErrMax= 4.67D-06  0.00D+00 EMaxC= 1.00D-01 BMatC= 2.89D-08 BMatP= 1.17D-07
 IDIUse=1 WtCom= 1.00D+00 WtEn= 0.00D+00
 Coeff-Com:  0.153D-04-0.842D-04 0.149D-04 0.269D-03 0.182D-02 0.935D-02
 Coeff-Com:  0.776D-02-0.235D-01-0.869D-01-0.343D-01 0.349D+00 0.776D+00
 Coeff:      0.153D-04-0.842D-04 0.149D-04 0.269D-03 0.182D-02 0.935D-02
 Coeff:      0.776D-02-0.235D-01-0.869D-01-0.343D-01 0.349D+00 0.776D+00
 Gap=     0.157 Goal=   None    Shift=    0.000
 Gap=     0.127 Goal=   None    Shift=    0.000
 RMSDP=6.50D-06 MaxDP=4.96D-04 DE=-3.98D-08 OVMax= 1.08D-04

 Cycle  13  Pass 1  IDiag  1:
 RMSU=  1.93D-06    CP:  1.02D+00  1.03D-01  8.87D-01  4.58D-01  7.73D-01
                    CP:  1.42D+00  7.24D-01  1.19D+00  1.22D+00  1.16D+00
                    CP:  1.09D+00  9.97D-01
 E= -1530.07519747579     Delta-E=       -0.000000013287 Rises=F Damp=F
 DIIS: error= 3.05D-06 at cycle  13 NSaved=  13.
 NSaved=13 IEnMin=13 EnMin= -1530.07519747579     IErMin=13 ErrMin= 3.05D-06
 ErrMax= 3.05D-06  0.00D+00 EMaxC= 1.00D-01 BMatC= 9.89D-09 BMatP= 2.89D-08
 IDIUse=1 WtCom= 1.00D+00 WtEn= 0.00D+00
 Coeff-Com:  0.215D-04-0.637D-04-0.170D-03-0.229D-03 0.131D-03 0.507D-02
 Coeff-Com:  0.956D-02-0.583D-02-0.554D-01-0.104D+00 0.127D+00 0.496D+00
 Coeff-Com:  0.528D+00
 Coeff:      0.215D-04-0.637D-04-0.170D-03-0.229D-03 0.131D-03 0.507D-02
 Coeff:      0.956D-02-0.583D-02-0.554D-01-0.104D+00 0.127D+00 0.496D+00
 Coeff:      0.528D+00
 Gap=     0.157 Goal=   None    Shift=    0.000
 Gap=     0.127 Goal=   None    Shift=    0.000
 RMSDP=2.05D-06 MaxDP=1.61D-04 DE=-1.33D-08 OVMax= 4.60D-05

 Cycle  14  Pass 1  IDiag  1:
 RMSU=  5.94D-07    CP:  1.02D+00  1.03D-01  8.87D-01  4.59D-01  7.73D-01
                    CP:  1.42D+00  7.24D-01  1.19D+00  1.22D+00  1.19D+00
                    CP:  1.09D+00  1.30D+00  6.75D-01
 E= -1530.07519747896     Delta-E=       -0.000000003166 Rises=F Damp=F
 DIIS: error= 1.25D-06 at cycle  14 NSaved=  14.
 NSaved=14 IEnMin=14 EnMin= -1530.07519747896     IErMin=14 ErrMin= 1.25D-06
 ErrMax= 1.25D-06  0.00D+00 EMaxC= 1.00D-01 BMatC= 1.87D-09 BMatP= 9.89D-09
 IDIUse=1 WtCom= 1.00D+00 WtEn= 0.00D+00
 Coeff-Com:  0.763D-05-0.102D-04-0.952D-04-0.196D-03-0.427D-03 0.486D-03
 Coeff-Com:  0.294D-02 0.472D-02-0.777D-02-0.575D-01-0.215D-01 0.433D-01
 Coeff-Com:  0.309D+00 0.727D+00
 Coeff:      0.763D-05-0.102D-04-0.952D-04-0.196D-03-0.427D-03 0.486D-03
 Coeff:      0.294D-02 0.472D-02-0.777D-02-0.575D-01-0.215D-01 0.433D-01
 Coeff:      0.309D+00 0.727D+00
 Gap=     0.157 Goal=   None    Shift=    0.000
 Gap=     0.127 Goal=   None    Shift=    0.000
 RMSDP=2.39D-06 MaxDP=1.64D-04 DE=-3.17D-09 OVMax= 3.70D-05

 Cycle  15  Pass 1  IDiag  1:
 RMSU=  4.15D-07    CP:  1.02D+00  1.03D-01  8.87D-01  4.59D-01  7.72D-01
                    CP:  1.42D+00  7.26D-01  1.19D+00  1.23D+00  1.20D+00
                    CP:  1.14D+00  1.31D+00  8.37D-01  9.81D-01
 E= -1530.07519747976     Delta-E=       -0.000000000805 Rises=F Damp=F
 DIIS: error= 6.54D-07 at cycle  15 NSaved=  15.
 NSaved=15 IEnMin=15 EnMin= -1530.07519747976     IErMin=15 ErrMin= 6.54D-07
 ErrMax= 6.54D-07  0.00D+00 EMaxC= 1.00D-01 BMatC= 3.10D-10 BMatP= 1.87D-09
 IDIUse=1 WtCom= 1.00D+00 WtEn= 0.00D+00
 Coeff-Com: -0.134D-05 0.764D-05-0.139D-04-0.429D-04-0.220D-03-0.529D-03
 Coeff-Com: -0.637D-03 0.358D-02 0.520D-02-0.824D-02-0.279D-01-0.795D-01
 Coeff-Com:  0.302D-01 0.327D+00 0.751D+00
 Coeff:     -0.134D-05 0.764D-05-0.139D-04-0.429D-04-0.220D-03-0.529D-03
 Coeff:     -0.637D-03 0.358D-02 0.520D-02-0.824D-02-0.279D-01-0.795D-01
 Coeff:      0.302D-01 0.327D+00 0.751D+00
 Gap=     0.157 Goal=   None    Shift=    0.000
 Gap=     0.127 Goal=   None    Shift=    0.000
 RMSDP=1.01D-06 MaxDP=6.28D-05 DE=-8.05D-10 OVMax= 1.54D-05

 Cycle  16  Pass 1  IDiag  1:
 RMSU=  1.02D-07    CP:  1.02D+00  1.03D-01  8.87D-01  4.59D-01  7.73D-01
                    CP:  1.42D+00  7.25D-01  1.19D+00  1.23D+00  1.20D+00
                    CP:  1.16D+00  1.35D+00  8.64D-01  1.11D+00  8.48D-01
 E= -1530.07519747987     Delta-E=       -0.000000000105 Rises=F Damp=F
 DIIS: error= 2.30D-07 at cycle  16 NSaved=  16.
 NSaved=16 IEnMin=16 EnMin= -1530.07519747987     IErMin=16 ErrMin= 2.30D-07
 ErrMax= 2.30D-07  0.00D+00 EMaxC= 1.00D-01 BMatC= 4.41D-11 BMatP= 3.10D-10
 IDIUse=1 WtCom= 1.00D+00 WtEn= 0.00D+00
 Coeff-Com: -0.176D-05 0.480D-05 0.557D-05 0.103D-04-0.413D-04-0.232D-03
 Coeff-Com: -0.786D-03 0.988D-03 0.288D-02 0.429D-02-0.773D-02-0.436D-01
 Coeff-Com: -0.307D-01 0.528D-01 0.343D+00 0.679D+00
 Coeff:     -0.176D-05 0.480D-05 0.557D-05 0.103D-04-0.413D-04-0.232D-03
 Coeff:     -0.786D-03 0.988D-03 0.288D-02 0.429D-02-0.773D-02-0.436D-01
 Coeff:     -0.307D-01 0.528D-01 0.343D+00 0.679D+00
 Gap=     0.157 Goal=   None    Shift=    0.000
 Gap=     0.127 Goal=   None    Shift=    0.000
 RMSDP=9.93D-08 MaxDP=7.87D-06 DE=-1.05D-10 OVMax= 4.75D-06

 Cycle  17  Pass 1  IDiag  1:
 RMSU=  3.70D-08    CP:  1.02D+00  1.03D-01  8.87D-01  4.59D-01  7.73D-01
                    CP:  1.42D+00  7.24D-01  1.19D+00  1.23D+00  1.20D+00
                    CP:  1.16D+00  1.35D+00  8.71D-01  1.12D+00  8.80D-01
                    CP:  9.76D-01
 E= -1530.07519747992     Delta-E=       -0.000000000047 Rises=F Damp=F
 DIIS: error= 7.80D-08 at cycle  17 NSaved=  17.
 NSaved=17 IEnMin=17 EnMin= -1530.07519747992     IErMin=17 ErrMin= 7.80D-08
 ErrMax= 7.80D-08  0.00D+00 EMaxC= 1.00D-01 BMatC= 4.32D-12 BMatP= 4.41D-11
 IDIUse=1 WtCom= 1.00D+00 WtEn= 0.00D+00
 Coeff-Com: -0.505D-06 0.857D-06 0.384D-05 0.964D-05 0.705D-05-0.220D-04
 Coeff-Com: -0.223D-03-0.674D-04 0.453D-03 0.275D-02 0.900D-03-0.672D-02
 Coeff-Com: -0.177D-01-0.277D-01 0.135D-01 0.261D+00 0.774D+00
 Coeff:     -0.505D-06 0.857D-06 0.384D-05 0.964D-05 0.705D-05-0.220D-04
 Coeff:     -0.223D-03-0.674D-04 0.453D-03 0.275D-02 0.900D-03-0.672D-02
 Coeff:     -0.177D-01-0.277D-01 0.135D-01 0.261D+00 0.774D+00
 Gap=     0.157 Goal=   None    Shift=    0.000
 Gap=     0.127 Goal=   None    Shift=    0.000
 RMSDP=1.32D-07 MaxDP=7.85D-06 DE=-4.66D-11 OVMax= 1.83D-06

 Cycle  18  Pass 1  IDiag  1:
 RMSU=  1.50D-08    CP:  1.02D+00  1.03D-01  8.87D-01  4.59D-01  7.73D-01
                    CP:  1.42D+00  7.24D-01  1.19D+00  1.23D+00  1.20D+00
                    CP:  1.16D+00  1.35D+00  8.69D-01  1.12D+00  9.09D-01
                    CP:  1.04D+00  1.05D+00
 E= -1530.07519747990     Delta-E=        0.000000000011 Rises=F Damp=F
 DIIS: error= 1.42D-08 at cycle  18 NSaved=  18.
 NSaved=18 IEnMin=17 EnMin= -1530.07519747992     IErMin=18 ErrMin= 1.42D-08
 ErrMax= 1.42D-08  0.00D+00 EMaxC= 1.00D-01 BMatC= 2.28D-13 BMatP= 4.32D-12
 IDIUse=1 WtCom= 1.00D+00 WtEn= 0.00D+00
 Coeff-Com:  0.149D-06-0.420D-06 0.363D-06 0.819D-06 0.688D-05 0.218D-04
 Coeff-Com:  0.397D-04-0.122D-03-0.234D-03-0.410D-04 0.107D-02 0.358D-02
 Coeff-Com:  0.147D-03-0.978D-02-0.305D-01-0.282D-01 0.127D+00 0.937D+00
 Coeff:      0.149D-06-0.420D-06 0.363D-06 0.819D-06 0.688D-05 0.218D-04
 Coeff:      0.397D-04-0.122D-03-0.234D-03-0.410D-04 0.107D-02 0.358D-02
 Coeff:      0.147D-03-0.978D-02-0.305D-01-0.282D-01 0.127D+00 0.937D+00
 Gap=     0.157 Goal=   None    Shift=    0.000
 Gap=     0.127 Goal=   None    Shift=    0.000
 RMSDP=4.02D-08 MaxDP=3.01D-06 DE= 1.14D-11 OVMax= 2.91D-07

 Cycle  19  Pass 1  IDiag  1:
 RMSU=  8.56D-09    CP:  1.02D+00  1.03D-01  8.87D-01  4.59D-01  7.73D-01
                    CP:  1.42D+00  7.24D-01  1.19D+00  1.23D+00  1.20D+00
                    CP:  1.16D+00  1.35D+00  8.68D-01  1.11D+00  8.96D-01
                    CP:  1.06D+00  1.16D+00  8.20D-01
 E= -1530.07519747990     Delta-E=        0.000000000003 Rises=F Damp=F
 DIIS: error= 1.15D-08 at cycle  19 NSaved=  19.
 NSaved=19 IEnMin=17 EnMin= -1530.07519747992     IErMin=19 ErrMin= 1.15D-08
 ErrMax= 1.15D-08  0.00D+00 EMaxC= 1.00D-01 BMatC= 9.75D-14 BMatP= 2.28D-13
 IDIUse=1 WtCom= 1.00D+00 WtEn= 0.00D+00
 Coeff-Com:  0.118D-06-0.292D-06 0.832D-08-0.905D-07 0.381D-05 0.134D-04
 Coeff-Com:  0.358D-04-0.656D-04-0.160D-03-0.191D-03 0.544D-03 0.247D-02
 Coeff-Com:  0.118D-02-0.392D-02-0.175D-01-0.317D-01 0.221D-01 0.527D+00
 Coeff-Com:  0.500D+00
 Coeff:      0.118D-06-0.292D-06 0.832D-08-0.905D-07 0.381D-05 0.134D-04
 Coeff:      0.358D-04-0.656D-04-0.160D-03-0.191D-03 0.544D-03 0.247D-02
 Coeff:      0.118D-02-0.392D-02-0.175D-01-0.317D-01 0.221D-01 0.527D+00
 Coeff:      0.500D+00
 Gap=     0.157 Goal=   None    Shift=    0.000
 Gap=     0.127 Goal=   None    Shift=    0.000
 RMSDP=8.03D-09 MaxDP=7.01D-07 DE= 2.73D-12 OVMax= 8.18D-08

 Error on total polarization charges =  0.02015
 SCF Done:  E(UB3LYP) =  -1530.07519748     A.U. after   19 cycles
            NFock= 19  Conv=0.80D-08     -V/T= 2.0029
 <Sx>= 0.0000 <Sy>= 0.0000 <Sz>= 0.5000 <S**2>= 0.7595 S= 0.5047
 <L.S>=  0.00000000000    
 KE= 1.525651062069D+03 PE=-5.871473364437D+03 EE= 1.697254930835D+03
 Annihilation of the first spin contaminant:
 S**2 before annihilation     0.7595,   after     0.7500
 Leave Link  502 at Sat Feb 10 10:04:56 2024, MaxMem=  4026531840 cpu:            1516.4 elap:             195.2
 (Enter /sysapps/ubuntu-applications/gaussian/Gaussian/AVX2/g16/l601.exe)
 Copying SCF densities to generalized density rwf, IOpCl= 1 IROHF=0.

 **********************************************************************

            Population analysis using the SCF density.

 **********************************************************************

 Alpha  occ. eigenvalues -- -101.55267-101.55266 -19.14907 -19.14907 -19.09207
 Alpha  occ. eigenvalues --  -19.09206 -10.24379 -10.24377 -10.23950 -10.23948
 Alpha  occ. eigenvalues --  -10.22833 -10.22832 -10.21156 -10.21155  -9.46709
 Alpha  occ. eigenvalues --   -9.46708  -7.23158  -7.23157  -7.22227  -7.22226
 Alpha  occ. eigenvalues --   -7.22142  -7.22140  -1.06873  -1.06656  -1.01597
 Alpha  occ. eigenvalues --   -1.01592  -0.87962  -0.86614  -0.80811  -0.75151
 Alpha  occ. eigenvalues --   -0.70716  -0.69445  -0.66332  -0.59232  -0.58563
 Alpha  occ. eigenvalues --   -0.53546  -0.51294  -0.50465  -0.47570  -0.46389
 Alpha  occ. eigenvalues --   -0.45408  -0.44649  -0.43705  -0.43350  -0.42211
 Alpha  occ. eigenvalues --   -0.41861  -0.39687  -0.39402  -0.36777  -0.36126
 Alpha  occ. eigenvalues --   -0.34563  -0.34195  -0.31953  -0.31669  -0.30771
 Alpha  occ. eigenvalues --   -0.29474  -0.27382  -0.25731  -0.25495  -0.23530
 Alpha  occ. eigenvalues --   -0.17374
 Alpha virt. eigenvalues --   -0.01669  -0.00858   0.00736   0.00828   0.01226
 Alpha virt. eigenvalues --    0.02044   0.03120   0.03524   0.03629   0.03860
 Alpha virt. eigenvalues --    0.04111   0.05455   0.05913   0.06186   0.06850
 Alpha virt. eigenvalues --    0.07415   0.08265   0.08601   0.09103   0.09913
 Alpha virt. eigenvalues --    0.10072   0.10136   0.10315   0.11725   0.12199
 Alpha virt. eigenvalues --    0.12594   0.12814   0.13083   0.13290   0.13437
 Alpha virt. eigenvalues --    0.14493   0.15122   0.15892   0.16310   0.16452
 Alpha virt. eigenvalues --    0.16563   0.17387   0.17926   0.18019   0.18456
 Alpha virt. eigenvalues --    0.18537   0.19040   0.19152   0.19966   0.21531
 Alpha virt. eigenvalues --    0.22048   0.22308   0.23206   0.23267   0.23930
 Alpha virt. eigenvalues --    0.24084   0.24963   0.24969   0.25711   0.26139
 Alpha virt. eigenvalues --    0.26350   0.28281   0.28338   0.28873   0.29474
 Alpha virt. eigenvalues --    0.29924   0.30021   0.30930   0.31700   0.31865
 Alpha virt. eigenvalues --    0.32186   0.32677   0.33453   0.33777   0.34236
 Alpha virt. eigenvalues --    0.35030   0.35952   0.36933   0.37388   0.38255
 Alpha virt. eigenvalues --    0.38766   0.39395   0.39463   0.40827   0.41058
 Alpha virt. eigenvalues --    0.43546   0.43773   0.45852   0.46806   0.48842
 Alpha virt. eigenvalues --    0.49025   0.49061   0.50483   0.51099   0.51147
 Alpha virt. eigenvalues --    0.52895   0.53011   0.56187   0.59866   0.60330
 Alpha virt. eigenvalues --    0.60863   0.62190   0.62267   0.62984   0.63600
 Alpha virt. eigenvalues --    0.64149   0.65219   0.66518   0.66879   0.67575
 Alpha virt. eigenvalues --    0.67579   0.68364   0.69839   0.71320   0.71947
 Alpha virt. eigenvalues --    0.72661   0.73493   0.75735   0.78241   0.84090
 Alpha virt. eigenvalues --    0.84873   0.85475   0.86334   0.86837   0.87260
 Alpha virt. eigenvalues --    0.87911   0.89061   0.90823   0.91688   0.91999
 Alpha virt. eigenvalues --    0.93571   0.94080   0.95450   0.95581   0.97399
 Alpha virt. eigenvalues --    0.98515   1.00576   1.02687   1.03298   1.03776
 Alpha virt. eigenvalues --    1.05306   1.06566   1.09867   1.10088   1.10313
 Alpha virt. eigenvalues --    1.12286   1.15465   1.17677   1.18444   1.19265
 Alpha virt. eigenvalues --    1.20452   1.22325   1.23429   1.24160   1.24421
 Alpha virt. eigenvalues --    1.26474   1.28935   1.29245   1.30353   1.30766
 Alpha virt. eigenvalues --    1.32669   1.33360   1.33687   1.38502   1.40523
 Alpha virt. eigenvalues --    1.40636   1.41614   1.47061   1.47067   1.48087
 Alpha virt. eigenvalues --    1.49555   1.58184   1.58518   1.58984   1.59657
 Alpha virt. eigenvalues --    1.63115   1.66510   1.68694   1.69322   1.69613
 Alpha virt. eigenvalues --    1.70745   1.72916   1.73011   1.73986   1.75671
 Alpha virt. eigenvalues --    1.76145   1.76717   1.77094   1.79067   1.80784
 Alpha virt. eigenvalues --    1.81336   1.83330   1.84837   1.85434   1.88362
 Alpha virt. eigenvalues --    1.91619   1.93911   2.02294   2.03052   2.09632
 Alpha virt. eigenvalues --    2.12843   2.14924   2.14964   2.16998   2.19924
 Alpha virt. eigenvalues --    2.20715   2.21571   2.22733   2.28470   2.29478
 Alpha virt. eigenvalues --    2.30046   2.34614   2.35406   2.40804   2.41977
 Alpha virt. eigenvalues --    2.45748   2.45762   2.51121   2.52386   2.52529
 Alpha virt. eigenvalues --    2.52657   2.53175   2.55782   2.58609   2.59203
 Alpha virt. eigenvalues --    2.60416   2.61810   2.65966   2.66818   2.72414
 Alpha virt. eigenvalues --    2.72808   2.81930   2.83092   2.83200   2.88007
 Alpha virt. eigenvalues --    2.88793   2.91220   2.92357   2.95149   2.99218
 Alpha virt. eigenvalues --    3.02230   3.02644   3.03640   3.06311   3.07125
 Alpha virt. eigenvalues --    3.08604   3.12963   3.14636   3.15376   3.16958
 Alpha virt. eigenvalues --    3.20519   3.27614   3.29972   3.30369   3.33900
 Alpha virt. eigenvalues --    3.35612   3.38211   3.41544   3.52528   3.53490
 Alpha virt. eigenvalues --    3.56834   3.58961   3.76352   3.79496   3.80283
 Alpha virt. eigenvalues --    3.81981   3.84182   3.89110   3.98030   4.01886
 Alpha virt. eigenvalues --    4.02354   4.19351   4.21731   4.23401   4.77457
 Alpha virt. eigenvalues --    5.06698   5.07226   5.12152   5.13806   5.25159
 Alpha virt. eigenvalues --    5.28997   5.35863   5.38172   5.61045   5.74776
 Alpha virt. eigenvalues --    5.81683   5.84397   9.78809   9.80436  23.48191
 Alpha virt. eigenvalues --   23.72492  23.88637  23.91880  23.92495  23.93463
 Alpha virt. eigenvalues --   24.02424  24.06092  25.87721  25.88591  26.16719
 Alpha virt. eigenvalues --   26.30692  26.61039  26.64672  49.91482  49.94153
 Alpha virt. eigenvalues --   50.03766  50.07542 215.78194 215.79980
  Beta  occ. eigenvalues -- -101.55265-101.55264 -19.14875 -19.14875 -19.08539
  Beta  occ. eigenvalues --  -19.08537 -10.24226 -10.24225 -10.23793 -10.23792
  Beta  occ. eigenvalues --  -10.22777 -10.22776 -10.21147 -10.21146  -9.46707
  Beta  occ. eigenvalues --   -9.46706  -7.23161  -7.23160  -7.22216  -7.22215
  Beta  occ. eigenvalues --   -7.22141  -7.22140  -1.06693  -1.06505  -1.00511
  Beta  occ. eigenvalues --   -1.00463  -0.87700  -0.86519  -0.80442  -0.74896
  Beta  occ. eigenvalues --   -0.70594  -0.68794  -0.65913  -0.58879  -0.58215
  Beta  occ. eigenvalues --   -0.53358  -0.51169  -0.50227  -0.46986  -0.46132
  Beta  occ. eigenvalues --   -0.45282  -0.44462  -0.43356  -0.43171  -0.41599
  Beta  occ. eigenvalues --   -0.40773  -0.39087  -0.37867  -0.36251  -0.35760
  Beta  occ. eigenvalues --   -0.33923  -0.33344  -0.31717  -0.31601  -0.30405
  Beta  occ. eigenvalues --   -0.29056  -0.25183  -0.25107  -0.24933  -0.22976
  Beta virt. eigenvalues --   -0.10310  -0.01189   0.00059   0.00846   0.01259
  Beta virt. eigenvalues --    0.01265   0.03134   0.03549   0.03688   0.03880
  Beta virt. eigenvalues --    0.04062   0.04318   0.05487   0.05983   0.06219
  Beta virt. eigenvalues --    0.06904   0.07462   0.08333   0.08620   0.09140
  Beta virt. eigenvalues --    0.09962   0.10107   0.10177   0.10343   0.11753
  Beta virt. eigenvalues --    0.12290   0.12630   0.12834   0.13312   0.13314
  Beta virt. eigenvalues --    0.13470   0.14805   0.15161   0.15931   0.16490
  Beta virt. eigenvalues --    0.16665   0.17100   0.17436   0.18008   0.18062
  Beta virt. eigenvalues --    0.18616   0.18648   0.19027   0.19245   0.19985
  Beta virt. eigenvalues --    0.21630   0.22086   0.22400   0.23278   0.23392
  Beta virt. eigenvalues --    0.24157   0.24195   0.25048   0.25097   0.25915
  Beta virt. eigenvalues --    0.26309   0.26432   0.28400   0.28408   0.29173
  Beta virt. eigenvalues --    0.29611   0.30062   0.30083   0.31192   0.31774
  Beta virt. eigenvalues --    0.31922   0.32427   0.32729   0.33517   0.33836
  Beta virt. eigenvalues --    0.34331   0.35245   0.36160   0.37073   0.37436
  Beta virt. eigenvalues --    0.38314   0.38945   0.39543   0.39628   0.40950
  Beta virt. eigenvalues --    0.41165   0.43772   0.43928   0.46026   0.46882
  Beta virt. eigenvalues --    0.48899   0.49062   0.49092   0.50537   0.51214
  Beta virt. eigenvalues --    0.51312   0.53006   0.53138   0.56612   0.59935
  Beta virt. eigenvalues --    0.60447   0.60954   0.62399   0.62428   0.63131
  Beta virt. eigenvalues --    0.63926   0.64498   0.65316   0.66747   0.67120
  Beta virt. eigenvalues --    0.67756   0.67791   0.68587   0.70108   0.71434
  Beta virt. eigenvalues --    0.71988   0.72974   0.73607   0.75846   0.78305
  Beta virt. eigenvalues --    0.84191   0.84992   0.85567   0.86586   0.87002
  Beta virt. eigenvalues --    0.87649   0.87972   0.89229   0.90969   0.91803
  Beta virt. eigenvalues --    0.92200   0.93830   0.94215   0.95519   0.95755
  Beta virt. eigenvalues --    0.97546   0.98669   1.00866   1.02880   1.03742
  Beta virt. eigenvalues --    1.03910   1.05576   1.07038   1.09950   1.10409
  Beta virt. eigenvalues --    1.10483   1.12985   1.15637   1.18229   1.18816
  Beta virt. eigenvalues --    1.19373   1.21395   1.22660   1.24002   1.24447
  Beta virt. eigenvalues --    1.24775   1.26900   1.29124   1.29497   1.30737
  Beta virt. eigenvalues --    1.31291   1.32918   1.33574   1.33840   1.38881
  Beta virt. eigenvalues --    1.40564   1.40795   1.41820   1.47130   1.47309
  Beta virt. eigenvalues --    1.48364   1.49671   1.58199   1.58574   1.59019
  Beta virt. eigenvalues --    1.59681   1.63229   1.66671   1.68847   1.69532
  Beta virt. eigenvalues --    1.69676   1.71230   1.73125   1.73208   1.74139
  Beta virt. eigenvalues --    1.75946   1.76373   1.77044   1.77368   1.79279
  Beta virt. eigenvalues --    1.81277   1.81767   1.83705   1.85406   1.85667
  Beta virt. eigenvalues --    1.88886   1.92066   1.94553   2.02346   2.03130
  Beta virt. eigenvalues --    2.09985   2.12945   2.15055   2.15274   2.17250
  Beta virt. eigenvalues --    2.20010   2.20963   2.21659   2.23159   2.28537
  Beta virt. eigenvalues --    2.29538   2.30171   2.34772   2.36007   2.40861
  Beta virt. eigenvalues --    2.42166   2.45763   2.45779   2.51187   2.52412
  Beta virt. eigenvalues --    2.52554   2.52694   2.53230   2.55810   2.58656
  Beta virt. eigenvalues --    2.59241   2.60505   2.62432   2.65988   2.66946
  Beta virt. eigenvalues --    2.73153   2.73640   2.82461   2.83697   2.83851
  Beta virt. eigenvalues --    2.88402   2.89864   2.92950   2.94108   2.96309
  Beta virt. eigenvalues --    2.99307   3.02419   3.02880   3.04588   3.07052
  Beta virt. eigenvalues --    3.07318   3.08728   3.13166   3.14770   3.15771
  Beta virt. eigenvalues --    3.17271   3.20740   3.28131   3.30193   3.30759
  Beta virt. eigenvalues --    3.35290   3.37164   3.38356   3.41707   3.52791
  Beta virt. eigenvalues --    3.54130   3.57024   3.59222   3.76836   3.79532
  Beta virt. eigenvalues --    3.80360   3.82018   3.84326   3.89441   3.98249
  Beta virt. eigenvalues --    4.01954   4.02497   4.19590   4.21992   4.23730
  Beta virt. eigenvalues --    4.77979   5.08663   5.09171   5.13624   5.14247
  Beta virt. eigenvalues --    5.25616   5.29475   5.35992   5.38306   5.61334
  Beta virt. eigenvalues --    5.75027   5.82017   5.84782   9.78814   9.80441
  Beta virt. eigenvalues --   23.48317  23.72623  23.88814  23.91916  23.92506
  Beta virt. eigenvalues --   23.93626  24.02548  24.06216  25.87735  25.88606
  Beta virt. eigenvalues --   26.16721  26.30694  26.61038  26.64671  49.91587
  Beta virt. eigenvalues --   49.94248  50.04363  50.08149 215.78195 215.79981
          Condensed to atoms (all electrons):
               1          2          3          4          5          6
     1  C    5.123154   0.118273  -0.095937   0.190137  -0.023923   0.081156
     2  O    0.118273   8.131928   0.459800  -0.497749  -0.009694   0.070590
     3  C   -0.095937   0.459800  40.901117 -14.773612   0.961885 -13.641832
     4  C    0.190137  -0.497749 -14.773612  39.536953  -2.450145   2.766342
     5  Cl  -0.023923  -0.009694   0.961885  -2.450145  17.585275   0.187007
     6  C    0.081156   0.070590 -13.641832   2.766342   0.187007  28.974415
     7  O    0.000118  -0.002583   0.153403  -0.152697   0.040780   0.507414
     8  C    0.030070  -0.044458   0.635772  -9.391161   0.092967   2.840662
     9  C   -0.123953   0.065407  -9.372980   0.112535   0.150022 -11.464715
    10  Cl  -0.003036   0.000180   0.093097   0.150971  -0.012338   0.213437
    11  C   -0.182546  -0.009991   2.800618 -11.410307   0.213707  -3.671663
    12  O   -0.032708   0.031790  -0.359536  -0.021362   0.001549  -0.074493
    13  O    0.000304   0.000725  -0.044350   0.065731   0.000182  -0.009992
    14  C    0.001667   0.000304   0.030179  -0.124193  -0.003047  -0.182263
    15  H    0.398060  -0.054637  -0.014538   0.024772   0.024744  -0.027695
    16  H    0.388579  -0.055750   0.014950  -0.034719   0.002675  -0.003613
    17  H    0.426233  -0.034688  -0.078894   0.038301  -0.007079   0.014363
    18  H   -0.000006  -0.000032  -0.017889  -0.003078   0.001980   0.036886
    19  H   -0.000285   0.000032  -0.002312   0.010262  -0.001291  -0.011207
    20  H    0.000047   0.000028   0.005205   0.018408   0.000541   0.015150
               7          8          9         10         11         12
     1  C    0.000118   0.030070  -0.123953  -0.003036  -0.182546  -0.032708
     2  O   -0.002583  -0.044458   0.065407   0.000180  -0.009991   0.031790
     3  C    0.153403   0.635772  -9.372980   0.093097   2.800618  -0.359536
     4  C   -0.152697  -9.391161   0.112535   0.150971 -11.410307  -0.021362
     5  Cl   0.040780   0.092967   0.150022  -0.012338   0.213707   0.001549
     6  C    0.507414   2.840662 -11.464715   0.213437  -3.671663  -0.074493
     7  O    8.344231  -0.360720  -0.019372   0.001541  -0.074461   0.000675
     8  C   -0.360720  40.819880 -14.667069   0.955393 -13.686570   0.154413
     9  C   -0.019372 -14.667069  39.459028  -2.448241   2.775086  -0.151515
    10  Cl   0.001541   0.955393  -2.448241  17.585183   0.190771   0.040744
    11  C   -0.074461 -13.686570   2.775086   0.190771  28.992602   0.505717
    12  O    0.000675   0.154413  -0.151515   0.040744   0.505717   8.344771
    13  O    0.031822   0.461132  -0.499356  -0.009583   0.070326  -0.002583
    14  C   -0.032889  -0.094607   0.188803  -0.023892   0.080916   0.000115
    15  H    0.000387  -0.002264   0.010243  -0.001300  -0.010972   0.009225
    16  H    0.000096   0.005239   0.018483   0.000541   0.015222  -0.000650
    17  H   -0.000059  -0.018102  -0.003317   0.002002   0.036647  -0.018526
    18  H   -0.018509  -0.078391   0.037273  -0.007076   0.014272  -0.000059
    19  H    0.009231  -0.015544   0.025747   0.024650  -0.027312   0.000386
    20  H   -0.000646   0.014898  -0.034457   0.002695  -0.003667   0.000096
              13         14         15         16         17         18
     1  C    0.000304   0.001667   0.398060   0.388579   0.426233  -0.000006
     2  O    0.000725   0.000304  -0.054637  -0.055750  -0.034688  -0.000032
     3  C   -0.044350   0.030179  -0.014538   0.014950  -0.078894  -0.017889
     4  C    0.065731  -0.124193   0.024772  -0.034719   0.038301  -0.003078
     5  Cl   0.000182  -0.003047   0.024744   0.002675  -0.007079   0.001980
     6  C   -0.009992  -0.182263  -0.027695  -0.003613   0.014363   0.036886
     7  O    0.031822  -0.032889   0.000387   0.000096  -0.000059  -0.018509
     8  C    0.461132  -0.094607  -0.002264   0.005239  -0.018102  -0.078391
     9  C   -0.499356   0.188803   0.010243   0.018483  -0.003317   0.037273
    10  Cl  -0.009583  -0.023892  -0.001300   0.000541   0.002002  -0.007076
    11  C    0.070326   0.080916  -0.010972   0.015222   0.036647   0.014272
    12  O   -0.002583   0.000115   0.009225  -0.000650  -0.018526  -0.000059
    13  O    8.132052   0.118202   0.000032   0.000028  -0.000031  -0.034726
    14  C    0.118202   5.123417  -0.000284   0.000047  -0.000007   0.426312
    15  H    0.000032  -0.000284   0.591852  -0.030623  -0.054699   0.000000
    16  H    0.000028   0.000047  -0.030623   0.545207  -0.027003   0.000011
    17  H   -0.000031  -0.000007  -0.054699  -0.027003   0.546823   0.000056
    18  H   -0.034726   0.426312   0.000000   0.000011   0.000056   0.546520
    19  H   -0.054544   0.397870  -0.000036  -0.000011   0.000000  -0.054645
    20  H   -0.055758   0.388599  -0.000011   0.000001   0.000011  -0.026993
              19         20
     1  C   -0.000285   0.000047
     2  O    0.000032   0.000028
     3  C   -0.002312   0.005205
     4  C    0.010262   0.018408
     5  Cl  -0.001291   0.000541
     6  C   -0.011207   0.015150
     7  O    0.009231  -0.000646
     8  C   -0.015544   0.014898
     9  C    0.025747  -0.034457
    10  Cl   0.024650   0.002695
    11  C   -0.027312  -0.003667
    12  O    0.000386   0.000096
    13  O   -0.054544  -0.055758
    14  C    0.397870   0.388599
    15  H   -0.000036  -0.000011
    16  H   -0.000011   0.000001
    17  H    0.000000   0.000011
    18  H   -0.054645  -0.026993
    19  H    0.591818  -0.030602
    20  H   -0.030602   0.545188
          Atomic-Atomic Spin Densities.
               1          2          3          4          5          6
     1  C    0.000443   0.004842  -0.004545   0.000955  -0.001122   0.000852
     2  O    0.004842   0.020352  -0.038699   0.022451  -0.001158   0.002168
     3  C   -0.004545  -0.038699   0.061035  -0.099341   0.020829   0.034253
     4  C    0.000955   0.022451  -0.099341  -0.047303  -0.005749   0.076551
     5  Cl  -0.001122  -0.001158   0.020829  -0.005749   0.004788  -0.007041
     6  C    0.000852   0.002168   0.034253   0.076551  -0.007041   0.001176
     7  O    0.000039  -0.000136   0.013387  -0.025217  -0.000840  -0.069648
     8  C   -0.000290   0.001246   0.006735   0.146514  -0.014390   0.031942
     9  C    0.000939  -0.004825   0.146621  -0.067621   0.001289   0.010804
    10  Cl  -0.000181   0.000446  -0.014400   0.001287  -0.000200   0.006295
    11  C    0.002775  -0.006139   0.031909   0.010801   0.006303   0.007561
    12  O    0.000261   0.003165  -0.015082   0.004535  -0.000499  -0.004091
    13  O    0.000025  -0.000087   0.001242  -0.004821   0.000446  -0.006168
    14  C   -0.000196   0.000024  -0.000296   0.000942  -0.000177   0.002870
    15  H    0.000081  -0.001531   0.007354  -0.001552   0.000337   0.000100
    16  H    0.000183  -0.000516   0.004621   0.000661   0.000126  -0.000051
    17  H   -0.000451   0.000798  -0.008893   0.001168  -0.000136   0.000318
    18  H    0.000051  -0.000011   0.000240   0.000455   0.000089   0.003170
    19  H   -0.000027   0.000008  -0.000736  -0.000215  -0.000041  -0.002449
    20  H   -0.000024   0.000003  -0.000181  -0.000804  -0.000014  -0.003186
               7          8          9         10         11         12
     1  C    0.000039  -0.000290   0.000939  -0.000181   0.002775   0.000261
     2  O   -0.000136   0.001246  -0.004825   0.000446  -0.006139   0.003165
     3  C    0.013387   0.006735   0.146621  -0.014400   0.031909  -0.015082
     4  C   -0.025217   0.146514  -0.067621   0.001287   0.010801   0.004535
     5  Cl  -0.000840  -0.014390   0.001289  -0.000200   0.006303  -0.000499
     6  C   -0.069648   0.031942   0.010804   0.006295   0.007561  -0.004091
     7  O    0.337509  -0.015071   0.004526  -0.000500  -0.004100  -0.000129
     8  C   -0.015071   0.061714  -0.099679   0.020754   0.034051   0.013386
     9  C    0.004526  -0.099679  -0.046858  -0.005676   0.076380  -0.025172
    10  Cl  -0.000500   0.020754  -0.005676   0.004772  -0.007000  -0.000847
    11  C   -0.004100   0.034051   0.076380  -0.007000   0.001523  -0.069669
    12  O   -0.000129   0.013386  -0.025172  -0.000847  -0.069669   0.337381
    13  O    0.003167  -0.038683   0.022430  -0.001155   0.002187  -0.000136
    14  C    0.000279  -0.004649   0.000924  -0.001128   0.000862   0.000038
    15  H    0.000018  -0.000734  -0.000206  -0.000041  -0.002412  -0.000694
    16  H    0.000007  -0.000182  -0.000799  -0.000015  -0.003181  -0.000227
    17  H   -0.000008   0.000242   0.000436   0.000091   0.003171   0.001704
    18  H    0.001691  -0.008878   0.001151  -0.000135   0.000316  -0.000008
    19  H   -0.000698   0.007396  -0.001534   0.000338   0.000103   0.000018
    20  H   -0.000227   0.004607   0.000678   0.000126  -0.000044   0.000007
              13         14         15         16         17         18
     1  C    0.000025  -0.000196   0.000081   0.000183  -0.000451   0.000051
     2  O   -0.000087   0.000024  -0.001531  -0.000516   0.000798  -0.000011
     3  C    0.001242  -0.000296   0.007354   0.004621  -0.008893   0.000240
     4  C   -0.004821   0.000942  -0.001552   0.000661   0.001168   0.000455
     5  Cl   0.000446  -0.000177   0.000337   0.000126  -0.000136   0.000089
     6  C   -0.006168   0.002870   0.000100  -0.000051   0.000318   0.003170
     7  O    0.003167   0.000279   0.000018   0.000007  -0.000008   0.001691
     8  C   -0.038683  -0.004649  -0.000734  -0.000182   0.000242  -0.008878
     9  C    0.022430   0.000924  -0.000206  -0.000799   0.000436   0.001151
    10  Cl  -0.001155  -0.001128  -0.000041  -0.000015   0.000091  -0.000135
    11  C    0.002187   0.000862  -0.002412  -0.003181   0.003171   0.000316
    12  O   -0.000136   0.000038  -0.000694  -0.000227   0.001704  -0.000008
    13  O    0.020357   0.004869   0.000008   0.000003  -0.000011   0.000796
    14  C    0.004869   0.000418  -0.000026  -0.000024   0.000051  -0.000436
    15  H    0.000008  -0.000026   0.000551   0.000672  -0.001073   0.000016
    16  H    0.000003  -0.000024   0.000672   0.000545  -0.001138   0.000010
    17  H   -0.000011   0.000051  -0.001073  -0.001138   0.003125  -0.000017
    18  H    0.000796  -0.000436   0.000016   0.000010  -0.000017   0.003112
    19  H   -0.001540   0.000076  -0.000008  -0.000004   0.000016  -0.001074
    20  H   -0.000517   0.000179  -0.000004  -0.000004   0.000010  -0.001129
              19         20
     1  C   -0.000027  -0.000024
     2  O    0.000008   0.000003
     3  C   -0.000736  -0.000181
     4  C   -0.000215  -0.000804
     5  Cl  -0.000041  -0.000014
     6  C   -0.002449  -0.003186
     7  O   -0.000698  -0.000227
     8  C    0.007396   0.004607
     9  C   -0.001534   0.000678
    10  Cl   0.000338   0.000126
    11  C    0.000103  -0.000044
    12  O    0.000018   0.000007
    13  O   -0.001540  -0.000517
    14  C    0.000076   0.000179
    15  H   -0.000008  -0.000004
    16  H   -0.000004  -0.000004
    17  H    0.000016   0.000010
    18  H   -0.001074  -0.001129
    19  H    0.000561   0.000671
    20  H    0.000671   0.000536
 Mulliken charges and spin densities:
               1          2
     1  C   -0.295404   0.004612
     2  O   -0.169475   0.002403
     3  C   -1.654146   0.146052
     4  C    1.944612   0.013696
     5  Cl   0.244203   0.002839
     6  C   -0.619950   0.085428
     7  O   -0.427765   0.244048
     8  C   -1.651539   0.146033
     9  C    1.942349   0.013806
    10  Cl   0.244261   0.002831
    11  C   -0.618396   0.085397
    12  O   -0.428049   0.243940
    13  O   -0.169613   0.002412
    14  C   -0.295246   0.004600
    15  H    0.137745   0.000855
    16  H    0.161290   0.000687
    17  H    0.177969  -0.000593
    18  H    0.178094  -0.000590
    19  H    0.137792   0.000861
    20  H    0.161267   0.000682
 Sum of Mulliken charges =  -1.00000   1.00000
 Mulliken charges and spin densities with hydrogens summed into heavy atoms:
               1          2
     1  C    0.181601   0.005561
     2  O   -0.169475   0.002403
     3  C   -1.654146   0.146052
     4  C    1.944612   0.013696
     5  Cl   0.244203   0.002839
     6  C   -0.619950   0.085428
     7  O   -0.427765   0.244048
     8  C   -1.651539   0.146033
     9  C    1.942349   0.013806
    10  Cl   0.244261   0.002831
    11  C   -0.618396   0.085397
    12  O   -0.428049   0.243940
    13  O   -0.169613   0.002412
    14  C    0.181907   0.005553
 Electronic spatial extent (au):  <R**2>=           3569.9723
 Charge=             -1.0000 electrons
 Dipole moment (field-independent basis, Debye):
    X=             -0.2425    Y=             -0.0591    Z=              5.6521  Tot=              5.6576
 Quadrupole moment (field-independent basis, Debye-Ang):
   XX=           -107.1856   YY=           -130.9384   ZZ=            -99.7703
   XY=             -9.7481   XZ=             -0.4507   YZ=             -0.7896
 Traceless Quadrupole moment (field-independent basis, Debye-Ang):
   XX=              5.4458   YY=            -18.3070   ZZ=             12.8611
   XY=             -9.7481   XZ=             -0.4507   YZ=             -0.7896
 Octapole moment (field-independent basis, Debye-Ang**2):
  XXX=             -9.4156  YYY=             -1.6379  ZZZ=            104.4458  XYY=             -2.2889
  XXY=             -1.1137  XXZ=             73.7252  XZZ=              2.1629  YZZ=              0.4348
  YYZ=             53.7463  XYZ=              3.9627
 Hexadecapole moment (field-independent basis, Debye-Ang**3):
 XXXX=          -2162.6286 YYYY=          -2212.8540 ZZZZ=           -283.9447 XXXY=            120.9273
 XXXZ=            -34.4273 YYYX=             94.1574 YYYZ=             -7.0475 ZZZX=            -46.6551
 ZZZY=             -3.3771 XXYY=           -829.3158 XXZZ=           -455.4988 YYZZ=           -409.3060
 XXYZ=             -3.7901 YYXZ=            -19.0268 ZZXY=             54.9373
 N-N= 1.118492174053D+03 E-N=-5.871473364547D+03  KE= 1.525651062069D+03
                          Isotropic Fermi Contact Couplings
        Atom                 a.u.       MegaHertz       Gauss      10(-4) cm-1
     1  C(13)              0.00290       3.26156       1.16380       1.08794
     2  O(17)              0.00504      -3.05625      -1.09055      -1.01946
     3  C(13)              0.00048       0.53449       0.19072       0.17829
     4  C(13)             -0.00662      -7.43884      -2.65436      -2.48133
     5  Cl(35)            -0.00040      -0.17467      -0.06232      -0.05826
     6  C(13)             -0.00578      -6.50319      -2.32050      -2.16923
     7  O(17)              0.02390     -14.48994      -5.17037      -4.83332
     8  C(13)              0.00047       0.53199       0.18983       0.17745
     9  C(13)             -0.00662      -7.44265      -2.65572      -2.48260
    10  Cl(35)            -0.00040      -0.17515      -0.06250      -0.05842
    11  C(13)             -0.00578      -6.49901      -2.31901      -2.16784
    12  O(17)              0.02390     -14.48533      -5.16873      -4.83179
    13  O(17)              0.00503      -3.05137      -1.08881      -1.01783
    14  C(13)              0.00290       3.25906       1.16291       1.08711
    15  H(1)              -0.00001      -0.03609      -0.01288      -0.01204
    16  H(1)              -0.00009      -0.38526      -0.13747      -0.12851
    17  H(1)               0.00003       0.13971       0.04985       0.04660
    18  H(1)               0.00003       0.13963       0.04982       0.04658
    19  H(1)              -0.00001      -0.03429      -0.01224      -0.01144
    20  H(1)              -0.00009      -0.38538      -0.13751      -0.12855
 --------------------------------------------------------
       Center         ----  Spin Dipole Couplings  ----
                      3XX-RR        3YY-RR        3ZZ-RR
 --------------------------------------------------------
     1   Atom        0.003812     -0.001639     -0.002173
     2   Atom       -0.025085     -0.027146      0.052232
     3   Atom       -0.070357     -0.067566      0.137923
     4   Atom       -0.027649     -0.029112      0.056761
     5   Atom       -0.014137     -0.024705      0.038842
     6   Atom       -0.073678     -0.069823      0.143500
     7   Atom       -0.515692     -0.514103      1.029795
     8   Atom       -0.069926     -0.067506      0.137432
     9   Atom       -0.026459     -0.028916      0.055374
    10   Atom       -0.013509     -0.024871      0.038380
    11   Atom       -0.073287     -0.069118      0.142405
    12   Atom       -0.511683     -0.511120      1.022804
    13   Atom       -0.020449     -0.026401      0.046850
    14   Atom        0.002801     -0.001743     -0.001059
    15   Atom        0.001062     -0.001321      0.000260
    16   Atom        0.002753     -0.001078     -0.001675
    17   Atom        0.004484     -0.001599     -0.002885
    18   Atom        0.003735     -0.001545     -0.002191
    19   Atom        0.000584     -0.001259      0.000675
    20   Atom        0.002575     -0.001065     -0.001510
 --------------------------------------------------------
                        XY            XZ            YZ
 --------------------------------------------------------
     1   Atom        0.001561     -0.005482     -0.002409
     2   Atom        0.004167      0.022850      0.016170
     3   Atom       -0.000342     -0.006957     -0.001326
     4   Atom        0.000444      0.002788      0.002727
     5   Atom        0.003427      0.001149     -0.004672
     6   Atom        0.013687     -0.007225      0.014297
     7   Atom       -0.007160     -0.047585      0.044160
     8   Atom       -0.000200     -0.011625     -0.003350
     9   Atom        0.000917     -0.010201     -0.004590
    10   Atom        0.003139     -0.005747      0.003494
    11   Atom        0.015162     -0.011775     -0.017772
    12   Atom       -0.001185     -0.090028     -0.079151
    13   Atom        0.006260     -0.029201     -0.017449
    14   Atom        0.001216      0.005948      0.002527
    15   Atom       -0.001301     -0.002674      0.001374
    16   Atom       -0.001145     -0.000807      0.000212
    17   Atom       -0.001873     -0.003978      0.001180
    18   Atom       -0.001860      0.004523     -0.001321
    19   Atom       -0.001232      0.002681     -0.001525
    20   Atom       -0.001146      0.001162     -0.000303
 --------------------------------------------------------


 ---------------------------------------------------------------------------------
              Anisotropic Spin Dipole Couplings in Principal Axis System
 ---------------------------------------------------------------------------------

       Atom             a.u.   MegaHertz   Gauss  10(-4) cm-1        Axes

              Baa    -0.0059    -0.787    -0.281    -0.262  0.4262  0.3242  0.8446
     1 C(13)  Bbb    -0.0019    -0.257    -0.092    -0.086 -0.3918  0.9076 -0.1507
              Bcc     0.0078     1.044     0.372     0.348  0.8154  0.2667 -0.5138
 
              Baa    -0.0314     2.271     0.810     0.758  0.9318  0.2108 -0.2954
     2 O(17)  Bbb    -0.0302     2.188     0.781     0.730 -0.2544  0.9599 -0.1177
              Bcc     0.0616    -4.459    -1.591    -1.487  0.2587  0.1849  0.9481
 
              Baa    -0.0706    -9.479    -3.382    -3.162  0.9916  0.1251  0.0339
     3 C(13)  Bbb    -0.0675    -9.061    -3.233    -3.023 -0.1252  0.9921  0.0022
              Bcc     0.1382    18.540     6.616     6.184 -0.0333 -0.0064  0.9994
 
              Baa    -0.0293    -3.929    -1.402    -1.311 -0.2245  0.9742 -0.0236
     4 C(13)  Bbb    -0.0277    -3.712    -1.324    -1.238  0.9739  0.2235 -0.0394
[...]
 41,0.00020876,-0.00087837,-0.00048106,-0.00199750,-0.00525900,-0.00027
 870,-0.00816808,0.02721793,-0.00075688,-0.00346371,0.00142210,-0.00022
 791,-0.11162848,0.05429254,-0.00511335,0.00482703,-0.03561906,0.001425
 34,0.65623946,0.00086373,0.00051384,-0.00094415,-0.00266796,0.00046767
 ,0.00020947,-0.00526678,-0.04260534,-0.00011394,0.05629535,0.00661086,
 0.00244443,-0.00379116,0.00617365,-0.00023293,0.01375692,-0.15808218,0
 .00195161,-0.02049955,-0.07299851,0.00121469,0.07884444,0.59995764,0.0
 0029693,0.00001752,-0.00013536,-0.00053332,0.00007217,-0.00174028,-0.0
 0047624,-0.00123736,0.00572969,0.00086537,0.00117929,0.00414489,0.0000
 5604,-0.00008341,0.00250264,-0.00664154,0.00092179,-0.06836180,0.00274
 062,0.00234489,0.01618154,0.03657371,0.01479260,0.15238813,-0.00200367
 ,-0.00181290,0.00224598,0.00879744,-0.00116171,-0.00051103,-0.00819241
 ,0.05637003,-0.00093553,-0.03819601,-0.01016993,-0.00223630,0.00038005
 ,-0.00040618,0.00026741,0.04101455,-0.02687508,0.00138945,-0.00614613,
 0.00482634,-0.00035615,-0.21004063,-0.11120928,-0.01072141,0.57509030,
 -0.00058536,-0.00009884,0.00062983,0.00173137,-0.00513119,-0.00015038,
 0.02725208,0.00661902,0.00125915,-0.01023081,-0.00775336,-0.00011730,-
 0.00047613,0.00064466,0.00004941,-0.00384692,-0.04664585,-0.00039584,0
 .00465028,0.00548342,0.00002698,-0.16446027,-0.25130361,-0.01107351,0.
 10153503,0.52948591,-0.00088221,0.00021654,0.00040998,0.00027212,-0.00
 121626,0.00318590,0.00020012,0.00249725,0.00412463,-0.00171408,-0.0010
 0736,0.00442164,-0.00001007,0.00000609,-0.00079765,0.00166728,0.000038
 60,0.00205903,-0.00024788,0.00026427,0.00274636,-0.01207164,-0.0096395
 8,-0.04925892,0.02872531,0.01001695,0.09415630,0.00058085,0.00023038,-
 0.00084905,-0.00219652,0.00225392,0.00041247,-0.00343398,-0.00378683,-
 0.00067391,0.00039590,-0.00047333,0.00011042,-0.00023364,0.00092575,-0
 .00000650,-0.00154368,-0.00237159,-0.00037034,0.00091691,0.00036886,0.
 00002268,0.00209502,-0.00725446,0.00005265,-0.04871046,0.03055895,-0.0
 0134806,0.05943192,-0.00095230,-0.00044756,0.00128976,0.00368009,-0.00
 182171,-0.00036765,0.00140762,0.00617470,0.00030152,-0.00039585,0.0006
 3665,-0.00002816,0.00092968,-0.00210519,-0.00001901,-0.00765266,0.0087
 2150,-0.00029686,-0.00080947,-0.00638342,0.00017481,0.02014340,-0.0444
 9517,-0.00010911,0.02961595,-0.13542572,0.00063825,-0.05038359,0.19874
 661,0.00003418,-0.00000002,-0.00002332,-0.00003667,0.00007796,0.000022
 24,-0.00025843,-0.00001478,0.00247885,-0.00017226,-0.00007495,-0.00081
 769,0.00000484,0.00006986,-0.00002851,-0.00041625,0.00007482,0.0044939
 3,-0.00005731,-0.00023193,-0.00033731,0.00191868,-0.00034924,0.0057757
 7,-0.00195923,-0.00050202,-0.01979851,0.00181698,-0.00072037,0.0097716
 9,0.00477630,0.00702111,-0.00535927,-0.04540862,0.03737698,-0.00267461
 ,-0.11231708,0.01378244,0.00315848,0.04098667,-0.00384427,0.00173724,-
 0.00156431,-0.00765369,-0.00024486,-0.02113038,0.00907334,-0.00029593,
 0.00767218,0.00717403,-0.00014598,-0.03940577,-0.03987535,-0.00200034,
 -0.18877403,0.05024945,-0.00542144,-0.01087473,0.00752523,-0.00081487,
 0.61641220,-0.00006841,-0.00054731,-0.00050520,0.01388585,-0.00949181,
 -0.00122702,0.05410489,-0.15806950,0.00214557,-0.02669754,-0.04657419,
 -0.00329120,-0.00235945,0.00873398,-0.00023279,0.00905675,-0.01967728,
 0.00073078,0.00791949,0.01014708,-0.00005648,-0.01600222,0.04306342,-0
 .00074320,0.01126630,-0.10641526,0.00175586,0.03248547,-0.03197662,0.0
 0130865,0.12259659,0.62673252,0.00097397,0.00033961,0.00068466,-0.0053
 7057,0.00232875,0.00595870,0.00228590,-0.00237281,-0.06763266,0.001555
 48,-0.00083481,0.00206935,-0.00020069,-0.00027664,0.00449546,-0.001716
 40,-0.00043844,0.00327857,0.00143201,0.00147489,-0.00206230,-0.0016777
 6,-0.00110803,-0.00334236,-0.00714789,0.00182730,-0.06197270,-0.000252
 39,-0.00049259,0.00374427,0.03273713,0.02454997,0.16363355,-0.00244172
 ,-0.00176622,0.00311845,0.01058107,0.00408484,0.00340114,0.00526238,-0
 .02016003,-0.00417134,-0.00612892,0.00464901,-0.00046840,0.00090298,-0
 .00081211,0.00016447,0.00768095,0.00793293,-0.00036467,-0.00958624,-0.
 01132316,0.00011880,0.00444476,0.00711154,-0.00033003,-0.06470577,-0.0
 4393613,-0.00743572,0.00097179,-0.00231544,0.00034168,-0.25730168,-0.2
 0002425,-0.02186579,0.31640861,-0.00077905,-0.00046688,0.00134529,-0.0
 0021006,0.00562841,-0.00021444,-0.03519028,-0.07275855,-0.00721246,0.0
 0483306,0.00547615,0.00017961,0.00035213,-0.00639143,0.00017797,0.0072
 3314,0.01017897,-0.00054433,-0.01134764,-0.01194088,0.00007801,0.00575
 184,-0.00660644,0.00022194,-0.02765229,0.00236567,-0.00301601,0.003965
 43,0.00709432,0.00035246,-0.20130798,-0.30918893,-0.02417367,0.2542889
 2,0.37643437,0.00277358,0.00072985,-0.00236850,0.00049277,0.00214581,-
 0.00249430,-0.00312091,-0.00478324,0.01545124,-0.00034704,0.00043680,0
 .00273652,0.00009449,-0.00037166,-0.00032326,0.00116410,0.00102108,-0.
 00209335,-0.00128764,-0.00135887,0.00084652,0.00009412,0.00018764,0.00
 345105,-0.00689524,-0.00336457,0.01354928,0.00056487,-0.00017797,-0.00
 180351,-0.02327825,-0.02541106,-0.05735802,0.02998434,0.03377151,0.030
 71944,0.00108308,0.00068477,-0.00151038,-0.00563858,0.00049012,0.00029
 703,0.00015731,-0.00264964,0.00063612,0.00866585,0.00173133,0.00026222
 ,-0.00216036,0.00363717,-0.00009203,-0.04574099,0.01368188,0.00112318,
 0.01065626,-0.00029659,0.00063172,-0.25680718,0.04309629,0.01430308,-0
 .06123682,0.00458257,-0.00132049,0.00254291,-0.00141254,0.00031911,0.0
 1241954,-0.00425126,-0.00219966,-0.00761380,-0.00250001,-0.00030233,0.
 44871772,-0.00012899,-0.00007188,0.00015409,0.00051284,0.00030800,-0.0
 0001480,-0.00088578,0.00045052,-0.00010780,-0.00126884,-0.00512817,0.0
 0096351,0.00225913,-0.00183015,0.00008857,0.03734657,-0.00951329,0.000
 67018,0.00424157,0.00554276,-0.00156888,0.03651645,-0.08005455,-0.0134
 8426,-0.02494536,0.00814151,-0.00143452,-0.00609443,0.00019661,-0.0002
 5436,0.00133212,-0.00518947,-0.00078415,-0.00200274,0.00100707,0.00013
 308,-0.03797759,0.13977946,0.00018112,0.00015681,-0.00027696,-0.000835
 66,0.00005847,0.00032948,0.00062821,-0.00039499,-0.00165282,0.00097421
 ,0.00014620,0.00329674,-0.00055875,0.00066094,-0.00001411,-0.00125290,
 0.00207583,0.00636300,-0.00204342,0.00038334,-0.00281913,-0.01065697,-
 0.01320055,-0.06623206,-0.00533279,0.00358224,0.00680713,-0.00003227,-
 0.00009793,-0.00316751,-0.00032258,-0.00098976,0.00808159,-0.00122419,
 -0.00057804,-0.00083990,0.08845474,0.06561049,0.26934210,-0.00019900,-
 0.00009926,0.00028721,0.00095673,-0.00010935,-0.00006821,0.00011086,0.
 00077545,-0.00026265,-0.00183065,-0.00052334,0.00066454,0.00050266,-0.
 00082833,-0.00000116,0.00428511,-0.00020308,-0.00063616,-0.00187846,-0
 .00090347,-0.00239654,-0.04572164,-0.00627686,-0.02987377,0.00289372,0
 .00241969,-0.00073283,0.00011399,0.00062293,-0.00052784,-0.00258869,-0
 .00058443,0.00150509,0.00129922,0.00079553,-0.00004365,-0.08369541,-0.
 00132164,-0.02849607,0.56020321,-0.00010677,-0.00009732,0.00016887,0.0
 0065352,-0.00006079,-0.00008814,0.00021371,0.00048713,0.00000882,-0.00
 167976,-0.00008163,-0.00039056,0.00021231,-0.00041194,0.00001064,0.006
 75882,-0.00059285,0.00019348,-0.00166577,-0.00062745,-0.00057486,-0.00
 421136,-0.00066266,0.00881154,0.00005182,-0.00066289,-0.00014865,-0.00
 050548,0.00100389,0.00032650,-0.00116908,-0.00016231,0.00055417,0.0002
 9787,0.00012526,-0.00016829,-0.00604182,-0.06207476,-0.03899588,-0.029
 91338,0.57171748,-0.00035153,-0.00019455,0.00049870,0.00163686,-0.0001
 5897,-0.00014714,-0.00035221,0.00102212,-0.00017173,-0.00248418,-0.000
 69025,0.00024428,0.00090256,-0.00138061,0.00002821,0.00592138,0.000494
 87,0.00108049,-0.00283096,-0.00117742,-0.00307488,-0.01918091,0.008877
 95,0.00087372,0.00831744,-0.00300861,0.00058185,0.00006102,0.00103810,
 -0.00037087,-0.00261830,0.00091669,-0.00022065,0.00255649,0.00108595,0
 .00028837,-0.04866370,-0.03320028,-0.16090018,-0.07857869,-0.02212982,
 0.45445096,-0.07629489,-0.04289982,-0.06715390,-0.00052572,0.00806609,
 0.02567831,0.00488656,0.00156236,0.00221173,0.00025286,-0.00055964,-0.
 00046896,0.00004737,-0.00015780,0.00020277,-0.00001517,0.00011188,-0.0
 0008095,0.00007344,-0.00000625,0.00001431,-0.00002158,-0.00001716,0.00
 007571,0.00005395,0.00013054,-0.00000332,-0.00005029,0.00005045,0.0000
 0032,-0.00047850,0.00016695,-0.00053460,-0.00007745,-0.00005385,0.0000
 7881,0.00001872,-0.00000215,-0.00001845,-0.00000288,-0.00000148,-0.000
 00526,0.07600705,-0.04336795,-0.12959545,-0.11058713,0.00167222,0.0083
 3200,0.01112784,0.00126657,0.00036325,0.00013657,0.00040510,0.00001844
 ,-0.00025042,0.00011205,-0.00013112,0.00010646,-0.00004931,-0.00000164
 ,0.00000272,0.00011796,0.00006284,0.00001069,-0.00009065,-0.00005665,0
 .00003998,0.00026418,0.00013497,0.00013450,0.00000705,-0.00000601,-0.0
 0000198,-0.00066706,-0.00046516,-0.00018908,0.00114652,-0.00011857,-0.
 00058156,0.00011314,0.00001557,-0.00000634,-0.00002472,-0.00001158,-0.
 00003772,0.04780568,0.12980901,-0.06238718,-0.10840133,-0.19883119,0.0
 0953748,-0.00690250,-0.03346925,-0.00697250,0.00121610,0.00027512,0.00
 156765,-0.00033361,-0.00001214,-0.00013387,0.00041545,0.00005386,-0.00
 064655,0.00005633,-0.00030836,0.00042577,0.00021364,0.00006469,-0.0000
 4501,0.00019966,0.00003636,-0.00051697,-0.00002506,0.00008938,0.000142
 30,-0.00025215,0.00000461,0.00128578,-0.00034036,0.00029490,-0.0004726
 8,-0.00017023,-0.00001633,0.00039626,-0.00002202,0.00005213,-0.0000732
 7,-0.00004822,-0.00011945,0.06029854,0.11716144,0.22960104,-0.27906517
 ,0.06134830,-0.06781791,-0.02457607,0.00285875,0.00223243,0.00138734,-
 0.00235839,0.00335946,-0.00068165,0.00116900,0.00020622,0.00011345,-0.
 00036146,0.00005202,0.00034731,0.00004254,-0.00017275,-0.00040796,-0.0
 0023763,0.00000182,0.00012474,-0.00027508,-0.00002948,0.00039029,-0.00
 004853,-0.00007983,-0.00011935,0.00022498,-0.00000682,-0.00080210,-0.0
 0030617,-0.00016284,0.00030381,0.00039990,0.00010576,-0.00042659,0.000
 02675,-0.00004578,0.00008176,0.00005397,0.00012426,-0.00626327,0.00245
 079,-0.00315700,0.30928714,0.06628648,-0.06783691,0.01781624,-0.011136
 23,0.00289673,-0.00057455,-0.00152774,-0.00012434,0.00133711,-0.000113
 68,0.00023796,-0.00007338,0.00001665,0.00001607,0.00002339,-0.00001933
 ,-0.00020141,-0.00007109,0.00002285,0.00009693,0.00000920,-0.00006499,
 0.00001801,0.00002477,0.00011454,0.00009117,0.00011740,-0.00000044,0.0
 0000115,-0.00000219,-0.00095678,-0.00076042,-0.00001852,0.00101452,0.0
 0015422,-0.00074069,0.00006650,0.00000846,-0.00001578,-0.00001837,-0.0
 0000619,-0.00001806,-0.01685699,0.00525981,-0.00457629,-0.06575242,0.0
 6414403,-0.07989040,0.01916483,-0.06962317,0.03565475,-0.00563980,0.00
 113321,0.00263878,0.00205560,-0.00281667,0.00108283,-0.00099829,-0.000
 08767,-0.00010410,0.00026831,-0.00010219,-0.00022208,0.00027773,0.0002
 0013,0.00029076,0.00007926,-0.00000333,-0.00005152,0.00010759,-0.00006
 199,-0.00026078,-0.00005018,0.00009057,0.00010226,-0.00017252,-0.00000
 164,0.00090352,0.00029417,0.00007280,-0.00047554,-0.00029479,0.0000689
 4,0.00019347,-0.00002047,0.00004625,-0.00003770,-0.00002708,-0.0000647
 1,-0.02240862,0.00723140,-0.00426142,0.06682192,-0.02191809,0.07566197
 ,-0.05357135,0.02795231,-0.00963785,-0.00451753,-0.02139415,0.01382347
 ,0.00364929,-0.00262926,-0.00021618,-0.00072986,-0.00012464,-0.0001412
 4,-0.00011299,0.00024998,-0.00003489,0.00000008,-0.00040821,-0.0000251
 4,0.00006171,0.00024400,0.00001185,-0.00020578,0.00007216,0.00006597,0
 .00022979,0.00011149,0.00007252,0.00006151,-0.00005072,0.00002373,-0.0
 0183617,-0.00101120,0.00034070,0.00020364,0.00142014,-0.00002677,0.000
 17081,0.00001684,-0.00000272,-0.00004306,-0.00002027,-0.00004763,0.002
 39056,-0.01116576,0.00073660,0.00032064,0.02892391,-0.00424741,0.05392
 523,0.02222862,-0.30752781,0.04180338,-0.00678523,-0.00400891,0.008432
 70,0.00252402,-0.00029470,0.00044328,-0.00046923,0.00017564,-0.0001075
 2,0.00002511,-0.00002494,-0.00001985,0.00027007,-0.00002301,0.00002519
 ,-0.00024443,-0.00012522,-0.00000938,0.00003018,-0.00014633,-0.0000150
 0,0.00030395,0.00010433,0.00034978,-0.00011041,0.00016910,0.00001792,-
 0.00080541,0.00006766,-0.00043744,0.00186806,-0.00105320,-0.00145146,-
 0.00008163,0.00004084,-0.00006120,0.00001459,0.00000665,0.00003521,0.0
 0266396,-0.01360790,0.00181710,0.00076473,-0.00399666,-0.00035872,-0.0
 2219225,0.33024370,-0.00601785,0.03427590,-0.05326862,0.00949823,0.030
 35729,-0.01660710,-0.00465751,0.00090877,0.00038839,0.00106105,-0.0001
 7394,0.00011599,0.00006987,-0.00011060,0.00010611,-0.00023695,0.000352
 69,0.00002330,0.00017315,-0.00008581,-0.00001225,0.00007679,0.00003199
 ,-0.00002631,-0.00030388,-0.00029586,-0.00017918,0.00005696,-0.0001374
 7,-0.00000381,0.00221619,0.00179074,0.00024085,-0.00195064,-0.00078620
 ,0.00022925,-0.00000978,-0.00003560,0.00002012,0.00000475,0.00000196,0
 .00000099,0.00211345,-0.02431093,0.00650116,-0.00138328,0.00867481,-0.
 00027732,-0.00071170,-0.05045287,0.06274916,-0.00004371,-0.00002061,0.
 00003997,0.00015969,0.00001301,0.00001672,-0.00018212,0.00007482,-0.00
 007774,0.00018807,0.00007257,-0.00003295,0.00006814,-0.00006247,-0.000
 01820,-0.00150308,-0.00078033,-0.00048545,0.00036825,0.00106638,0.0000
 0593,0.00316621,-0.00256791,0.00036503,-0.00064711,-0.00014095,0.00007
 851,-0.00011379,0.00022708,0.00001596,-0.00001455,-0.00036493,0.000016
 58,0.00006782,0.00022249,-0.00000078,-0.00245548,-0.01817903,-0.013141
 87,-0.05517477,0.03149974,0.01056751,-0.00000092,0.00000020,-0.0000095
 1,0.00000950,-0.00000080,-0.00000317,-0.00000414,0.00000684,-0.0000020
 1,0.05369236,0.00001418,0.00000626,-0.00002960,-0.00007285,0.00003862,
 0.00005166,0.00001765,-0.00013543,0.00001373,0.00033219,0.00011711,-0.
 00031517,-0.00010621,0.00016104,-0.00002274,-0.00084242,0.00002245,0.0
 0035076,0.00142348,-0.00100942,0.00172885,0.00241946,-0.00021480,-0.00
 024927,-0.00044225,0.00015197,0.00006482,0.00001968,-0.00002296,0.0000
 1287,0.00025137,-0.00002990,-0.00000166,-0.00022198,-0.00010785,-0.000
 01339,-0.00577098,-0.00277607,-0.00857093,0.02670363,-0.30445860,-0.04
 775289,-0.00000245,0.00000233,0.00000598,-0.00000911,0.00000153,0.0000
 0551,0.00000683,-0.00000379,-0.00000256,-0.02738381,0.32636685,-0.0000
 0651,-0.00000279,0.00000103,0.00001099,0.00003660,0.00002475,-0.000083
 96,-0.00002596,-0.00003983,0.00033078,0.00029467,-0.00015864,-0.000056
 21,0.00013732,-0.00000819,-0.00235211,-0.00180598,-0.00003022,0.001905
 55,0.00104197,-0.00002270,0.00501907,-0.00117797,0.00080415,-0.0011529
 9,0.00017290,0.00004288,-0.00009105,0.00012177,0.00010696,0.00024984,-
 0.00038356,0.00004404,-0.00017946,0.00009467,-0.00002853,-0.00831203,-
 0.03166631,-0.01987392,0.00680121,-0.03987421,-0.05443768,-0.00000049,
 0.00000098,-0.00000041,-0.00000291,0.00000139,0.00000104,0.00000224,0.
 00000277,-0.00000168,-0.00106475,0.05667452,0.06664361,-0.00000972,-0.
 00000595,0.00001373,0.00004902,-0.00000399,0.00001799,-0.00001812,-0.0
 0000324,-0.00007592,0.00001543,0.00012759,-0.00000291,-0.00003824,0.00
 002977,-0.00000341,-0.00041094,0.00013226,0.00048289,-0.00011929,-0.00
 006078,-0.00009695,0.00439666,0.00174638,-0.00179861,0.00036438,-0.000
 57992,0.00047980,0.00006063,-0.00011796,-0.00018738,-0.00008111,0.0001
 2037,0.00009752,0.00010946,0.00000963,-0.00000986,0.00235794,0.0081260
 8,-0.02213945,-0.08833259,-0.05466429,0.07484970,-0.00000148,-0.000000
 46,-0.00000370,0.00000393,-0.00000058,-0.00000025,-0.00000184,-0.00000
 186,0.00000040,0.00272251,0.00296793,-0.00245532,0.08738189,-0.0000315
 4,-0.00001464,0.00003933,0.00012818,0.00001374,0.00001578,-0.00008937,
 -0.00004407,-0.00004818,0.00024917,0.00013477,-0.00011243,0.00001113,-
 0.00001707,0.00000291,-0.00063352,-0.00046758,0.00011604,0.00104652,-0
 .00014156,0.00067374,0.00103904,0.00042756,-0.00007222,0.00041823,0.00
 001198,0.00028799,0.00014952,-0.00008701,-0.00007232,-0.00007655,-0.00
 000424,-0.00000513,0.00013815,0.00007195,0.00000186,0.00289449,0.00844
 868,-0.00951498,-0.05517804,-0.13694118,0.10821370,-0.00000003,-0.0000
 0417,-0.00000990,0.00000591,-0.00000005,-0.00000404,-0.00000041,0.0000
 0275,-0.00000095,-0.01313718,-0.01437199,0.02253617,0.06013203,0.13766
 394,0.00008309,0.00005125,-0.00011051,-0.00039730,0.00002068,0.0000182
 5,0.00004385,-0.00020730,0.00002909,0.00051748,0.00004123,0.00013139,-
 0.00014827,0.00025872,-0.00000421,-0.00136901,0.00032921,0.00023631,0.
 00048556,0.00016054,0.00005028,0.00735410,-0.00109013,0.00069660,-0.00
 149793,0.00031453,-0.00007822,0.00015616,-0.00039638,0.00005628,0.0006
 6248,-0.00003335,-0.00024685,-0.00042570,-0.00022020,0.00002075,-0.006
 23929,0.00904891,-0.03637566,0.07006477,0.10605539,-0.17954240,0.00000
 122,0.00000867,0.00002912,-0.00002879,0.00000385,0.00001397,0.00001019
 ,-0.00000711,-0.00000020,-0.00148569,-0.00225634,0.00689651,-0.0706500
 7,-0.11539322,0.21031245,0.00008892,0.00005529,-0.00011042,-0.00041363
 ,0.00002395,0.00000506,0.00011947,-0.00026743,0.00004018,0.00035971,-0
 .00005442,0.00010461,-0.00011106,0.00021050,0.00000041,-0.00073801,-0.
 00028591,0.00008211,0.00027116,0.00038400,-0.00008380,0.00188922,-0.00
 208524,-0.00299038,-0.00056144,0.00108355,-0.00022809,0.00010500,-0.00
 033690,-0.00003842,0.00031082,0.00006720,0.00018422,-0.00038090,-0.000
 23104,-0.00004039,-0.02101493,0.00242819,-0.00413443,-0.29098013,0.060
 23771,0.05017616,0.00000163,0.00000443,0.00002785,-0.00002776,0.000002
 90,0.00001330,0.00000946,-0.00000968,0.00000276,-0.00030289,0.00069567
 ,0.00143809,-0.00844851,0.00293426,0.00286316,0.31982386,-0.00002026,-
 0.00000717,0.00001723,0.00006756,0.00000729,0.00002042,-0.00006100,0.0
 0002343,-0.00002747,0.00010952,0.00008856,-0.00010418,0.00000186,-0.00
 000389,0.00000281,-0.00090395,-0.00072802,-0.00008029,0.00088757,0.000
 12731,0.00078932,-0.00131187,-0.00000644,-0.00135915,-0.00009139,0.000
 20211,0.00007408,0.00001557,0.00002684,-0.00001688,-0.00002650,-0.0001
 9226,0.00005829,0.00002970,0.00009634,-0.00000485,-0.00999617,0.002698
 87,-0.00024795,0.06465244,-0.06648825,-0.01193541,-0.00000028,0.000000
 04,-0.00000404,0.00000317,-0.00000010,-0.00000043,-0.00000079,0.000001
 81,-0.00000137,0.02945489,-0.00373735,-0.00617894,-0.01795304,0.005318
 19,0.00331105,-0.06485703,0.06257268,0.00005066,0.00003361,-0.00006934
 ,-0.00023172,0.00002158,0.00002958,0.00006703,-0.00013035,-0.00005814,
 0.00028701,0.00004618,0.00012231,-0.00011140,0.00019062,-0.00000751,-0
 .00099727,-0.00033722,-0.00001130,0.00051076,0.00032821,0.00012668,-0.
 00229350,-0.00216113,-0.00342548,-0.00111747,0.00110404,-0.00017973,0.
 00012477,-0.00029603,-0.00010192,0.00022579,-0.00027844,0.00023682,-0.
 00032122,-0.00009704,-0.00003564,-0.03796723,0.00592462,-0.00218630,0.
 06240098,-0.01368566,-0.05899789,-0.00000063,0.00000389,0.00001620,-0.
 00001650,0.00000045,0.00001121,0.00000425,-0.00000679,0.00000117,0.005
 21589,0.00030584,0.00003683,0.02148179,-0.00665414,-0.00213297,-0.0473
 1199,0.01568776,0.06662541\\0.00001886,-0.00000722,0.00003318,-0.00005
 453,-0.00001215,-0.00003112,0.00008317,0.00001984,0.00001690,-0.000010
 60,-0.00004152,0.00000401,-0.00000193,0.00000980,-0.00000729,0.0000177
 6,0.00005768,0.00000491,-0.00002433,-0.00002864,-0.00001632,-0.0000607
 6,-0.00000749,0.00000376,0.00000256,0.00003438,-0.00000620,0.00000258,
 -0.00000823,0.00000407,-0.00003539,-0.00006715,-0.00000480,0.00001659,
 0.00003346,0.00002007,0.00002935,-0.00001784,-0.00002803,0.00000285,0.
 00003316,0.00001235,-0.00000453,0.00000128,0.00000319,-0.00000103,0.00
 000841,0.00001661,0.00000001,0.00000684,0.00000908,0.00000647,-0.00000
 920,-0.00001880,0.00001218,0.00000392,-0.00000903,0.00000073,-0.000009
 33,-0.00000653\\\@


 IT'S WHAT YOU LEARN AFTER YOU KNOW IT ALL
 THAT COUNTS.
 Job cpu time:       0 days  2 hours 57 minutes 50.1 seconds.
 Elapsed time:       0 days  0 hours 24 minutes 13.3 seconds.
 File lengths (MBytes):  RWF=    650 Int=      0 D2E=      0 Chk=     23 Scr=      1
 Normal termination of Gaussian 16 at Sat Feb 10 11:04:15 2024.
