
Running Job 1 of 1 184-an-COSMO.in
qchem 184-an-COSMO.in_2036455.0 /expanse/lustre/scratch/selhajj/temp_project/qcscratch/28870479/qchem2036455/ 0
/cm/shared/apps/spack/cpu/opt/spack/linux-centos8-zen2/gcc-10.2.0/qchem-5.4-akfmr7b3t57bfs6qan3padb2wnb2i7cl/exe/qcprog.exe_s 184-an-COSMO.in_2036455.0 /expanse/lustre/scratch/selhajj/temp_project/qcscratch/28870479/qchem2036455/
                  Welcome to Q-Chem
     A Quantum Leap Into The Future Of Chemistry


 Q-Chem 5.4, Q-Chem, Inc., Pleasanton, CA (2021)

 License issued to: University of California, San Diego (site)

 E. Epifanovsky,  A. T. B. Gilbert,  Xintian Feng,  Joonho Lee,  Yuezhi Mao,  
 N. Mardirossian,  P. Pokhilko,  A. White,  M. Wormit,  M. P. Coons,  
 A. L. Dempwolff,  Zhengting Gan,  D. Hait,  P. R. Horn,  L. D. Jacobson,  
 I. Kaliman,  J. Kussmann,  A. W. Lange,  Ka Un Lao,  D. S. Levine,  Jie Liu,  
 S. C. McKenzie,  A. F. Morrison,  K. Nanda,  F. Plasser,  D. R. Rehn,  
 M. L. Vidal,  Zhi-Qiang You,  Ying Zhu,  B. Alam,  B. Albrecht,  
 A. Aldossary,  E. Alguire,  J. H. Andersen,  D. Barton,  K. Begam,  A. Behn,  
 Y. A. Bernard,  E. J. Berquist,  H. Burton,  A. Carreras,  K. Carter-Fenk,  
 R. Chakraborty,  A. D. Chien,  K. D. Closser,  V. Cofer-Shabica,  
 S. Dasgupta,  Jia Deng,  M. de Wergifosse,  M. Diedenhofen,  Hainam Do,  
 S. Ehlert,  Po-Tung Fang,  S. Fatehi,  Qingguo Feng,  J. Gayvert,  
 Qinghui Ge,  G. Gidofalvi,  M. Goldey,  J. Gomes,  C. Gonzalez-Espinoza,  
 S. Gulania,  A. Gunina,  M. W. D. Hanson-Heine,  P. H. P. Harbach,  
 A. W. Hauser,  M. F. Herbst,  M. Hernandez Vera,  M. Hodecker,  
 Z. C. Holden,  S. Houck,  Xunkun Huang,  Kerwin Hui,  B. C. Huynh,  
 M. Ivanov,  Hyunjun Ji,  Hanjie Jiang,  B. Kaduk,  S. Kaehler,  
 K. Khistyaev,  Jaehoon Kim,  P. Klunzinger,  Z. Koczor-Benda,  
 Joong Hoon Koh,  D. Kosenkov,  L. Koulias,  T. Kowalczyk,  C. M. Krauter,  
 K. Kue,  A. Kunitsa,  T. Kus,  A. Landau,  K. V. Lawler,  D. Lefrancois,  
 S. Lehtola,  Rain Li,  Yi-Pei Li,  Jiashu Liang,  M. Liebenthal,  
 Hung-Hsuan Lin,  You-Sheng Lin,  Fenglai Liu,  Kuan-Yu Liu,  
 M. Loipersberger,  A. Luenser,  A. Manjanath,  P. Manohar,  E. Mansoor,  
 S. F. Manzer,  Shan-Ping Mao,  A. V. Marenich,  T. Markovich,  S. Mason,  
 S. A. Maurer,  P. F. McLaughlin,  M. F. S. J. Menger,  J.-M. Mewes,  
 S. A. Mewes,  P. Morgante,  J. W. Mullinax,  T. S. Nguyen-Beck,  
 K. J. Oosterbaan,  G. Paran,  Alexander C. Paul,  Suranjan K. Paul,  
 F. Pavosevic,  Zheng Pei,  S. Prager,  E. I. Proynov,  E. Ramos,  B. Rana,  
 A. E. Rask,  A. Rettig,  R. M. Richard,  F. Rob,  E. Rossomme,  T. Scheele,  
 M. Scheurer,  M. Schneider,  N. Sergueev,  S. M. Sharada,  W. Skomorowski,  
 D. W. Small,  C. J. Stein,  Yu-Chuan Su,  E. J. Sundstrom,  Zhen Tao,  
 J. Thirman,  T. Tsuchimochi,  N. M. Tubman,  S. P. Veccham,  O. Vydrov,  
 J. Wenzel,  J. Witte,  A. Yamada,  Kun Yao,  S. Yeganeh,  S. R. Yost,  
 A. Zech,  Igor Ying Zhang,  Xing Zhang,  Yu Zhang,  D. Zuev,  
 A. Aspuru-Guzik,  A. T. Bell,  N. A. Besley,  K. B. Bravaya,  B. R. Brooks,  
 D. Casanova,  Jeng-Da Chai,  S. Coriani,  C. J. Cramer,  
 A. E. DePrince, III,  R. A. DiStasio Jr.,  A. Dreuw,  B. D. Dunietz,  
 T. R. Furlani,  W. A. Goddard III,  S. Grimme,  S. Hammes-Schiffer,  
 T. Head-Gordon,  W. J. Hehre,  Chao-Ping Hsu,  T.-C. Jagau,  Yousung Jung,  
 A. Klamt,  Jing Kong,  D. S. Lambrecht,  WanZhen Liang,  N. J. Mayhall,  
 C. W. McCurdy,  J. B. Neaton,  C. Ochsenfeld,  J. A. Parkhill,  R. Peverati,  
 V. A. Rassolov,  Yihan Shao,  L. V. Slipchenko,  T. Stauch,  R. P. Steele,  
 J. E. Subotnik,  A. J. W. Thom,  A. Tkatchenko,  D. G. Truhlar,  
 T. Van Voorhis,  T. A. Wesolowski,  K. B. Whaley,  H. L. Woodcock III,  
 P. M. Zimmerman,  S. Faraji,  P. M. W. Gill,  M. Head-Gordon,  
 J. M. Herbert,  A. I. Krylov

 Contributors to earlier versions of Q-Chem not listed above: 
 R. D. Adamson,  B. Austin,  R. Baer,  J. Baker,  G. J. O. Beran,  
 K. Brandhorst,  S. T. Brown,  E. F. C. Byrd,  A. K. Chakraborty,  
 G. K. L. Chan,  Chun-Min Chang,  Yunqing Chen,  C.-L. Cheng,  
 Siu Hung Chien,  D. M. Chipman,  D. L. Crittenden,  H. Dachsel,  
 R. J. Doerksen,  A. D. Dutoi,  R. G. Edgar,  J. Fosso-Tande,  
 L. Fusti-Molnar,  D. Ghosh,  A. Ghysels,  A. Golubeva-Zadorozhnaya,  
 J. Gonthier,  M. S. Gordon,  S. R. Gwaltney,  G. Hawkins,  J. E. Herr,  
 A. Heyden,  S. Hirata,  E. G. Hohenstein,  G. Kedziora,  F. J. Keil,  
 C. Kelley,  Jihan Kim,  R. A. King,  R. Z. Khaliullin,  P. P. Korambath,  
 W. Kurlancheek,  A. Laurent,  A. M. Lee,  M. S. Lee,  S. V. Levchenko,  
 Ching Yeh Lin,  D. Liotard,  E. Livshits,  R. C. Lochan,  I. Lotan,  
 L. A. Martinez-Martinez,  P. E. Maslen,  N. Nair,  D. P. O'Neill,  
 D. Neuhauser,  E. Neuscamman,  C. M. Oana,  R. Olivares-Amaya,  R. Olson,  
 T. M. Perrine,  B. Peters,  P. A. Pieniazek,  A. Prociuk,  Y. M. Rhee,  
 J. Ritchie,  M. A. Rohrdanz,  E. Rosta,  N. J. Russ,  H. F. Schaefer III,  
 M. W. Schmidt,  N. E. Schultz,  S. Sharma,  N. Shenvi,  C. D. Sherrill,  
 A. C. Simmonett,  A. Sodt,  T. Stein,  D. Stuck,  K. S. Thanthiriwatte,  
 V. Vanovschi,  L. Vogt,  Tao Wang,  A. Warshel,  M. A. Watson,  
 C. F. Williams,  Q. Wu,  X. Xu,  Jun Yang,  W. Zhang,  Yan Zhao

 Please cite Q-Chem as follows:
 Y. Shao et al., Mol. Phys. 113, 184-215 (2015)
 DOI: 10.1080/00268976.2014.952696

 Q-Chem 5.4.0 for Intel X86 EM64T Linux

 Parts of Q-Chem use Armadillo 9.800.1 (Horizon Scraper).
 http://arma.sourceforge.net/

 Q-Chem begins on Thu Feb 22 05:15:29 2024  

 Host: 
0

     Scratch files written to /expanse/lustre/scratch/selhajj/temp_project/qcscratch/28870479/qchem2036455//
 May1621 |scratch|qcdevops|jenkins|workspace|build_RNUM    
 Processing $rem in /cm/shared/apps/spack/cpu/opt/spack/linux-centos8-zen2/gcc-10.2.0/qchem-5.4-akfmr7b3t57bfs6qan3padb2wnb2i7cl/config/preferences:
 Processing $rem in /home/selhajj/.qchemrc:

 Checking the input file for inconsistencies... 
 Q-Chem warning in module libgen/CheckREMs.C, line 172:

 Found a $solvent section, which is only used for PCM and Kirkwood-Onsager solvation models

	...done.

--------------------------------------------------------------
User input:
--------------------------------------------------------------
$molecule
-2 1
C                  4.8482590000     -2.9113140000     -0.3159710000
C                  5.5815220000     -2.0342200000     -1.0778020000
C                  5.0085270000     -0.8044980000     -1.5201710000
C                  3.4924520000     -2.6320220000      0.0625530000
C                  2.9084850000     -1.3756080000     -0.3898720000
C                  3.7031790000     -0.5092950000     -1.1698830000
C                  2.7415290000     -3.5161890000      0.8351550000
C                  1.4043050000     -3.2004990000      1.1866530000
C                  0.8032080000     -1.9628100000      0.7511460000
C                  1.5442720000     -0.9999010000     -0.0600900000
C                  0.6273210000     -4.1199780000      1.9881340000
C                 -0.6889260000     -3.7647740000      2.3100890000
C                 -0.5342770000     -1.6766030000      1.1188150000
C                 -1.2735510000     -2.5631610000      1.8880260000
O                  3.3102300000     -4.7085010000      1.2591040000
O                  1.0272480000      0.0967430000     -0.4520170000
O                  1.0864800000     -5.2771830000      2.4353780000
H                  5.2823490000     -3.8467230000      0.0212630000
H                  6.6084360000     -2.2797360000     -1.3460290000
H                  5.5925460000     -0.1127390000     -2.1233350000
H                  3.2317330000      0.4164400000     -1.4870640000
H                  2.5841050000     -5.1538210000      1.7838320000
O                 -1.3797830000     -4.6930590000      3.0827460000
H                 -0.9536730000     -0.7383950000      0.7747090000
H                 -2.3012390000     -2.3441480000      2.1711050000
H                 -0.6864980000     -5.3815760000      3.1845950000
$end
$rem
MAX_SCF_CYCLES=200
BASIS  =  6-311++G(d,p)
GUI  =  2
JOB_TYPE  =  SP
METHOD  =  B3LYP
SOLVENT_METHOD = COSMO
$end
$solvent
dielectric 37.219
opticaldielectric 1.43
$end





--------------------------------------------------------------
 ----------------------------------------------------------------
             Standard Nuclear Orientation (Angstroms)
    I     Atom           X                Y                Z
 ----------------------------------------------------------------
    1      C       2.6871526574    -1.6483900023     0.0000353135
    2      C       3.9824114545    -1.1905039741    -0.0000999495
    3      C       4.2558360142     0.2100204946    -0.0002488124
    4      C       1.5683704649    -0.7496000014    -0.0000005355
    5      C       1.8490809472     0.6806040397    -0.0000540317
    6      C       3.1962961630     1.0994895478    -0.0001996088
    7      C       0.2513300766    -1.2056209153     0.0001663969
    8      C      -0.8250934472    -0.2822079861     0.0000910167
    9      C      -0.5734964768     1.1389031903     0.0001044846
   10      C       0.7868117990     1.6718523773     0.0000757684
   11      C      -2.1907220832    -0.7582079357    -0.0001026369
   12      C      -3.2204434411     0.1915314986    -0.0001290148
   13      C      -1.6700109301     2.0353501320     0.0001110801
   14      C      -2.9773644006     1.5716437625     0.0001668430
   15      O      -0.0012070228    -2.5698006756     0.0004534845
   16      O       1.0247225392     2.9236299656     0.0001179030
   17      O      -2.5249799683    -2.0381490457    -0.0002293325
   18      H       2.4774395641    -2.7128951885     0.0001879454
   19      H       4.8069581963    -1.9024722714    -0.0000140417
   20      H       5.2829332417     0.5684710088    -0.0004263411
   21      H       3.3634155954     2.1727656085    -0.0001743739
   22      H      -0.9995619534    -2.6345639018     0.0002319228
   23      O      -4.5090359037    -0.3333729889    -0.0002688566
   24      H      -1.4444599431     3.0953798104     0.0002799636
   25      H      -3.8205446289     2.2596046166     0.0002416853
   26      H      -4.3031300135    -1.2939330931    -0.0004102282
 ----------------------------------------------------------------
 Molecular Point Group                 C1    NOp =  1
 Largest Abelian Subgroup              C1    NOp =  1
 Nuclear Repulsion Energy =        1223.95012802 hartrees
 There are       63 alpha and       63 beta electrons
 Requested basis set is 6-311++G(d,p)
 There are 148 shells and 452 basis functions

 Total QAlloc Memory Limit   8000 MB
 Mega-Array Size       188 MB
 MEM_STATIC part       192 MB
 A cutoff of  1.0D-08 yielded   7726 shell pairs
 There are     75216 function pairs (     80648 Cartesian)
 Smallest overlap matrix eigenvalue = 5.82E-08

 Q-Chem warning in module stvman/mkSTV.C, line 323:

 Overlap eigenvalue is smaller than square root of threshold
 Use THRESH >= 12 to get rid of this warning

 Linear dependence detected in AO basis
 Tighter screening thresholds may be required for diffuse basis sets
 Use S2THRESH > 14 and THRESH = 14 in case of SCF convergence issues
 Number of orthogonalized atomic orbitals = 445
 Maximum deviation from orthogonality = 1.124E-10

 Scale SEOQF with 1.000000e-02/1.000000e-01/1.000000e-01

 Standard Electronic Orientation quadrupole field applied
 Nucleus-field energy     =     0.0000000252 hartrees
 Guess from superposition of atomic densities
 Warning:  Energy on first SCF cycle will be non-variational
 SAD guess density has 124.000000 electrons

 -----------------------------------------------------------------------
  General SCF calculation program by
  Eric Jon Sundstrom, Paul Horn, Yuezhi Mao, Dmitri Zuev, Alec White,
  David Stuck, Shaama M.S., Shane Yost, Joonho Lee, David Small,
  Daniel Levine, Susi Lehtola, Hugh Burton, Evgeny Epifanovsky,
  Bang C. Huynh
 -----------------------------------------------------------------------
 Exchange:     0.2000 Hartree-Fock + 0.0800 Slater + 0.7200 B88
 Correlation:  0.1900 VWN1RPA + 0.8100 LYP
 Using SG-1 standard quadrature grid
 using 8 threads for integral computing
 -------------------------------------------------------
 OpenMP Integral computing Module                
 Release: version 1.0, May 2013, Q-Chem Inc. Pittsburgh 
 -------------------------------------------------------
 A restricted SCF calculation will be
 performed using DIIS
 SCF converges when DIIS error is below 1.0e-05
 ---------------------------------------
  Cycle       Energy         DIIS error
 ---------------------------------------
    1    -843.6691092406      3.16e-02  
    2    -839.0443229477      4.18e-03  
    3    -833.7266877344      1.08e-02  
    4    -838.9206504571      4.42e-03  
    5    -839.4040790663      1.45e-03  
    6    -839.4184357432      1.29e-03  
    7    -839.4646431692      4.05e-04  
    8    -839.4679271789      2.23e-04  
    9    -839.4689730247      7.98e-05  
   10    -839.4690916087      2.53e-05  
   11    -839.4691061479      1.09e-05  
   12    -839.4691105518      5.67e-06  Convergence criterion met
 ---------------------------------------
 SCF time:   CPU 321.17s  wall 40.00s 
 SCF   energy in the final basis set =     -839.4691105518
 Total energy in the final basis set =     -839.4691105518
 Exchange:     0.2000 Hartree-Fock + 0.0800 Slater + 0.7200 B88
 Correlation:  0.1900 VWN1RPA + 0.8100 LYP
 Using SG-1 standard quadrature grid
 in get_qchem_info
 IBasis=      401111
 IBasis=      401111
 USING 1082 GRID
 MICHARGE=          -2
 Set epsilon to    37.2190017700195     
==== cosmo data ====
outfile: 184-an-COSMO.out.cosmo.0
phsran:    0.00000D+00
ampran:    0.10000D-04
volume:   1724.1732009
area:    848.1472213
routf:      0.8500000
rsolv [a.u]:      2.4566438
disex:     10.0000000
disex2:   4643.4059898
fepsi:      0.9731320
eps :    37.2190018
lcavity:     1
nppa:  1082
nspa:    92
nsph:    32
maxnps:  1912
natoms:    26
Atom   Radius [a.u.] nuc. charge
    1      3.7794520    6
    2      3.7794520    6
    3      3.7794520    6
    4      3.7794520    6
    5      3.7794520    6
    6      3.7794520    6
    7      3.7794520    6
    8      3.7794520    6
    9      3.7794520    6
   10      3.7794520    6
   11      3.7794520    6
   12      3.7794520    6
   13      3.7794520    6
   14      3.7794520    6
   15      3.2503287    8
   16      3.2503287    8
   17      3.2503287    8
   18      2.4566438    1
   19      2.4566438    1
   20      2.4566438    1
   21      2.4566438    1
   22      2.4566438    1
   23      3.2503287    8
   24      2.4566438    1
   25      2.4566438    1
   26      2.4566438    1
=== end cosmo data ===
 number of segments:         1048
 f_epsilon=  0.973132003749614     
Ediel:   -0.2517969
 A restricted SCF calculation will be
 performed using Roothaan-Hall, DIIS
 SCF converges when DIIS error is below 1.0e-05
 ---------------------------------------
  Cycle       Energy         DIIS error
 ---------------------------------------
 number of segments:         1048
 f_epsilon=  0.973132003749614     
Ediel:   -0.2763985
    1    -839.7209059667      2.97e-04  Roothaan Step
 ---------------------------------------
  Cycle       Energy         DIIS error
 ---------------------------------------
 number of segments:         1048
 f_epsilon=  0.973132003749614     
Ediel:   -0.2648949
    1    -839.7271346312      3.16e-04  
 number of segments:         1048
 f_epsilon=  0.973132003749614     
Ediel:   -0.2720283
    2    -839.7218490414      5.71e-04  
 number of segments:         1048
 f_epsilon=  0.973132003749614     
Ediel:   -0.2725370
    3    -839.7298721550      6.66e-05  
 number of segments:         1048
 f_epsilon=  0.973132003749614     
Ediel:   -0.2725632
    4    -839.7299684909      2.14e-05  
 number of segments:         1048
 f_epsilon=  0.973132003749614     
Ediel:   -0.2726715
    5    -839.7299791402      1.18e-05  
    6    -839.7299859668      2.71e-06  Convergence criterion met
 ---------------------------------------
 SCF time:   CPU 210.81s  wall 28.00s 
before final oc correction, ETot:      -839.7299859668
 number of outlayer segments:          464
SCF energy after oc correction:      -839.7425689166
 SCF   energy in the final basis set =     -839.7425689166
 Total energy in the final basis set =     -839.7299859668
 
 --------------------------------------------------------------
 
                    Orbital Energies (a.u.)
 --------------------------------------------------------------
 
 Alpha MOs
 -- Occupied --
-19.1266 -19.1067 -19.0603 -19.0412 -10.1970 -10.1962 -10.1922 -10.1902
-10.1579 -10.1557 -10.1554 -10.1548 -10.1542 -10.1517 -10.1513 -10.1457
-10.1456 -10.1416  -1.0372  -1.0170  -0.9628  -0.9558  -0.8390  -0.8181
 -0.7666  -0.7354  -0.7141  -0.7038  -0.6537  -0.6167  -0.6008  -0.5655
 -0.5545  -0.5215  -0.5053  -0.4892  -0.4837  -0.4513  -0.4441  -0.4223
 -0.4191  -0.4104  -0.4066  -0.3956  -0.3865  -0.3839  -0.3741  -0.3692
 -0.3567  -0.3552  -0.3375  -0.3360  -0.3236  -0.3168  -0.3112  -0.2924
 -0.2561  -0.2441  -0.2400  -0.2177  -0.2147  -0.1844  -0.1261
 -- Virtual --
 -0.0305   0.0002   0.0015   0.0094   0.0146   0.0259   0.0264   0.0273
  0.0472   0.0494   0.0504   0.0510   0.0672   0.0695   0.0714   0.0745
  0.0760   0.0892   0.0892   0.0969   0.1007   0.1053   0.1057   0.1146
  0.1192   0.1234   0.1260   0.1297   0.1318   0.1344   0.1409   0.1414
  0.1419   0.1494   0.1541   0.1544   0.1587   0.1698   0.1732   0.1752
  0.1787   0.1831   0.1877   0.1903   0.1944   0.1962   0.1994   0.2061
  0.2146   0.2176   0.2207   0.2246   0.2302   0.2386   0.2409   0.2430
  0.2524   0.2561   0.2614   0.2618   0.2636   0.2697   0.2730   0.2745
  0.2751   0.2841   0.2896   0.2906   0.2978   0.3014   0.3081   0.3108
  0.3142   0.3166   0.3217   0.3252   0.3308   0.3319   0.3376   0.3403
  0.3469   0.3514   0.3536   0.3541   0.3569   0.3691   0.3714   0.3743
  0.3825   0.3914   0.3979   0.4017   0.4123   0.4130   0.4344   0.4401
  0.4510   0.4575   0.4706   0.4940   0.5039   0.5215   0.5274   0.5465
  0.5485   0.5532   0.5626   0.5678   0.5765   0.5800   0.5841   0.5895
  0.6001   0.6043   0.6162   0.6220   0.6220   0.6268   0.6415   0.6477
  0.6532   0.6614   0.6671   0.6721   0.6787   0.6835   0.6905   0.6948
  0.6960   0.7150   0.7161   0.7404   0.7533   0.7593   0.7720   0.7828
  0.7944   0.7976   0.8084   0.8176   0.8241   0.8397   0.8442   0.8606
  0.8728   0.8857   0.8948   0.9021   0.9139   0.9244   0.9341   0.9449
  0.9481   0.9599   0.9635   0.9736   0.9739   1.0010   1.0060   1.0075
  1.0151   1.0241   1.0283   1.0388   1.0534   1.0620   1.0731   1.0820
  1.0879   1.0992   1.1014   1.1142   1.1331   1.1498   1.1502   1.1617
  1.1639   1.1812   1.1913   1.2099   1.2286   1.2304   1.2490   1.2502
  1.2548   1.2692   1.2755   1.2844   1.2882   1.3086   1.3179   1.3363
  1.3556   1.3739   1.3824   1.4154   1.4396   1.4477   1.4638   1.5089
  1.5109   1.5155   1.5224   1.5324   1.5436   1.5484   1.5543   1.5597
  1.5835   1.5911   1.6213   1.6405   1.6620   1.6758   1.6812   1.6863
  1.7055   1.7150   1.7307   1.7387   1.7487   1.7619   1.7701   1.7882
  1.7937   1.8127   1.8237   1.8275   1.8503   1.8882   1.9001   1.9074
  1.9082   1.9151   1.9309   1.9365   1.9385   1.9635   1.9799   1.9813
  1.9826   1.9974   2.0064   2.0094   2.0206   2.0300   2.0575   2.0687
  2.0993   2.1174   2.1388   2.1607   2.1751   2.1943   2.2128   2.2316
  2.2437   2.2593   2.2914   2.3118   2.3406   2.3481   2.3841   2.4138
  2.4188   2.4411   2.4733   2.5030   2.5148   2.5475   2.5645   2.6438
  2.6440   2.6530   2.6579   2.6665   2.7059   2.7302   2.7362   2.7592
  2.7650   2.7653   2.7718   2.7834   2.7880   2.7908   2.7977   2.8043
  2.8145   2.8277   2.8454   2.8627   2.8763   2.8929   2.8987   2.9086
  2.9246   2.9278   2.9485   2.9672   3.0025   3.0388   3.0605   3.0768
  3.1061   3.1242   3.1319   3.1392   3.1594   3.1640   3.1768   3.1849
  3.1918   3.2260   3.2394   3.2495   3.2937   3.3065   3.3339   3.3454
  3.3613   3.3983   3.4279   3.4518   3.4579   3.4820   3.5327   3.5449
  3.5485   3.5720   3.5820   3.6246   3.6396   3.6731   3.7606   3.8315
  3.8455   3.9037   3.9407   3.9575   4.0602   4.0911   4.1213   4.1755
  4.2218   4.2808   4.3148   4.3338   4.5243   4.8346   4.8615   4.8832
  5.0103   5.0511   5.1224   5.1261   5.3121   5.3655   5.4982   5.5437
  5.6811   5.7801   5.8261   5.8346  23.5299  23.7282  23.8705  23.9070
 23.9385  23.9644  23.9940  24.0148  24.0278  24.0548  24.1035  24.1433
 24.1910  24.2013  49.9498  50.0195  50.0901  50.1257
 --------------------------------------------------------------
 
          Ground-State Mulliken Net Atomic Charges

     Atom                 Charge (a.u.)
  ----------------------------------------
      1 C                    -0.135506
      2 C                    -0.450908
      3 C                    -0.537329
      4 C                     0.098810
      5 C                    -0.140747
      6 C                     0.000979
      7 C                    -0.051558
      8 C                     0.693145
      9 C                     0.536628
     10 C                    -0.354824
     11 C                    -0.554703
     12 C                    -0.439911
     13 C                    -0.111411
     14 C                    -0.055512
     15 O                    -0.518805
     16 O                    -0.636340
     17 O                    -0.720266
     18 H                     0.166573
     19 H                     0.185243
     20 H                     0.182626
     21 H                     0.157324
     22 H                     0.404223
     23 O                    -0.384008
     24 H                     0.155909
     25 H                     0.198835
     26 H                     0.311534
  ----------------------------------------
  Sum of atomic charges =    -2.000000

 -----------------------------------------------------------------
                    Cartesian Multipole Moments
 -----------------------------------------------------------------
    Charge (ESU x 10^10)
                -9.6064
    Dipole Moment (Debye)
         X       4.2769      Y      -2.4782      Z      -0.0020
       Tot       4.9430
    Quadrupole Moments (Debye-Ang)
        XX    -161.0168     XY     -15.1139     YY    -156.1079
        XZ      -0.0045     YZ      -0.0005     ZZ    -115.8960
    Octopole Moments (Debye-Ang^2)
       XXX     116.9147    XXY       3.1726    XYY     -19.2620
       YYY     -58.7946    XXZ      -0.0094    XYZ      -0.0020
       YYZ      -0.0130    XZZ     -13.3939    YZZ      -6.2521
       ZZZ      -0.0050
    Hexadecapole Moments (Debye-Ang^3)
      XXXX   -5096.6301   XXXY     -27.0414   XXYY   -1049.8967
      XYYY    -123.0443   YYYY   -2068.7706   XXXZ      -0.0915
      XXYZ      -0.0212   XYYZ      -0.0050   YYYZ      -0.0087
      XXZZ    -835.2319   XYZZ      19.3771   YYZZ    -327.9202
      XZZZ       0.0066   YZZZ      -0.0057   ZZZZ    -141.5799
 -----------------------------------------------------------------
 Total job time:  71.95s(wall), 538.98s(cpu) 
 Thu Feb 22 05:16:41 2024

        *************************************************************
        *                                                           *
        *  Thank you very much for using Q-Chem.  Have a nice day.  *
        *                                                           *
        *************************************************************


