 Entering Gaussian System, Link 0=g16
 Input=061-rad.com
 Output=061-rad.log
 Initial command:
 /sysapps/ubuntu-applications/gaussian/Gaussian/AVX2/g16/l1.exe "/scratch/selhajj1/4219775/Gau-2856154.inp" -scrdir="/scratch/selhajj1/4219775/"
 Entering Link 1 = /sysapps/ubuntu-applications/gaussian/Gaussian/AVX2/g16/l1.exe PID=   2856173.
  
 Copyright (c) 1988,1990,1992,1993,1995,1998,2003,2009,2016,
            Gaussian, Inc.  All Rights Reserved.
  
 This is part of the Gaussian(R) 16 program.  It is based on
 the Gaussian(R) 09 system (copyright 2009, Gaussian, Inc.),
 the Gaussian(R) 03 system (copyright 2003, Gaussian, Inc.),
 the Gaussian(R) 98 system (copyright 1998, Gaussian, Inc.),
 the Gaussian(R) 94 system (copyright 1995, Gaussian, Inc.),
 the Gaussian 92(TM) system (copyright 1992, Gaussian, Inc.),
 the Gaussian 90(TM) system (copyright 1990, Gaussian, Inc.),
 the Gaussian 88(TM) system (copyright 1988, Gaussian, Inc.),
 the Gaussian 86(TM) system (copyright 1986, Carnegie Mellon
 University), and the Gaussian 82(TM) system (copyright 1983,
 Carnegie Mellon University). Gaussian is a federally registered
 trademark of Gaussian, Inc.
  
 This software contains proprietary and confidential information,
 including trade secrets, belonging to Gaussian, Inc.
  
 This software is provided under written license and may be
 used, copied, transmitted, or stored only in accord with that
 written license.
  
 The following legend is applicable only to US Government
 contracts under FAR:
  
                    RESTRICTED RIGHTS LEGEND
  
 Use, reproduction and disclosure by the US Government is
 subject to restrictions as set forth in subparagraphs (a)
 and (c) of the Commercial Computer Software - Restricted
 Rights clause in FAR 52.227-19.
  
 Gaussian, Inc.
 340 Quinnipiac St., Bldg. 40, Wallingford CT 06492
  
  
 ---------------------------------------------------------------
 Warning -- This program may not be used in any manner that
 competes with the business of Gaussian, Inc. or will provide
 assistance to any competitor of Gaussian, Inc.  The licensee
 of this program is prohibited from giving any competitor of
 Gaussian, Inc. access to this program.  By using this program,
 the user acknowledges that Gaussian, Inc. is engaged in the
 business of creating and licensing software in the field of
 computational chemistry and represents and warrants to the
 licensee that it is not a competitor of Gaussian, Inc. and that
 it will not use this program in any manner prohibited above.
 ---------------------------------------------------------------
  

 Cite this work as:
 Gaussian 16, Revision A.03,
 M. J. Frisch, G. W. Trucks, H. B. Schlegel, G. E. Scuseria, 
 M. A. Robb, J. R. Cheeseman, G. Scalmani, V. Barone, 
 G. A. Petersson, H. Nakatsuji, X. Li, M. Caricato, A. V. Marenich, 
 J. Bloino, B. G. Janesko, R. Gomperts, B. Mennucci, H. P. Hratchian, 
 J. V. Ortiz, A. F. Izmaylov, J. L. Sonnenberg, D. Williams-Young, 
 F. Ding, F. Lipparini, F. Egidi, J. Goings, B. Peng, A. Petrone, 
 T. Henderson, D. Ranasinghe, V. G. Zakrzewski, J. Gao, N. Rega, 
 G. Zheng, W. Liang, M. Hada, M. Ehara, K. Toyota, R. Fukuda, 
 J. Hasegawa, M. Ishida, T. Nakajima, Y. Honda, O. Kitao, H. Nakai, 
 T. Vreven, K. Throssell, J. A. Montgomery, Jr., J. E. Peralta, 
 F. Ogliaro, M. J. Bearpark, J. J. Heyd, E. N. Brothers, K. N. Kudin, 
 V. N. Staroverov, T. A. Keith, R. Kobayashi, J. Normand, 
 K. Raghavachari, A. P. Rendell, J. C. Burant, S. S. Iyengar, 
 J. Tomasi, M. Cossi, J. M. Millam, M. Klene, C. Adamo, R. Cammi, 
 J. W. Ochterski, R. L. Martin, K. Morokuma, O. Farkas, 
 J. B. Foresman, and D. J. Fox, Gaussian, Inc., Wallingford CT, 2016.
 
 ******************************************
 Gaussian 16:  ES64L-G16RevA.03 25-Dec-2016
                20-Dec-2023 
 ******************************************
 %chk=061-rad.chk
 %nproc=8
 Will use up to    8 processors via shared memory.
 %mem=30GB
 --------------------------------------
 #P UB3LYP/6-311++G(d,p) nosym opt freq
 --------------------------------------
 1/18=20,19=15,26=3,38=1/1,3;
 2/9=110,12=2,15=1,17=6,18=5,40=1/2;
 3/5=4,6=6,7=1111,11=2,25=1,30=1,71=1,74=-5,116=2/1,2,3;
 4//1;
 5/5=2,38=5/2;
 6/7=2,8=2,9=2,10=2,28=1/1;
 7/30=1/1,2,3,16;
 1/18=20,19=15,26=3/3(2);
 2/9=110,15=1/2;
 99//99;
 2/9=110,15=1/2;
 3/5=4,6=6,7=1111,11=2,25=1,30=1,71=1,74=-5,116=2/1,2,3;
 4/5=5,16=3,69=1/1;
 5/5=2,38=5/2;
 7/30=1/1,2,3,16;
 1/18=20,19=15,26=3/3(-5);
 2/9=110,15=1/2;
 6/7=2,8=2,9=2,10=2,19=2,28=1/1;
 99/9=1/99;
 Leave Link    1 at Wed Dec 20 01:21:57 2023, MaxMem=  4026531840 cpu:               0.5 elap:               0.1
 (Enter /sysapps/ubuntu-applications/gaussian/Gaussian/AVX2/g16/l101.exe)
 -------
 Radical
 -------
 Symbolic Z-matrix:
 Charge = -1 Multiplicity = 2
 C                    -1.1844   -0.05661   1.30261 
 C                    -0.55037  -1.14877   0.93102 
 C                     0.78893  -1.15661   0.32005 
 C                     1.50419  -0.07152   0.07531 
 C                     0.83255   1.21015   0.47723 
 C                    -0.40987   1.16317   1.04056 
 O                    -2.26599   0.05979   1.80539 
 O                     2.59379  -0.09322  -0.42348 
 H                    -1.03889  -2.10709   1.08144 
 H                     1.206    -2.12514   0.05686 
 C                     1.60215   2.51806   0.2243 
 C                     1.22778   4.00647   0.48766 
 C                    -0.14581   4.3066    1.11383 
 C                     2.2954    4.60605   1.43211 
 C                     1.27972   4.75466  -0.86485 
 O                     2.71171   2.38771  -0.27605 
 H                    -0.9699    3.96965   0.44925 
 H                    -0.28218   5.40328   1.23943 
 H                    -0.22361   3.87258   2.13344 
 H                     2.27983   4.0837    2.4133 
 H                     2.11021   5.68815   1.60882 
 H                     3.31611   4.50886   1.00315 
 H                     0.52094   4.34114  -1.56423 
 H                     2.27927   4.66061  -1.34173 
 H                     1.07659   5.83953  -0.72976 
 H                    -0.92853   2.03742   1.34368 
 
 ITRead=  0  0  0  0  0  0  0  0  0  0  0  0  0  0  0  0  0  0  0  0
 ITRead=  0  0  0  0  0  0
 MicOpt= -1 -1 -1 -1 -1 -1 -1 -1 -1 -1 -1 -1 -1 -1 -1 -1 -1 -1 -1 -1
 MicOpt= -1 -1 -1 -1 -1 -1
 NAtoms=     26 NQM=       26 NQMF=       0 NMMI=      0 NMMIF=      0
                NMic=       0 NMicF=      0.
                    Isotopes and Nuclear Properties:
 (Nuclear quadrupole moments (NQMom) in fm**2, nuclear magnetic moments (NMagM)
  in nuclear magnetons)

  Atom         1           2           3           4           5           6           7           8           9          10
 IAtWgt=          12          12          12          12          12          12          16          16           1           1
 AtmWgt=  12.0000000  12.0000000  12.0000000  12.0000000  12.0000000  12.0000000  15.9949146  15.9949146   1.0078250   1.0078250
 NucSpn=           0           0           0           0           0           0           0           0           1           1
 AtZEff=  -0.0000000  -0.0000000  -0.0000000  -0.0000000  -0.0000000  -0.0000000  -0.0000000  -0.0000000  -0.0000000  -0.0000000
 NQMom=    0.0000000   0.0000000   0.0000000   0.0000000   0.0000000   0.0000000   0.0000000   0.0000000   0.0000000   0.0000000
 NMagM=    0.0000000   0.0000000   0.0000000   0.0000000   0.0000000   0.0000000   0.0000000   0.0000000   2.7928460   2.7928460
 AtZNuc=   6.0000000   6.0000000   6.0000000   6.0000000   6.0000000   6.0000000   8.0000000   8.0000000   1.0000000   1.0000000

  Atom        11          12          13          14          15          16          17          18          19          20
 IAtWgt=          12          12          12          12          12          16           1           1           1           1
 AtmWgt=  12.0000000  12.0000000  12.0000000  12.0000000  12.0000000  15.9949146   1.0078250   1.0078250   1.0078250   1.0078250
 NucSpn=           0           0           0           0           0           0           1           1           1           1
 AtZEff=  -0.0000000  -0.0000000  -0.0000000  -0.0000000  -0.0000000  -0.0000000  -0.0000000  -0.0000000  -0.0000000  -0.0000000
 NQMom=    0.0000000   0.0000000   0.0000000   0.0000000   0.0000000   0.0000000   0.0000000   0.0000000   0.0000000   0.0000000
 NMagM=    0.0000000   0.0000000   0.0000000   0.0000000   0.0000000   0.0000000   2.7928460   2.7928460   2.7928460   2.7928460
 AtZNuc=   6.0000000   6.0000000   6.0000000   6.0000000   6.0000000   8.0000000   1.0000000   1.0000000   1.0000000   1.0000000

  Atom        21          22          23          24          25          26
 IAtWgt=           1           1           1           1           1           1
 AtmWgt=   1.0078250   1.0078250   1.0078250   1.0078250   1.0078250   1.0078250
 NucSpn=           1           1           1           1           1           1
 AtZEff=  -0.0000000  -0.0000000  -0.0000000  -0.0000000  -0.0000000  -0.0000000
 NQMom=    0.0000000   0.0000000   0.0000000   0.0000000   0.0000000   0.0000000
 NMagM=    2.7928460   2.7928460   2.7928460   2.7928460   2.7928460   2.7928460
 AtZNuc=   1.0000000   1.0000000   1.0000000   1.0000000   1.0000000   1.0000000
 Leave Link  101 at Wed Dec 20 01:21:58 2023, MaxMem=  4026531840 cpu:               2.9 elap:               0.5
 (Enter /sysapps/ubuntu-applications/gaussian/Gaussian/AVX2/g16/l103.exe)

 GradGradGradGradGradGradGradGradGradGradGradGradGradGradGradGradGradGrad
 Berny optimization.
 Initialization pass.
                           ----------------------------
                           !    Initial Parameters    !
                           ! (Angstroms and Degrees)  !
 --------------------------                            --------------------------
 ! Name  Definition              Value          Derivative Info.                !
 --------------------------------------------------------------------------------
 ! R1    R(1,2)                  1.3164         estimate D2E/DX2                !
 ! R2    R(1,6)                  1.4685         estimate D2E/DX2                !
 ! R3    R(1,7)                  1.1984         estimate D2E/DX2                !
 ! R4    R(2,3)                  1.4721         estimate D2E/DX2                !
 ! R5    R(2,9)                  1.0861         estimate D2E/DX2                !
 ! R6    R(3,4)                  1.3225         estimate D2E/DX2                !
 ! R7    R(3,10)                 1.0869         estimate D2E/DX2                !
 ! R8    R(4,5)                  1.5018         estimate D2E/DX2                !
 ! R9    R(4,8)                  1.1985         estimate D2E/DX2                !
 ! R10   R(5,6)                  1.365          estimate D2E/DX2                !
 ! R11   R(5,11)                 1.5385         estimate D2E/DX2                !
 ! R12   R(6,26)                 1.0608         estimate D2E/DX2                !
 ! R13   R(11,12)                1.5572         estimate D2E/DX2                !
 ! R14   R(11,16)                1.2241         estimate D2E/DX2                !
 ! R15   R(12,13)                1.5391         estimate D2E/DX2                !
 ! R16   R(12,14)                1.5464         estimate D2E/DX2                !
 ! R17   R(12,15)                1.5465         estimate D2E/DX2                !
 ! R18   R(13,17)                1.111          estimate D2E/DX2                !
 ! R19   R(13,18)                1.1122         estimate D2E/DX2                !
 ! R20   R(13,19)                1.1109         estimate D2E/DX2                !
 ! R21   R(14,20)                1.1117         estimate D2E/DX2                !
 ! R22   R(14,21)                1.112          estimate D2E/DX2                !
 ! R23   R(14,22)                1.1114         estimate D2E/DX2                !
 ! R24   R(15,23)                1.1117         estimate D2E/DX2                !
 ! R25   R(15,24)                1.1115         estimate D2E/DX2                !
 ! R26   R(15,25)                1.112          estimate D2E/DX2                !
 ! A1    A(2,1,6)              112.6278         estimate D2E/DX2                !
 ! A2    A(2,1,7)              129.3241         estimate D2E/DX2                !
 ! A3    A(6,1,7)              118.0481         estimate D2E/DX2                !
 ! A4    A(1,2,3)              124.0397         estimate D2E/DX2                !
 ! A5    A(1,2,9)              118.4447         estimate D2E/DX2                !
 ! A6    A(3,2,9)              117.5156         estimate D2E/DX2                !
 ! A7    A(2,3,4)              124.3677         estimate D2E/DX2                !
 ! A8    A(2,3,10)             117.0244         estimate D2E/DX2                !
 ! A9    A(4,3,10)             118.6079         estimate D2E/DX2                !
 ! A10   A(3,4,5)              114.1317         estimate D2E/DX2                !
 ! A11   A(3,4,8)              123.632          estimate D2E/DX2                !
 ! A12   A(5,4,8)              122.2363         estimate D2E/DX2                !
 ! A13   A(4,5,6)              119.2194         estimate D2E/DX2                !
 ! A14   A(4,5,11)             117.2464         estimate D2E/DX2                !
 ! A15   A(6,5,11)             123.5342         estimate D2E/DX2                !
 ! A16   A(1,6,5)              125.6137         estimate D2E/DX2                !
 ! A17   A(1,6,26)             112.0682         estimate D2E/DX2                !
 ! A18   A(5,6,26)             122.3181         estimate D2E/DX2                !
 ! A19   A(5,11,12)            131.645          estimate D2E/DX2                !
 ! A20   A(5,11,16)            115.4736         estimate D2E/DX2                !
 ! A21   A(12,11,16)           112.8812         estimate D2E/DX2                !
 ! A22   A(11,12,13)           118.0178         estimate D2E/DX2                !
 ! A23   A(11,12,14)           107.9336         estimate D2E/DX2                !
 ! A24   A(11,12,15)           107.8444         estimate D2E/DX2                !
 ! A25   A(13,12,14)           106.9815         estimate D2E/DX2                !
 ! A26   A(13,12,15)           106.9435         estimate D2E/DX2                !
 ! A27   A(14,12,15)           108.8663         estimate D2E/DX2                !
 ! A28   A(12,13,17)           111.0679         estimate D2E/DX2                !
 ! A29   A(12,13,18)           110.3427         estimate D2E/DX2                !
 ! A30   A(12,13,19)           111.0835         estimate D2E/DX2                !
 ! A31   A(17,13,18)           106.0005         estimate D2E/DX2                !
 ! A32   A(17,13,19)           112.2467         estimate D2E/DX2                !
 ! A33   A(18,13,19)           105.843          estimate D2E/DX2                !
 ! A34   A(12,14,20)           110.3164         estimate D2E/DX2                !
 ! A35   A(12,14,21)           111.0631         estimate D2E/DX2                !
 ! A36   A(12,14,22)           111.3716         estimate D2E/DX2                !
 ! A37   A(20,14,21)           108.3403         estimate D2E/DX2                !
 ! A38   A(20,14,22)           108.2052         estimate D2E/DX2                !
 ! A39   A(21,14,22)           107.4203         estimate D2E/DX2                !
 ! A40   A(12,15,23)           110.3226         estimate D2E/DX2                !
 ! A41   A(12,15,24)           111.3763         estimate D2E/DX2                !
 ! A42   A(12,15,25)           111.0767         estimate D2E/DX2                !
 ! A43   A(23,15,24)           108.2049         estimate D2E/DX2                !
 ! A44   A(23,15,25)           108.3399         estimate D2E/DX2                !
 ! A45   A(24,15,25)           107.3954         estimate D2E/DX2                !
 ! D1    D(6,1,2,3)              0.052          estimate D2E/DX2                !
 ! D2    D(6,1,2,9)           -179.9638         estimate D2E/DX2                !
 ! D3    D(7,1,2,3)           -179.9413         estimate D2E/DX2                !
 ! D4    D(7,1,2,9)              0.0429         estimate D2E/DX2                !
 ! D5    D(2,1,6,5)             -0.0234         estimate D2E/DX2                !
 ! D6    D(2,1,6,26)          -179.969          estimate D2E/DX2                !
 ! D7    D(7,1,6,5)            179.9707         estimate D2E/DX2                !
 ! D8    D(7,1,6,26)             0.0252         estimate D2E/DX2                !
 ! D9    D(1,2,3,4)             -0.0412         estimate D2E/DX2                !
 ! D10   D(1,2,3,10)           179.991          estimate D2E/DX2                !
 ! D11   D(9,2,3,4)            179.9744         estimate D2E/DX2                !
 ! D12   D(9,2,3,10)             0.0066         estimate D2E/DX2                !
 ! D13   D(2,3,4,5)             -0.0051         estimate D2E/DX2                !
 ! D14   D(2,3,4,8)           -179.9696         estimate D2E/DX2                !
 ! D15   D(10,3,4,5)           179.9622         estimate D2E/DX2                !
 ! D16   D(10,3,4,8)            -0.0023         estimate D2E/DX2                !
 ! D17   D(3,4,5,6)              0.0316         estimate D2E/DX2                !
 ! D18   D(3,4,5,11)          -179.9963         estimate D2E/DX2                !
 ! D19   D(8,4,5,6)            179.9967         estimate D2E/DX2                !
 ! D20   D(8,4,5,11)            -0.0312         estimate D2E/DX2                !
 ! D21   D(4,5,6,1)             -0.0187         estimate D2E/DX2                !
 ! D22   D(4,5,6,26)           179.9216         estimate D2E/DX2                !
 ! D23   D(11,5,6,1)          -179.989          estimate D2E/DX2                !
 ! D24   D(11,5,6,26)           -0.0486         estimate D2E/DX2                !
 ! D25   D(4,5,11,12)          179.171          estimate D2E/DX2                !
 ! D26   D(4,5,11,16)           -0.7086         estimate D2E/DX2                !
 ! D27   D(6,5,11,12)           -0.8582         estimate D2E/DX2                !
 ! D28   D(6,5,11,16)          179.2622         estimate D2E/DX2                !
 ! D29   D(5,11,12,13)           0.0285         estimate D2E/DX2                !
 ! D30   D(5,11,12,14)         121.3569         estimate D2E/DX2                !
 ! D31   D(5,11,12,15)        -121.1762         estimate D2E/DX2                !
 ! D32   D(16,11,12,13)        179.9105         estimate D2E/DX2                !
 ! D33   D(16,11,12,14)        -58.7611         estimate D2E/DX2                !
 ! D34   D(16,11,12,15)         58.7058         estimate D2E/DX2                !
 ! D35   D(11,12,13,17)        -62.4055         estimate D2E/DX2                !
 ! D36   D(11,12,13,18)       -179.655          estimate D2E/DX2                !
 ! D37   D(11,12,13,19)         63.2805         estimate D2E/DX2                !
 ! D38   D(14,12,13,17)        175.7789         estimate D2E/DX2                !
 ! D39   D(14,12,13,18)         58.5293         estimate D2E/DX2                !
 ! D40   D(14,12,13,19)        -58.5351         estimate D2E/DX2                !
 ! D41   D(15,12,13,17)         59.2609         estimate D2E/DX2                !
 ! D42   D(15,12,13,18)        -57.9886         estimate D2E/DX2                !
 ! D43   D(15,12,13,19)       -175.0531         estimate D2E/DX2                !
 ! D44   D(11,12,14,20)        -63.1206         estimate D2E/DX2                !
 ! D45   D(11,12,14,21)        176.7373         estimate D2E/DX2                !
 ! D46   D(11,12,14,22)         57.0536         estimate D2E/DX2                !
 ! D47   D(13,12,14,20)         64.8368         estimate D2E/DX2                !
 ! D48   D(13,12,14,21)        -55.3053         estimate D2E/DX2                !
 ! D49   D(13,12,14,22)       -174.989          estimate D2E/DX2                !
 ! D50   D(15,12,14,20)       -179.9259         estimate D2E/DX2                !
 ! D51   D(15,12,14,21)         59.932          estimate D2E/DX2                !
 ! D52   D(15,12,14,22)        -59.7518         estimate D2E/DX2                !
 ! D53   D(11,12,15,23)         63.0705         estimate D2E/DX2                !
 ! D54   D(11,12,15,24)        -57.1104         estimate D2E/DX2                !
 ! D55   D(11,12,15,25)       -176.775          estimate D2E/DX2                !
 ! D56   D(13,12,15,23)        -64.8054         estimate D2E/DX2                !
 ! D57   D(13,12,15,24)        175.0138         estimate D2E/DX2                !
 ! D58   D(13,12,15,25)         55.3491         estimate D2E/DX2                !
 ! D59   D(14,12,15,23)        179.9328         estimate D2E/DX2                !
 ! D60   D(14,12,15,24)         59.7519         estimate D2E/DX2                !
 ! D61   D(14,12,15,25)        -59.9127         estimate D2E/DX2                !
 --------------------------------------------------------------------------------
 Trust Radius=3.00D-01 FncErr=1.00D-07 GrdErr=1.00D-06 EigMax=2.50D+02 EigMin=1.00D-04
 Number of steps in this run=    142 maximum allowed number of steps=    156.
 GradGradGradGradGradGradGradGradGradGradGradGradGradGradGradGradGradGrad

 Leave Link  103 at Wed Dec 20 01:21:58 2023, MaxMem=  4026531840 cpu:               0.1 elap:               0.1
 (Enter /sysapps/ubuntu-applications/gaussian/Gaussian/AVX2/g16/l202.exe)
                          Input orientation:                          
 ---------------------------------------------------------------------
 Center     Atomic      Atomic             Coordinates (Angstroms)
 Number     Number       Type             X           Y           Z
 ---------------------------------------------------------------------
      1          6           0       -1.184400   -0.056610    1.302610
      2          6           0       -0.550370   -1.148770    0.931020
      3          6           0        0.788930   -1.156610    0.320050
      4          6           0        1.504190   -0.071520    0.075310
      5          6           0        0.832550    1.210150    0.477230
      6          6           0       -0.409870    1.163170    1.040560
      7          8           0       -2.265990    0.059790    1.805390
      8          8           0        2.593790   -0.093220   -0.423480
      9          1           0       -1.038890   -2.107090    1.081440
     10          1           0        1.206000   -2.125140    0.056860
     11          6           0        1.602150    2.518060    0.224300
     12          6           0        1.227780    4.006470    0.487660
     13          6           0       -0.145810    4.306600    1.113830
     14          6           0        2.295400    4.606050    1.432110
     15          6           0        1.279720    4.754660   -0.864850
     16          8           0        2.711710    2.387710   -0.276050
     17          1           0       -0.969900    3.969650    0.449250
     18          1           0       -0.282180    5.403280    1.239430
     19          1           0       -0.223610    3.872580    2.133440
     20          1           0        2.279830    4.083700    2.413300
     21          1           0        2.110210    5.688150    1.608820
     22          1           0        3.316110    4.508860    1.003150
     23          1           0        0.520940    4.341140   -1.564230
     24          1           0        2.279270    4.660610   -1.341730
     25          1           0        1.076590    5.839530   -0.729760
     26          1           0       -0.928530    2.037420    1.343680
 ---------------------------------------------------------------------
                    Distance matrix (angstroms):
                    1          2          3          4          5
     1  C    0.000000
     2  C    1.316392   0.000000
     3  C    2.463626   1.472097   0.000000
     4  C    2.955504   2.472635   1.322465   0.000000
     5  C    2.520718   2.771804   2.372375   1.501772   0.000000
     6  C    1.468479   2.318794   2.708807   2.473821   1.364974
     7  O    1.198405   2.273432   3.608102   4.150262   3.562062
     8  O    4.153968   3.582541   2.222871   1.198537   2.368970
     9  H    2.067500   1.086119   2.196373   3.409267   3.856350
    10  H    3.397752   2.191413   1.086861   2.075238   3.382356
    11  C    3.944178   4.310271   3.764797   2.595712   1.538469
    12  C    4.794932   5.471278   5.184407   4.108094   2.824132
    13  C    4.489088   5.473404   5.599151   4.792594   3.309146
    14  C    5.819465   6.439523   6.059239   4.934225   3.818882
    15  C    5.823924   6.436215   6.048800   4.922022   3.816371
    16  O    4.862771   4.960330   4.076104   2.762132   2.342076
    17  H    4.121287   5.158133   5.421136   4.753105   3.296126
    18  H    5.534292   6.564785   6.710044   5.875349   4.405214
    19  H    4.129398   5.173639   5.441174   4.772538   3.308631
    20  H    5.511505   6.130736   5.836551   4.830494   3.755033
    21  H    6.629516   7.367603   7.089249   5.991053   4.792222
    22  H    6.417771   6.853003   6.241059   5.012367   4.162469
    23  H    5.519707   6.124793   5.817868   4.808996   3.750701
    24  H    6.421971   6.849902   6.230784   5.000181   4.160203
    25  H    6.633783   7.364885   7.080312   5.980927   4.790359
    26  H    2.110004   3.234981   3.768198   3.460422   2.129909
                    6          7          8          9         10
     6  C    0.000000
     7  O    2.290763   0.000000
     8  O    3.569860   5.348713   0.000000
     9  H    3.330456   2.593308   4.417785   0.000000
    10  H    3.793637   4.459371   2.507067   2.467716   0.000000
    11  C    2.559342   4.848241   2.867360   5.394608   4.663076
    12  C    3.327454   5.433150   4.416290   6.547212   6.146764
    13  C    3.155352   4.796750   5.406214   6.475651   6.656715
    14  C    4.396046   6.450899   5.061165   7.503780   6.956078
    15  C    4.402738   6.460963   5.042175   7.499841   6.941659
    16  O    3.602391   5.876147   2.488103   6.009410   4.769047
    17  H    2.922261   4.336585   5.474345   6.109926   6.483439
    18  H    4.246691   5.727888   6.422459   7.550048   7.764680
    19  H    2.927453   4.337776   5.495739   6.125997   6.506044
    20  H    4.200999   6.101302   5.058908   7.149380   6.727229
    21  H    5.210486   7.132195   6.147221   8.423819   8.017087
    22  H    5.007791   7.183151   4.871977   7.921045   7.025524
    23  H    4.213174   6.119745   5.026089   7.142290   6.701494
    24  H    5.013867   7.192447   4.851907   7.917304   7.011017
    25  H    5.216506   7.141794   6.131331   8.420479   8.004467
    26  H    1.060756   2.431665   4.479868   4.154264   4.851704
                   11         12         13         14         15
    11  C    0.000000
    12  C    1.557201   0.000000
    13  C    2.654337   1.539128   0.000000
    14  C    2.509801   1.546381   2.480016   0.000000
    15  C    2.508503   1.546535   2.479530   2.515893   0.000000
    16  O    1.224118   2.325013   3.712051   2.830575   2.828380
    17  H    2.961952   2.198324   1.111002   3.468891   2.721009
    18  H    3.592448   2.190026   1.112241   2.704925   2.699673
    19  H    2.968660   2.198420   1.110869   2.715742   3.468113
    20  H    2.775284   2.195646   2.760804   1.111677   3.492374
    21  H    3.496354   2.205387   2.691342   1.111963   2.771310
    22  H    2.739991   2.208902   3.469589   1.111441   2.774297
    23  H    2.773351   2.195878   2.760028   3.492412   1.111701
    24  H    2.738880   2.209117   3.469310   2.774423   1.111468
    25  H    3.495512   2.205692   2.691275   2.771399   1.111960
    26  H    2.808624   3.042959   2.411361   4.123033   4.139730
                   16         17         18         19         20
    16  O    0.000000
    17  H    4.072204   0.000000
    18  H    4.511510   1.775567   0.000000
    19  H    4.077571   1.844686   1.773620   0.000000
    20  H    3.208661   3.798848   3.111777   2.527866   0.000000
    21  H    3.848044   3.712805   2.437443   3.003038   1.802836
    22  H    2.549692   4.355162   3.715307   3.769884   1.800878
    23  H    3.205428   2.532728   3.103813   3.800877   4.356686
    24  H    2.547303   3.773876   3.711465   4.354562   3.799089
    25  H    3.846366   3.012414   2.431929   3.709087   3.795992
    26  H    3.999697   2.129608   3.428943   2.118595   3.952837
                   21         22         23         24         25
    21  H    0.000000
    22  H    1.792137   0.000000
    23  H    3.795848   3.799019   0.000000
    24  H    3.128924   2.568371   1.800914   0.000000
    25  H    2.561297   3.128755   1.802848   1.791870   0.000000
    26  H    4.757317   4.923509   3.982967   4.937867   4.772389
                   26
    26  H    0.000000
 Symmetry turned off by external request.
 Stoichiometry    C11H12O3(1-,2)
 Framework group  C1[X(C11H12O3)]
 Deg. of freedom    72
 Full point group                 C1      NOp   1
 Rotational constants (GHZ):           1.1030142           0.5006477           0.3727431
 Leave Link  202 at Wed Dec 20 01:21:58 2023, MaxMem=  4026531840 cpu:               0.2 elap:               0.1
 (Enter /sysapps/ubuntu-applications/gaussian/Gaussian/AVX2/g16/l301.exe)
 Standard basis: 6-311++G(d,p) (5D, 7F)
 Ernie: Thresh=  0.10000D-02 Tol=  0.10000D-05 Strict=F.
   392 basis functions,   612 primitive gaussians,   406 cartesian basis functions
    52 alpha electrons       51 beta electrons
       nuclear repulsion energy       873.5631869825 Hartrees.
 IExCor=  402 DFT=T Ex+Corr=B3LYP ExCW=0 ScaHFX=  0.200000
 ScaDFX=  0.800000  0.720000  1.000000  0.810000 ScalE2=  1.000000  1.000000
 IRadAn=      5 IRanWt=     -1 IRanGd=            0 ICorTp=0 IEmpDi=  4
 NAtoms=   26 NActive=   26 NUniq=   26 SFac= 1.00D+00 NAtFMM=   60 NAOKFM=F Big=F
 Integral buffers will be    131072 words long.
 Raffenetti 2 integral format.
 Two-electron integral symmetry is turned off.
 Leave Link  301 at Wed Dec 20 01:21:58 2023, MaxMem=  4026531840 cpu:               0.4 elap:               0.1
 (Enter /sysapps/ubuntu-applications/gaussian/Gaussian/AVX2/g16/l302.exe)
 NPDir=0 NMtPBC=     1 NCelOv=     1 NCel=       1 NClECP=     1 NCelD=      1
         NCelK=      1 NCelE2=     1 NClLst=     1 CellRange=     0.0.
 One-electron integrals computed using PRISM.
 NBasis=   392 RedAO= T EigKep=  1.38D-06  NBF=   392
 NBsUse=   391 1.00D-06 EigRej=  8.21D-07 NBFU=   391
 Precomputing XC quadrature grid using
 IXCGrd= 4 IRadAn=           5 IRanWt=          -1 IRanGd=           0 AccXCQ= 0.00D+00.
 Generated NRdTot=       0 NPtTot=           0 NUsed=           0 NTot=          32
 NSgBfM=   406   406   406   406   406 MxSgAt=    26 MxSgA2=    26.
 Leave Link  302 at Wed Dec 20 01:21:59 2023, MaxMem=  4026531840 cpu:               3.9 elap:               0.7
 (Enter /sysapps/ubuntu-applications/gaussian/Gaussian/AVX2/g16/l303.exe)
 DipDrv:  MaxL=1.
 Leave Link  303 at Wed Dec 20 01:21:59 2023, MaxMem=  4026531840 cpu:               0.7 elap:               0.2
 (Enter /sysapps/ubuntu-applications/gaussian/Gaussian/AVX2/g16/l401.exe)
 ExpMin= 3.60D-02 ExpMax= 8.59D+03 ExpMxC= 1.30D+03 IAcc=3 IRadAn=         5 AccDes= 0.00D+00
 Harris functional with IExCor=  402 and IRadAn=       5 diagonalized for initial guess.
 HarFok:  IExCor=  402 AccDes= 0.00D+00 IRadAn=         5 IDoV= 1 UseB2=F ITyADJ=14
 ICtDFT=  3500011 ScaDFX=  1.000000  1.000000  1.000000  1.000000
 FoFCou: FMM=F IPFlag=           0 FMFlag=      100000 FMFlg1=           0
         NFxFlg=           0 DoJE=T BraDBF=F KetDBF=T FulRan=T
         wScrn=  0.000000 ICntrl=       500 IOpCl=  0 I1Cent=   200000004 NGrid=           0
         NMat0=    1 NMatS0=      1 NMatT0=    0 NMatD0=    1 NMtDS0=    0 NMtDT0=    0
 Symmetry not used in FoFCou.
 Harris En= -652.467053307833    
 JPrj=0 DoOrth=F DoCkMO=F.
 Initial guess <Sx>= 0.0000 <Sy>= 0.0000 <Sz>= 0.5000 <S**2>= 0.7500 S= 0.5000
 Leave Link  401 at Wed Dec 20 01:22:01 2023, MaxMem=  4026531840 cpu:              11.7 elap:               1.9
 (Enter /sysapps/ubuntu-applications/gaussian/Gaussian/AVX2/g16/l502.exe)
 Two-electron integral symmetry not used.
 UHF open shell SCF:
 Using DIIS extrapolation, IDIIS=  1040.
 NGot=  4026531840 LenX=  4026195912 LenY=  4026030635
 Requested convergence on RMS density matrix=1.00D-08 within 128 cycles.
 Requested convergence on MAX density matrix=1.00D-06.
 Requested convergence on             energy=1.00D-06.
 No special actions if energy rises.
 Fock matrices will be formed incrementally for  20 cycles.

 Cycle   1  Pass 1  IDiag  1:
 FoFJK:  IHMeth= 1 ICntrl=       0 DoSepK=F KAlg= 0 I1Cent=           0 FoldK=F
 IRaf= 900000000 NMat=       1 IRICut=       1 DoRegI=T DoRafI=F ISym2E= 0 IDoP0=0 IntGTp=1.
 FoFCou: FMM=F IPFlag=           0 FMFlag=      100000 FMFlg1=           0
         NFxFlg=           0 DoJE=F BraDBF=F KetDBF=F FulRan=T
         wScrn=  0.000000 ICntrl=         0 IOpCl=  1 I1Cent=           0 NGrid=           0
         NMat0=    1 NMatS0=      1 NMatT0=    0 NMatD0=    1 NMtDS0=    0 NMtDT0=    0
 Symmetry not used in FoFCou.
 E= -651.719158014790    
 DIIS: error= 3.65D-02 at cycle   1 NSaved=   1.
 NSaved= 1 IEnMin= 1 EnMin= -651.719158014790     IErMin= 1 ErrMin= 3.65D-02
 ErrMax= 3.65D-02  0.00D+00 EMaxC= 1.00D-01 BMatC= 2.41D+00 BMatP= 2.41D+00
 IDIUse=3 WtCom= 6.35D-01 WtEn= 3.65D-01
 Coeff-Com:  0.100D+01
 Coeff-En:   0.100D+01
 Coeff:      0.100D+01
 Gap=     0.046 Goal=   None    Shift=    0.000
 Gap=     0.091 Goal=   None    Shift=    0.000
 GapD=    0.046 DampG=0.250 DampE=0.500 DampFc=0.2500 IDamp=-1.
 Damping current iteration by 2.50D-01
 RMSDP=3.03D+00 MaxDP=5.33D+02              OVMax= 9.93D-01

 Cycle   2  Pass 1  IDiag  1:
 RMSU=  7.29D-01    CP:  3.00D+00
 E= -651.777755638402     Delta-E=       -0.058597623612 Rises=F Damp=T
 DIIS: error= 2.16D-02 at cycle   2 NSaved=   2.
 NSaved= 2 IEnMin= 2 EnMin= -651.777755638402     IErMin= 2 ErrMin= 2.16D-02
 ErrMax= 2.16D-02  0.00D+00 EMaxC= 1.00D-01 BMatC= 4.25D-01 BMatP= 2.41D+00
 IDIUse=3 WtCom= 7.84D-01 WtEn= 2.16D-01
 Coeff-Com: -0.258D+00 0.126D+01
 Coeff-En:   0.389D+00 0.611D+00
 Coeff:     -0.118D+00 0.112D+01
 Gap=     0.008 Goal=   None    Shift=    0.000
 Gap=     0.110 Goal=   None    Shift=    0.000
 RMSDP=7.55D-01 MaxDP=1.33D+02 DE=-5.86D-02 OVMax= 8.58D-01

 Cycle   3  Pass 1  IDiag  1:
 RMSU=  1.33D-02    CP:  1.06D+00  6.36D-04
 E= -651.886833646312     Delta-E=       -0.109078007911 Rises=F Damp=F
 DIIS: error= 6.09D-02 at cycle   3 NSaved=   3.
 NSaved= 3 IEnMin= 3 EnMin= -651.886833646312     IErMin= 2 ErrMin= 2.16D-02
 ErrMax= 6.09D-02  0.00D+00 EMaxC= 1.00D-01 BMatC= 1.37D+00 BMatP= 4.25D-01
 IDIUse=2 WtCom= 0.00D+00 WtEn= 1.00D+00
 EnCoef did     4 forward-backward iterations
 Coeff-En:   0.637D-01 0.347D+00 0.589D+00
 Coeff:      0.637D-01 0.347D+00 0.589D+00
 Gap=     0.139 Goal=   None    Shift=    0.000
 Gap=     0.178 Goal=   None    Shift=    0.000
 RMSDP=1.21D+00 MaxDP=2.91D+02 DE=-1.09D-01 OVMax= 9.97D-01

 Cycle   4  Pass 1  IDiag  1:
 RMSU=  8.74D-01    CP:  3.00D+00  1.10D+00 -2.75D+00
 E= -650.217693379828     Delta-E=        1.669140266484 Rises=F Damp=F
 DIIS: error= 1.07D-01 at cycle   4 NSaved=   4.
 NSaved= 4 IEnMin= 3 EnMin= -651.886833646312     IErMin= 2 ErrMin= 2.16D-02
 ErrMax= 1.07D-01  0.00D+00 EMaxC= 1.00D-01 BMatC= 5.91D+00 BMatP= 4.25D-01
 IDIUse=2 WtCom= 0.00D+00 WtEn= 1.00D+00
 EnCoef did     1 forward-backward iterations
 Coeff-En:   0.491D-01 0.000D+00 0.735D+00 0.216D+00
 Coeff:      0.491D-01 0.000D+00 0.735D+00 0.216D+00
 Gap=     0.010 Goal=   None    Shift=    0.000
 Gap=     0.052 Goal=   None    Shift=    0.000
 RMSDP=1.21D+00 MaxDP=2.92D+02 DE= 1.67D+00 OVMax= 9.70D-01

 Cycle   5  Pass 1  IDiag  1:
 RMSU=  1.23D-02    CP:  9.59D-01 -2.31D-03  5.45D-01  3.10D-04
 E= -652.158902410946     Delta-E=       -1.941209031118 Rises=F Damp=F
 DIIS: error= 2.41D-02 at cycle   5 NSaved=   5.
 NSaved= 5 IEnMin= 5 EnMin= -652.158902410946     IErMin= 2 ErrMin= 2.16D-02
 ErrMax= 2.41D-02  0.00D+00 EMaxC= 1.00D-01 BMatC= 3.18D-01 BMatP= 4.25D-01
 IDIUse=3 WtCom= 7.59D-01 WtEn= 2.41D-01
 Coeff-Com: -0.117D+00 0.319D+00 0.320D+00 0.154D-01 0.463D+00
 Coeff-En:   0.000D+00 0.000D+00 0.204D+00 0.000D+00 0.796D+00
 Coeff:     -0.886D-01 0.242D+00 0.292D+00 0.117D-01 0.543D+00
 Gap=     0.140 Goal=   None    Shift=    0.000
 Gap=     0.104 Goal=   None    Shift=    0.000
 RMSDP=7.03D-03 MaxDP=9.91D-01 DE=-1.94D+00 OVMax= 1.17D-01

 Cycle   6  Pass 1  IDiag  1:
 RMSU=  3.75D-03    CP:  9.25D-01 -1.30D-03  5.19D-01  3.21D-04  5.43D-01
 E= -652.214423789932     Delta-E=       -0.055521378986 Rises=F Damp=F
 DIIS: error= 1.18D-02 at cycle   6 NSaved=   6.
 NSaved= 6 IEnMin= 6 EnMin= -652.214423789932     IErMin= 6 ErrMin= 1.18D-02
 ErrMax= 1.18D-02  0.00D+00 EMaxC= 1.00D-01 BMatC= 9.24D-02 BMatP= 3.18D-01
 IDIUse=3 WtCom= 8.82D-01 WtEn= 1.18D-01
 Coeff-Com: -0.982D-01 0.174D+00 0.143D+00-0.700D-02 0.367D+00 0.422D+00
 Coeff-En:   0.000D+00 0.000D+00 0.000D+00 0.000D+00 0.217D+00 0.783D+00
 Coeff:     -0.866D-01 0.153D+00 0.126D+00-0.617D-02 0.349D+00 0.465D+00
 Gap=     0.107 Goal=   None    Shift=    0.000
 Gap=     0.103 Goal=   None    Shift=    0.000
 RMSDP=2.54D-03 MaxDP=2.83D-01 DE=-5.55D-02 OVMax= 4.37D-02

 Cycle   7  Pass 1  IDiag  1:
 RMSU=  1.74D-03    CP:  9.34D-01 -1.23D-03  5.78D-01  3.84D-04  6.72D-01
                    CP:  9.36D-01
 E= -652.232641313023     Delta-E=       -0.018217523092 Rises=F Damp=F
 DIIS: error= 3.19D-03 at cycle   7 NSaved=   7.
 NSaved= 7 IEnMin= 7 EnMin= -652.232641313023     IErMin= 7 ErrMin= 3.19D-03
 ErrMax= 3.19D-03  0.00D+00 EMaxC= 1.00D-01 BMatC= 6.45D-03 BMatP= 9.24D-02
 IDIUse=3 WtCom= 9.68D-01 WtEn= 3.19D-02
 Coeff-Com: -0.400D-01 0.617D-01 0.136D-01-0.498D-02 0.110D+00 0.266D+00
 Coeff-Com:  0.594D+00
 Coeff-En:   0.000D+00 0.000D+00 0.000D+00 0.000D+00 0.000D+00 0.000D+00
 Coeff-En:   0.100D+01
 Coeff:     -0.387D-01 0.597D-01 0.131D-01-0.482D-02 0.107D+00 0.257D+00
 Coeff:      0.607D+00
 Gap=     0.105 Goal=   None    Shift=    0.000
 Gap=     0.106 Goal=   None    Shift=    0.000
 RMSDP=1.08D-03 MaxDP=1.02D-01 DE=-1.82D-02 OVMax= 1.58D-02

 Cycle   8  Pass 1  IDiag  1:
 RMSU=  8.02D-04    CP:  9.25D-01 -1.04D-03  5.61D-01  4.06D-04  6.98D-01
                    CP:  1.02D+00  9.26D-01
 E= -652.233960384872     Delta-E=       -0.001319071849 Rises=F Damp=F
 DIIS: error= 1.32D-03 at cycle   8 NSaved=   8.
 NSaved= 8 IEnMin= 8 EnMin= -652.233960384872     IErMin= 8 ErrMin= 1.32D-03
 ErrMax= 1.32D-03  0.00D+00 EMaxC= 1.00D-01 BMatC= 1.15D-03 BMatP= 6.45D-03
 IDIUse=3 WtCom= 9.87D-01 WtEn= 1.32D-02
 Coeff-Com: -0.137D-01 0.204D-01-0.127D-01 0.972D-04-0.517D-03 0.570D-01
 Coeff-Com:  0.339D+00 0.610D+00
 Coeff-En:   0.000D+00 0.000D+00 0.000D+00 0.000D+00 0.000D+00 0.000D+00
 Coeff-En:   0.395D-01 0.960D+00
 Coeff:     -0.135D-01 0.202D-01-0.125D-01 0.959D-04-0.510D-03 0.562D-01
 Coeff:      0.335D+00 0.615D+00
 Gap=     0.105 Goal=   None    Shift=    0.000
 Gap=     0.106 Goal=   None    Shift=    0.000
 RMSDP=4.95D-04 MaxDP=9.39D-02 DE=-1.32D-03 OVMax= 7.64D-03

 Cycle   9  Pass 1  IDiag  1:
 RMSU=  2.66D-04    CP:  9.32D-01 -9.38D-04  5.62D-01  4.36D-04  6.98D-01
                    CP:  1.03D+00  9.96D-01  8.83D-01
 E= -652.234228952753     Delta-E=       -0.000268567880 Rises=F Damp=F
 DIIS: error= 7.44D-04 at cycle   9 NSaved=   9.
 NSaved= 9 IEnMin= 9 EnMin= -652.234228952753     IErMin= 9 ErrMin= 7.44D-04
 ErrMax= 7.44D-04  0.00D+00 EMaxC= 1.00D-01 BMatC= 1.67D-04 BMatP= 1.15D-03
 IDIUse=3 WtCom= 9.93D-01 WtEn= 7.44D-03
 Coeff-Com: -0.703D-02 0.118D-01-0.830D-02-0.626D-04-0.813D-02 0.484D-02
 Coeff-Com:  0.111D+00 0.334D+00 0.562D+00
 Coeff-En:   0.000D+00 0.000D+00 0.000D+00 0.000D+00 0.000D+00 0.000D+00
 Coeff-En:   0.000D+00 0.000D+00 0.100D+01
 Coeff:     -0.698D-02 0.118D-01-0.824D-02-0.621D-04-0.807D-02 0.481D-02
 Coeff:      0.110D+00 0.331D+00 0.565D+00
 Gap=     0.106 Goal=   None    Shift=    0.000
 Gap=     0.106 Goal=   None    Shift=    0.000
 RMSDP=1.59D-04 MaxDP=2.12D-02 DE=-2.69D-04 OVMax= 4.31D-03

 Cycle  10  Pass 1  IDiag  1:
 RMSU=  1.04D-04    CP:  9.33D-01 -9.06D-04  5.64D-01  4.43D-04  7.04D-01
                    CP:  1.03D+00  1.04D+00  9.12D-01  9.05D-01
 E= -652.234272772847     Delta-E=       -0.000043820095 Rises=F Damp=F
 DIIS: error= 4.33D-04 at cycle  10 NSaved=  10.
 NSaved=10 IEnMin=10 EnMin= -652.234272772847     IErMin=10 ErrMin= 4.33D-04
 ErrMax= 4.33D-04  0.00D+00 EMaxC= 1.00D-01 BMatC= 5.00D-05 BMatP= 1.67D-04
 IDIUse=3 WtCom= 9.96D-01 WtEn= 4.33D-03
 Coeff-Com:  0.245D-03 0.587D-03 0.154D-02-0.147D-03-0.317D-02-0.303D-01
 Coeff-Com: -0.110D+00-0.596D-01 0.390D+00 0.811D+00
 Coeff-En:   0.000D+00 0.000D+00 0.000D+00 0.000D+00 0.000D+00 0.000D+00
 Coeff-En:   0.000D+00 0.000D+00 0.000D+00 0.100D+01
 Coeff:      0.244D-03 0.584D-03 0.154D-02-0.146D-03-0.316D-02-0.302D-01
 Coeff:     -0.110D+00-0.594D-01 0.388D+00 0.812D+00
 Gap=     0.105 Goal=   None    Shift=    0.000
 Gap=     0.107 Goal=   None    Shift=    0.000
 RMSDP=9.87D-05 MaxDP=7.39D-03 DE=-4.38D-05 OVMax= 6.36D-03

 Cycle  11  Pass 1  IDiag  1:
 RMSU=  5.11D-05    CP:  9.33D-01 -8.82D-04  5.63D-01  4.50D-04  7.08D-01
                    CP:  1.04D+00  1.05D+00  9.66D-01  1.05D+00  8.09D-01
 E= -652.234298347492     Delta-E=       -0.000025574645 Rises=F Damp=F
 DIIS: error= 1.43D-04 at cycle  11 NSaved=  11.
 NSaved=11 IEnMin=11 EnMin= -652.234298347492     IErMin=11 ErrMin= 1.43D-04
 ErrMax= 1.43D-04  0.00D+00 EMaxC= 1.00D-01 BMatC= 1.09D-05 BMatP= 5.00D-05
 IDIUse=3 WtCom= 9.99D-01 WtEn= 1.43D-03
 Coeff-Com:  0.102D-02-0.113D-02 0.261D-02-0.184D-03-0.190D-02-0.177D-01
 Coeff-Com: -0.617D-01-0.510D-01 0.547D-01 0.347D+00 0.729D+00
 Coeff-En:   0.000D+00 0.000D+00 0.000D+00 0.000D+00 0.000D+00 0.000D+00
 Coeff-En:   0.000D+00 0.000D+00 0.000D+00 0.000D+00 0.100D+01
 Coeff:      0.102D-02-0.113D-02 0.260D-02-0.184D-03-0.190D-02-0.177D-01
 Coeff:     -0.616D-01-0.509D-01 0.546D-01 0.346D+00 0.729D+00
 Gap=     0.105 Goal=   None    Shift=    0.000
 Gap=     0.107 Goal=   None    Shift=    0.000
 RMSDP=5.15D-05 MaxDP=6.66D-03 DE=-2.56D-05 OVMax= 1.76D-03

 Cycle  12  Pass 1  IDiag  1:
 RMSU=  2.17D-05    CP:  9.34D-01 -8.73D-04  5.64D-01  4.53D-04  7.07D-01
                    CP:  1.04D+00  1.07D+00  9.83D-01  1.06D+00  9.90D-01
                    CP:  1.07D+00
 E= -652.234302312249     Delta-E=       -0.000003964757 Rises=F Damp=F
 DIIS: error= 6.69D-05 at cycle  12 NSaved=  12.
 NSaved=12 IEnMin=12 EnMin= -652.234302312249     IErMin=12 ErrMin= 6.69D-05
 ErrMax= 6.69D-05  0.00D+00 EMaxC= 1.00D-01 BMatC= 4.29D-06 BMatP= 1.09D-05
 IDIUse=1 WtCom= 1.00D+00 WtEn= 0.00D+00
 Coeff-Com:  0.983D-03-0.151D-02 0.166D-02-0.671D-04-0.103D-02-0.410D-02
 Coeff-Com: -0.599D-02-0.108D-01-0.867D-01-0.243D-01 0.438D+00 0.694D+00
 Coeff:      0.983D-03-0.151D-02 0.166D-02-0.671D-04-0.103D-02-0.410D-02
 Coeff:     -0.599D-02-0.108D-01-0.867D-01-0.243D-01 0.438D+00 0.694D+00
 Gap=     0.105 Goal=   None    Shift=    0.000
 Gap=     0.107 Goal=   None    Shift=    0.000
 RMSDP=2.80D-05 MaxDP=3.23D-03 DE=-3.96D-06 OVMax= 1.09D-03

 Cycle  13  Pass 1  IDiag  1:
 RMSU=  1.57D-05    CP:  9.33D-01 -8.73D-04  5.65D-01  4.54D-04  7.06D-01
                    CP:  1.04D+00  1.08D+00  9.90D-01  1.05D+00  1.05D+00
                    CP:  1.21D+00  1.14D+00
 E= -652.234303935423     Delta-E=       -0.000001623174 Rises=F Damp=F
 DIIS: error= 2.96D-05 at cycle  13 NSaved=  13.
 NSaved=13 IEnMin=13 EnMin= -652.234303935423     IErMin=13 ErrMin= 2.96D-05
 ErrMax= 2.96D-05  0.00D+00 EMaxC= 1.00D-01 BMatC= 7.79D-07 BMatP= 4.29D-06
 IDIUse=1 WtCom= 1.00D+00 WtEn= 0.00D+00
 Coeff-Com:  0.445D-03-0.678D-03-0.246D-04 0.203D-04-0.142D-03 0.288D-02
 Coeff-Com:  0.146D-01 0.509D-02-0.272D-01-0.852D-01-0.754D-01 0.222D+00
 Coeff-Com:  0.943D+00
 Coeff:      0.445D-03-0.678D-03-0.246D-04 0.203D-04-0.142D-03 0.288D-02
 Coeff:      0.146D-01 0.509D-02-0.272D-01-0.852D-01-0.754D-01 0.222D+00
 Coeff:      0.943D+00
 Gap=     0.105 Goal=   None    Shift=    0.000
 Gap=     0.107 Goal=   None    Shift=    0.000
 RMSDP=1.64D-05 MaxDP=1.90D-03 DE=-1.62D-06 OVMax= 6.95D-04

 Cycle  14  Pass 1  IDiag  1:
 RMSU=  5.84D-06    CP:  9.33D-01 -8.76D-04  5.65D-01  4.55D-04  7.06D-01
                    CP:  1.04D+00  1.08D+00  9.82D-01  1.03D+00  1.05D+00
                    CP:  1.30D+00  1.40D+00  1.06D+00
 E= -652.234304224116     Delta-E=       -0.000000288693 Rises=F Damp=F
 DIIS: error= 1.69D-05 at cycle  14 NSaved=  14.
 NSaved=14 IEnMin=14 EnMin= -652.234304224116     IErMin=14 ErrMin= 1.69D-05
 ErrMax= 1.69D-05  0.00D+00 EMaxC= 1.00D-01 BMatC= 1.57D-07 BMatP= 7.79D-07
 IDIUse=1 WtCom= 1.00D+00 WtEn= 0.00D+00
 Coeff-Com:  0.163D-03-0.188D-03-0.165D-03 0.292D-05-0.159D-04 0.229D-02
 Coeff-Com:  0.101D-01 0.430D-02-0.782D-02-0.470D-01-0.905D-01 0.613D-01
 Coeff-Com:  0.520D+00 0.547D+00
 Coeff:      0.163D-03-0.188D-03-0.165D-03 0.292D-05-0.159D-04 0.229D-02
 Coeff:      0.101D-01 0.430D-02-0.782D-02-0.470D-01-0.905D-01 0.613D-01
 Coeff:      0.520D+00 0.547D+00
 Gap=     0.105 Goal=   None    Shift=    0.000
 Gap=     0.107 Goal=   None    Shift=    0.000
 RMSDP=4.96D-06 MaxDP=3.83D-04 DE=-2.89D-07 OVMax= 1.73D-04

 Cycle  15  Pass 1  IDiag  1:
 RMSU=  2.11D-06    CP:  9.33D-01 -8.77D-04  5.65D-01  4.55D-04  7.05D-01
                    CP:  1.04D+00  1.08D+00  9.80D-01  1.03D+00  1.05D+00
                    CP:  1.30D+00  1.42D+00  1.13D+00  8.51D-01
 E= -652.234304278577     Delta-E=       -0.000000054461 Rises=F Damp=F
 DIIS: error= 8.43D-06 at cycle  15 NSaved=  15.
 NSaved=15 IEnMin=15 EnMin= -652.234304278577     IErMin=15 ErrMin= 8.43D-06
 ErrMax= 8.43D-06  0.00D+00 EMaxC= 1.00D-01 BMatC= 2.25D-08 BMatP= 1.57D-07
 IDIUse=1 WtCom= 1.00D+00 WtEn= 0.00D+00
 Coeff-Com: -0.210D-04 0.435D-04-0.683D-04 0.796D-06 0.372D-04 0.211D-03
 Coeff-Com:  0.447D-03 0.478D-03 0.570D-02 0.651D-02-0.252D-01-0.386D-01
 Coeff-Com: -0.626D-01 0.262D+00 0.851D+00
 Coeff:     -0.210D-04 0.435D-04-0.683D-04 0.796D-06 0.372D-04 0.211D-03
 Coeff:      0.447D-03 0.478D-03 0.570D-02 0.651D-02-0.252D-01-0.386D-01
 Coeff:     -0.626D-01 0.262D+00 0.851D+00
 Gap=     0.105 Goal=   None    Shift=    0.000
 Gap=     0.107 Goal=   None    Shift=    0.000
 RMSDP=3.19D-06 MaxDP=5.47D-04 DE=-5.45D-08 OVMax= 1.07D-04

 Cycle  16  Pass 1  IDiag  1:
 RMSU=  1.10D-06    CP:  9.33D-01 -8.77D-04  5.65D-01  4.55D-04  7.05D-01
                    CP:  1.04D+00  1.08D+00  9.79D-01  1.03D+00  1.05D+00
                    CP:  1.30D+00  1.45D+00  1.16D+00  1.01D+00  9.52D-01
 E= -652.234304290316     Delta-E=       -0.000000011739 Rises=F Damp=F
 DIIS: error= 2.92D-06 at cycle  16 NSaved=  16.
 NSaved=16 IEnMin=16 EnMin= -652.234304290316     IErMin=16 ErrMin= 2.92D-06
 ErrMax= 2.92D-06  0.00D+00 EMaxC= 1.00D-01 BMatC= 5.86D-09 BMatP= 2.25D-08
 IDIUse=1 WtCom= 1.00D+00 WtEn= 0.00D+00
 Coeff-Com: -0.813D-04 0.128D-03-0.762D-05-0.423D-05 0.187D-05-0.396D-03
 Coeff-Com: -0.185D-02-0.313D-03 0.449D-02 0.138D-01 0.429D-02-0.308D-01
 Coeff-Com: -0.156D+00 0.182D-01 0.447D+00 0.702D+00
 Coeff:     -0.813D-04 0.128D-03-0.762D-05-0.423D-05 0.187D-05-0.396D-03
 Coeff:     -0.185D-02-0.313D-03 0.449D-02 0.138D-01 0.429D-02-0.308D-01
 Coeff:     -0.156D+00 0.182D-01 0.447D+00 0.702D+00
 Gap=     0.105 Goal=   None    Shift=    0.000
 Gap=     0.107 Goal=   None    Shift=    0.000
 RMSDP=1.57D-06 MaxDP=2.28D-04 DE=-1.17D-08 OVMax= 5.40D-05

 Cycle  17  Pass 1  IDiag  1:
 RMSU=  4.39D-07    CP:  9.33D-01 -8.78D-04  5.65D-01  4.55D-04  7.05D-01
                    CP:  1.04D+00  1.08D+00  9.78D-01  1.03D+00  1.05D+00
                    CP:  1.30D+00  1.47D+00  1.17D+00  1.11D+00  1.11D+00
                    CP:  9.87D-01
 E= -652.234304292277     Delta-E=       -0.000000001961 Rises=F Damp=F
 DIIS: error= 3.48D-06 at cycle  17 NSaved=  17.
 NSaved=17 IEnMin=17 EnMin= -652.234304292277     IErMin=16 ErrMin= 2.92D-06
 ErrMax= 3.48D-06  0.00D+00 EMaxC= 1.00D-01 BMatC= 3.05D-09 BMatP= 5.86D-09
 IDIUse=1 WtCom= 1.00D+00 WtEn= 0.00D+00
 Coeff-Com: -0.440D-04 0.595D-04 0.165D-04-0.164D-05-0.250D-05-0.302D-03
 Coeff-Com: -0.124D-02-0.415D-03 0.605D-03 0.538D-02 0.734D-02-0.207D-02
 Coeff-Com: -0.545D-01-0.456D-01 0.975D-02 0.326D+00 0.755D+00
 Coeff:     -0.440D-04 0.595D-04 0.165D-04-0.164D-05-0.250D-05-0.302D-03
 Coeff:     -0.124D-02-0.415D-03 0.605D-03 0.538D-02 0.734D-02-0.207D-02
 Coeff:     -0.545D-01-0.456D-01 0.975D-02 0.326D+00 0.755D+00
 Gap=     0.105 Goal=   None    Shift=    0.000
 Gap=     0.107 Goal=   None    Shift=    0.000
 RMSDP=6.82D-07 MaxDP=6.25D-05 DE=-1.96D-09 OVMax= 2.70D-05

 Cycle  18  Pass 1  IDiag  1:
 RMSU=  2.51D-07    CP:  9.33D-01 -8.78D-04  5.65D-01  4.55D-04  7.05D-01
                    CP:  1.04D+00  1.08D+00  9.79D-01  1.03D+00  1.05D+00
                    CP:  1.30D+00  1.47D+00  1.16D+00  1.13D+00  1.11D+00
                    CP:  1.04D+00  1.04D+00
 E= -652.234304293427     Delta-E=       -0.000000001150 Rises=F Damp=F
 DIIS: error= 7.32D-07 at cycle  18 NSaved=  18.
 NSaved=18 IEnMin=18 EnMin= -652.234304293427     IErMin=18 ErrMin= 7.32D-07
 ErrMax= 7.32D-07  0.00D+00 EMaxC= 1.00D-01 BMatC= 4.77D-10 BMatP= 3.05D-09
 IDIUse=1 WtCom= 1.00D+00 WtEn= 0.00D+00
 Coeff-Com: -0.126D-04 0.155D-04 0.915D-05-0.862D-06-0.539D-05-0.872D-04
 Coeff-Com: -0.301D-03-0.887D-04-0.865D-03-0.323D-03 0.327D-02 0.547D-02
 Coeff-Com:  0.145D-02-0.269D-01-0.849D-01 0.153D-01 0.291D+00 0.797D+00
 Coeff:     -0.126D-04 0.155D-04 0.915D-05-0.862D-06-0.539D-05-0.872D-04
 Coeff:     -0.301D-03-0.887D-04-0.865D-03-0.323D-03 0.327D-02 0.547D-02
 Coeff:      0.145D-02-0.269D-01-0.849D-01 0.153D-01 0.291D+00 0.797D+00
 Gap=     0.105 Goal=   None    Shift=    0.000
 Gap=     0.107 Goal=   None    Shift=    0.000
 RMSDP=4.95D-07 MaxDP=4.84D-05 DE=-1.15D-09 OVMax= 1.52D-05

 Cycle  19  Pass 1  IDiag  1:
 RMSU=  1.05D-07    CP:  9.33D-01 -8.77D-04  5.65D-01  4.55D-04  7.05D-01
                    CP:  1.04D+00  1.08D+00  9.79D-01  1.03D+00  1.06D+00
                    CP:  1.30D+00  1.47D+00  1.16D+00  1.14D+00  1.10D+00
                    CP:  1.10D+00  1.30D+00  1.02D+00
 E= -652.234304293668     Delta-E=       -0.000000000241 Rises=F Damp=F
 DIIS: error= 5.04D-07 at cycle  19 NSaved=  19.
 NSaved=19 IEnMin=19 EnMin= -652.234304293668     IErMin=19 ErrMin= 5.04D-07
 ErrMax= 5.04D-07  0.00D+00 EMaxC= 1.00D-01 BMatC= 8.36D-11 BMatP= 4.77D-10
 IDIUse=1 WtCom= 1.00D+00 WtEn= 0.00D+00
 Coeff-Com:  0.576D-05-0.711D-05 0.445D-06 0.181D-06-0.117D-05 0.334D-04
 Coeff-Com:  0.154D-03 0.611D-04-0.394D-03-0.143D-02-0.648D-03 0.253D-02
 Coeff-Com:  0.166D-01 0.303D-02-0.405D-01-0.847D-01-0.117D+00 0.450D+00
 Coeff-Com:  0.772D+00
 Coeff:      0.576D-05-0.711D-05 0.445D-06 0.181D-06-0.117D-05 0.334D-04
 Coeff:      0.154D-03 0.611D-04-0.394D-03-0.143D-02-0.648D-03 0.253D-02
 Coeff:      0.166D-01 0.303D-02-0.405D-01-0.847D-01-0.117D+00 0.450D+00
 Coeff:      0.772D+00
 Gap=     0.105 Goal=   None    Shift=    0.000
 Gap=     0.107 Goal=   None    Shift=    0.000
 RMSDP=2.18D-07 MaxDP=2.83D-05 DE=-2.41D-10 OVMax= 6.58D-06

 Cycle  20  Pass 1  IDiag  1:
 RMSU=  4.64D-08    CP:  9.33D-01 -8.77D-04  5.65D-01  4.55D-04  7.05D-01
                    CP:  1.04D+00  1.08D+00  9.79D-01  1.03D+00  1.06D+00
                    CP:  1.30D+00  1.47D+00  1.15D+00  1.14D+00  1.10D+00
                    CP:  1.12D+00  1.33D+00  1.23D+00  1.15D+00
 E= -652.234304293708     Delta-E=       -0.000000000040 Rises=F Damp=F
 DIIS: error= 2.27D-07 at cycle  20 NSaved=  20.
 NSaved=20 IEnMin=20 EnMin= -652.234304293708     IErMin=20 ErrMin= 2.27D-07
 ErrMax= 2.27D-07  0.00D+00 EMaxC= 1.00D-01 BMatC= 1.75D-11 BMatP= 8.36D-11
 IDIUse=1 WtCom= 1.00D+00 WtEn= 0.00D+00
 Coeff-Com:  0.448D-05-0.570D-05-0.120D-05 0.174D-06 0.894D-06 0.263D-04
 Coeff-Com:  0.106D-03 0.498D-04 0.301D-04-0.405D-03-0.671D-03-0.488D-03
 Coeff-Com:  0.396D-02 0.436D-02 0.161D-02-0.213D-01-0.796D-01 0.206D-01
 Coeff-Com:  0.164D+00 0.908D+00
 Coeff:      0.448D-05-0.570D-05-0.120D-05 0.174D-06 0.894D-06 0.263D-04
 Coeff:      0.106D-03 0.498D-04 0.301D-04-0.405D-03-0.671D-03-0.488D-03
 Coeff:      0.396D-02 0.436D-02 0.161D-02-0.213D-01-0.796D-01 0.206D-01
 Coeff:      0.164D+00 0.908D+00
 Gap=     0.105 Goal=   None    Shift=    0.000
 Gap=     0.107 Goal=   None    Shift=    0.000
 RMSDP=5.84D-08 MaxDP=6.74D-06 DE=-4.02D-11 OVMax= 3.22D-06

 Cycle  21  Pass 1  IDiag  1:
 Restarting incremental Fock formation.
 E= -652.234304293719     Delta-E=       -0.000000000011 Rises=F Damp=F
 DIIS: error= 1.19D-07 at cycle  21 NSaved=  20.
 NSaved=20 IEnMin=20 EnMin= -652.234304293719     IErMin=20 ErrMin= 1.19D-07
 ErrMax= 1.19D-07  0.00D+00 EMaxC= 1.00D-01 BMatC= 5.90D-12 BMatP= 1.75D-11
 IDIUse=1 WtCom= 1.00D+00 WtEn= 0.00D+00
 Coeff-Com:  0.635D-06-0.108D-05-0.458D-06 0.431D-06 0.294D-05 0.958D-05
 Coeff-Com:  0.102D-04 0.934D-04 0.175D-03-0.285D-04-0.728D-03-0.232D-02
 Coeff-Com:  0.152D-03 0.858D-02 0.134D-01 0.801D-02-0.790D-01-0.185D+00
 Coeff-Com:  0.229D+00 0.101D+01
 Coeff:      0.635D-06-0.108D-05-0.458D-06 0.431D-06 0.294D-05 0.958D-05
 Coeff:      0.102D-04 0.934D-04 0.175D-03-0.285D-04-0.728D-03-0.232D-02
 Coeff:      0.152D-03 0.858D-02 0.134D-01 0.801D-02-0.790D-01-0.185D+00
 Coeff:      0.229D+00 0.101D+01
 Gap=     0.105 Goal=   None    Shift=    0.000
 Gap=     0.107 Goal=   None    Shift=    0.000
 RMSDP=5.41D-08 MaxDP=8.44D-06 DE=-1.09D-11 OVMax= 1.57D-06

 Cycle  22  Pass 1  IDiag  1:
 RMSU=  4.79D-08    CP:  1.00D+00
 E= -652.234304293716     Delta-E=        0.000000000003 Rises=F Damp=F
 DIIS: error= 5.82D-08 at cycle  22 NSaved=  20.
 NSaved=20 IEnMin=19 EnMin= -652.234304293719     IErMin=20 ErrMin= 5.82D-08
 ErrMax= 5.82D-08  0.00D+00 EMaxC= 1.00D-01 BMatC= 9.67D-13 BMatP= 5.90D-12
 IDIUse=1 WtCom= 1.00D+00 WtEn= 0.00D+00
 Coeff-Com: -0.381D-06-0.540D-07-0.124D-06-0.177D-05-0.791D-05-0.725D-05
 Coeff-Com:  0.211D-04 0.108D-03 0.753D-04-0.142D-03-0.120D-02-0.714D-03
 Coeff-Com:  0.254D-02 0.837D-02 0.198D-01-0.377D-01-0.137D+00-0.841D-01
 Coeff-Com:  0.548D+00 0.682D+00
 Coeff:     -0.381D-06-0.540D-07-0.124D-06-0.177D-05-0.791D-05-0.725D-05
 Coeff:      0.211D-04 0.108D-03 0.753D-04-0.142D-03-0.120D-02-0.714D-03
 Coeff:      0.254D-02 0.837D-02 0.198D-01-0.377D-01-0.137D+00-0.841D-01
 Coeff:      0.548D+00 0.682D+00
 Gap=     0.105 Goal=   None    Shift=    0.000
 Gap=     0.107 Goal=   None    Shift=    0.000
 RMSDP=1.30D-08 MaxDP=1.49D-06 DE= 2.50D-12 OVMax= 9.38D-07

 Cycle  23  Pass 1  IDiag  1:
 RMSU=  1.14D-08    CP:  1.00D+00  1.07D+00
 E= -652.234304293713     Delta-E=        0.000000000003 Rises=F Damp=F
 DIIS: error= 1.90D-08 at cycle  23 NSaved=  20.
 NSaved=20 IEnMin=18 EnMin= -652.234304293719     IErMin=20 ErrMin= 1.90D-08
 ErrMax= 1.90D-08  0.00D+00 EMaxC= 1.00D-01 BMatC= 1.52D-13 BMatP= 9.67D-13
 IDIUse=1 WtCom= 1.00D+00 WtEn= 0.00D+00
 Coeff-Com:  0.144D-07-0.258D-06-0.957D-08 0.881D-07-0.362D-05-0.136D-04
 Coeff-Com: -0.200D-04 0.124D-04 0.138D-03 0.295D-03-0.124D-03-0.110D-02
 Coeff-Com: -0.932D-03 0.422D-02 0.298D-02-0.118D-01-0.787D-01-0.539D-02
 Coeff-Com:  0.291D+00 0.799D+00
 Coeff:      0.144D-07-0.258D-06-0.957D-08 0.881D-07-0.362D-05-0.136D-04
 Coeff:     -0.200D-04 0.124D-04 0.138D-03 0.295D-03-0.124D-03-0.110D-02
 Coeff:     -0.932D-03 0.422D-02 0.298D-02-0.118D-01-0.787D-01-0.539D-02
 Coeff:      0.291D+00 0.799D+00
 Gap=     0.105 Goal=   None    Shift=    0.000
 Gap=     0.107 Goal=   None    Shift=    0.000
 RMSDP=6.77D-09 MaxDP=7.78D-07 DE= 3.18D-12 OVMax= 2.47D-07

 SCF Done:  E(UB3LYP) =  -652.234304294     A.U. after   23 cycles
            NFock= 23  Conv=0.68D-08     -V/T= 2.0030
 <Sx>= 0.0000 <Sy>= 0.0000 <Sz>= 0.5000 <S**2>= 0.7604 S= 0.5052
 <L.S>=  0.00000000000    
 KE= 6.502990311704D+02 PE=-3.285888714790D+03 EE= 1.109792192343D+03
 Annihilation of the first spin contaminant:
 S**2 before annihilation     0.7604,   after     0.7500
 Leave Link  502 at Wed Dec 20 01:25:23 2023, MaxMem=  4026531840 cpu:            1479.0 elap:             202.3
 (Enter /sysapps/ubuntu-applications/gaussian/Gaussian/AVX2/g16/l601.exe)
 Copying SCF densities to generalized density rwf, IOpCl= 1 IROHF=0.

 **********************************************************************

            Population analysis using the SCF density.

 **********************************************************************

 Alpha  occ. eigenvalues --  -18.96925 -18.93390 -18.92745 -10.13175 -10.09072
 Alpha  occ. eigenvalues --  -10.07023 -10.06816 -10.06807 -10.06739 -10.06621
 Alpha  occ. eigenvalues --  -10.04733 -10.03454 -10.02567 -10.02368  -0.91175
 Alpha  occ. eigenvalues --   -0.89387  -0.88561  -0.71356  -0.69758  -0.61862
 Alpha  occ. eigenvalues --   -0.58609  -0.58242  -0.57291  -0.51475  -0.48364
 Alpha  occ. eigenvalues --   -0.43662  -0.39016  -0.36760  -0.34642  -0.34532
 Alpha  occ. eigenvalues --   -0.33707  -0.33056  -0.30617  -0.30546  -0.29788
 Alpha  occ. eigenvalues --   -0.28883  -0.27565  -0.27029  -0.26828  -0.26323
 Alpha  occ. eigenvalues --   -0.26045  -0.24718  -0.23838  -0.23067  -0.22013
 Alpha  occ. eigenvalues --   -0.21764  -0.15023  -0.13672  -0.12226  -0.10117
 Alpha  occ. eigenvalues --   -0.07314  -0.03391
 Alpha virt. eigenvalues --    0.07150   0.07232   0.09554   0.09787   0.10281
 Alpha virt. eigenvalues --    0.10781   0.12356   0.12500   0.12745   0.13453
 Alpha virt. eigenvalues --    0.14067   0.14612   0.14869   0.15873   0.16275
 Alpha virt. eigenvalues --    0.17470   0.17956   0.18404   0.18984   0.19327
 Alpha virt. eigenvalues --    0.19346   0.19815   0.20177   0.21041   0.21420
 Alpha virt. eigenvalues --    0.21437   0.21904   0.22332   0.22654   0.22880
 Alpha virt. eigenvalues --    0.23267   0.23359   0.23772   0.24131   0.24295
 Alpha virt. eigenvalues --    0.24533   0.25273   0.25742   0.25909   0.26403
 Alpha virt. eigenvalues --    0.26556   0.26790   0.27866   0.28180   0.28493
 Alpha virt. eigenvalues --    0.28874   0.29600   0.30207   0.30409   0.30960
 Alpha virt. eigenvalues --    0.31591   0.32460   0.32666   0.33096   0.33138
 Alpha virt. eigenvalues --    0.34131   0.34783   0.34989   0.35862   0.36327
 Alpha virt. eigenvalues --    0.36397   0.37257   0.38095   0.38334   0.38789
 Alpha virt. eigenvalues --    0.39383   0.40226   0.40933   0.41813   0.42118
 Alpha virt. eigenvalues --    0.42482   0.42993   0.43451   0.43519   0.43855
 Alpha virt. eigenvalues --    0.44227   0.44719   0.44892   0.45283   0.46199
 Alpha virt. eigenvalues --    0.47213   0.47834   0.48474   0.49653   0.50460
 Alpha virt. eigenvalues --    0.51825   0.52565   0.53330   0.53679   0.55231
 Alpha virt. eigenvalues --    0.56230   0.58107   0.59142   0.59624   0.61005
 Alpha virt. eigenvalues --    0.62129   0.62452   0.63689   0.65924   0.66083
 Alpha virt. eigenvalues --    0.67901   0.69050   0.69865   0.70712   0.71207
 Alpha virt. eigenvalues --    0.72030   0.72323   0.73082   0.73285   0.73533
 Alpha virt. eigenvalues --    0.74640   0.74850   0.76878   0.76989   0.77048
 Alpha virt. eigenvalues --    0.77795   0.78696   0.78884   0.79702   0.80969
 Alpha virt. eigenvalues --    0.82373   0.83404   0.83844   0.84663   0.86126
 Alpha virt. eigenvalues --    0.86881   0.87316   0.88164   0.88611   0.90906
 Alpha virt. eigenvalues --    0.91891   0.92465   0.94093   0.96745   0.97569
 Alpha virt. eigenvalues --    1.00240   1.00971   1.01346   1.03175   1.04144
 Alpha virt. eigenvalues --    1.05058   1.05911   1.07683   1.08579   1.10563
 Alpha virt. eigenvalues --    1.11882   1.14022   1.14353   1.16283   1.17806
 Alpha virt. eigenvalues --    1.19585   1.20150   1.21222   1.23735   1.25248
 Alpha virt. eigenvalues --    1.26023   1.26771   1.28508   1.29716   1.31167
 Alpha virt. eigenvalues --    1.32495   1.32624   1.34073   1.36480   1.37006
 Alpha virt. eigenvalues --    1.38403   1.39815   1.40839   1.42102   1.45000
 Alpha virt. eigenvalues --    1.47243   1.49521   1.51857   1.54000   1.54491
 Alpha virt. eigenvalues --    1.55351   1.56557   1.58671   1.61314   1.61527
 Alpha virt. eigenvalues --    1.62026   1.63161   1.65298   1.68564   1.69498
 Alpha virt. eigenvalues --    1.70013   1.71826   1.72534   1.73404   1.73455
 Alpha virt. eigenvalues --    1.75500   1.75965   1.76642   1.78073   1.78094
 Alpha virt. eigenvalues --    1.79581   1.80278   1.81860   1.85111   1.86676
 Alpha virt. eigenvalues --    1.87101   1.89755   1.91347   1.92269   1.93171
 Alpha virt. eigenvalues --    1.94035   1.95613   1.97800   1.98943   2.00383
 Alpha virt. eigenvalues --    2.02729   2.04917   2.06355   2.06516   2.07971
 Alpha virt. eigenvalues --    2.08049   2.10035   2.11836   2.12586   2.17084
 Alpha virt. eigenvalues --    2.18820   2.18880   2.19773   2.22477   2.22772
 Alpha virt. eigenvalues --    2.23803   2.28564   2.28651   2.30477   2.32425
 Alpha virt. eigenvalues --    2.35872   2.38658   2.39693   2.41014   2.43574
 Alpha virt. eigenvalues --    2.43876   2.48493   2.50745   2.53621   2.55811
 Alpha virt. eigenvalues --    2.57860   2.58997   2.59505   2.60320   2.61019
 Alpha virt. eigenvalues --    2.64429   2.65201   2.68093   2.69127   2.72103
 Alpha virt. eigenvalues --    2.75457   2.76563   2.80135   2.80371   2.83105
 Alpha virt. eigenvalues --    2.83855   2.86745   2.87048   2.88054   2.88340
 Alpha virt. eigenvalues --    2.89126   2.91292   2.92546   2.94817   2.95968
 Alpha virt. eigenvalues --    2.96392   2.98233   3.00590   3.03440   3.03528
 Alpha virt. eigenvalues --    3.05027   3.07564   3.10307   3.11668   3.12085
 Alpha virt. eigenvalues --    3.15437   3.15563   3.17823   3.21578   3.22397
 Alpha virt. eigenvalues --    3.25890   3.26846   3.31997   3.34418   3.38177
 Alpha virt. eigenvalues --    3.39340   3.43048   3.49186   3.54656   3.55729
 Alpha virt. eigenvalues --    3.57379   3.60592   3.64631   3.68925   3.71244
 Alpha virt. eigenvalues --    3.75148   3.83510   3.83593   3.84388   3.84856
 Alpha virt. eigenvalues --    3.85703   3.89506   3.90892   3.91412   3.92289
 Alpha virt. eigenvalues --    3.97103   3.98640   4.19345   4.25510   4.28406
 Alpha virt. eigenvalues --    4.31964   4.36308   4.39758   4.40661   4.55047
 Alpha virt. eigenvalues --    4.91523   5.21954   5.22508   5.24760   5.37999
 Alpha virt. eigenvalues --    5.42871   5.52075   5.87147   5.96951   6.04204
 Alpha virt. eigenvalues --   23.82837  23.90160  23.92898  23.99251  24.01872
 Alpha virt. eigenvalues --   24.02715  24.04145  24.05619  24.31037  24.48500
 Alpha virt. eigenvalues --   24.52777  50.16118  50.24116  50.28037
  Beta  occ. eigenvalues --  -18.96891 -18.92664 -18.92030 -10.13167 -10.09074
  Beta  occ. eigenvalues --  -10.07012 -10.06816 -10.06807 -10.06740 -10.06561
  Beta  occ. eigenvalues --  -10.04695 -10.03311 -10.02278 -10.02234  -0.91024
  Beta  occ. eigenvalues --   -0.88181  -0.87448  -0.71331  -0.69099  -0.61478
  Beta  occ. eigenvalues --   -0.58607  -0.58228  -0.56181  -0.51291  -0.48105
  Beta  occ. eigenvalues --   -0.43411  -0.38862  -0.36622  -0.34517  -0.34447
  Beta  occ. eigenvalues --   -0.33686  -0.32684  -0.30489  -0.30368  -0.29536
  Beta  occ. eigenvalues --   -0.27402  -0.26963  -0.26795  -0.26710  -0.26215
  Beta  occ. eigenvalues --   -0.24989  -0.23691  -0.23059  -0.22757  -0.21648
  Beta  occ. eigenvalues --   -0.21522  -0.13441  -0.12737  -0.09898  -0.09438
  Beta  occ. eigenvalues --   -0.06806
  Beta virt. eigenvalues --    0.03889   0.07151   0.08344   0.09635   0.09790
  Beta virt. eigenvalues --    0.10294   0.10790   0.12359   0.12537   0.12771
  Beta virt. eigenvalues --    0.13462   0.14080   0.14880   0.15469   0.15895
  Beta virt. eigenvalues --    0.16329   0.17777   0.17977   0.18432   0.19019
  Beta virt. eigenvalues --    0.19347   0.19416   0.19858   0.20628   0.21044
  Beta virt. eigenvalues --    0.21428   0.21948   0.21970   0.22650   0.22673
  Beta virt. eigenvalues --    0.22893   0.23362   0.23453   0.24045   0.24180
  Beta virt. eigenvalues --    0.24422   0.24568   0.25336   0.25805   0.25931
  Beta virt. eigenvalues --    0.26457   0.26575   0.26897   0.27895   0.28268
  Beta virt. eigenvalues --    0.28529   0.28894   0.29740   0.30224   0.30594
  Beta virt. eigenvalues --    0.31001   0.31629   0.32457   0.32688   0.33158
  Beta virt. eigenvalues --    0.34161   0.34214   0.34884   0.35038   0.35897
  Beta virt. eigenvalues --    0.36388   0.36446   0.37288   0.38177   0.38430
  Beta virt. eigenvalues --    0.38882   0.39488   0.40281   0.41007   0.41856
  Beta virt. eigenvalues --    0.42183   0.42559   0.43210   0.43556   0.43726
  Beta virt. eigenvalues --    0.44269   0.44325   0.45024   0.45096   0.45347
  Beta virt. eigenvalues --    0.46271   0.47289   0.48131   0.48533   0.49721
  Beta virt. eigenvalues --    0.50552   0.51879   0.52675   0.53344   0.53831
  Beta virt. eigenvalues --    0.55325   0.56287   0.58207   0.59276   0.59857
  Beta virt. eigenvalues --    0.61049   0.62242   0.62482   0.63860   0.66055
  Beta virt. eigenvalues --    0.66184   0.67972   0.69417   0.70315   0.70780
  Beta virt. eigenvalues --    0.71245   0.72227   0.72629   0.73197   0.73453
  Beta virt. eigenvalues --    0.74320   0.74668   0.74951   0.77050   0.77061
  Beta virt. eigenvalues --    0.77100   0.77857   0.78812   0.79189   0.79931
  Beta virt. eigenvalues --    0.81080   0.82489   0.83576   0.83882   0.84875
  Beta virt. eigenvalues --    0.86362   0.86934   0.87352   0.88192   0.88626
  Beta virt. eigenvalues --    0.91095   0.92067   0.92571   0.94146   0.96905
  Beta virt. eigenvalues --    0.97643   1.00465   1.01238   1.01649   1.03242
  Beta virt. eigenvalues --    1.04382   1.05252   1.06037   1.07788   1.08720
  Beta virt. eigenvalues --    1.10644   1.11953   1.14564   1.14595   1.16406
  Beta virt. eigenvalues --    1.18082   1.20191   1.20240   1.21271   1.23795
  Beta virt. eigenvalues --    1.25454   1.26797   1.27001   1.29531   1.31201
  Beta virt. eigenvalues --    1.31606   1.32653   1.32857   1.34273   1.36739
  Beta virt. eigenvalues --    1.37472   1.38617   1.40533   1.41522   1.42216
  Beta virt. eigenvalues --    1.45267   1.47497   1.49796   1.51915   1.54018
  Beta virt. eigenvalues --    1.54572   1.55355   1.56668   1.58766   1.61381
  Beta virt. eigenvalues --    1.61601   1.62113   1.63210   1.65497   1.68633
  Beta virt. eigenvalues --    1.69600   1.70073   1.71853   1.72583   1.73545
  Beta virt. eigenvalues --    1.73678   1.75639   1.76036   1.76773   1.78199
  Beta virt. eigenvalues --    1.78337   1.79828   1.80573   1.82062   1.85262
  Beta virt. eigenvalues --    1.86765   1.87175   1.90027   1.91523   1.92401
  Beta virt. eigenvalues --    1.93175   1.94182   1.95866   1.97978   1.99357
  Beta virt. eigenvalues --    2.00531   2.02964   2.05445   2.06825   2.07145
  Beta virt. eigenvalues --    2.08117   2.08374   2.10129   2.12020   2.12704
  Beta virt. eigenvalues --    2.17229   2.18930   2.18998   2.19809   2.22580
  Beta virt. eigenvalues --    2.23099   2.23907   2.28646   2.29010   2.30830
  Beta virt. eigenvalues --    2.32556   2.36190   2.38946   2.39822   2.41372
  Beta virt. eigenvalues --    2.44000   2.44092   2.48629   2.50748   2.53633
  Beta virt. eigenvalues --    2.55864   2.57880   2.58999   2.59509   2.60324
  Beta virt. eigenvalues --    2.61026   2.64456   2.65261   2.68171   2.69152
  Beta virt. eigenvalues --    2.72200   2.75572   2.76875   2.80434   2.80863
  Beta virt. eigenvalues --    2.83220   2.83984   2.86809   2.87179   2.88101
  Beta virt. eigenvalues --    2.88803   2.89548   2.92023   2.92653   2.94897
  Beta virt. eigenvalues --    2.96559   2.96775   2.98300   3.01475   3.03599
  Beta virt. eigenvalues --    3.03813   3.05586   3.07968   3.10470   3.13122
  Beta virt. eigenvalues --    3.13870   3.16764   3.16839   3.17863   3.22365
  Beta virt. eigenvalues --    3.22654   3.26002   3.26951   3.32009   3.34503
  Beta virt. eigenvalues --    3.38238   3.39559   3.43265   3.49283   3.56148
  Beta virt. eigenvalues --    3.56435   3.59158   3.60817   3.65070   3.69162
  Beta virt. eigenvalues --    3.71464   3.75285   3.83512   3.83806   3.84389
  Beta virt. eigenvalues --    3.84862   3.85976   3.89545   3.90894   3.91492
  Beta virt. eigenvalues --    3.92788   3.97410   3.99082   4.19686   4.25788
  Beta virt. eigenvalues --    4.28615   4.32287   4.36309   4.40047   4.40782
  Beta virt. eigenvalues --    4.55180   4.91987   5.22421   5.25446   5.27499
  Beta virt. eigenvalues --    5.38331   5.43448   5.52396   5.87332   5.97447
  Beta virt. eigenvalues --    6.04704  23.82950  23.90160  23.92964  23.99324
  Beta virt. eigenvalues --   24.02025  24.02716  24.04146  24.05622  24.31159
  Beta virt. eigenvalues --   24.48686  24.52899  50.16164  50.24831  50.28758
          Condensed to atoms (all electrons):
               1          2          3          4          5          6
     1  C   10.507862  -1.875971  -0.721990  -0.169509   0.821023  -3.251204
     2  C   -1.875971   9.260761   0.226658  -0.886179   1.381314  -2.043102
     3  C   -0.721990   0.226658   9.525298   0.932715  -3.480856   0.344286
     4  C   -0.169509  -0.886179   0.932715   8.210760  -1.582880   0.949084
     5  C    0.821023   1.381314  -3.480856  -1.582880  28.959014  -7.582162
     6  C   -3.251204  -2.043102   0.344286   0.949084  -7.582162  18.250254
     7  O    0.175495  -0.062977  -0.011884  -0.009245  -0.059692   0.028350
     8  O    0.000290   0.017589  -0.229040   0.703507  -0.094172  -0.170264
     9  H   -0.039961   0.429503  -0.062619  -0.014976   0.125873  -0.102860
    10  H   -0.030568  -0.017822   0.426761  -0.075636  -0.070760   0.106169
    11  C    0.780118  -0.309035  -0.752101  -0.842075 -12.576290  -0.626301
    12  C    0.806405  -0.182693  -0.220409  -1.023035  -0.653654   0.283963
    13  C   -0.356187  -0.052296   0.114060   0.271468  -0.575916   0.163862
    14  C    0.036555   0.015679  -0.035565  -0.123670   0.010809   0.091564
    15  C    0.031932   0.015299  -0.028819  -0.108023   0.037641   0.056769
    16  O    0.017413  -0.017441  -0.046006  -0.193683   0.175119  -0.042832
    17  H   -0.002051   0.009012   0.000644  -0.005909   0.047313  -0.034705
    18  H   -0.009626  -0.002968   0.000773  -0.000547  -0.109993   0.017700
    19  H   -0.002312   0.010541   0.000465  -0.005572   0.035595  -0.028900
    20  H    0.003313   0.001436  -0.004608  -0.015956   0.046480   0.009955
    21  H    0.002319   0.000213   0.000211   0.001753   0.018734  -0.005721
    22  H   -0.000619  -0.000011   0.000772   0.006460  -0.022326   0.013199
    23  H    0.002838   0.001305  -0.004794  -0.015380   0.050206   0.009701
    24  H   -0.000581  -0.000100   0.001142   0.006985  -0.026179   0.012832
    25  H    0.002502   0.000280   0.000205   0.001604   0.020270  -0.006876
    26  H   -0.134439  -0.223825   0.022714   0.079017  -0.375189   0.925162
               7          8          9         10         11         12
     1  C    0.175495   0.000290  -0.039961  -0.030568   0.780118   0.806405
     2  C   -0.062977   0.017589   0.429503  -0.017822  -0.309035  -0.182693
     3  C   -0.011884  -0.229040  -0.062619   0.426761  -0.752101  -0.220409
     4  C   -0.009245   0.703507  -0.014976  -0.075636  -0.842075  -1.023035
     5  C   -0.059692  -0.094172   0.125873  -0.070760 -12.576290  -0.653654
     6  C    0.028350  -0.170264  -0.102860   0.106169  -0.626301   0.283963
     7  O    8.402461   0.000097  -0.007914   0.001271  -0.010706  -0.005508
     8  O    0.000097   8.321417   0.001282  -0.015088  -0.120520  -0.007306
     9  H   -0.007914   0.001282   0.616876  -0.032747  -0.026030   0.004310
    10  H    0.001271  -0.015088  -0.032747   0.571454  -0.009891  -0.005351
    11  C   -0.010706  -0.120520  -0.026030  -0.009891  22.996332  -3.255619
    12  C   -0.005508  -0.007306   0.004310  -0.005351  -3.255619  10.487539
    13  C    0.004471   0.004407  -0.003481   0.003286   0.788068  -0.785815
    14  C   -0.000118  -0.007253   0.000351  -0.000654  -0.050873   0.139026
    15  C   -0.000125  -0.007666   0.000350  -0.000649  -0.042610   0.120010
    16  O   -0.000015  -0.048987  -0.000336   0.001597   0.478290  -0.079669
    17  H   -0.000270   0.000593   0.000345  -0.000294  -0.042158   0.050307
    18  H    0.000480  -0.000586  -0.000275   0.000158   0.144848  -0.117552
    19  H    0.000065   0.000633   0.000336  -0.000293  -0.034119   0.047849
    20  H    0.000067  -0.000054   0.000111  -0.000111  -0.147332   0.107336
    21  H   -0.000014   0.000181   0.000017  -0.000004   0.048793  -0.110441
    22  H   -0.000013   0.000900  -0.000018  -0.000017   0.065624  -0.130854
    23  H    0.000064  -0.000008   0.000113  -0.000116  -0.148002   0.106031
    24  H   -0.000013   0.000961  -0.000018  -0.000018   0.069457  -0.133177
    25  H   -0.000013   0.000145   0.000018  -0.000004   0.044959  -0.104474
    26  H   -0.029998  -0.005821  -0.017308   0.007253  -0.020915  -0.090428
              13         14         15         16         17         18
     1  C   -0.356187   0.036555   0.031932   0.017413  -0.002051  -0.009626
     2  C   -0.052296   0.015679   0.015299  -0.017441   0.009012  -0.002968
     3  C    0.114060  -0.035565  -0.028819  -0.046006   0.000644   0.000773
     4  C    0.271468  -0.123670  -0.108023  -0.193683  -0.005909  -0.000547
     5  C   -0.575916   0.010809   0.037641   0.175119   0.047313  -0.109993
     6  C    0.163862   0.091564   0.056769  -0.042832  -0.034705   0.017700
     7  O    0.004471  -0.000118  -0.000125  -0.000015  -0.000270   0.000480
     8  O    0.004407  -0.007253  -0.007666  -0.048987   0.000593  -0.000586
     9  H   -0.003481   0.000351   0.000350  -0.000336   0.000345  -0.000275
    10  H    0.003286  -0.000654  -0.000649   0.001597  -0.000294   0.000158
    11  C    0.788068  -0.050873  -0.042610   0.478290  -0.042158   0.144848
    12  C   -0.785815   0.139026   0.120010  -0.079669   0.050307  -0.117552
    13  C    6.448879  -0.305847  -0.292828   0.006562   0.320203   0.448429
    14  C   -0.305847   6.078372  -0.308133  -0.057430   0.016246  -0.022549
    15  C   -0.292828  -0.308133   6.064673  -0.057599   0.013073  -0.029790
    16  O    0.006562  -0.057430  -0.057599   8.008707  -0.001113  -0.003337
    17  H    0.320203   0.016246   0.013073  -0.001113   0.575825  -0.051304
    18  H    0.448429  -0.022549  -0.029790  -0.003337  -0.051304   0.637655
    19  H    0.319455   0.010385   0.018457  -0.001580  -0.008689  -0.052143
    20  H   -0.026079   0.360630   0.013983   0.007588  -0.000133  -0.004167
    21  H   -0.041818   0.406798  -0.001111   0.001035   0.000247  -0.002605
    22  H    0.043640   0.421734  -0.025898  -0.007257  -0.003436   0.003730
    23  H   -0.025373   0.015360   0.357668   0.007363   0.005178  -0.004243
    24  H    0.045529  -0.027569   0.423227  -0.007302  -0.003277   0.003653
    25  H   -0.044476  -0.002468   0.407584   0.001287   0.007272  -0.003049
    26  H    0.097749  -0.009809  -0.008530   0.003380  -0.030375   0.018222
              19         20         21         22         23         24
     1  C   -0.002312   0.003313   0.002319  -0.000619   0.002838  -0.000581
     2  C    0.010541   0.001436   0.000213  -0.000011   0.001305  -0.000100
     3  C    0.000465  -0.004608   0.000211   0.000772  -0.004794   0.001142
     4  C   -0.005572  -0.015956   0.001753   0.006460  -0.015380   0.006985
     5  C    0.035595   0.046480   0.018734  -0.022326   0.050206  -0.026179
     6  C   -0.028900   0.009955  -0.005721   0.013199   0.009701   0.012832
     7  O    0.000065   0.000067  -0.000014  -0.000013   0.000064  -0.000013
     8  O    0.000633  -0.000054   0.000181   0.000900  -0.000008   0.000961
     9  H    0.000336   0.000111   0.000017  -0.000018   0.000113  -0.000018
    10  H   -0.000293  -0.000111  -0.000004  -0.000017  -0.000116  -0.000018
    11  C   -0.034119  -0.147332   0.048793   0.065624  -0.148002   0.069457
    12  C    0.047849   0.107336  -0.110441  -0.130854   0.106031  -0.133177
    13  C    0.319455  -0.026079  -0.041818   0.043640  -0.025373   0.045529
    14  C    0.010385   0.360630   0.406798   0.421734   0.015360  -0.027569
    15  C    0.018457   0.013983  -0.001111  -0.025898   0.357668   0.423227
    16  O   -0.001580   0.007588   0.001035  -0.007257   0.007363  -0.007302
    17  H   -0.008689  -0.000133   0.000247  -0.003436   0.005178  -0.003277
    18  H   -0.052143  -0.004167  -0.002605   0.003730  -0.004243   0.003653
    19  H    0.577994   0.005072   0.006778  -0.003232  -0.000184  -0.003453
    20  H    0.005072   0.563769  -0.039614  -0.015335  -0.003350  -0.001158
    21  H    0.006778  -0.039614   0.631724  -0.047492   0.003563   0.004442
    22  H   -0.003232  -0.015335  -0.047492   0.523828  -0.001154  -0.000159
    23  H   -0.000184  -0.003350   0.003563  -0.001154   0.564187  -0.015251
    24  H   -0.003453  -0.001158   0.004442  -0.000159  -0.015251   0.524409
    25  H    0.000357   0.003535  -0.012317   0.004589  -0.040242  -0.047939
    26  H   -0.030338  -0.001659  -0.000297   0.001473  -0.001473   0.001600
              25         26
     1  C    0.002502  -0.134439
     2  C    0.000280  -0.223825
     3  C    0.000205   0.022714
     4  C    0.001604   0.079017
     5  C    0.020270  -0.375189
     6  C   -0.006876   0.925162
     7  O   -0.000013  -0.029998
     8  O    0.000145  -0.005821
     9  H    0.000018  -0.017308
    10  H   -0.000004   0.007253
    11  C    0.044959  -0.020915
    12  C   -0.104474  -0.090428
    13  C   -0.044476   0.097749
    14  C   -0.002468  -0.009809
    15  C    0.407584  -0.008530
    16  O    0.001287   0.003380
    17  H    0.007272  -0.030375
    18  H   -0.003049   0.018222
    19  H    0.000357  -0.030338
    20  H    0.003535  -0.001659
    21  H   -0.012317  -0.000297
    22  H    0.004589   0.001473
    23  H   -0.040242  -0.001473
    24  H   -0.047939   0.001600
    25  H    0.634310  -0.000592
    26  H   -0.000592   0.706213
          Atomic-Atomic Spin Densities.
               1          2          3          4          5          6
     1  C   -0.066020   0.034592  -0.002476   0.008359  -0.044707   0.166753
     2  C    0.034592   0.150527  -0.159741   0.009316  -0.062651   0.128965
     3  C   -0.002476  -0.159741   0.159144   0.028651   0.127144  -0.011953
     4  C    0.008359   0.009316   0.028651  -0.112514   0.076384  -0.006819
     5  C   -0.044707  -0.062651   0.127144   0.076384  -0.296180   0.139895
     6  C    0.166753   0.128965  -0.011953  -0.006819   0.139895  -0.216013
     7  O   -0.030306  -0.010489   0.008990  -0.000204  -0.007952  -0.054163
     8  O   -0.002800   0.002377  -0.037908  -0.067662  -0.036934   0.013540
     9  H   -0.003375   0.007690  -0.001178  -0.000144   0.001049  -0.004000
    10  H    0.000890   0.001165   0.003488   0.000027  -0.002160  -0.002646
    11  C    0.006065  -0.003420   0.049547   0.043658   0.113069  -0.073906
    12  C   -0.025165   0.002338   0.018328   0.027071   0.006848   0.014564
    13  C    0.007585  -0.000613   0.000505  -0.002785   0.012320  -0.011056
    14  C    0.000342   0.000128  -0.000867   0.002902  -0.007659   0.001504
    15  C   -0.000040   0.000131  -0.001319   0.001996  -0.008530   0.003484
    16  O    0.000969   0.000206  -0.001122   0.005222  -0.013755   0.005909
    17  H   -0.000170   0.000156  -0.000174  -0.000500  -0.002380   0.002036
    18  H    0.000182  -0.000051   0.000192   0.000577   0.002375  -0.001192
    19  H    0.000054   0.000104  -0.000194  -0.000619  -0.002292   0.001942
    20  H    0.000116   0.000024   0.000082   0.000199  -0.000226   0.000294
    21  H   -0.000078  -0.000021   0.000008  -0.000044  -0.000584   0.000274
    22  H    0.000044   0.000039  -0.000169  -0.000180   0.000202  -0.000274
    23  H    0.000088   0.000009   0.000122   0.000190   0.000154   0.000079
    24  H    0.000070   0.000032  -0.000190  -0.000250  -0.000037  -0.000204
[...]
 025682,0.00043860,-0.00046153,-0.00000586,-0.00000765,-0.00000278,-0.0
 0000127,-0.00000614,-0.00001519,0.00094113,-0.00115779,0.00155263,-0.0
 1682229,-0.00578489,0.02649505,-0.11866743,-0.02686711,0.11069079,0.00
 099421,0.00062269,0.00145985,-0.00624599,0.00026487,-0.00311625,-0.000
 27955,0.00008759,-0.00053837,0.00344938,0.00257856,-0.00554848,0.00456
 387,0.00089523,-0.00781575,0.13210244,0.00003182,-0.00008945,0.0001646
 6,-0.00001733,0.00002869,-0.00003957,-0.00010222,-0.00008920,0.0000602
 1,0.00009053,0.00019457,-0.00067711,0.00024271,-0.00007396,0.00010920,
 -0.00013912,-0.00010062,0.00017206,0.00000345,0.00005505,-0.00008855,0
 .00030605,-0.00092833,0.00020575,0.00001125,0.00000001,0.00000127,0.00
 001657,0.00000939,0.00000200,0.00069433,0.00029676,-0.00041676,0.00069
 122,-0.00138573,-0.00075084,-0.02763924,-0.05634017,0.04111244,-0.0001
 4228,-0.00013900,0.00072661,-0.00008648,0.00005540,-0.00000091,-0.0002
 2158,-0.00004312,-0.00014270,0.01285959,0.00649503,-0.01727892,-0.0161
 9842,-0.00560819,0.02424888,0.02971682,0.05666416,0.00004374,0.0000351
 0,0.00000741,-0.00001313,-0.00000165,-0.00002176,-0.00026124,-0.000119
 46,0.00009110,0.00016226,0.00042079,-0.00108975,-0.00025527,0.00036298
 ,0.00003774,-0.00019230,-0.00014416,0.00021987,-0.00004933,-0.00004800
 ,0.00009761,0.00039747,-0.00120662,0.00056466,0.00001605,-0.00002717,0
 .00000364,0.00001563,-0.00000300,-0.00001287,0.00018181,0.00110661,0.0
 0020352,-0.00426994,-0.00272924,0.00569051,0.11260817,0.04109783,-0.22
 100042,-0.00023558,0.00006151,0.00071592,-0.00093394,-0.00010377,0.000
 54797,0.00031475,-0.00051359,0.00035113,0.01154539,0.00695134,-0.01719
 922,0.00456017,0.00159925,-0.00893533,-0.12316821,-0.04676086,0.238722
 57,0.00000699,-0.00004521,-0.00002873,-0.00001947,-0.00001570,0.000038
 64,0.00004006,0.00004888,-0.00003759,-0.00001241,-0.00011807,0.0001995
 7,-0.00025500,0.00012597,0.00001872,0.00005241,0.00004205,0.00010756,0
 .00000476,0.00002142,-0.00006069,0.00002195,0.00021465,-0.00019853,-0.
 00000085,0.00000102,-0.00000599,0.00000189,-0.00000110,-0.00000141,0.0
 0091419,-0.00012507,0.00124698,0.00156767,0.00154262,-0.00525931,0.000
 72565,0.00017543,-0.00076263,-0.11980244,-0.01596360,0.11418648,0.0002
 3938,-0.00018569,-0.00059851,-0.00003251,0.00004319,-0.00138958,0.0001
 4486,0.00011486,0.00006639,-0.00002066,0.00007515,-0.00003600,0.000201
 41,-0.00021975,-0.00004090,0.12636129,0.00000593,-0.00003827,0.0000877
 9,0.00000215,0.00003120,-0.00005791,-0.00001896,-0.00007028,0.00005502
 ,0.00001551,0.00014534,-0.00030272,-0.00004731,0.00015333,-0.00004195,
 -0.00003847,-0.00004724,0.00005453,0.00001263,0.00004483,-0.00003617,-
 0.00010212,-0.00019188,0.00024642,0.00000571,0.00000634,0.00000449,0.0
 0000438,0.00000674,0.00000858,0.00001976,0.00114370,-0.00178059,0.0136
 5488,0.00214271,-0.01989842,0.00109007,0.00076798,0.00036756,-0.016590
 31,-0.05030004,0.02683057,-0.00111959,-0.00394748,-0.00281065,0.000194
 97,0.00013072,0.00074859,0.00023095,-0.00010388,0.00020879,-0.00019453
 ,-0.00006137,0.00012116,-0.00040613,0.00007830,0.00014011,0.01894698,0
 .05335688,-0.00001778,0.00000685,0.00000021,-0.00000057,0.00000081,0.0
 0001336,-0.00002709,-0.00003621,0.00003562,0.00004611,0.00008672,-0.00
 028913,0.00011420,-0.00028276,0.00011025,-0.00011466,-0.00000624,-0.00
 012076,-0.00002876,-0.00003913,0.00009074,-0.00026518,-0.00026038,0.00
 027105,0.00000212,-0.00001005,0.00000718,0.00000166,-0.00000367,-0.000
 00518,-0.00113388,0.00146554,-0.00081347,0.01088684,0.00279423,-0.0164
 5916,0.00117331,0.00102962,0.00066440,0.11362470,0.02542923,-0.2249146
 6,-0.00170631,-0.00488035,-0.00255290,0.00061894,-0.00005184,0.0009621
 1,-0.00014075,-0.00017466,0.00037085,-0.00003149,-0.00000997,-0.000160
 47,-0.00097145,-0.00041601,0.00030800,-0.12603167,-0.02574413,0.246827
 77,0.00000809,0.00000723,0.00006855,-0.00000450,0.00001559,-0.00004357
 ,-0.00001258,-0.00004640,0.00003824,0.00002553,0.00012371,-0.00018275,
 0.00023973,0.00008349,0.00027679,0.00001193,-0.00006818,0.00008758,0.0
 0000649,0.00002037,-0.00004411,-0.00010439,-0.00007996,0.00011346,0.00
 000105,0.00000565,-0.00000088,0.00000744,0.00000628,0.00000404,-0.0018
 0598,-0.00053153,-0.00196744,0.00011410,-0.00638772,0.00134617,0.00038
 672,-0.00098864,0.00039993,-0.06473940,0.05797433,-0.02787725,-0.00017
 400,0.00047197,0.00000845,0.00120453,0.00187235,0.00090080,0.00006987,
 0.00011867,0.00008888,-0.00003862,-0.00017963,-0.00041231,-0.00003356,
 -0.00010324,-0.00000226,0.00456640,-0.01591121,0.00687917,0.06586346,-
 0.00006069,0.00009504,-0.00011533,-0.00000082,-0.00009206,0.00026111,0
 .00007693,0.00024173,-0.00020876,-0.00009698,-0.00036225,0.00074610,0.
 00058802,-0.00092467,0.00121257,-0.00032592,-0.00015891,-0.00047645,-0
 .00007313,-0.00022102,0.00021267,0.00004187,0.00047251,-0.00066393,-0.
 00001472,-0.00002763,-0.00000044,-0.00001448,-0.00004146,-0.00003880,-
 0.00151799,-0.00145526,-0.00418247,0.00725888,-0.02398701,0.01008751,0
 .00139355,0.00029957,0.00134660,0.05743073,-0.23258437,0.09479766,-0.0
 0017591,0.00089295,0.00208112,-0.00025773,-0.00011387,0.00003124,0.000
 02160,0.00044291,-0.00036410,-0.00096925,0.00080496,-0.00060061,-0.000
 00861,0.00003583,-0.00008487,0.00037109,-0.00304927,0.00148383,-0.0637
 0456,0.25718043,-0.00001371,0.00005503,0.00015391,0.00000602,0.0000059
 5,-0.00003623,-0.00001243,-0.00001301,0.00000767,-0.00000302,0.0001114
 2,-0.00008028,0.00059589,-0.00015887,0.00080502,-0.00018304,-0.0002517
 5,-0.00011181,-0.00000683,-0.00001874,-0.00001311,-0.00001414,-0.00005
 135,-0.00004419,0.00000267,0.00000503,0.00000075,0.00000081,-0.0000010
 0,0.00000138,-0.00234990,-0.00300328,-0.00351197,0.00532576,-0.0186172
 8,0.00616879,0.00071404,-0.00018552,0.00048654,-0.02847178,0.09629390,
 -0.09341159,0.00008220,-0.00076737,0.00151257,0.00065792,0.00098137,0.
 00140540,0.00032767,0.00001228,0.00008561,-0.00012932,-0.00001179,0.00
 011810,-0.00012673,0.00009467,-0.00005835,-0.00831539,0.02280799,-0.01
 119934,0.03301363,-0.10307795,0.10181091,-0.00000679,0.00004846,-0.000
 01335,0.00002425,0.00002114,0.00000201,-0.00002817,-0.00000314,0.00000
 290,-0.00001224,0.00016839,-0.00020957,0.00033447,-0.00002229,0.000122
 34,0.00001736,-0.00004022,-0.00005998,0.00000029,-0.00005667,0.0000744
 3,0.00016369,-0.00025975,0.00010121,-0.00000333,-0.00000555,0.00000371
 ,-0.00000632,0.00000459,-0.00000231,-0.00224357,0.00079176,-0.00198091
 ,-0.00634373,-0.00147580,-0.00069988,0.00073330,-0.00191438,-0.0018388
 4,-0.29777572,-0.00909821,-0.06127936,0.00057078,0.00046555,0.00078745
 ,0.00122891,0.00344211,0.00146899,-0.00057256,0.00025235,-0.00005552,0
 .00024515,0.00012651,0.00024943,0.00029344,0.00018651,0.00009295,-0.01
 552656,-0.00020564,-0.00387645,-0.00566743,0.00020477,-0.00091641,0.32
 377158,0.00000122,0.00003702,0.00012519,0.00000865,0.00006422,-0.00014
 999,-0.00004458,-0.00014783,0.00013262,0.00009603,0.00050544,-0.000536
 92,0.00037623,0.00042571,0.00014772,0.00012714,-0.00010867,0.00015320,
 0.00003062,0.00005454,-0.00006853,0.00003538,-0.00039158,0.00040224,0.
 00000597,0.00001099,0.00000097,0.00000533,0.00003177,0.00001984,-0.002
 86948,0.00019880,-0.00114337,-0.02394087,-0.00060753,-0.00489016,0.000
 10223,-0.00443631,-0.00319811,-0.00507117,-0.04444849,-0.00119147,-0.0
 0044731,0.00074426,0.00116824,0.00219259,-0.00101589,0.00107996,-0.001
 72543,0.00035043,-0.00062996,-0.00002126,0.00036728,-0.00020420,0.0002
 8709,0.00003653,0.00009965,-0.00450940,-0.00093393,-0.00089816,0.02717
 151,0.00141474,0.00556753,0.00750463,0.04775958,0.00001156,-0.00001404
 ,-0.00002293,0.00000995,0.00000102,0.00002873,0.00001726,0.00003161,-0
 .00002494,0.00000967,0.00006386,-0.00002340,-0.00017248,-0.00001701,0.
 00017352,-0.00002377,0.00002417,-0.00003593,-0.00001428,-0.00002416,0.
 00003257,0.00016285,-0.00004940,-0.00005443,-0.00000296,-0.00000310,0.
 00000057,-0.00000548,0.00000183,-0.00000209,-0.00059183,0.00062102,-0.
 00010928,-0.01956879,0.00018343,-0.00557388,-0.00022176,-0.00339626,-0
 .00291537,-0.06094469,-0.00191741,-0.06220396,-0.00139581,0.00069349,0
 .00110360,0.00079653,0.00121471,-0.00032757,-0.00150066,-0.00021761,0.
 00022035,0.00041072,-0.00009061,0.00009034,-0.00026862,-0.00017508,0.0
 0021571,0.02717137,0.00052130,0.00715530,-0.01309449,-0.00115644,-0.00
 411932,0.06827713,0.00404011,0.06657660,-0.00007645,-0.00015350,0.0000
 3990,0.00002288,-0.00001640,0.00014561,0.00027429,0.00032663,-0.000416
 32,-0.00000708,-0.00075496,0.00202177,-0.00019433,-0.00042122,0.000103
 89,-0.00005192,0.00010300,-0.00014812,0.00003034,0.00011199,-0.0001961
 7,-0.00108638,0.00041274,-0.00163461,-0.00000592,0.00004600,-0.0000251
 3,0.00001012,-0.00002230,0.00001897,0.00069262,0.00083580,-0.00036651,
 0.00209575,0.01349931,0.01050345,0.00107736,0.00094772,0.00020153,-0.0
 0196906,-0.00076433,0.00310779,-0.05641134,-0.03248510,-0.03141090,-0.
 00019730,-0.00022042,-0.00019314,-0.00061410,-0.00012075,0.00012948,0.
 00000458,-0.00005665,0.00005474,0.00010139,-0.00015198,-0.00021173,0.0
 0049554,0.00070002,0.00112082,-0.00008474,-0.00039002,-0.00015258,0.00
 022211,0.00007429,0.00021917,0.05842029,-0.00012569,-0.00022839,0.0000
 5214,-0.00001180,-0.00001052,0.00014499,0.00015653,0.00044646,-0.00044
 094,-0.00013433,-0.00131188,0.00273606,-0.00013188,-0.00058334,-0.0003
 8745,0.00001642,0.00017008,-0.00009096,0.00008206,0.00020913,-0.000324
 63,-0.00055355,-0.00182630,-0.00214268,0.00001093,0.00005665,-0.000036
 08,0.00001096,-0.00001027,0.00004461,0.00079427,0.00187992,0.00073475,
 0.00193193,0.00483866,0.00386560,0.00011549,-0.00007205,0.00007004,-0.
 00056544,0.00013700,0.00122406,-0.03044736,-0.19812991,-0.13123112,-0.
 00043733,-0.00052170,-0.00025317,-0.00005959,0.00037932,-0.00004800,0.
 00002623,-0.00015076,-0.00010283,-0.00001532,0.00003714,0.00012157,-0.
 00026822,0.00061724,0.00042892,-0.00013217,0.00030157,0.00006633,-0.00
 011651,-0.00013553,-0.00007242,0.03441416,0.21107297,0.00003336,0.0000
 2752,-0.00009532,-0.00001904,0.00000152,0.00001714,0.00007182,-0.00025
 761,0.00020664,0.00047672,0.00088988,-0.00143574,0.00015321,0.00052811
 ,-0.00023523,-0.00002991,0.00008670,-0.00003775,-0.00002118,-0.0000721
 5,0.00015541,-0.00207800,-0.00259388,-0.00004878,-0.00003188,-0.000015
 83,0.00002124,0.00000984,0.00001698,-0.00000630,-0.00001459,-0.0016920
 2,0.00032068,-0.00468017,-0.01926727,-0.01842669,-0.00120460,-0.000071
 67,0.00092510,0.00345949,0.00196364,-0.00429852,-0.02830056,-0.1269158
 2,-0.15756751,-0.00018178,0.00056086,-0.00026683,0.00063121,0.00004951
 ,0.00034394,0.00007453,0.00008081,-0.00001598,-0.00018264,0.00020100,0
 .00006763,-0.00005073,-0.00151006,-0.00113800,0.00013971,-0.00016394,0
 .00025250,0.00002737,0.00021745,0.00024939,0.02942874,0.13998582,0.174
 28963,0.00000006,0.00006769,-0.00002539,0.00001681,0.00000895,-0.00000
 550,-0.00000831,-0.00006315,0.00006804,-0.00000095,0.00020896,-0.00045
 978,0.00022068,0.00001760,0.00013316,0.00002679,-0.00001806,-0.0000653
 6,-0.00000087,-0.00007293,0.00009429,-0.00000911,-0.00064640,0.0002713
 1,-0.00001039,-0.00000916,0.00000897,-0.00001053,0.00001247,-0.0000049
 9,-0.00225167,0.00101219,-0.00203473,-0.01771158,-0.00149165,-0.003754
 17,-0.00069887,-0.00094540,0.00442777,0.00045680,-0.00026584,-0.001341
 70,-0.28877168,-0.01142784,-0.05674416,0.00234711,0.00030893,0.0005351
 9,0.00029469,0.00013849,-0.00003490,0.00034722,0.00006623,-0.00009070,
 -0.00132833,0.00001278,-0.00013394,0.00042321,-0.00006811,0.00002263,-
 0.00006953,-0.00001361,0.00006950,0.00063610,0.00044430,0.00071408,-0.
 00368632,0.00009991,-0.00084528,0.31725178,0.00003190,0.00005055,0.000
 05353,-0.00000701,0.00001140,-0.00006991,-0.00008061,-0.00011824,0.000
 13835,-0.00004822,0.00022111,-0.00064170,0.00017996,0.00024883,0.00013
 682,0.00001283,-0.00010726,0.00008207,0.00000157,-0.00001603,0.0000089
 0,-0.00007471,-0.00108454,0.00050286,0.00000068,-0.00001024,0.00000614
 ,-0.00000158,0.00001209,0.00000137,-0.00219551,-0.00014237,-0.00055059
 ,-0.00486857,-0.00209593,-0.00111356,-0.00012594,-0.00006411,0.0007772
 2,0.00082477,-0.00000360,-0.00007137,-0.01089222,-0.04815666,-0.003288
 83,0.00087886,0.00006905,-0.00002334,0.00027244,0.00003574,0.00008259,
 -0.00035998,0.00029924,-0.00007704,-0.00035653,0.00051509,-0.00002167,
 -0.00012007,-0.00012760,0.00009030,0.00015263,0.00000552,0.00004640,0.
 00005602,0.00027650,-0.00025109,-0.02393906,0.00136982,-0.00371575,0.0
 1279454,0.04705003,-0.00001605,0.00002443,-0.00007101,-0.00000869,-0.0
 0002296,0.00002250,-0.00007332,-0.00003865,0.00006940,-0.00006551,-0.0
 0007063,-0.00024868,-0.00006284,-0.00020411,-0.00014822,0.00000120,0.0
 0003315,-0.00000422,-0.00001388,-0.00004848,0.00008082,-0.00002572,-0.
 00061423,0.00037541,0.00000132,-0.00001961,0.00000709,-0.00000522,-0.0
 0000267,-0.00001320,0.00172057,0.00018418,0.00148449,0.02629908,0.0010
 0260,0.00501519,0.00245614,0.00106393,-0.00474155,0.00067429,0.0003987
 6,0.00156199,-0.06021813,-0.00346723,-0.05984485,-0.00070672,-0.000575
 13,0.00007859,-0.00002636,0.00009058,-0.00008898,-0.00005134,-0.000215
 03,-0.00008032,0.00181650,-0.00001420,0.00037488,-0.00024483,0.0002048
 6,0.00024412,-0.00007087,-0.00007119,-0.00007724,-0.00026293,-0.000274
 06,-0.00033796,-0.01983131,0.00208906,-0.00399749,0.06100210,0.0020591
 7,0.06424747,-0.00014353,-0.00006452,-0.00005907,-0.00000023,-0.000039
 98,0.00010931,0.00005787,0.00010429,-0.00006494,-0.00004074,-0.0002629
 2,0.00027465,0.00039634,-0.00069195,-0.00047048,0.00004930,0.00023546,
 -0.00009783,0.00002519,0.00000947,-0.00000169,-0.00014736,0.00002848,-
 0.00038056,-0.00000317,0.00000141,0.00000205,-0.00000248,-0.00001160,-
 0.00000205,-0.00322393,0.00148897,0.00146172,0.00234514,-0.01578240,0.
 01032953,0.00120703,-0.00094841,0.00022181,0.00018047,-0.00038164,-0.0
 0082088,-0.06505947,0.06022838,-0.03055496,0.00201644,-0.00030306,0.00
 017975,-0.00007954,-0.00011107,-0.00010490,-0.00009166,0.00039736,0.00
 001931,0.00029499,0.00015432,-0.00022250,-0.00007173,-0.00020999,-0.00
 019433,0.00023356,0.00016472,-0.00014448,-0.00004058,0.00018989,-0.000
 00677,0.00092865,-0.00462675,0.00313932,-0.00745648,0.02787825,-0.0123
 0343,0.06859772,-0.00005471,0.00000531,-0.00023188,-0.00000017,-0.0000
 4881,0.00019182,0.00012774,-0.00003377,0.00005531,0.00009913,0.0001104
 5,-0.00058403,0.00009396,-0.00043819,0.00011654,-0.00009664,0.00009372
 ,-0.00024153,-0.00004466,-0.00016981,0.00026973,-0.00123174,-0.0009113
 7,-0.00002453,-0.00003445,-0.00002777,0.00002232,-0.00000072,-0.000014
 61,-0.00002995,-0.00152902,0.00240628,0.00022825,0.00147146,-0.0065790
 1,0.00305285,0.00052040,0.00016938,-0.00037942,0.00023554,0.00046567,-
 0.00102194,0.06069510,-0.23415260,0.08913073,0.00039934,-0.00018705,0.
 00009312,0.00000385,-0.00025771,0.00004140,-0.00071725,0.00043138,-0.0
 0000086,-0.00020496,0.00029597,-0.00022468,-0.00019142,0.00029158,0.00
 002266,0.00010459,0.00079082,0.00014006,-0.00006861,-0.00001714,-0.000
 01901,0.00799970,-0.01858092,0.01168164,-0.00016930,0.00176800,-0.0015
 1233,-0.06743125,0.25457654,0.00026025,0.00010004,0.00023268,-0.000020
 92,0.00008205,-0.00033417,-0.00003703,-0.00041805,0.00028271,0.0001604
 7,0.00078912,-0.00128891,-0.00039910,0.00152607,0.00018675,0.00001943,
 -0.00028078,0.00037383,0.00000334,0.00008734,-0.00014235,-0.00087150,-
 0.00107304,0.00079616,-0.00001173,0.00001993,0.00000414,0.00001606,0.0
 0004293,0.00002540,0.00429162,-0.00322853,-0.00313538,-0.00609734,0.02
 545641,-0.01645290,-0.00152146,-0.00012613,0.00102274,-0.00084279,0.00
 153558,0.00123791,-0.02992410,0.08804004,-0.08638949,-0.00126455,0.000
 90789,-0.00016233,0.00007972,-0.00003172,0.00009796,0.00069880,-0.0004
 6705,0.00037762,-0.00020970,-0.00033944,0.00009752,0.00005922,-0.00026
 637,0.00054758,0.00032714,-0.00103112,-0.00018492,-0.00003091,-0.00000
 325,-0.00010621,0.00754000,-0.01637604,0.01068351,-0.00183558,0.005819
 04,-0.00389852,0.02968905,-0.10077955,0.09609743,-0.00040566,-0.004878
 15,-0.01428368,0.00127266,-0.00393729,0.00004502,-0.00070768,0.0003175
 5,0.00078001,0.00604047,-0.00362676,-0.00002654,0.00698685,0.00219873,
 0.00296445,-0.07802040,-0.04604598,-0.09200268,-0.00118518,0.00293696,
 0.00129125,-0.00072549,0.00033327,0.00017433,-0.00037252,-0.00029313,-
 0.00066011,-0.00021253,0.00013389,-0.00002502,-0.00465942,0.00137008,0
 .00047996,0.00044471,0.00029142,-0.00006108,0.00018715,0.00006401,-0.0
 0007122,-0.00001648,0.00009577,-0.00019837,-0.00012556,0.00015870,0.00
 004938,-0.00028238,-0.00138682,0.00020478,-0.00004417,0.00001225,0.000
 00208,-0.00007549,-0.00000186,0.00000578,-0.00007311,0.00000369,0.0000
 5189,-0.00002604,0.00002844,0.00004988,-0.00000415,0.00007229,0.000043
 63,-0.00001441,-0.00002359,0.00001210,0.00000901,-0.00003294,-0.000004
 95,-0.00000666,-0.00001445,0.00001596,0.00002821,0.00002412,-0.0000783
 7,0.07198828,-0.01038761,-0.00467677,-0.02492951,-0.00406635,-0.003849
 61,0.00087833,0.00027249,-0.00072076,0.00087711,-0.00379816,-0.0001124
 8,0.00285372,0.00422938,0.00825628,0.01342984,-0.04479861,-0.08708266,
 -0.08453037,0.00324511,0.00234651,0.00068782,0.00070302,0.00019869,0.0
 0128071,-0.00044192,-0.00068143,-0.00134245,0.00012298,-0.00002556,-0.
 00008108,0.00309406,-0.00078526,0.00168199,-0.00032911,0.00021590,0.00
 038476,-0.00005984,0.00004527,-0.00000918,-0.00007206,0.00002850,0.000
 00076,0.00000741,-0.00011624,0.00003751,0.00003097,-0.00034185,-0.0002
 0194,-0.00000963,0.00001055,-0.00001078,-0.00001700,0.00000896,-0.0000
 2016,0.00002792,-0.00000015,-0.00000800,0.00003999,-0.00004564,-0.0000
 2514,0.00000490,0.00003918,-0.00003006,-0.00000601,-0.00003491,0.00000
 712,0.00002533,0.00004559,-0.00001546,-0.00000159,-0.00000638,-0.00000
 024,-0.00001547,0.00001366,0.00001464,0.05219981,0.08727060,0.00095341
 ,0.00308033,0.00106438,-0.00047438,0.00031159,0.00072204,0.00029895,-0
 .00008791,0.00035841,0.00054626,0.00502489,0.00049936,-0.01009033,-0.0
 0933979,-0.01961948,-0.09171489,-0.08385606,-0.25733865,0.00046977,-0.
 00083688,0.00167991,-0.00031644,-0.00053660,-0.00226496,-0.00000163,-0
 .00003413,0.00008764,0.00000594,-0.00008302,-0.00011131,-0.00271000,-0
 .00201381,-0.00224693,0.00012096,0.00001167,0.00007585,0.00000978,-0.0
 0004181,-0.00005495,0.00004000,-0.00000621,-0.00005113,0.00004963,-0.0
 0003688,-0.00001745,0.00153623,-0.00061724,0.00300411,0.00006413,-0.00
 005312,0.00003198,0.00002581,0.00002631,0.00002087,-0.00002424,0.00000
 220,0.00000029,-0.00003246,0.00004121,0.00004450,0.00000339,-0.0000240
 2,0.00003918,0.00001650,0.00003348,0.00001059,-0.00004936,-0.00005764,
 0.00003731,0.00002913,0.00002009,-0.00000972,0.00000234,0.00000327,0.0
 0003121,0.10124152,0.08907006,0.27400694\\0.00001093,-0.00000492,0.000
 00036,-0.00000431,0.00000832,-0.00000764,-0.00000334,0.00000072,0.0000
 0533,0.00000373,-0.00001897,0.00002854,-0.00000269,-0.00001198,-0.0000
 0630,-0.00000226,0.00000959,0.00000722,-0.00000508,0.00000071,0.000000
 39,-0.00000360,0.00001504,-0.00002034,0.00000097,-0.00000048,0.0000003
 7,0.00000096,-0.00000168,-0.00000120,0.00000825,0.00000611,-0.00001090
 ,-0.00002858,-0.00001337,0.00002299,-0.00000190,0.00000410,0.00000134,
 0.00001925,0.00000270,-0.00000121,0.00001811,0.00000281,-0.00001502,-0
 .00000618,0.00001603,-0.00000428,0.00000498,-0.00000093,0.00000290,0.0
 0000583,-0.00000211,0.00000260,0.00000061,0.00000092,-0.00000305,-0.00
 000458,-0.00000053,0.00000393,-0.00000263,-0.00000114,0.00000180,-0.00
 000269,-0.00000794,-0.00000277,-0.00000571,-0.00000107,-0.00000103,-0.
 00000290,0.00000012,0.00000259,0.00000089,-0.00000096,-0.00000298,0.00
 000196,-0.00000107,-0.00000362\\\@


 A COMPLEXITY IS MERELY A DISARRANGEMENT OF SIMPLICITIES.

                                    -- G. O. ABELL IN "EXPLORATION OF THE UNIVERSE"
 Job cpu time:       0 days  2 hours 13 minutes 18.0 seconds.
 Elapsed time:       0 days  0 hours 16 minutes 44.3 seconds.
 File lengths (MBytes):  RWF=    739 Int=      0 D2E=      0 Chk=     20 Scr=      1
 Normal termination of Gaussian 16 at Wed Dec 20 03:05:06 2023.
